Membrane in water
40167
    1TCq1    O1    1   2.660   0.576  12.248  0.2314  0.5856  0.3278
    1TCq1    C1    2   2.791   0.584  12.214 -0.0217  0.1063  1.1691
    1TCq1    O2    3   2.872   0.666  12.259 -0.3917 -0.1789 -0.3309
    1TCq1    C2    4   2.839   0.471  12.140 -0.1973  0.4543  0.0668
    1TCq1    C3    5   2.755   0.395  12.058  0.1539 -0.1959 -0.5308
    1TCq1    C4    6   2.802   0.306  11.970 -0.5198 -0.4021  0.2800
    1TCq1    C5    7   2.938   0.316  11.937 -0.0832 -0.1957  0.1771
    1TCq1    C6    8   3.019   0.395  12.019 -0.0911 -0.1003 -0.6207
    1TCq1    C7    9   2.978   0.460  12.130 -0.2169 -0.6800  0.1615
    1TCq1    C8   10   3.165   0.401  12.011 -0.4199 -0.6437  0.2120
    1TCq1    O4   11   3.230   0.477  12.084  0.8612  0.2989 -0.0567
    1TCq1    C9   12   2.710   0.229  11.888 -0.4208  0.0357 -0.1189
    1TCq1    O5   13   2.777   0.165  11.797 -0.3005 -0.0986  0.5575
    1TCq1    O6   14   2.595   0.209  11.932  0.1213  0.5429  0.9632
    1TCq1    H1   15   2.621   0.492  12.217  0.8108 -0.0153  1.2062
    1TCq1    H2   16   2.648   0.403  12.063  0.3122  0.8753  0.7993
    1TCq1    H3   17   2.975   0.248  11.860  0.8943 -0.7734  1.1712
    1TCq1    H4   18   3.052   0.511  12.190  1.2619 -4.5878  1.6396
    2MPD2     C   19   3.595   0.325  11.736  0.2100 -0.4064  0.0457
    2MPD2    C1   20   3.575   0.395  11.854  0.7069  0.4206  0.7580
    2MPD2    C2   21   3.447   0.395  11.917 -0.4990 -0.6735 -0.2216
    2MPD2    C3   22   3.341   0.324  11.859 -0.3625  1.0705  0.1250
    2MPD2    C4   23   3.369   0.255  11.749  0.5834 -0.0643 -0.6951
    2MPD2    C5   24   3.496   0.247  11.690  0.2671  0.4887 -0.2007
    2MPD2     H   25   3.439   0.443  12.013  0.9137 -4.5793  1.8394
    2MPD2    H1   26   3.290   0.201  11.699  0.5931 -0.0868 -0.6862
    2MPD2    H2   27   3.691   0.329  11.687  0.5454 -1.2284  0.6336
    2MPD2    H3   28   3.522   0.185  11.606 -1.6300  0.1207 -0.5320
    2MPD2     N   29   3.206   0.326  11.905  0.0680  0.3219 -0.4812
    2MPD2    H5   30   3.139   0.270  11.853 -0.1850 -1.2868  1.5904
    2MPD2    N1   31   3.667   0.487  11.910  0.1559  0.7332  0.7405
    2MPD2    H7   32   3.638   0.511  12.004 -0.6955 -0.5140  0.8056
    3TCq1    O1   33   3.234   1.497  10.912 -0.0569 -0.8468 -0.1486
    3TCq1    C1   34   3.177   1.509  11.034 -0.2155 -0.1914 -0.0207
    3TCq1    O2   35   3.205   1.444  11.133 -0.3484  0.0029 -0.2426
    3TCq1    C2   36   3.113   1.632  11.037  0.5940 -0.2422 -0.8446
    3TCq1    C3   37   3.188   1.744  11.009 -0.3102 -0.1078  0.1918
    3TCq1    C4   38   3.148   1.869  11.053 -0.4562 -0.2981 -0.4950
    3TCq1    C5   39   3.047   1.873  11.142 -0.2207  0.0999 -0.5996
    3TCq1    C6   40   2.974   1.760  11.167 -0.1184  0.3668 -0.1577
    3TCq1    C7   41   3.003   1.639  11.117  0.2721 -0.0036  0.2755
    3TCq1    C8   42   2.892   1.756  11.290 -0.3955 -0.3802 -0.6589
    3TCq1    O4   43   2.829   1.651  11.303 -0.9283 -0.0403 -0.7244
    3TCq1    C9   44   3.214   1.990  11.007 -0.4463 -0.0215  0.2790
    3TCq1    O5   45   3.222   2.088  11.091 -0.2666  0.1479  0.4001
    3TCq1    O6   46   3.263   1.986  10.893  0.1084  0.0332 -0.3149
    3TCq1    H1   47   3.184   1.546  10.844  1.6206  0.0209 -0.7499
    3TCq1    H2   48   3.286   1.739  10.962  0.6709  1.2957  2.1081
    3TCq1    H3   49   3.016   1.970  11.179  1.4496  1.1528 -1.9939
    3TCq1    H4   50   2.944   1.550  11.134  0.8774 -1.6501 -6.0203
    4MPD2     C   51   2.774   1.924  11.760 -0.0680  0.0238 -0.4068
    4MPD2    C1   52   2.829   2.032  11.692 -0.4031  0.2482 -0.1104
    4MPD2    C2   53   2.870   2.009  11.562 -1.0548  0.2103  0.3279
    4MPD2    C3   54   2.860   1.887  11.501 -0.3851 -0.0743  0.7368
    4MPD2    C4   55   2.815   1.780  11.576 -0.7934 -0.1653  0.1612
    4MPD2    C5   56   2.780   1.795  11.706 -0.4395 -0.9428  0.8373
    4MPD2     H   57   2.909   2.092  11.504 -4.1485  1.1879 -0.3362
    4MPD2    H1   58   2.815   1.680  11.533  0.0978 -0.6601  1.3142
    4MPD2    H2   59   2.729   1.936  11.858 -2.4277  0.1505 -1.5027
    4MPD2    H3   60   2.756   1.705  11.760 -1.3475 -2.2766 -1.7745
    4MPD2     N   61   2.906   1.869  11.369 -0.2153 -0.0631  0.3048
    4MPD2    H5   62   2.978   1.935  11.339 -0.6278  0.9631  1.5686
    4MPD2    N1   63   2.834   2.165  11.744  0.2249 -0.3416 -0.1212
    4MPD2    H7   64   2.862   2.240  11.681  2.0630  0.9314  2.2538
    5TCq1    O1   65   3.810   3.711  11.939 -0.1290  0.1386  0.1610
    5TCq1    C1   66   3.765   3.834  11.907 -0.2247  0.0149 -0.1295
    5TCq1    O2   67   3.776   3.938  11.968  0.4213 -0.1759  0.4999
    5TCq1    C2   68   3.640   3.784  11.841 -0.0015  0.2364  0.9265
    5TCq1    C3   69   3.536   3.840  11.903  0.1171  0.0291 -0.1323
    5TCq1    C4   70   3.413   3.787  11.894  0.5995  1.1314 -0.1476
    5TCq1    C5   71   3.391   3.681  11.809  0.2959 -0.4322 -0.6093
    5TCq1    C6   72   3.495   3.624  11.746 -0.4081  0.7066 -0.0056
    5TCq1    C7   73   3.627   3.671  11.767  0.0737  0.0310  0.2371
    5TCq1    C8   74   3.466   3.527  11.640 -0.4163 -0.4356  0.7172
    5TCq1    O4   75   3.559   3.506  11.565 -0.0331  0.0000 -0.0281
    5TCq1    C9   76   3.301   3.847  11.966 -0.9218  0.9748 -0.1529
    5TCq1    O5   77   3.324   3.941  12.050 -0.6966 -0.3821 -0.3633
    5TCq1    O6   78   3.184   3.813  11.922 -0.6368 -0.3181 -0.2694
    5TCq1    H1   79   3.770   3.628  11.904  0.5617  0.2805 -0.9561
    5TCq1    H2   80   3.541   3.932  11.961  0.0809  0.3929 -0.7117
    5TCq1    H3   81   3.293   3.635  11.806 -0.1158  0.1591  4.5439
    5TCq1    H4   82   3.707   3.637  11.703 -0.5533  0.8206 -0.9617
    6MPD2     C   83   3.130   3.430  11.526  0.1515 -0.1096 -0.0493
    6MPD2    C1   84   3.267   3.428  11.520 -0.9337  0.1155  0.3552
    6MPD2    C2   85   3.333   3.354  11.427 -0.1224  0.2918 -0.2771
    6MPD2    C3   86   3.258   3.295  11.326  0.3051  0.3296  0.1122
    6MPD2    C4   87   3.124   3.309  11.325 -1.1293 -0.1245 -0.0362
    6MPD2    C5   88   3.058   3.373  11.425 -0.7319 -0.5918  0.1133
    6MPD2     H   89   3.439   3.340  11.449  0.1121  0.8822 -1.0158
    6MPD2    H1   90   3.062   3.274  11.243 -2.5180  0.7463  0.6589
    6MPD2    H2   91   3.078   3.486  11.603 -1.1728 -0.0121 -1.0099
    6MPD2    H3   92   2.950   3.379  11.421 -0.6950  0.6001  0.9201
    6MPD2     N   93   3.329   3.220  11.234  1.2928 -0.3517  0.0051
    6MPD2    H5   94   3.429   3.219  11.253  0.8507 -1.2244  2.2731
    6MPD2    N1   95   3.332   3.504  11.621 -0.0092 -0.4005  0.6635
    6MPD2    H7   96   3.278   3.551  11.693  0.8212 -1.3230  1.8649
    7TCq1    O1   97   0.616   3.447  13.352 -0.2850 -0.3801  0.6223
    7TCq1    C1   98   0.697   3.554  13.350 -0.0947 -0.7969  1.1003
    7TCq1    O2   99   0.752   3.593  13.249 -0.3553 -0.3983 -0.3104
    7TCq1    C2  100   0.765   3.557  13.474 -0.4499 -0.1437 -0.3706
    7TCq1    C3  101   0.707   3.497  13.589 -0.1319 -0.0331  0.2129
    7TCq1    C4  102   0.792   3.471  13.695  0.3349 -0.2737 -0.7990
    7TCq1    C5  103   0.923   3.504  13.679  0.2033 -0.2647  0.4026
    7TCq1    C6  104   0.966   3.586  13.578  0.0619 -0.1257 -0.1007
    7TCq1    C7  105   0.892   3.599  13.466  0.4076  0.1006 -0.6873
    7TCq1    C8  106   1.109   3.572  13.555  0.8825  0.2518 -0.3038
    7TCq1    O4  107   1.169   3.651  13.481  0.3057  0.5857 -0.4430
    7TCq1    C9  108   0.749   3.420  13.815  0.2355  0.6403 -0.3300
    7TCq1    O5  109   0.831   3.423  13.909 -0.1983  0.5176 -0.0113
    7TCq1    O6  110   0.643   3.353  13.814  0.1347  0.0882 -0.3891
    7TCq1    H1  111   0.588   3.407  13.437 -2.0811  1.7077  1.0219
    7TCq1    H2  112   0.601   3.472  13.592 -0.1083 -0.3054 -1.4790
    7TCq1    H3  113   0.977   3.472  13.768  1.4159 -0.0147 -0.2407
    7TCq1    H4  114   0.939   3.645  13.379 -0.6184  0.2675 -1.1543
    8MPD2     C  115   1.522   3.274  13.573 -0.8223  0.2832  0.7279
    8MPD2    C1  116   1.410   3.189  13.570  0.2881 -0.1419 -0.3541
    8MPD2    C2  117   1.286   3.248  13.582 -0.6833  0.1121 -0.3352
    8MPD2    C3  118   1.271   3.385  13.573  0.3209 -0.1276  0.2028
    8MPD2    C4  119   1.385   3.461  13.555  0.6679  0.0914 -0.2808
    8MPD2    C5  120   1.509   3.411  13.566  0.5394  0.2215 -0.2230
    8MPD2     H  121   1.196   3.188  13.591  1.1807 -2.1766  2.9836
    8MPD2    H1  122   1.388   3.570  13.553 -0.5596  0.0995 -1.0032
    8MPD2    H2  123   1.623   3.236  13.581 -0.1923  2.1461  1.5934
    8MPD2    H3  124   1.595   3.477  13.568  1.7156 -1.3018  0.3075
    8MPD2     N  125   1.143   3.439  13.579 -0.3019  0.0836 -0.0193
    8MPD2    H5  126   1.072   3.384  13.626 -0.6415  0.5759  0.0547
    8MPD2    N1  127   1.429   3.045  13.567  0.3016 -0.1128  0.5807
    8MPD2    H7  128   1.525   3.015  13.584 -0.2623 -2.0757  0.3153
    9TCq1    O1  129   4.436   1.920  11.106 -0.2640  0.3188 -0.1117
    9TCq1    C1  130   4.376   2.030  11.145 -0.1867  0.7075 -0.2131
    9TCq1    O2  131   4.437   2.137  11.145  0.4910  0.3119 -0.0012
    9TCq1    C2  132   4.239   2.012  11.173  0.6910 -0.5438  0.1394
    9TCq1    C3  133   4.165   2.128  11.155 -0.0100 -0.2397 -1.0282
    9TCq1    C4  134   4.036   2.123  11.189  0.1691  0.3341  0.0561
    9TCq1    C5  135   3.975   2.010  11.238  0.0654 -1.0382 -0.5691
    9TCq1    C6  136   4.048   1.897  11.255 -0.5384  0.7985  0.2892
    9TCq1    C7  137   4.185   1.897  11.223  0.3944 -0.2221  0.3132
    9TCq1    C8  138   3.989   1.769  11.276 -0.3071 -0.1925 -0.5456
    9TCq1    O4  139   4.058   1.674  11.246  0.3769 -0.0428  0.3141
    9TCq1    C9  140   3.958   2.241  11.184  0.0658 -0.0259 -0.0758
    9TCq1    O5  141   3.845   2.245  11.229  0.0332  0.9172 -0.1584
    9TCq1    O6  142   3.995   2.331  11.099 -0.0057  0.3205  0.4586
    9TCq1    H1  143   4.380   1.842  11.087 -0.0628 -0.3529  2.0748
    9TCq1    H2  144   4.214   2.222  11.133 -0.5058 -0.1039 -1.5613
    9TCq1    H3  145   3.869   2.016  11.259  0.3683  1.8369  0.1804
    9TCq1    H4  146   4.246   1.817  11.264  0.4421  0.6855  2.0072
   10MPD2     C  147   3.782   1.559  11.315  0.3895  0.2719  0.2594
   10MPD2    C1  148   3.788   1.675  11.388 -0.5462  0.2767 -0.0694
   10MPD2    C2  149   3.694   1.687  11.491  0.4173 -0.0085 -0.3147
   10MPD2    C3  150   3.618   1.578  11.529 -0.5095  0.0322  0.2366
   10MPD2    C4  151   3.625   1.458  11.464 -0.1801  0.6217  0.6740
   10MPD2    C5  152   3.705   1.454  11.354  0.0263 -1.2321 -0.2663
   10MPD2     H  153   3.699   1.782  11.543  0.1628 -0.7984  1.1392
   10MPD2    H1  154   3.559   1.374  11.486 -0.0148 -0.1410 -1.7719
   10MPD2    H2  155   3.839   1.548  11.223  3.2277  1.8056  1.8346
   10MPD2    H3  156   3.712   1.361  11.298  0.2230 -0.9281 -0.7532
   10MPD2     N  157   3.533   1.576  11.641  0.0796  0.4346  0.5948
   10MPD2    H5  158   3.473   1.495  11.653 -0.7714  0.9173 -0.3598
   10MPD2    N1  159   3.873   1.780  11.349 -0.0448 -0.2124  0.3656
   10MPD2    H7  160   3.853   1.870  11.392 -0.9579 -1.0761  1.7686
   11TCq1    O1  161   4.615   2.134  14.923  0.2066  0.4370  0.9103
   11TCq1    C1  162   4.489   2.084  14.948 -0.2803 -0.3168  0.0534
   11TCq1    O2  163   4.467   1.996  15.028 -0.1280 -0.0176  0.6940
   11TCq1    C2  164   4.419   2.081  14.819 -0.6827 -0.4912  0.4162
   11TCq1    C3  165   4.487   2.092  14.703  0.6783  0.0587  0.0401
   11TCq1    C4  166   4.438   2.069  14.585 -0.0425  0.7369  0.0508
   11TCq1    C5  167   4.307   2.027  14.581 -0.1448  0.2639  0.3046
   11TCq1    C6  168   4.235   2.007  14.691  0.1665  0.1496  0.2162
   11TCq1    C7  169   4.286   2.038  14.816  0.6906 -0.3112 -0.6491
   11TCq1    C8  170   4.108   1.934  14.689 -0.5892  0.0129 -1.0416
   11TCq1    O4  171   4.054   1.935  14.796 -0.0579  0.3286  0.2205
   11TCq1    C9  172   4.504   2.077  14.459  0.2102 -0.6744 -0.8458
   11TCq1    O5  173   4.445   2.031  14.355 -0.1210 -0.5517 -0.8761
   11TCq1    O6  174   4.618   2.127  14.457 -0.4201 -0.5116  0.3280
   11TCq1    H1  175   4.606   2.218  14.873  1.1271  0.1349  0.2469
   11TCq1    H2  176   4.595   2.100  14.704  0.5321  2.2248  0.0096
   11TCq1    H3  177   4.270   2.001  14.483 -0.8740 -1.3964  1.0055
   11TCq1    H4  178   4.236   2.032  14.912  1.3011 -0.9266 -0.3789
   12MPD2     C  179   3.882   1.750  14.632 -0.6339 -0.0211 -0.0807
   12MPD2    C1  180   4.001   1.752  14.560 -0.6038  0.6706  0.4736
   12MPD2    C2  181   4.036   1.658  14.465 -0.2169  0.6562 -0.1099
   12MPD2    C3  182   3.947   1.555  14.430 -0.6062 -0.4077 -0.4256
   12MPD2    C4  183   3.828   1.557  14.502 -0.2110  0.2088  0.0295
   12MPD2    C5  184   3.792   1.654  14.600 -0.0142  0.3049 -0.3291
   12MPD2     H  185   4.134   1.671  14.420  0.8148 -0.9955  1.6574
   12MPD2    H1  186   3.751   1.482  14.489  0.1371  0.1195 -1.4270
   12MPD2    H2  187   3.851   1.828  14.700 -1.5888  0.5497 -1.1923
   12MPD2    H3  188   3.691   1.660  14.638  0.1189  0.5219 -0.0137
   12MPD2     N  189   3.976   1.458  14.331 -0.4152  0.7390  0.0691
   12MPD2    H5  190   4.074   1.450  14.305  0.0402  3.2543  0.9947
   12MPD2    N1  191   4.101   1.845  14.580 -0.0393 -0.0548  0.6044
   12MPD2    H7  192   4.190   1.845  14.530 -1.2344  0.4568 -1.5072
   13TCq1    O1  193   2.955   4.669  10.950 -0.0717  0.0042  0.1318
   13TCq1    C1  194   2.875   0.060  10.923  0.8276 -0.0676 -0.0335
   13TCq1    O2  195   2.840   0.104  10.815 -0.0197 -0.1007 -0.1684
   13TCq1    C2  196   2.875   0.128  11.044  0.7957  0.1256  0.0212
   13TCq1    C3  197   2.859   0.046  11.155  0.3625 -0.9875 -0.4331
   13TCq1    C4  198   2.853   0.115  11.266 -0.1261  0.4017  0.0606
   13TCq1    C5  199   2.865   0.249  11.269 -0.1211 -0.1449  0.1554
   13TCq1    C6  200   2.885   0.318  11.160 -0.0995 -0.8948  0.0731
   13TCq1    C7  201   2.883   0.262  11.036 -0.1928  0.3871  0.3207
   13TCq1    C8  202   2.919   0.460  11.178  0.1718  0.2927 -0.3921
   13TCq1    O4  203   2.965   0.488  11.287  0.5802 -0.5417 -0.3646
   13TCq1    C9  204   2.812   0.048  11.384  0.0136  0.8801 -0.4179
   13TCq1    O5  205   2.820   0.108  11.497 -0.4565 -0.1064  0.3674
   13TCq1    O6  206   2.769   4.654  11.374  0.4507  0.1512  0.6741
   13TCq1    H1  207   2.993   4.678  11.040 -3.0984 -2.7185  1.6824
   13TCq1    H2  208   2.832   4.660  11.146 -1.6413 -0.7562  2.8371
   13TCq1    H3  209   2.852   0.295  11.367  0.2749  0.6062 -0.1409
   13TCq1    H4  210   2.903   0.323  10.949 -0.3592  0.8146  0.5846
   14MPD2     C  211   2.854   0.730  10.941 -0.6909  0.0477 -0.1765
   14MPD2    C1  212   2.899   0.673  11.054  0.1269 -0.1875 -0.3595
   14MPD2    C2  213   2.959   0.747  11.151 -0.7958 -0.1291  0.4565
   14MPD2    C3  214   2.977   0.889  11.131  0.1245  0.0144  0.0422
   14MPD2    C4  215   2.922   0.945  11.016 -0.5866  0.4050 -0.3860
   14MPD2    C5  216   2.865   0.864  10.919  0.3979  0.6773  0.0347
   14MPD2     H  217   2.999   0.704  11.242  1.1814  0.4602 -0.1181
   14MPD2    H1  218   2.927   1.051  10.996 -2.9635  0.6083  0.1259
   14MPD2    H2  219   2.805   0.677  10.860  0.3804 -0.8628 -0.2173
   14MPD2    H3  220   2.830   0.908  10.827 -2.5495 -3.5362 -0.8536
   14MPD2     N  221   3.024   0.971  11.235 -0.0370  0.4248  0.0223
   14MPD2    H5  222   3.071   0.931  11.316 -2.6077 -0.7528  0.9342
   14MPD2    N1  223   2.886   0.534  11.068  0.2491  0.6691 -0.1046
   14MPD2    H7  224   2.833   0.489  10.994 -0.2613  1.9147 -0.4898
   15TCq1    O1  225   0.446   1.185   2.650 -0.1887  0.0266  0.1049
   15TCq1    C1  226   0.549   1.242   2.578 -0.1135 -0.2195  0.9431
   15TCq1    O2  227   0.666   1.235   2.611  0.6815 -0.4056 -0.0292
   15TCq1    C2  228   0.508   1.227   2.438 -0.1784 -0.3595  0.8337
   15TCq1    C3  229   0.381   1.258   2.391 -0.0395  0.9025  0.3109
   15TCq1    C4  230   0.357   1.262   2.254  0.4897  0.2777  0.4130
   15TCq1    C5  231   0.449   1.214   2.169  0.2708  0.0341  0.4027
   15TCq1    C6  232   0.578   1.200   2.219  0.2023 -0.3020 -0.7599
   15TCq1    C7  233   0.608   1.196   2.350  0.3253  0.1637  0.9093
   15TCq1    C8  234   0.684   1.156   2.136  0.0825 -1.1620  0.6551
   15TCq1    O4  235   0.776   1.092   2.185 -0.0920  0.4483  0.4067
   15TCq1    C9  236   0.249   1.339   2.207  0.4897  0.6844  0.2323
   15TCq1    O5  237   0.263   1.383   2.084  0.2046 -0.0646  0.7443
   15TCq1    O6  238   0.174   1.395   2.294  0.0493  0.0719 -0.2739
   15TCq1    H1  239   0.368   1.167   2.593  1.6310 -1.4480 -1.9176
   15TCq1    H2  240   0.298   1.300   2.447  0.0427  0.2628  0.9063
   15TCq1    H3  241   0.435   1.230   2.062  2.1570  2.5480  0.5264
   15TCq1    H4  242   0.709   1.187   2.387  0.4714 -0.2310  0.4160
   16MPD2     C  243   0.733   1.257   1.793 -0.2025 -0.4267  0.1435
   16MPD2    C1  244   0.760   1.183   1.904  0.3158 -0.4492 -0.6422
   16MPD2    C2  245   0.848   1.078   1.901 -0.5506 -0.3580  0.1017
   16MPD2    C3  246   0.920   1.046   1.787 -0.4188 -0.0690  0.2940
   16MPD2    C4  247   0.893   1.120   1.673 -0.1527 -0.6158  0.1519
   16MPD2    C5  248   0.808   1.227   1.679  0.3506  1.0064  0.4283
   16MPD2     H  249   0.850   1.014   1.989 -1.3207 -1.8784 -0.9808
   16MPD2    H1  250   0.944   1.106   1.579  1.9565  0.9538  1.0540
   16MPD2    H2  251   0.663   1.339   1.778 -0.5569 -0.8497 -0.4978
   16MPD2    H3  252   0.803   1.288   1.590  2.7980  0.4408 -0.0806
   16MPD2     N  253   1.011   0.933   1.788  0.5507 -0.3544 -0.0280
   16MPD2    H5  254   1.026   0.888   1.878  0.6780 -0.1272  0.0659
   16MPD2    N1  255   0.675   1.209   2.011 -0.0562 -0.3777 -0.4436
   16MPD2    H7  256   0.606   1.281   1.992  1.3467  0.8558 -0.8683
   17TCq1    O1  257   3.065   3.956  10.009  0.0559 -0.0287 -0.0284
   17TCq1    C1  258   3.107   4.064  10.083 -0.3833  0.3382  0.1794
   17TCq1    O2  259   3.115   4.064  10.204  0.0394  0.2540 -0.0475
   17TCq1    C2  260   3.199   4.128   9.997 -0.0228 -0.2050 -1.0437
   17TCq1    C3  261   3.151   4.218   9.909 -0.4828 -0.8255 -0.2137
   17TCq1    C4  262   3.228   4.329   9.874 -0.7170  0.0534 -0.2949
   17TCq1    C5  263   3.358   4.345   9.916  0.1611 -0.0655  0.8261
   17TCq1    C6  264   3.399   4.251  10.007  0.5593 -0.3920 -0.1551
   17TCq1    C7  265   3.320   4.146  10.053  0.0942  0.2379  0.6102
   17TCq1    C8  266   3.518   4.276  10.082  0.2305 -0.6263  0.0888
   17TCq1    O4  267   3.563   4.195  10.165 -0.3140 -0.6856  0.3345
   17TCq1    C9  268   3.167   4.426   9.782  0.7029  0.5180 -0.8355
   17TCq1    O5  269   3.062   4.381   9.727 -0.7439  0.1897 -0.5311
   17TCq1    O6  270   3.237   4.536   9.766  0.7874  0.4030 -0.0324
   17TCq1    H1  271   3.083   3.967   9.913 -2.0002 -2.5308 -0.6740
   17TCq1    H2  272   3.048   4.207   9.876 -0.3464  0.4844 -1.0531
   17TCq1    H3  273   3.416   4.426   9.873  1.6906 -1.0170  1.1316
   17TCq1    H4  274   3.346   4.074  10.130  1.0634 -0.3959 -0.3093
   18MPD2     C  275   3.756   4.395  10.233 -0.0579 -0.1973 -0.0718
   18MPD2    C1  276   3.681   4.453  10.128 -0.5013  0.1821  0.1341
   18MPD2    C2  277   3.719   4.574  10.079  1.0240  0.1453  0.9424
   18MPD2    C3  278   3.828   4.643  10.127  0.3727 -1.0556  0.4096
   18MPD2    C4  279   3.896   4.589  10.232 -0.0967  0.6326 -0.3972
   18MPD2    C5  280   3.869   4.461  10.284 -0.3351  0.3945 -0.0985
   18MPD2     H  281   3.669   4.608   9.989  0.2943  0.6329  1.5322
   18MPD2    H1  282   3.980   4.638  10.280 -2.3199  3.3631  0.6944
   18MPD2    H2  283   3.741   4.292  10.262 -0.6944 -0.8432 -2.7655
   18MPD2    H3  284   3.929   4.415  10.361  1.1103  1.1820 -0.7513
   18MPD2     N  285   3.860   0.057  10.106 -0.7891  0.0225 -0.8066
   18MPD2    H5  286   3.927   0.110  10.160  2.6839 -1.7818 -3.4194
   18MPD2    N1  287   3.574   4.396  10.052 -0.3658 -0.0329 -0.1925
   18MPD2    H7  288   3.523   4.448   9.982  0.4928  0.9772 -0.0672
   19TMC2    C1  289   0.681   1.854  14.067 -0.1916  0.1464 -0.1022
   19TMC2    C2  290   0.667   1.868  13.930 -0.5015 -0.2040 -0.3530
   19TMC2    C3  291   0.608   1.763  13.869 -0.2003  0.4127 -0.3726
   19TMC2    C4  292   0.659   1.725  14.128 -0.0938  0.1103  0.2972
   19TMC2    C5  293   0.600   1.624  14.052  0.0571  0.6534 -0.0849
   19TMC2    C6  294   0.572   1.648  13.924 -0.4740  0.3834  0.4269
   19TMC2     C  295   0.753   1.952  14.150 -0.3277  0.1638 -0.1329
   19TMC2     O  296   0.818   2.031  14.084  0.5260  0.2449  0.1715
   19TMC2     H  297   0.695   1.964  13.887 -1.4462  0.8228  1.2976
   19TMC2    H1  298   0.681   1.717  14.234  2.0066  1.5834 -0.0108
   19TMC2    H2  299   0.520   1.579  13.859 -1.3257 -0.6160  2.1507
   19TMC2    C7  300   0.521   1.524  14.109  0.1183  0.2415 -0.2897
   19TMC2    C8  301   0.556   1.782  13.731  0.2447 -0.2521 -0.1148
   19TMC2    O1  302   0.471   1.449  14.027 -0.1652  0.1525  0.3251
   19TMC2    O2  303   0.566   1.694  13.650 -0.5749 -0.2377  0.4922
   19TMC2    O5  304   0.544   1.907  13.699  0.3302  0.2946 -0.6754
   19TMC2    H5  305   0.507   1.966  13.769 -1.2291  0.2123 -1.4120
   20MPD2     C  306   0.945   2.045  14.362  0.1305 -0.8786 -0.4620
   20MPD2    C1  307   0.822   1.987  14.382 -0.0726 -0.3400 -0.8015
   20MPD2    C2  308   0.775   1.959  14.511  0.6965 -0.5642  0.5522
   20MPD2    C3  309   0.850   2.000  14.618 -0.7859  0.2911 -0.4950
   20MPD2    C4  310   0.979   2.054  14.591 -0.5468 -0.3739 -0.0378
   20MPD2    C5  311   1.025   2.082  14.462  0.5275  0.2414  0.0910
   20MPD2     H  312   0.678   1.912  14.526 -0.5242  2.3882  1.9634
   20MPD2    H1  313   1.036   2.103  14.669 -1.4126  1.3729 -0.5061
   20MPD2    H2  314   0.982   2.068  14.263  3.2937 -1.5042  0.5690
   20MPD2    H3  315   1.126   2.119  14.448  0.0015  0.2535 -3.4888
   20MPD2     N  316   0.819   1.982  14.754 -0.5353  0.1643  0.7985
   20MPD2    H5  317   0.891   1.992  14.825 -0.1017  0.3888  0.3173
   20MPD2    N1  318   0.741   1.939  14.283  0.2075 -0.1155 -0.1014
   20MPD2    H7  319   0.660   1.889  14.319 -0.9720  0.1467 -2.4240
   21MPD2     C  320   2.423   2.106  15.037 -0.1701  0.1380  0.2053
   21MPD2    C1  321   2.451   1.975  15.024 -0.0844 -0.3708 -0.0037
   21MPD2    C2  322   2.355   1.877  15.036  1.1283 -0.2549 -0.1595
   21MPD2    C3  323   2.223   1.913  15.041 -0.1067  0.6317  0.2661
   21MPD2    C4  324   2.186   2.047  15.046 -0.2748  0.1012  0.6222
   21MPD2    C5  325   2.288   2.142  15.042  0.2471  0.0035  0.2319
   21MPD2     H  326   2.380   1.771  15.035 -1.3345 -0.8329 -0.3879
   21MPD2    H1  327   2.080   2.069  15.043 -0.5665 -1.4784 -0.9810
   21MPD2    H2  328   2.500   2.182  15.039 -1.4876  1.4844 -0.6276
   21MPD2    H3  329   2.269   2.248  15.040  1.3548  0.2002  0.2313
   21MPD2     N  330   2.114   1.823  15.035 -0.2705 -0.6800  0.1676
   21MPD2    H5  331   2.025   1.862  15.006 -0.9866  1.1686  5.0327
   21MPD2    N1  332   2.587   1.930  15.023 -0.1025 -0.0346 -0.0781
   21MPD2    H7  333   2.611   1.831  15.030  4.7466  1.1391 -0.1447
   22TCq2    C1  334   2.128   1.688  15.047  0.5496  0.3830  0.1744
   22TCq2    O2  335   2.226   1.627  15.082 -0.0181 -0.1552 -0.5257
   22TCq2    C2  336   2.007   1.611  15.008 -0.1596  0.4483 -0.3546
   22TCq2    C3  337   2.023   1.475  14.985 -0.1087  0.3146  1.0971
   22TCq2    C4  338   1.915   1.404  14.929  0.5231  0.4070 -0.5350
   22TCq2    C5  339   1.804   1.465  14.886 -0.6213  0.1749  0.7859
   22TCq2    C6  340   1.796   1.596  14.906  0.3472 -0.5588  0.2776
   22TCq2    C7  341   1.893   1.674  14.968  0.3575  0.3924  0.0054
   22TCq2    C8  342   1.679   1.660  14.861  0.3059 -0.2599  0.1200
   22TCq2    O4  343   1.583   1.586  14.851  0.3683  0.5598  0.2072
   22TCq2    C9  344   1.924   1.264  14.907 -0.4951  0.4807 -0.4720
   22TCq2    O5  345   1.815   1.207  14.893 -0.0480  0.0403 -0.4934
   22TCq2    O6  346   2.042   1.216  14.924  0.1324  0.0218 -0.3836
   22TCq2    H2  347   2.112   1.428  15.025  0.0537 -2.1828 -2.2387
   22TCq2    H3  348   1.731   1.415  14.822  1.1239 -1.0156 -0.2770
   22TCq2    H4  349   1.871   1.779  14.983  1.5341  0.8074 -1.2263
   23MPD2     C  350   4.493   3.108  15.645 -0.6829 -0.1093 -1.1675
   23MPD2    C1  351   4.465   2.971  15.632 -0.0699 -0.1631 -0.2381
   23MPD2    C2  352   4.403   2.925  15.517  0.2202 -0.1639  0.4425
   23MPD2    C3  353   4.366   3.010  15.412 -0.3187  0.2381 -0.1047
   23MPD2    C4  354   4.383   3.145  15.432  0.0746  0.0976  0.3932
   23MPD2    C5  355   4.445   3.194  15.544  0.2491 -0.2945 -0.4931
   23MPD2     H  356   4.385   2.818  15.509 -0.3664 -0.1982  2.3564
   23MPD2    H1  357   4.352   3.214  15.354 -0.1094 -0.6325 -0.1848
   23MPD2    H2  358   4.538   3.154  15.732 -0.6715 -0.9482 -0.7282
   23MPD2    H3  359   4.450   3.302  15.555 -2.1585 -0.5198  2.7055
   23MPD2     N  360   4.305   2.976  15.289 -0.2612  0.3406  0.4065
   23MPD2    H5  361   4.284   3.049  15.223 -0.6162 -1.4344 -1.4380
   23MPD2    N1  362   4.497   2.878  15.730 -0.0139  0.0344 -0.0249
   23MPD2    H7  363   4.478   2.782  15.705  1.2924  0.3011 -2.0515
   24TCq2    C1  364   4.243   2.860  15.263  0.2472  0.2608  0.3761
   24TCq2    O2  365   4.241   2.767  15.340  0.0696 -0.2689  0.1579
   24TCq2    C2  366   4.203   2.846  15.120  0.6549 -0.3377 -0.3383
   24TCq2    C3  367   4.266   2.918  15.021  0.2202  0.1703  0.3351
   24TCq2    C4  368   4.213   2.907  14.898 -0.3698 -0.1636  0.1642
   24TCq2    C5  369   4.110   2.812  14.865 -0.2551 -0.2607  0.3199
   24TCq2    C6  370   4.067   2.732  14.963  0.0020  0.0142 -0.0408
   24TCq2    C7  371   4.104   2.751  15.093 -0.2750  0.4890 -0.1062
   24TCq2    C8  372   3.943   2.647  14.946  1.3954  0.5715  0.3415
   24TCq2    O4  373   3.902   2.569  15.032  0.0555 -0.3776 -0.1442
   24TCq2    C9  374   4.271   2.986  14.787  0.5042 -0.2315 -0.6872
   24TCq2    O5  375   4.361   3.066  14.815  0.3118  0.4433 -0.1837
   24TCq2    O6  376   4.256   2.952  14.666 -0.4433 -0.0295 -0.2253
   24TCq2    H2  377   4.336   3.000  15.032  2.1196 -1.5628  1.1557
   24TCq2    H3  378   4.081   2.802  14.762  0.3524  0.1110  0.1116
   24TCq2    H4  379   4.048   2.698  15.170 -0.1324  1.1601  0.4618
   25TMC2    C1  380   3.604   4.708  11.855 -0.3550 -0.2292 -0.4688
   25TMC2    C2  381   3.714   0.055  11.893  0.0875  0.3311  0.2637
   25TMC2    C3  382   3.710   0.114  12.015 -0.6247 -0.2311  0.2412
   25TMC2    C4  383   3.488   0.005  11.922  0.1700  0.1458 -0.0586
   25TMC2    C5  384   3.491   0.077  12.040  0.1392  0.6299 -0.8642
   25TMC2    C6  385   3.597   0.135  12.090 -0.1246  0.2290 -0.1227
   25TMC2     C  386   3.624   4.606  11.760 -0.4603  0.7766 -0.7910
   25TMC2     O  387   3.723   4.540  11.784 -0.1465 -0.1648 -0.0435
   25TMC2     H  388   3.804   0.049  11.832  2.3091  0.5222  3.5142
   25TMC2    H1  389   3.415   4.650  11.889  0.0103  0.4373 -0.3522
   25TMC2    H2  390   3.594   0.187  12.185  0.4397 -1.7498  0.9940
   25TMC2    C7  391   3.362   0.091  12.108  1.0269  0.4507 -0.0935
   25TMC2    C8  392   3.829   0.179  12.058  0.0514  0.6826  0.4526
   25TMC2    O1  393   3.370   0.159  12.208  0.5650 -0.1947  0.4501
   25TMC2    O2  394   3.837   0.290  12.107  0.2054  0.1321 -0.2767
   25TMC2    O5  395   3.932   0.091  12.035 -0.1046 -0.0274 -0.0126
   25TMC2    H5  396   3.895   0.004  12.006 -1.3255  0.7007 -0.6321
   26MPD2     C  397   3.494   4.344  11.337  0.2115 -0.1150 -0.2254
   26MPD2    C1  398   3.394   4.436  11.366 -0.8596 -0.3217 -0.5671
   26MPD2    C2  399   3.407   4.524  11.469 -0.0073  0.1087 -0.4318
   26MPD2    C3  400   3.517   4.518  11.555  0.1604 -0.4847  0.7298
   26MPD2    C4  401   3.619   4.433  11.524 -0.6130  0.0992  0.0498
   26MPD2    C5  402   3.607   4.345  11.414  0.3582 -0.3504  0.1516
   26MPD2     H  403   3.327   4.590  11.500 -0.4491  0.2280 -1.8431
   26MPD2    H1  404   3.715   4.432  11.574 -0.5675 -2.2262 -0.0661
   26MPD2    H2  405   3.483   4.281  11.249  0.8038  0.8580 -0.9892
   26MPD2    H3  406   3.688   4.279  11.388 -0.7718 -1.9758  0.7470
   26MPD2     N  407   3.523   4.603  11.665  0.5465  0.9827  0.2105
   26MPD2    H5  408   3.445   4.667  11.673 -0.0070  0.5312 -1.5020
   26MPD2    N1  409   3.284   4.425  11.280 -0.1248 -0.4521  0.1030
   26MPD2    H7  410   3.268   4.346  11.219  1.2710  0.4266 -1.3936
   27TMC2    C1  411   2.083   2.527  12.234 -0.0988 -0.0008 -0.1093
   27TMC2    C2  412   2.214   2.504  12.220  0.3036  0.6097 -0.4748
   27TMC2    C3  413   2.301   2.562  12.309 -0.8623 -1.1782  0.1031
   27TMC2    C4  414   2.040   2.624  12.322  0.8117  0.2714 -0.3076
   27TMC2    C5  415   2.131   2.687  12.410  0.0125  0.2044  0.6375
   27TMC2    C6  416   2.262   2.649  12.408  0.2597 -0.0052  0.2540
   27TMC2     C  417   2.009   2.406  12.237  0.6730  0.2338 -0.7000
   27TMC2     O  418   2.060   2.306  12.193  0.2617 -0.1454  0.0445
   27TMC2     H  419   2.248   2.427  12.151  1.2457  0.5937 -0.0001
   27TMC2    H1  420   1.941   2.662  12.301  0.8066 -0.6764 -1.9973
   27TMC2    H2  421   2.324   2.690  12.487  2.5620 -3.1674  0.0781
   27TMC2    C7  422   2.068   2.674  12.545  0.3764 -0.0171 -0.5105
   27TMC2    C8  423   2.437   2.512  12.323  0.0897  1.5132  0.3161
   27TMC2    O1  424   2.127   2.602  12.625 -0.2585  0.0153 -0.4954
   27TMC2    O2  425   2.529   2.536  12.240  0.1933  0.0738 -0.4028
   27TMC2    O5  426   2.409   2.391  12.374  0.0243 -0.3555 -0.1453
   27TMC2    H5  427   2.336   2.385  12.440 -1.0415  1.2293 -1.1808
   28MPD2     C  428   1.721   2.123  12.549 -0.8362  0.2576 -0.0577
   28MPD2    C1  429   1.665   2.248  12.547 -0.2555  0.1912  0.6512
   28MPD2    C2  430   1.731   2.347  12.475 -0.1314  0.1047  0.0571
   28MPD2    C3  431   1.833   2.312  12.393  0.6670  0.7559 -0.6367
   28MPD2    C4  432   1.873   2.187  12.378 -0.5748  0.3653 -0.5254
   28MPD2    C5  433   1.830   2.103  12.470 -0.3291 -0.3971 -0.1809
   28MPD2     H  434   1.701   2.451  12.461  0.8620  0.3468 -0.2336
   28MPD2    H1  435   1.957   2.162  12.314  0.4737  2.7077 -0.0787
   28MPD2    H2  436   1.688   2.047  12.619  3.9390 -1.0210  0.7850
   28MPD2    H3  437   1.874   2.004  12.470 -1.5963 -0.9666  2.4940
   28MPD2     N  438   1.903   2.418  12.331 -0.1227 -0.1546 -0.0633
   28MPD2    H5  439   1.869   2.509  12.361  1.3093  0.1743  0.5537
   28MPD2    N1  440   1.552   2.274  12.621 -0.4793 -0.4348 -0.5631
   28MPD2    H7  441   1.510   2.202  12.678 -1.7977  0.3431 -0.5589
   29MPD2     C  442   1.212   4.714  14.094  0.8790 -0.1313 -0.1394
   29MPD2    C1  443   1.343   0.006  14.048  0.6914  0.0562 -0.1194
   29MPD2    C2  444   1.395   0.131  14.018 -0.4969 -0.0142  0.6970
   29MPD2    C3  445   1.327   0.251  14.030  0.2178 -0.2441  0.0599
   29MPD2    C4  446   1.196   0.246  14.080  0.6273  0.0909 -0.1468
   29MPD2    C5  447   1.144   0.118  14.108 -0.8525 -0.2686  0.4184
   29MPD2     H  448   1.501   0.141  14.001 -0.8040  2.8042  0.4617
   29MPD2    H1  449   1.118   0.321  14.081  0.6253  0.0572  1.9121
   29MPD2    H2  450   1.151   4.625  14.103 -0.7497  0.9846 -0.0259
   29MPD2    H3  451   1.038   0.112  14.134 -1.5039 -0.9837 -2.3732
   29MPD2     N  452   1.383   0.379  14.008 -0.5238 -0.0513  0.5669
   29MPD2    H5  453   1.321   0.458  14.024 -0.0295  0.5214 -0.4033
   29MPD2    N1  454   1.430   4.613  14.033  0.6559  0.1243  0.9429
   29MPD2    H7  455   1.519   4.629  13.987  0.1926 -1.1890 -0.4258
   30TCq2    C1  456   1.508   0.409  13.960  0.7708  0.1968  0.1732
   30TCq2    O2  457   1.603   0.346  13.915  0.3086  0.5207 -0.0292
   30TCq2    C2  458   1.547   0.546  13.986  0.1179 -1.0296  0.2869
   30TCq2    C3  459   1.479   0.621  14.084 -0.0933 -0.1550 -0.4159
   30TCq2    C4  460   1.531   0.737  14.123 -0.3557 -0.0059 -1.0259
   30TCq2    C5  461   1.651   0.776  14.071  0.4263 -0.0002 -1.0724
   30TCq2    C6  462   1.717   0.699  13.983  0.2089 -0.3043 -0.3686
   30TCq2    C7  463   1.664   0.583  13.932 -0.4974 -0.3086  0.4661
   30TCq2    C8  464   1.858   0.717  13.950  0.2329 -0.0118 -0.4410
   30TCq2    O4  465   1.907   0.627  13.884  0.2158 -0.0811  0.0257
   30TCq2    C9  466   1.483   0.824  14.228  0.3308 -0.3279  0.3693
   30TCq2    O5  467   1.386   0.776  14.286  0.3799  0.0601  0.0285
   30TCq2    O6  468   1.554   0.927  14.261 -0.3927 -0.5143  0.2151
   30TCq2    H2  469   1.392   0.589  14.140  0.5496 -2.0168 -0.4813
   30TCq2    H3  470   1.707   0.852  14.125 -0.4950 -0.8204  1.0213
   30TCq2    H4  471   1.695   0.539  13.838  0.6514  1.6219 -0.0515
   31MPD2     C  472   4.118   3.954  14.804  0.4197  0.1920  0.3908
   31MPD2    C1  473   4.002   3.914  14.740 -0.1899  0.1873 -0.2168
   31MPD2    C2  474   3.918   3.827  14.798 -0.2258  0.7362  0.2536
   31MPD2    C3  475   3.938   3.773  14.923 -0.1370  0.4177  0.0415
   31MPD2    C4  476   4.058   3.799  14.987 -0.5449 -0.1474 -0.1076
   31MPD2    C5  477   4.141   3.894  14.928  0.3965 -0.5326  0.3030
   31MPD2     H  478   3.833   3.793  14.739 -0.1875 -3.2612  2.5119
   31MPD2    H1  479   4.087   3.752  15.080  0.0107  1.2414  0.4129
   31MPD2    H2  480   4.187   4.030  14.770  2.4551 -0.4741  3.0639
   31MPD2    H3  481   4.233   3.928  14.973  0.0638  2.2256 -1.1020
   31MPD2     N  482   3.855   3.683  14.992 -0.4547  0.2862 -0.2430
   31MPD2    H5  483   3.890   3.643  15.079  0.1266 -1.4348 -1.2741
   31MPD2    N1  484   3.973   3.971  14.615  0.6845  0.2552 -0.5587
   31MPD2    H7  485   4.047   4.033  14.586  0.9997  0.9679  1.7785
   32TCq2    C1  486   3.738   3.641  14.941  0.8186  0.9152 -0.0175
   32TCq2    O2  487   3.671   3.705  14.861  0.2526  0.0913  0.4020
   32TCq2    C2  488   3.657   3.545  15.013 -0.1653 -0.2352  0.6504
   32TCq2    C3  489   3.529   3.521  14.965 -0.4477 -0.1199  0.3383
   32TCq2    C4  490   3.455   3.433  15.037  0.5223  0.2093 -0.1050
   32TCq2    C5  491   3.500   3.372  15.147  0.0017 -0.4861  0.2011
   32TCq2    C6  492   3.627   3.397  15.190  0.0600  0.0177  0.4024
   32TCq2    C7  493   3.704   3.489  15.131 -0.9199  0.9105  0.5703
   32TCq2    C8  494   3.651   3.377  15.329  0.5346  0.2351  0.3064
   32TCq2    O4  495   3.766   3.372  15.363  0.1265  0.2110 -0.2014
   32TCq2    C9  496   3.328   3.402  14.977  0.2037  0.8989 -0.0191
   32TCq2    O5  497   3.289   3.493  14.895 -0.2548  0.0945  0.0127
   32TCq2    O6  498   3.251   3.325  15.043  0.0847 -0.1433 -0.5292
   32TCq2    H2  499   3.487   3.560  14.873 -1.1578  0.2510  0.8196
   32TCq2    H3  500   3.436   3.296  15.190 -1.3801 -0.1224 -1.2112
   32TCq2    H4  501   3.803   3.513  15.169  0.4042 -3.0345 -0.3684
   33MPD2     C  502   4.341   0.403   9.537  0.3164  0.5939  0.1083
   33MPD2    C1  503   4.325   0.486   9.642  0.8448  0.0800  0.1458
   33MPD2    C2  504   4.414   0.590   9.648  0.1489 -0.0641 -1.0895
   33MPD2    C3  505   4.514   0.605   9.552  0.1982 -0.2472 -0.7809
   33MPD2    C4  506   4.527   0.514   9.450  0.2474 -0.1552  0.4174
   33MPD2    C5  507   4.439   0.412   9.443  0.2223 -0.2104  0.5991
   33MPD2     H  508   4.409   0.650   9.737  0.6771  0.2535 -1.2757
   33MPD2    H1  509   4.600   0.527   9.371 -1.6392  2.3086 -0.9410
   33MPD2    H2  510   4.271   0.322   9.525 -1.1463  1.6823  1.2716
   33MPD2    H3  511   4.438   0.350   9.354 -0.0127  1.0122 -0.2521
   33MPD2     N  512   4.615   0.700   9.560  0.1168 -0.5252  0.0749
   33MPD2    H5  513   4.696   0.683   9.502  0.3395  1.2846 -0.1598
   33MPD2    N1  514   4.228   0.469   9.749  0.1744  0.2799 -0.2080
   33MPD2    H7  515   4.228   0.543   9.819  1.8803  0.3595 -0.2946
   34TCq2    C1  516   4.627   0.799   9.654  0.2251  0.8455  0.2258
   34TCq2    O2  517   4.541   0.855   9.718  0.1976 -0.3506  0.4403
   34TCq2    C2  518   0.043   0.858   9.659  0.4007 -0.1087 -0.0577
   34TCq2    C3  519   0.155   0.795   9.605  0.5722 -0.3707  0.2843
   34TCq2    C4  520   0.271   0.854   9.589  0.5194  0.8310  0.0040
   34TCq2    C5  521   0.275   0.985   9.625  0.7895  0.0828 -0.2187
   34TCq2    C6  522   0.161   1.046   9.668  0.4154  0.4104  0.0845
   34TCq2    C7  523   0.041   0.986   9.691 -0.3407  0.1302  0.1272
   34TCq2    C8  524   0.149   1.188   9.660 -0.4023 -0.5728  0.0841
   34TCq2    O4  525   0.076   1.237   9.752 -0.0970 -0.6163 -0.3175
   34TCq2    C9  526   0.377   0.788   9.518 -0.6449 -0.3030 -1.3415
   34TCq2    O5  527   0.475   0.858   9.482 -0.0567  0.5099 -0.1566
   34TCq2    O6  528   0.359   0.670   9.467  0.2742  0.3896  0.0651
   34TCq2    H2  529   0.153   0.689   9.583  0.2798 -0.6640  1.7402
   34TCq2    H3  530   0.366   1.040   9.603  0.7709 -0.1613 -0.9090
   34TCq2    H4  531   4.665   1.037   9.708 -0.9700 -0.6830 -0.8752
   35MPD2     C  532   1.277   2.834  12.171 -0.2612  0.4787  0.2979
   35MPD2    C1  533   1.233   2.704  12.152  0.4067 -0.5319 -0.5219
   35MPD2    C2  534   1.151   2.671  12.046 -0.3815 -0.0163 -0.0995
   35MPD2    C3  535   1.101   2.773  11.963  0.2889 -0.3698  0.1183
   35MPD2    C4  536   1.159   2.898  11.967  0.2251  0.4235 -0.5475
   35MPD2    C5  537   1.242   2.926  12.077 -0.0315 -0.2857  0.0007
   35MPD2     H  538   1.110   2.571  12.036  2.1551 -0.9024 -1.7976
   35MPD2    H1  539   1.136   2.982  11.902  0.0664  1.8072  1.3244
   35MPD2    H2  540   1.338   2.851  12.258  0.0379 -2.3490  0.6386
   35MPD2    H3  541   1.279   3.027  12.082  3.8157 -1.7176  0.4512
   35MPD2     N  542   1.001   2.739  11.868 -0.4286  0.3026  0.6300
   35MPD2    H5  543   0.967   2.643  11.871  1.1698 -0.2362  1.2745
   35MPD2    N1  544   1.256   2.615  12.260  1.0102  0.4609 -0.2574
   35MPD2    H7  545   1.280   2.657  12.349 -0.7500 -1.9996  1.3898
   36TCq2    C1  546   0.956   2.826  11.769 -0.1071  1.4993  0.3700
   36TCq2    O2  547   0.980   2.945  11.746  0.1549  0.3210  0.3359
   36TCq2    C2  548   0.851   2.766  11.689  0.1043 -0.6253 -0.2540
   36TCq2    C3  549   0.793   2.849  11.600 -0.1568 -0.5794  0.1719
   36TCq2    C4  550   0.677   2.797  11.543  0.0016 -0.1128  0.4250
   36TCq2    C5  551   0.629   2.674  11.562 -0.3655 -0.5095  0.0142
   36TCq2    C6  552   0.687   2.597  11.660 -0.1715  0.8427  0.6262
   36TCq2    C7  553   0.805   2.639  11.719 -1.0113 -0.1120 -0.4947
   36TCq2    C8  554   0.620   2.470  11.694  0.1802  0.2885  0.0064
   36TCq2    O4  555   0.511   2.449  11.636 -0.1960 -0.6580 -0.4705
   36TCq2    C9  556   0.607   2.874  11.441 -0.1898  0.0374  0.4140
   36TCq2    O5  557   0.673   2.973  11.398 -0.9970  0.2428 -0.3792
   36TCq2    O6  558   0.491   2.839  11.402  0.2410 -0.1428 -0.3694
   36TCq2    H2  559   0.844   2.940  11.569  1.0917 -1.4437 -0.2957
   36TCq2    H3  560   0.524   2.661  11.539  0.1600  0.7499 -3.1884
   36TCq2    H4  561   0.833   2.572  11.799 -0.9615  3.1826  2.2487
   37TMC2    C1  562   2.782   3.077  11.541 -0.3030 -0.5681 -0.0363
   37TMC2    C2  563   2.717   3.083  11.421 -0.5322 -0.2658  0.3077
   37TMC2    C3  564   2.783   3.035  11.313  0.2729 -0.3687 -0.0935
   37TMC2    C4  565   2.912   3.034  11.562 -0.3101  0.3978 -0.5136
   37TMC2    C5  566   2.976   3.001  11.448 -1.2619 -0.2098  0.2215
   37TMC2    C6  567   2.917   3.001  11.321 -0.6689 -0.9605 -1.0588
   37TMC2     C  568   2.714   3.115  11.657 -0.6542 -0.3140  0.6937
   37TMC2     O  569   2.646   3.217  11.654 -0.1492 -0.4954 -0.0331
   37TMC2     H  570   2.609   3.097  11.413 -0.3195  1.5231  0.4869
   37TMC2    H1  571   2.965   3.063  11.652 -1.2844  0.9264 -0.1018
   37TMC2    H2  572   2.968   2.983  11.227 -0.2363 -1.5454 -0.7151
   37TMC2    C7  573   3.116   2.963  11.462 -0.5950 -0.3412 -0.5563
   37TMC2    C8  574   2.737   3.097  11.191 -0.0178 -0.2448  0.3471
   37TMC2    O1  575   3.164   2.968  11.578  0.2242 -0.1757 -0.3205
   37TMC2    O2  576   2.694   3.211  11.179  0.3123  0.3038  0.0974
   37TMC2    O5  577   2.777   3.019  11.091 -0.2334 -0.0589  0.0685
   37TMC2    H5  578   2.782   2.926  11.123  1.4072  0.2025  0.5507
   38MPD2     C  579   2.587   3.042  12.146  0.4388 -0.1524  0.4089
   38MPD2    C1  580   2.676   2.953  12.114  0.2347 -0.1839 -0.1967
   38MPD2    C2  581   2.725   2.947  11.986  0.3115  0.0676 -0.5877
   38MPD2    C3  582   2.681   3.032  11.890 -0.5764 -0.6313  0.1527
   38MPD2    C4  583   2.590   3.131  11.926 -0.5496 -0.4626 -0.1604
   38MPD2    C5  584   2.542   3.133  12.054  0.6165  0.0642  0.5321
   38MPD2     H  585   2.796   2.872  11.953 -2.2176 -2.8677  0.6432
   38MPD2    H1  586   2.545   3.199  11.855 -1.8636  1.7674  2.7969
   38MPD2    H2  587   2.549   3.064  12.245 -0.9513 -2.2095  0.3211
   38MPD2    H3  588   2.481   3.219  12.079 -1.5001 -0.4856 -2.7839
   38MPD2     N  589   2.727   3.019  11.755  0.5453  0.5211  0.3989
   38MPD2    H5  590   2.766   2.932  11.721  0.0555  0.8030 -0.8800
   38MPD2    N1  591   2.721   2.860  12.220  0.1261  0.4014 -0.8533
   38MPD2    H7  592   2.802   2.802  12.198 -0.4577 -1.3463  1.5768
   39MPD2     C  593   1.753   0.248   1.978  0.3057  0.7338 -0.3488
   39MPD2    C1  594   1.636   0.237   2.056  0.0625  0.3997 -0.1272
   39MPD2    C2  595   1.510   0.252   1.998  0.1754 -0.5126  0.0020
   39MPD2    C3  596   1.505   0.276   1.859  0.3213 -0.1924 -0.3111
   39MPD2    C4  597   1.623   0.270   1.783 -0.6626 -0.2259  0.1821
   39MPD2    C5  598   1.746   0.265   1.847 -0.1484  0.1201 -0.2686
   39MPD2     H  599   1.412   0.247   2.046 -0.1845  1.2641 -0.5505
   39MPD2    H1  600   1.625   0.292   1.677 -1.2803 -1.8028 -0.1575
   39MPD2    H2  601   1.849   0.235   2.027 -0.5806  0.0993  1.2148
   39MPD2    H3  602   1.838   0.265   1.790 -1.0475 -1.2234 -1.7208
   39MPD2     N  603   1.381   0.299   1.788 -0.3976  0.2828 -0.2228
   39MPD2    H5  604   1.389   0.294   1.687 -0.8513  0.5295 -0.2716
   39MPD2    N1  605   1.646   0.213   2.195 -0.1705 -0.8222  0.4013
   39MPD2    H7  606   1.741   0.187   2.222  0.4836 -0.3300 -1.3971
   40TCq2    C1  607   1.544   0.203   2.282 -0.0694 -0.2687 -0.6447
   40TCq2    O2  608   1.424   0.228   2.273 -0.0527  0.4113 -0.1681
   40TCq2    C2  609   1.597   0.164   2.416 -0.3761 -0.3237  0.1219
   40TCq2    C3  610   1.522   0.082   2.490 -0.2733 -0.2754  0.2554
   40TCq2    C4  611   1.572   0.035   2.607  0.0723  0.7264 -0.1295
   40TCq2    C5  612   1.698   0.075   2.656 -0.1938  0.0652  0.7452
   40TCq2    C6  613   1.768   0.158   2.577  0.2815  0.7295  0.1672
   40TCq2    C7  614   1.725   0.194   2.455  0.0781 -0.5046 -0.2173
   40TCq2    C8  615   1.899   0.192   2.626 -0.4583  0.6099 -0.3476
   40TCq2    O4  616   1.924   0.152   2.739 -0.1672  0.2754 -1.0404
   40TCq2    C9  617   1.503   4.648   2.668 -0.0358 -0.8005  0.0596
   40TCq2    O5  618   1.395   4.611   2.617  0.5368  0.2506 -0.3512
   40TCq2    O6  619   1.565   4.584   2.755  0.3345  0.5317 -0.1020
   40TCq2    H2  620   1.422   0.069   2.449 -0.7832  0.0510  1.3906
   40TCq2    H3  621   1.734   0.025   2.746 -0.8281 -0.3561  0.7634
   40TCq2    H4  622   1.774   0.274   2.400 -0.7755 -0.0291 -0.2801
   41TMC2    C1  623   4.522   3.225  13.390  1.3226  0.2014 -0.0466
   41TMC2    C2  624   4.646   3.220  13.449 -0.3581 -0.3324  0.8149
   41TMC2    C3  625   0.040   3.159  13.391  0.1023  0.0573 -0.3202
   41TMC2    C4  626   4.509   3.165  13.266  0.5801 -0.8763 -0.0386
   41TMC2    C5  627   4.618   3.108  13.211  0.2054  0.8855  0.2907
   41TMC2    C6  628   0.028   3.108  13.266 -0.1951  0.1229 -0.4976
   41TMC2     C  629   4.400   3.254  13.459  0.4486 -0.0961  0.2692
   41TMC2     O  630   4.291   3.224  13.408  0.1329  0.3382 -0.4670
   41TMC2     H  631   4.659   3.251  13.552  1.6703  1.4160  0.0288
   41TMC2    H1  632   4.414   3.184  13.218  0.9353  2.8216  0.6893
   41TMC2    H2  633   0.113   3.062  13.216  1.2956  1.1224  1.0903
   41TMC2    C7  634   4.598   3.048  13.078  0.1517 -0.2901 -0.8669
   41TMC2    C8  635   0.168   3.161  13.451  0.2333 -0.0356  0.3033
   41TMC2    O1  636   4.534   3.126  13.004 -0.1050 -0.3486 -0.3968
   41TMC2    O2  637   0.267   3.152  13.386 -0.1050  0.1085  0.1609
   41TMC2    O5  638   0.140   3.083  13.555 -0.3761  0.4128  0.9269
   41TMC2    H5  639   0.047   3.077  13.588 -0.8699 -0.1367 -0.5677
   42MPD2     C  640   4.196   3.393  13.641 -0.4530 -0.3414 -0.7070
   42MPD2    C1  641   4.336   3.403  13.652 -0.6933  0.5383  0.2013
   42MPD2    C2  642   4.393   3.478  13.755 -0.7858  0.2426  0.1258
   42MPD2    C3  643   4.308   3.559  13.827 -0.4718  0.0988  0.1937
   42MPD2    C4  644   4.170   3.554  13.817 -0.4945 -0.2524  0.3275
   42MPD2    C5  645   4.117   3.464  13.728 -0.1553 -0.3188 -0.3100
   42MPD2     H  646   4.501   3.472  13.755 -0.9465 -2.5519 -2.5849
   42MPD2    H1  647   4.111   3.614  13.885 -1.1407 -0.6884  0.1457
   42MPD2    H2  648   4.146   3.322  13.576  0.7456  0.1155 -2.1336
   42MPD2    H3  649   4.009   3.450  13.721 -0.0363 -1.4528  0.0627
   42MPD2     N  650   4.360   3.641  13.929  0.0171  0.2793 -0.7765
   42MPD2    H5  651   4.307   3.711  13.978  1.5730 -0.3021  1.7743
   42MPD2    N1  652   4.428   3.330  13.571  0.3772  0.5995  0.5576
   42MPD2    H7  653   4.525   3.349  13.595  0.4870  0.4255  0.2515
   43MPD2     C  654   1.411   1.449   1.310  0.2771  0.4434 -0.2651
   43MPD2    C1  655   1.501   1.376   1.382 -0.2188 -0.3478 -0.2595
   43MPD2    C2  656   1.506   1.402   1.518  0.0075  0.1138 -0.7985
   43MPD2    C3  657   1.433   1.502   1.581  0.3125  0.4275 -0.1939
   43MPD2    C4  658   1.334   1.567   1.506  0.3622  1.3229  0.2413
   43MPD2    C5  659   1.320   1.530   1.377 -0.4852  0.0730 -0.1257
   43MPD2     H  660   1.573   1.343   1.579  0.6135  1.6013 -0.0336
   43MPD2    H1  661   1.272   1.651   1.534 -1.3519  0.8714 -2.1116
   43MPD2    H2  662   1.400   1.430   1.204 -1.4854  0.4079 -0.0747
   43MPD2    H3  663   1.242   1.573   1.316  0.5765  0.3843 -1.2631
   43MPD2     N  664   1.430   1.536   1.722  0.0121 -0.7738 -0.3048
   43MPD2    H5  665   1.349   1.586   1.756  0.6599  1.0044 -1.3828
   43MPD2    N1  666   1.583   1.272   1.324 -0.6474  0.1133  0.7708
   43MPD2    H7  667   1.652   1.228   1.383 -0.0465  1.0224  0.7480
   44TCq2    C1  668   1.485   1.416   2.287  0.3079  0.1707  0.7480
   44TCq2    O2  669   1.601   1.386   2.307 -1.0001  0.5793  0.0025
   44TCq2    C2  670   1.466   1.498   2.176 -0.5463 -0.0553  0.2105
   44TCq2    C3  671   1.371   1.605   2.191  0.1320 -0.3494  0.0178
   44TCq2    C4  672   1.327   1.675   2.079 -0.1887  0.8508  0.0663
   44TCq2    C5  673   1.377   1.638   1.950 -0.0637  0.5524  0.3496
   44TCq2    C6  674   1.479   1.543   1.939  0.1996  0.2015  1.1980
   44TCq2    C7  675   1.522   1.474   2.049 -0.7495 -0.0276  0.1706
   44TCq2    C8  676   1.521   1.498   1.812  0.1742  0.5397  0.0639
   44TCq2    O4  677   1.631   1.444   1.796  0.1854 -0.2450 -0.0298
   44TCq2    C9  678   1.206   1.759   2.091  0.4791 -0.5836  0.0718
   44TCq2    O5  679   1.169   1.789   2.206  0.0526  0.3514 -0.0239
   44TCq2    O6  680   1.166   1.806   1.981 -0.2201 -0.3390 -0.2609
   44TCq2    H2  681   1.325   1.634   2.285 -0.9341  1.1342 -0.9496
   44TCq2    H3  682   1.342   1.709   1.877 -1.3280 -0.2850  0.1528
   44TCq2    H4  683   1.610   1.412   2.038  0.3095  1.3006  1.0872
   45TMC2    C1  684   2.829   2.914   9.561  0.0116 -0.4362  0.2982
   45TMC2    C2  685   2.950   2.884   9.510 -0.1473  0.2281 -0.5912
   45TMC2    C3  686   3.044   2.990   9.498 -0.1730  0.6409 -0.5409
   45TMC2    C4  687   2.787   3.041   9.587 -0.1239 -0.5315  0.7865
   45TMC2    C5  688   2.886   3.135   9.573  0.1743 -0.7524 -0.3722
   45TMC2    C6  689   3.009   3.119   9.524 -0.0739  0.2745  0.1141
   45TMC2     C  690   2.746   2.797   9.588 -0.4159 -0.0771 -0.2986
   45TMC2     O  691   2.805   2.697   9.615 -0.0223  0.8419 -0.1226
   45TMC2     H  692   2.977   2.780   9.498 -1.7368 -0.3454  0.8681
   45TMC2    H1  693   2.687   3.069   9.618  0.6900  1.3439  1.7027
   45TMC2    H2  694   3.085   3.196   9.525 -0.7130  0.8760  1.6702
   45TMC2    C7  695   2.845   3.270   9.608 -0.5933  0.5680  0.6189
   45TMC2    C8  696   3.167   2.952   9.432 -0.0857  0.0139  0.3825
   45TMC2    O1  697   2.749   3.285   9.682  0.0853  0.1187  0.1782
   45TMC2    O2  698   3.204   2.838   9.415 -0.8581 -0.0672 -0.3055
   45TMC2    O5  699   3.210   3.057   9.358  0.3012  0.8939 -0.0820
   45TMC2    H5  700   3.173   3.144   9.383  0.7512  0.8493  0.7541
   46MPD2     C  701   2.539   2.612   9.703 -0.1332 -0.2982  0.1663
   46MPD2    C1  702   2.517   2.718   9.615 -0.5653 -0.4722  0.2864
   46MPD2    C2  703   2.392   2.738   9.559  0.1139  0.2248  1.2559
   46MPD2    C3  704   2.283   2.659   9.589  0.2952  0.9623  0.2847
   46MPD2    C4  705   2.308   2.545   9.669  0.4787 -0.1948 -0.2494
   46MPD2    C5  706   2.438   2.520   9.716  0.1567  0.1265  0.2748
   46MPD2     H  707   2.379   2.821   9.491 -1.0146 -0.1704  0.9848
   46MPD2    H1  708   2.225   2.477   9.688 -1.2974  1.8589 -0.6383
   46MPD2    H2  709   2.632   2.592   9.755  1.3691  1.7412 -1.7489
   46MPD2    H3  710   2.467   2.429   9.767 -0.0426 -0.3349 -0.4284
   46MPD2     N  711   2.150   2.689   9.539 -0.1136  0.4995  0.0372
   46MPD2    H5  712   2.149   2.782   9.497 -1.0351  0.5372  0.1482
   46MPD2    N1  713   2.612   2.812   9.579 -0.7363 -0.4894  0.2161
   46MPD2    H7  714   2.586   2.886   9.514  0.0740  0.0691  0.5407
   47TMC2    C1  715   0.600   2.712   9.235 -0.2281 -0.7504  0.5975
   47TMC2    C2  716   0.639   2.631   9.137  0.0486 -0.0572  0.1687
   47TMC2    C3  717   0.559   2.545   9.084  0.1689  0.6188  0.2054
   47TMC2    C4  718   0.473   2.704   9.285 -0.2121  0.4263 -0.0562
   47TMC2    C5  719   0.384   2.625   9.214  0.7441  0.0700 -0.5183
   47TMC2    C6  720   0.428   2.535   9.114  0.5653 -0.0958 -0.0262
   47TMC2     C  721   0.713   2.760   9.319  0.5411 -0.2525 -0.0910
   47TMC2     O  722   0.825   2.757   9.273 -0.4265  0.0014  0.0544
   47TMC2     H  723   0.741   2.632   9.100  0.4964  0.3432  1.3796
   47TMC2    H1  724   0.438   2.781   9.353 -2.5949 -0.7416  0.0434
   47TMC2    H2  725   0.357   2.471   9.062  0.6793 -0.2242 -0.0235
   47TMC2    C7  726   0.240   2.632   9.238 -0.0818 -0.3838 -0.3979
   47TMC2    C8  727   0.610   2.440   9.003  0.4718  0.8892  0.0871
   47TMC2    O1  728   0.161   2.557   9.183 -0.6438 -0.3806  0.3557
   47TMC2    O2  729   0.723   2.455   8.950 -0.7111  0.4913 -0.0803
   47TMC2    O5  730   0.548   2.320   9.025 -0.2731  0.3278  0.4396
   47TMC2    H5  731   0.467   2.321   9.081 -0.6961 -1.5453 -0.1208
   48MPD2     C  732   0.892   2.866   9.540  0.0938 -0.1762  0.2818
   48MPD2    C1  733   0.764   2.828   9.554 -0.2464 -0.0389  0.4144
   48MPD2    C2  734   0.702   2.829   9.680  0.1859 -0.5561 -0.5327
   48MPD2    C3  735   0.778   2.870   9.792  0.2428 -0.2230 -0.4069
   48MPD2    C4  736   0.908   2.914   9.777  0.0162  0.6904 -0.1394
   48MPD2    C5  737   0.958   2.919   9.648 -0.0605  0.1001 -0.4690
   48MPD2     H  738   0.602   2.794   9.703  0.5218 -0.4913  1.0518
   48MPD2    H1  739   0.965   2.949   9.862  1.1309 -0.9945 -0.1799
   48MPD2    H2  740   0.923   2.884   9.438 -0.0855  1.9047  0.6070
   48MPD2    H3  741   1.050   2.967   9.619  1.3845 -2.5777 -0.3133
   48MPD2     N  742   0.714   2.841   9.917 -0.1052 -0.1970  0.5773
   48MPD2    H5  743   0.625   2.793   9.903  1.1627 -1.5199 -3.0401
   48MPD2    N1  744   0.677   2.796   9.446  0.5166 -0.5451  0.2558
   48MPD2    H7  745   0.582   2.771   9.469  0.4688 -1.0286 -0.4577
   49MPD2     C  746   2.583   4.437  10.817 -0.6492 -0.0777  0.6314
   49MPD2    C1  747   2.601   4.563  10.771  0.0936 -0.0235 -0.8771
   49MPD2    C2  748   2.563   4.669  10.853 -0.5780  0.0132 -0.1015
   49MPD2    C3  749   2.501   4.647  10.975 -0.0053  0.1660 -0.0842
   49MPD2    C4  750   2.477   4.526  11.018 -0.0084 -0.1369  0.1429
   49MPD2    C5  751   2.519   4.420  10.941 -0.8789 -0.2441  0.5251
   49MPD2     H  752   2.583   0.052  10.821  0.2907  0.7095  2.6362
   49MPD2    H1  753   2.443   4.503  11.119 -0.2438  0.2055  0.1438
   49MPD2    H2  754   2.585   4.352  10.750  0.6944  0.8562 -0.4951
   49MPD2    H3  755   2.493   4.322  10.980  0.1235 -0.0436  1.7428
   49MPD2     N  756   2.474   0.040  11.063  0.1468  0.5080 -0.1752
   49MPD2    H5  757   2.421   0.012  11.145 -1.1827 -0.4521 -1.3712
   49MPD2    N1  758   2.646   4.597  10.647  0.1773  0.3520  0.4129
   49MPD2    H7  759   2.677   4.692  10.629  0.0047  0.5854  1.3108
   50TCq2    C1  760   2.657   4.516  10.535 -0.2570  0.3359 -0.4001
   50TCq2    O2  761   2.595   4.409  10.513  0.2038 -0.6752  0.4072
   50TCq2    C2  762   2.704   4.586  10.423 -0.5578 -0.2246  0.0248
   50TCq2    C3  763   2.647   4.574  10.299  0.4208 -0.6035  1.1171
   50TCq2    C4  764   2.705   4.629  10.190  0.8680  0.7175  0.0949
   50TCq2    C5  765   2.824   4.690  10.206 -1.0143  0.5881 -0.6024
   50TCq2    C6  766   2.879   4.698  10.329 -0.2101  0.1958  0.5664
   50TCq2    C7  767   2.825   4.645  10.446  0.4047  0.1671  0.2814
   50TCq2    C8  768   3.013   0.030  10.347  0.1626 -0.5091  0.0737
   50TCq2    O4  769   3.045   0.104  10.435 -0.1325 -0.0972  0.0392
   50TCq2    C9  770   2.638   4.626  10.070  0.6591 -0.0049  0.2292
   50TCq2    O5  771   2.551   4.541  10.046 -0.9275 -0.1000 -0.0457
   50TCq2    O6  772   2.669   4.716   9.991  0.0713 -0.0276 -0.2239
   50TCq2    H2  773   2.549   4.527  10.287  0.1192 -0.2274  2.1299
   50TCq2    H3  774   2.882   0.014  10.125 -0.7915  0.9745 -0.2376
   50TCq2    H4  775   2.868   4.664  10.543 -2.1668  0.8746  1.2832
   51MPD2     C  776   3.290   4.707   1.936  0.2990 -0.6120 -0.0127
   51MPD2    C1  777   3.348   4.591   1.979  0.4842  0.0406 -0.3374
   51MPD2    C2  778   3.428   4.591   2.088 -0.0847  0.5316 -0.4501
   51MPD2    C3  779   3.463   4.711   2.141  0.1160  0.3498 -0.1421
   51MPD2    C4  780   3.400   0.110   2.107 -0.0449  0.5094  0.2214
   51MPD2    C5  781   3.309   0.105   2.000  0.4022  0.6329 -0.1069
   51MPD2     H  782   3.463   4.498   2.131  0.7787  3.0729  4.3435
   51MPD2    H1  783   3.419   0.200   2.164  0.7269  0.2669  0.3405
   51MPD2    H2  784   3.215   4.708   1.857  0.1038  0.7921  0.1907
   51MPD2    H3  785   3.266   0.198   1.964 -0.5040 -0.1817 -1.1146
   51MPD2     N  786   3.565   0.002   2.243 -0.2347  0.1356  0.1955
   51MPD2    H5  787   3.599   0.094   2.270 -3.2633  0.5197  2.8114
   51MPD2    N1  788   3.328   4.462   1.922 -0.3596 -0.6199  0.0846
   51MPD2    H7  789   3.375   4.383   1.965  0.8326  0.2976  0.4662
   52TCq2    C1  790   3.640   4.612   2.292 -0.7949 -0.1357 -1.0226
   52TCq2    O2  791   3.610   4.492   2.288 -0.5269  0.1277 -0.5826
   52TCq2    C2  792   3.754   4.661   2.370  0.0486 -0.7833  0.1963
   52TCq2    C3  793   3.827   4.562   2.432  0.6509  0.3036 -0.4578
   52TCq2    C4  794   3.933   4.598   2.509  0.0277  0.6681 -0.0677
   52TCq2    C5  795   3.971   0.009   2.519 -0.3354  0.2144 -0.5094
   52TCq2    C6  796   3.895   0.105   2.459 -0.3168 -0.0051 -0.0891
   52TCq2    C7  797   3.786   0.075   2.384  0.1301 -0.0039 -0.5259
   52TCq2    C8  798   3.959   0.228   2.420  0.0266  0.0982 -0.3714
   52TCq2    O4  799   3.903   0.309   2.350 -0.4583  0.3481  0.7004
   52TCq2    C9  800   4.006   4.495   2.574 -0.1267 -0.5414  0.4437
   52TCq2    O5  801   4.091   4.533   2.660 -0.3915 -0.3649  0.6562
   52TCq2    O6  802   3.993   4.376   2.534 -0.6034 -0.3953 -0.3500
   52TCq2    H2  803   3.807   4.456   2.422 -0.9209  0.5389  0.3772
   52TCq2    H3  804   4.052   0.033   2.588 -0.2264  1.5389 -1.0921
   52TCq2    H4  805   3.739   0.157   2.331 -0.0275  0.9269  1.0670
   53TMC2    C1  806   3.770   2.823  11.744 -0.1277 -0.2693 -0.0360
   53TMC2    C2  807   3.898   2.803  11.773  0.2708 -0.3880 -0.1820
   53TMC2    C3  808   3.934   2.807  11.912 -0.8438 -0.5233 -0.4435
   53TMC2    C4  809   3.674   2.855  11.838 -0.0642  0.0303  0.3878
   53TMC2    C5  810   3.715   2.862  11.967  0.2147 -0.0312 -0.4481
   53TMC2    C6  811   3.844   2.845  12.010  0.1379 -0.1291  0.4583
   53TMC2     C  812   3.723   2.794  11.608  0.1765  0.0817  0.1111
   53TMC2     O  813   3.773   2.693  11.559 -0.2876 -0.4512  0.4663
   53TMC2     H  814   3.970   2.770  11.699  0.4554 -2.2922  0.8651
   53TMC2    H1  815   3.571   2.879  11.812 -0.6393 -0.5663  2.1026
   53TMC2    H2  816   3.881   2.872  12.108  1.0717 -0.6267  0.2461
   53TMC2    C7  817   3.619   2.888  12.077 -0.0259 -0.0753  0.1413
   53TMC2    C8  818   4.071   2.809  11.963 -0.0862  0.3224  0.0395
   53TMC2    O1  819   3.506   2.910  12.033  0.5672  0.2099  0.0617
   53TMC2    O2  820   4.118   2.899  12.031 -0.0988  1.0564 -0.0981
   53TMC2    O5  821   4.138   2.693  11.929 -0.2691  0.2773  0.6987
   53TMC2    H5  822   4.074   2.629  11.890 -0.8873 -0.0094  2.1523
   54MPD2     C  823   3.570   2.763  11.354  0.4207  0.4783  0.1471
   54MPD2    C1  824   3.533   2.850  11.453 -0.3860 -0.0377 -0.2853
   54MPD2    C2  825   3.409   2.915  11.448 -0.3574  0.0939 -0.3952
   54MPD2    C3  826   3.319   2.889  11.348  0.1158 -0.4136 -0.3874
   54MPD2    C4  827   3.366   2.822  11.233  0.3416  0.0211  0.4416
   54MPD2    C5  828   3.491   2.756  11.237  0.4375  0.3012 -0.4258
   54MPD2     H  829   3.385   2.994  11.518 -0.8034 -0.6194  0.2638
   54MPD2    H1  830   3.306   2.818  11.142  0.5923  1.2833  0.2298
   54MPD2    H2  831   3.670   2.720  11.359  0.4866  0.6106 -0.0121
   54MPD2    H3  832   3.529   2.702  11.152 -1.2608  0.2603 -1.1671
   54MPD2     N  833   3.183   2.932  11.342  0.1676 -0.5211 -0.5363
   54MPD2    H5  834   3.134   2.918  11.255 -0.6834 -0.8294  0.0004
   54MPD2    N1  835   3.617   2.865  11.569 -0.3773  0.5348  0.6253
   54MPD2    H7  836   3.600   2.949  11.624  0.9821  1.3608 -0.2137
   55MPD2     C  837   4.020   0.953   0.089 -0.5980 -0.1914  0.8180
   55MPD2    C1  838   4.040   0.875   0.203 -0.0962  0.4099  0.3916
   55MPD2    C2  839   3.955   0.897   0.314 -0.1959  0.8010  0.1961
   55MPD2    C3  840   3.857   0.997   0.309  0.1980 -0.6511 -0.5618
   55MPD2    C4  841   3.841   1.071   0.200 -0.1184  0.6449  0.8493
   55MPD2    C5  842   3.928   1.049   0.095  0.1178  0.0182  0.1570
   55MPD2     H  843   3.972   0.843   0.407  0.8867 -0.8396 -0.9630
   55MPD2    H1  844   3.767   1.149   0.196 -1.0224 -0.2896 -0.5209
   55MPD2    H2  845   4.091   0.954   0.007 -1.6657  0.9083 -0.1024
   55MPD2    H3  846   3.916   1.113   0.008  3.8718 -1.4588 -1.4402
   55MPD2     N  847   3.794   1.023   0.431  0.1647  0.1808 -0.5160
   55MPD2    H5  848   3.833   0.979   0.515 -1.0842  3.2541  1.6541
   55MPD2    N1  849   4.147   0.782   0.198  0.6428 -0.3868 -0.1182
   55MPD2    H7  850   4.203   0.777   0.113 -0.1202  0.7431 -0.6874
   56TCq2    C1  851   4.169   0.685   0.291  0.6118 -0.2686  0.0647
   56TCq2    O2  852   4.095   0.650   0.381  0.2338 -0.5516 -0.5429
   56TCq2    C2  853   4.286   0.600   0.257  0.0769  0.2948  0.6115
   56TCq2    C3  854   4.370   0.615   0.147  0.1790 -0.1934 -0.2270
   56TCq2    C4  855   4.461   0.522   0.115  0.9848 -0.2532 -0.0766
   56TCq2    C5  856   4.466   0.400   0.178 -0.0511  0.1006 -0.9952
   56TCq2    C6  857   4.382   0.382   0.283 -0.6280 -0.8147 -0.2112
   56TCq2    C7  858   4.297   0.482   0.330  0.3562  0.1802  0.2228
   56TCq2    C8  859   4.383   0.255   0.355 -0.1366 -0.2864 -0.1233
   56TCq2    O4  860   4.453   0.165   0.323 -0.0313 -0.1136 -0.5670
   56TCq2    C9  861   4.563   0.547   0.005 -0.8142  0.0595  0.0300
   56TCq2    O5  862   4.572   0.664  17.628  0.5743 -0.2215 -0.9110
   56TCq2    O6  863   4.639   0.454  17.655  0.5485 -0.0704  0.4552
   56TCq2    H2  864   4.382   0.709   0.095 -0.5488 -0.6665 -1.2415
   56TCq2    H3  865   4.519   0.317   0.135  0.7526  0.6484 -1.0572
   56TCq2    H4  866   4.245   0.488   0.425  3.0445 -0.1330  1.7061
   57TMC2    C1  867   3.232   1.407  13.858  0.5939 -0.5305 -0.0561
   57TMC2    C2  868   3.290   1.345  13.968 -0.0787  0.2160  0.1912
   57TMC2    C3  869   3.400   1.273  13.945  0.2436 -0.1103 -0.1356
   57TMC2    C4  870   3.291   1.396  13.733 -0.1524 -0.4269  0.5244
   57TMC2    C5  871   3.411   1.336  13.718  0.0875 -0.4407  0.4774
   57TMC2    C6  872   3.467   1.276  13.823  0.3901 -1.0802  0.2662
   57TMC2     C  873   3.112   1.484  13.882  0.7854 -0.0295 -0.1791
   57TMC2     O  874   3.102   1.528  13.992 -0.5957  0.0390  0.2669
   57TMC2     H  875   3.242   1.345  14.066 -1.0510 -1.1248 -0.2810
   57TMC2    H1  876   3.249   1.454  13.652  0.2294 -0.1764  0.5055
   57TMC2    H2  877   3.563   1.226  13.825  1.9926  1.9511  0.0250
   57TMC2    C7  878   3.472   1.331  13.586  0.4732 -0.4827  0.1834
   57TMC2    C8  879   3.465   1.200  14.054 -0.6457  1.0652  0.2817
   57TMC2    O1  880   3.403   1.371  13.494 -0.1778 -0.2927  0.0626
   57TMC2    O2  881   3.555   1.117  14.053 -0.0517  0.4415  0.5822
   57TMC2    O5  882   3.440   1.274  14.161  0.6172 -0.4011  0.4710
   57TMC2    H5  883   3.401   1.365  14.157 -1.7034 -1.4373 -0.6157
   58MPD2     C  884   2.613   1.525  13.834 -0.2101 -0.4399 -0.2619
   58MPD2    C1  885   2.698   1.607  13.900  0.6530  0.0737  0.5772
   58MPD2    C2  886   2.836   1.589  13.883  0.3497  0.2880  0.0322
   58MPD2    C3  887   2.883   1.504  13.788 -0.3425  0.0995  0.1080
   58MPD2    C4  888   2.798   1.445  13.694  0.6518  0.0276  0.3616
   58MPD2    C5  889   2.663   1.457  13.724  0.8277  0.1169 -0.1621
   58MPD2     H  890   2.889   1.651  13.954 -0.0700  0.5764  0.0962
   58MPD2    H1  891   2.839   1.402  13.604 -2.1142 -2.9397  0.5195
   58MPD2    H2  892   2.505   1.525  13.840 -0.1718  0.7158  0.4371
   58MPD2    H3  893   2.595   1.410  13.654  0.2527  1.5003 -0.5293
   58MPD2     N  894   3.019   1.468  13.781  0.0709  0.1927 -0.1396
   58MPD2    H5  895   3.048   1.411  13.702  0.5915 -1.2879  1.1177
   58MPD2    N1  896   2.662   1.691  14.006 -0.0407 -0.0040 -0.1275
   58MPD2    H7  897   2.728   1.715  14.079  1.0944 -0.1236 -1.1136
   59MPD2     C  898   0.770   1.578  13.256  0.0722  0.5611  0.2531
   59MPD2    C1  899   0.899   1.595  13.202  0.2786  0.7498  0.3801
   59MPD2    C2  900   0.984   1.702  13.237  0.8107  0.0265 -0.2385
   59MPD2    C3  901   0.946   1.786  13.342 -0.0854 -0.1522  0.5063
   59MPD2    C4  902   0.817   1.762  13.404 -0.0197  1.0284 -0.2331
   59MPD2    C5  903   0.739   1.655  13.367  0.4996 -0.3934 -0.2704
   59MPD2     H  904   1.078   1.711  13.184  0.9160  0.2574 -0.0141
   59MPD2    H1  905   0.794   1.813  13.497 -0.3550 -0.6023  0.5715
   59MPD2    H2  906   0.691   1.517  13.213 -0.9554  1.7806  0.4053
   59MPD2    H3  907   0.642   1.645  13.415 -0.1675  1.5396 -1.2386
   59MPD2     N  908   1.035   1.891  13.390 -0.0283 -0.0840 -0.4069
   59MPD2    H5  909   1.015   1.927  13.483 -1.2777  2.1721 -1.5682
   59MPD2    N1  910   0.938   1.520  13.085 -0.3520  0.9425  0.1102
   59MPD2    H7  911   1.019   1.554  13.034 -1.5704  2.2211 -0.9841
   60TCq2    C1  912   0.878   1.407  13.042  0.3167  0.2940  0.3862
   60TCq2    O2  913   0.792   1.344  13.102 -0.2176  0.1461 -0.1598
   60TCq2    C2  914   0.940   1.350  12.924 -0.3131 -0.2937  0.2786
   60TCq2    C3  915   0.949   1.217  12.901  0.1198  0.2994  0.3293
   60TCq2    C4  916   1.017   1.167  12.797  0.0606 -0.1746  0.7174
   60TCq2    C5  917   1.087   1.242  12.710  0.2272 -0.0679  0.5597
   60TCq2    C6  918   1.086   1.381  12.735 -0.4301  0.4672  0.0688
   60TCq2    C7  919   1.010   1.433  12.837  0.2924 -0.0122 -0.0696
   60TCq2    C8  920   1.168   1.460  12.648  0.8635  0.5694  0.2948
   60TCq2    O4  921   1.247   1.395  12.578  0.6648  0.3917 -0.3014
   60TCq2    C9  922   1.033   1.023  12.790 -0.1393  1.5082 -0.7060
   60TCq2    O5  923   0.943   0.957  12.843 -0.4031  0.7312  0.8733
   60TCq2    O6  924   1.135   0.983  12.728  0.6293 -0.2269 -0.1981
   60TCq2    H2  925   0.911   1.148  12.976  2.1643 -0.5713  0.5839
   60TCq2    H3  926   1.144   1.194  12.631  1.3377 -0.3692  1.5504
   60TCq2    H4  927   0.971   1.534  12.836 -1.5644 -0.7349 -0.4401
   61MPD2     C  928   0.570   3.398  15.268  0.4925 -0.0582  0.3151
   61MPD2    C1  929   0.586   3.533  15.295 -0.3793 -0.2916 -0.2554
   61MPD2    C2  930   0.605   3.621  15.189  0.0336  0.0861 -0.1943
   61MPD2    C3  931   0.629   3.573  15.064  0.3752  0.6370 -0.6107
   61MPD2    C4  932   0.610   3.439  15.037  0.3030  0.8714 -0.4874
   61MPD2    C5  933   0.592   3.357  15.142 -0.2825  0.2521  0.3283
   61MPD2     H  934   0.605   3.728  15.208  0.7011  0.1429 -0.4873
   61MPD2    H1  935   0.644   3.397  14.943 -2.3688 -0.2292 -0.9806
   61MPD2    H2  936   0.537   3.323  15.340 -2.6659  1.5068  0.5196
   61MPD2    H3  937   0.597   3.250  15.122  0.9863  0.2533  0.6129
   61MPD2     N  938   0.684   3.648  14.959  0.0546 -0.0197 -0.5702
   61MPD2    H5  939   0.705   3.599  14.873 -0.7273  0.9990 -1.3438
   61MPD2    N1  940   0.570   3.591  15.420  0.5319 -0.1661  0.4580
   61MPD2    H7  941   0.602   3.687  15.426  2.3462 -0.8523  1.6879
   62TCq2    C1  942   0.533   3.522  15.539 -0.1568 -0.0281  0.3541
   62TCq2    O2  943   0.529   3.403  15.565 -0.3855 -0.2353 -0.5614
   62TCq2    C2  944   0.530   3.614  15.655 -0.6098  0.1522 -0.2241
   62TCq2    C3  945   0.569   3.565  15.779  0.1966 -0.4612 -0.3847
   62TCq2    C4  946   0.585   3.654  15.885  0.8167 -0.2838  0.2727
   62TCq2    C5  947   0.539   3.780  15.878  0.2836 -0.6506  0.1501
   62TCq2    C6  948   0.504   3.830  15.749 -0.0626 -0.6858 -0.4432
   62TCq2    C7  949   0.504   3.744  15.639  0.0331 -0.0738 -0.1508
   62TCq2    C8  950   0.490   3.970  15.722 -0.4985 -0.1561  0.4435
   62TCq2    O4  951   0.473   4.008  15.607 -0.0969  0.6673 -0.0716
   62TCq2    C9  952   0.640   3.603  16.005  0.1042  0.6351  0.1154
   62TCq2    O5  953   0.647   3.682  16.101  0.1317  0.4298  0.2888
   62TCq2    O6  954   0.689   3.487  15.999 -0.2756  0.4047 -0.1935
   62TCq2    H2  955   0.611   3.465  15.785  0.0821 -0.5564 -1.2982
   62TCq2    H3  956   0.547   3.840  15.968  1.0532 -4.6682  2.7576
   62TCq2    H4  957   0.472   3.791  15.547 -3.7212  0.9269  1.6934
   63TMC2    C1  958   4.114   2.638  10.013 -1.5727 -0.4970 -0.4205
   63TMC2    C2  959   4.224   2.568   9.966 -0.5661 -0.9859  0.8385
   63TMC2    C3  960   4.236   2.557   9.833 -0.4998  0.3038  0.3239
   63TMC2    C4  961   4.030   2.709   9.933 -0.0597 -0.0566 -0.5738
   63TMC2    C5  962   4.059   2.709   9.798 -0.9724 -0.0145 -0.5852
   63TMC2    C6  963   4.159   2.627   9.745  0.3932  0.2322  0.5846
   63TMC2     C  964   4.121   2.687  10.152 -0.2232 -0.2068 -0.6723
   63TMC2     O  965   4.050   2.783  10.186 -0.0260 -0.1546  0.0856
   63TMC2     H  966   4.297   2.510  10.023 -2.2222 -2.0088  1.9238
   63TMC2    H1  967   3.954   2.769   9.982  0.9710 -0.5988  1.7055
   63TMC2    H2  968   4.176   2.624   9.638 -1.1047 -1.5126  0.3886
   63TMC2    C7  969   4.034   2.847   9.748  0.3841 -0.0405  0.3974
   63TMC2    C8  970   4.327   2.459   9.775  0.1388 -0.0559  0.5782
   63TMC2    O1  971   3.980   2.924   9.828  0.2583 -0.5294 -0.9302
   63TMC2    O2  972   4.421   2.412   9.838 -0.0229  0.0999  0.5251
   63TMC2    O5  973   4.284   2.423   9.653 -0.6308  0.0737  0.7009
   63TMC2    H5  974   4.194   2.453   9.626 -0.0896 -0.2894 -1.5018
   64MPD2     C  975   4.461   2.774  10.525  0.3860 -0.0912 -0.6526
   64MPD2    C1  976   4.433   2.639  10.521 -0.7151 -0.1860  0.8530
   64MPD2    C2  977   4.335   2.591  10.433  0.0655 -0.1895  0.9131
   64MPD2    C3  978   4.277   2.668  10.333  0.3685  0.1325 -0.2492
   64MPD2    C4  979   4.304   2.804  10.341 -0.0585 -0.1342 -0.3824
   64MPD2    C5  980   4.394   2.854  10.436 -0.4204 -0.0344 -0.6122
   64MPD2     H  981   4.309   2.486  10.430  0.4626 -0.2178 -1.6651
   64MPD2    H1  982   4.267   2.865  10.259  0.3164 -1.3679 -1.4760
   64MPD2    H2  983   4.531   2.824  10.589 -0.6663  3.5084 -2.3238
   64MPD2    H3  984   4.419   2.959  10.429  2.8826 -0.7887 -0.3084
   64MPD2     N  985   4.206   2.614  10.233 -0.2205 -0.7770 -0.7255
   64MPD2    H5  986   4.231   2.520  10.206 -1.8820 -1.5564  0.4393
   64MPD2    N1  987   4.506   2.541  10.586 -0.7260  0.1417 -0.0194
   64MPD2    H7  988   4.491   2.445  10.558 -3.1128  0.2515  0.9527
   65MPD2     C  989   0.844   2.915  15.972  0.2547  0.1613  0.4472
   65MPD2    C1  990   0.946   2.903  15.881 -0.4156 -0.0172  0.8406
   65MPD2    C2  991   0.982   2.777  15.850  0.6162  0.2418 -0.2728
   65MPD2    C3  992   0.916   2.667  15.907  0.2322  1.1420 -0.0416
   65MPD2    C4  993   0.816   2.679  16.003  0.1995 -0.3864 -1.0516
   65MPD2    C5  994   0.782   2.814  16.033 -0.6270  0.0940 -0.2272
   65MPD2     H  995   1.049   2.768  15.765  0.2148 -2.0414 -0.3311
   65MPD2    H1  996   0.772   2.590  16.044 -1.5786  0.9581 -0.0700
   65MPD2    H2  997   0.806   3.010  16.007 -0.2738 -0.6009  1.9574
   65MPD2    H3  998   0.698   2.839  16.097  0.2455 -0.4776  1.1593
   65MPD2     N  999   0.949   2.537  15.857 -0.1977 -0.2405  0.1984
   65MPD2    H5 1000   0.896   2.463  15.901 -1.6989  1.0263  0.5359
   65MPD2    N1 1001   0.996   3.010  15.796 -0.6672 -0.1601 -0.0390
   65MPD2    H7 1002   1.053   2.984  15.716 -1.6249  2.7435 -1.6551
   66TCq2    C1 1003   0.947   3.137  15.808 -0.0315  1.6534 -0.1268
   66TCq2    O2 1004   0.879   3.192  15.894  0.2531 -0.1993 -0.1484
   66TCq2    C2 1005   0.954   3.207  15.680 -0.1230  0.3706  0.1115
   66TCq2    C3 1006   1.026   3.149  15.576 -0.9481  0.0089 -0.4701
   66TCq2    C4 1007   1.045   3.220  15.470 -0.1326 -0.6378  0.4613
   66TCq2    C5 1008   0.989   3.342  15.453  0.2055 -0.1081 -0.6775
   66TCq2    C6 1009   0.925   3.403  15.558  0.4299 -0.3870  0.1469
   66TCq2    C7 1010   0.909   3.337  15.676  0.0997 -0.2868 -0.4124
   66TCq2    C8 1011   0.905   3.547  15.553 -0.1519  0.8602  0.2367
   66TCq2    O4 1012   0.913   3.593  15.444 -0.7274 -0.3914 -0.2531
   66TCq2    C9 1013   1.113   3.166  15.356 -0.6621 -0.0072 -0.3083
   66TCq2    O5 1014   1.119   3.232  15.249 -0.5457  1.2136 -0.0129
   66TCq2    O6 1015   1.167   3.052  15.363  0.1931 -0.6480  0.4512
   66TCq2    H2 1016   1.061   3.047  15.571 -2.5355 -0.3653 -4.1565
   66TCq2    H3 1017   0.999   3.395  15.359  0.8557  2.1388  0.6392
   66TCq2    H4 1018   0.839   3.375  15.750 -2.0078 -2.7287 -1.1112
   67MPD2     C 1019   1.202   2.381  14.389  0.0989 -0.3937  0.8096
   67MPD2    C1 1020   1.187   2.510  14.410  0.3365 -0.7565 -0.2857
   67MPD2    C2 1021   1.125   2.578  14.306  0.4581 -0.4710  0.5600
   67MPD2    C3 1022   1.078   2.516  14.196 -0.2399 -0.0633 -0.1773
   67MPD2    C4 1023   1.086   2.379  14.181 -0.4500 -0.3221 -0.2395
   67MPD2    C5 1024   1.165   2.323  14.275  0.0165  0.0434  0.6075
   67MPD2     H 1025   1.115   2.686  14.302  0.2327 -0.5850 -1.8701
   67MPD2    H1 1026   1.053   2.322  14.094  1.6171 -0.1052 -1.1693
   67MPD2    H2 1027   1.258   2.314  14.453 -1.1379 -2.0885  0.1131
   67MPD2    H3 1028   1.191   2.218  14.265 -0.9073 -0.0559 -0.6979
   67MPD2     N 1029   1.015   2.598  14.104  0.0323  0.0226 -0.2202
   67MPD2    H5 1030   1.009   2.699  14.112 -0.9206 -0.2393  2.2695
   67MPD2    N1 1031   1.236   2.578  14.522 -0.2619 -0.3475  0.1085
   67MPD2    H7 1032   1.226   2.679  14.530 -0.4262 -0.2296 -1.6397
   68TCq2    C1 1033   1.290   2.513  14.626  0.0394 -0.5014 -0.0692
   68TCq2    O2 1034   1.320   2.398  14.647 -0.0835  0.0423  0.6401
   68TCq2    C2 1035   1.305   2.600  14.745 -0.0967 -0.1191 -0.0297
   68TCq2    C3 1036   1.225   2.708  14.757  0.2075  0.2299  0.9198
   68TCq2    C4 1037   1.259   2.810  14.833  0.5183  0.8853  0.7976
   68TCq2    C5 1038   1.382   2.806  14.901  0.6783 -0.3563  0.0306
   68TCq2    C6 1039   1.462   2.697  14.894 -0.4331  0.2085  0.3260
   68TCq2    C7 1040   1.425   2.593  14.814  0.5217 -0.1709 -0.1563
   68TCq2    C8 1041   1.577   2.684  14.979 -0.3617  0.4023 -0.4962
   68TCq2    O4 1042   1.663   2.597  14.961 -0.5846 -0.3256  0.0302
   68TCq2    C9 1043   1.178   2.931  14.827 -0.0159 -0.2538 -0.5639
   68TCq2    O5 1044   1.194   3.018  14.919  0.0842  0.4016  0.0140
   68TCq2    O6 1045   1.065   2.926  14.772 -0.3619  0.0918 -0.2120
   68TCq2    H2 1046   1.130   2.718  14.706 -0.2322 -2.5166  1.2028
   68TCq2    H3 1047   1.407   2.903  14.944 -0.1061  0.0775 -0.4939
   68TCq2    H4 1048   1.498   2.523  14.777  0.5609 -0.4525  0.4475
   69TMC2    C1 1049   3.074   3.528  12.459 -0.0636  0.8224  0.0575
   69TMC2    C2 1050   2.977   3.593  12.386 -0.5138  0.8051 -0.0656
   69TMC2    C3 1051   3.029   3.651  12.269 -0.2168  0.2994  0.2717
   69TMC2    C4 1052   3.210   3.532  12.433 -0.4680 -0.1701  0.2907
   69TMC2    C5 1053   3.251   3.594  12.315 -0.1731  0.3663 -0.3143
   69TMC2    C6 1054   3.162   3.654  12.229  0.6184  0.5096  0.0003
   69TMC2     C 1055   3.033   3.429  12.556  0.4465 -0.4724 -0.1501
   69TMC2     O 1056   3.121   3.364  12.614  0.2726 -0.5434 -0.1025
   69TMC2     H 1057   2.870   3.585  12.396 -0.4104  2.2375  2.0660
   69TMC2    H1 1058   3.278   3.486  12.504  1.8641  0.4235 -1.5645
   69TMC2    H2 1059   3.204   3.718  12.152 -0.3356 -0.6937 -1.5219
   69TMC2    C7 1060   3.389   3.590  12.278 -0.0467  0.6320  0.3520
   69TMC2    C8 1061   2.948   3.758  12.212 -0.3934  0.6662  0.5395
   69TMC2    O1 1062   3.424   3.616  12.168  0.1371  0.2988  0.1321
   69TMC2    O2 1063   2.843   3.799  12.262  0.0401  0.4798  1.1634
   69TMC2    O5 1064   2.978   3.766  12.082 -0.0405 -0.3334  0.3956
   69TMC2    H5 1065   3.063   3.742  12.040  0.3910  1.1893  0.4099
   70MPD2     C 1066   2.687   3.394  12.694 -0.2204 -0.0812  0.2811
   70MPD2    C1 1067   2.829   3.381  12.690 -0.2756  0.0727 -0.5707
   70MPD2    C2 1068   2.896   3.313  12.793  0.4479 -0.1076  0.1064
   70MPD2    C3 1069   2.827   3.252  12.898  0.3352  0.7939 -0.2056
   70MPD2    C4 1070   2.689   3.274  12.903  0.2328 -0.4403  0.0283
   70MPD2    C5 1071   2.621   3.343  12.805 -0.3290 -0.3892 -0.0378
   70MPD2     H 1072   3.004   3.306  12.796  0.5750  0.6351 -2.5551
   70MPD2    H1 1073   2.623   3.229  12.977  0.8472 -1.0754  0.1939
   70MPD2    H2 1074   2.616   3.435  12.623  0.7432  2.7697  0.9650
   70MPD2    H3 1075   2.513   3.352  12.809 -0.1773  1.1104  0.6439
   70MPD2     N 1076   2.884   3.176  12.996 -0.2400 -0.1151  0.1874
   70MPD2    H5 1077   2.821   3.143  13.069 -0.8344  0.6944  0.0452
   70MPD2    N1 1078   2.895   3.430  12.579 -0.0471 -0.7182  0.2379
   70MPD2    H7 1079   2.833   3.463  12.506 -0.8984 -3.4545 -0.2933
   71TMC2    C1 1080   1.834   4.184   1.723  0.6823  0.7002 -1.1041
   71TMC2    C2 1081   1.957   4.122   1.740 -0.4228 -0.1909 -0.9734
   71TMC2    C3 1082   1.985   4.087   1.870 -0.0095 -0.7738 -0.2374
   71TMC2    C4 1083   1.743   4.205   1.820 -0.2238  0.1280  0.4125
   71TMC2    C5 1084   1.772   4.171   1.947  0.0937 -0.1008 -0.7862
   71TMC2    C6 1085   1.898   4.111   1.972  0.1487  0.0573  0.3730
   71TMC2     C 1086   1.808   4.234   1.588  0.0189 -0.0612  0.2575
   71TMC2     O 1087   1.723   4.318   1.577 -0.6449 -0.3632  0.0396
   71TMC2     H 1088   2.029   4.111   1.660  0.6506 -0.6807  0.0636
   71TMC2    H1 1089   1.647   4.252   1.801 -0.5335  0.0671  1.8201
   71TMC2    H2 1090   1.920   4.083   2.074 -1.8835 -2.4521  0.0903
   71TMC2    C7 1091   1.671   4.170   2.054 -0.3423 -0.6973  0.9553
   71TMC2    C8 1092   2.122   4.049   1.900  0.3834  1.0028  0.2366
   71TMC2    O1 1093   1.701   4.107   2.155 -0.0315 -0.0520 -0.5764
   71TMC2    O2 1094   2.198   3.997   1.816  0.4471 -0.2039 -0.5277
   71TMC2    O5 1095   2.162   4.094   2.024  0.0481 -0.5080  0.1439
   71TMC2    H5 1096   2.104   4.156   2.073 -0.8971 -2.5644  1.6001
   72MPD2     C 1097   1.861   4.216   1.078  0.0216 -0.3612 -0.1949
   72MPD2    C1 1098   1.824   4.319   1.162 -0.4751 -0.4325  0.1630
   72MPD2    C2 1099   1.838   4.297   1.298 -0.0355 -0.6431 -0.1804
   72MPD2    C3 1100   1.874   4.177   1.352  0.8358  0.4273  0.2672
   72MPD2    C4 1101   1.921   4.079   1.266  0.2342 -0.2360  0.0200
   72MPD2    C5 1102   1.900   4.094   1.133  0.3305 -0.3321 -0.3799
   72MPD2     H 1103   1.796   4.370   1.367  0.2264  0.0479 -0.7453
   72MPD2    H1 1104   1.933   3.979   1.306 -1.0305  0.2930  1.7475
   72MPD2    H2 1105   1.864   4.213   0.970  0.4638  0.3615 -0.2036
   72MPD2    H3 1106   1.912   4.006   1.070  2.5298 -1.3541  1.4675
   72MPD2     N 1107   1.870   4.158   1.491  0.0731 -0.2615 -0.1304
   72MPD2    H5 1108   1.909   4.072   1.529  1.1858  1.1926  2.0509
   72MPD2    N1 1109   1.788   4.450   1.123  0.6627  0.5227  0.3734
   72MPD2    H7 1110   1.771   4.518   1.196 -4.7371  0.0690 -0.5228
   73TMC2    C1 1111   0.849   1.166  14.338 -0.4377  0.4863 -0.0791
   73TMC2    C2 1112   0.729   1.179  14.395 -0.2197  0.3076  0.4407
   73TMC2    C3 1113   0.728   1.242  14.512 -0.4384  0.3821  0.1336
   73TMC2    C4 1114   0.972   1.204  14.398 -0.9446  0.1397 -0.0340
   73TMC2    C5 1115   0.959   1.290  14.504  0.4225  0.3759 -0.0450
   73TMC2    C6 1116   0.836   1.304  14.567  0.0473 -0.5700  0.0706
   73TMC2     C 1117   0.852   1.196  14.198 -0.4401  0.1895  0.3479
   73TMC2     O 1118   0.946   1.269  14.172 -0.9104  0.0663  0.6027
   73TMC2     H 1119   0.631   1.163  14.352 -0.5529 -0.2443  1.4129
   73TMC2    H1 1120   1.064   1.193  14.341  0.1881 -2.7790  2.3983
   73TMC2    H2 1121   0.825   1.374  14.649 -0.7041  1.6370 -1.9205
   73TMC2    C7 1122   1.037   1.410  14.491  0.7307 -0.2784 -0.2591
   73TMC2    C8 1123   0.595   1.282  14.555 -0.1544 -0.4066 -0.5530
   73TMC2    O1 1124   1.070   1.482  14.583  0.3076  0.0843 -0.1634
   73TMC2    O2 1125   0.577   1.370  14.638  0.0150 -0.1492 -0.1175
   73TMC2    O5 1126   0.515   1.174  14.559 -0.2289  0.0703 -0.2416
   73TMC2    H5 1127   0.559   1.093  14.525  1.5459  0.7926  0.3154
   74MPD2     C 1128   0.694   1.184  13.708  0.1735  0.4053  0.0493
   74MPD2    C1 1129   0.769   1.281  13.771 -0.3145  0.3041 -0.3005
   74MPD2    C2 1130   0.782   1.272  13.913  0.0525 -0.6442  0.5263
   74MPD2    C3 1131   0.724   1.166  13.987 -0.2523 -1.1414  0.1774
   74MPD2    C4 1132   0.639   1.080  13.919 -0.3540 -0.4540 -0.1060
   74MPD2    C5 1133   0.631   1.089  13.785 -0.1707  0.2539  0.5824
   74MPD2     H 1134   0.843   1.344  13.967 -1.9530  1.0763  0.4931
   74MPD2    H1 1135   0.602   0.994  13.972 -2.5449  0.9058  0.5700
   74MPD2    H2 1136   0.679   1.167  13.602 -0.9310 -1.2870  0.4729
   74MPD2    H3 1137   0.584   1.001  13.742 -0.3360  1.2343 -1.2396
   74MPD2     N 1138   0.743   1.141  14.125 -0.3870 -1.0345 -0.1247
   74MPD2    H5 1139   0.684   1.075  14.175 -1.9665  0.5792  0.1527
   74MPD2    N1 1140   0.827   1.386  13.701  0.3571  0.2420 -0.0585
   74MPD2    H7 1141   0.833   1.377  13.600  1.7373  1.2962 -0.0559
   75TCq2    C1 1142   0.946   2.548  13.993 -0.2867  0.6638 -0.4953
   75TCq2    O2 1143   0.920   2.429  13.962 -0.0432 -0.3317  0.4335
   75TCq2    C2 1144   0.891   2.651  13.911 -0.8489 -0.3783 -0.1496
   75TCq2    C3 1145   0.871   2.777  13.959 -0.4225  0.3030  0.4690
   75TCq2    C4 1146   0.804   2.871  13.881 -0.4720  0.2696  0.7249
   75TCq2    C5 1147   0.748   2.829  13.760  0.2105  1.0422  0.0602
   75TCq2    C6 1148   0.774   2.704  13.715 -0.1487 -1.3480 -0.2220
   75TCq2    C7 1149   0.853   2.615  13.785  0.5122  0.3841 -0.4769
   75TCq2    C8 1150   0.705   2.655  13.598  1.0828 -0.3393 -0.4070
   75TCq2    O4 1151   0.726   2.539  13.576 -0.4961 -0.1441 -0.3239
   75TCq2    C9 1152   0.785   3.005  13.927  0.1892 -0.6765  0.0603
   75TCq2    O5 1153   0.798   3.031  14.049 -0.0448  0.1646  0.4560
   75TCq2    O6 1154   0.714   3.076  13.852 -0.3935  0.3659  0.3834
   75TCq2    H2 1155   0.908   2.811  14.055  0.3692 -0.4708  0.4330
   75TCq2    H3 1156   0.676   2.895  13.712 -2.7185 -0.9573  1.7200
   75TCq2    H4 1157   0.881   2.519  13.744 -1.6894 -0.3958 -0.1949
   76MPD2     C 1158   4.578   3.084  12.035  0.3450  0.4035  0.0942
   76MPD2    C1 1159   4.471   3.017  11.982  0.0840 -0.7609  0.8871
   76MPD2    C2 1160   4.479   2.885  11.953 -0.0750  0.1407  0.1291
   76MPD2    C3 1161   4.602   2.817  11.965 -0.6558 -0.5143 -0.0787
   76MPD2    C4 1162   4.708   2.889  12.014  0.1689  0.1822  0.2514
   76MPD2    C5 1163   4.693   3.017  12.060 -0.2602 -1.0547 -0.3377
   76MPD2     H 1164   4.398   2.825  11.913 -1.1579  1.5186  0.2966
   76MPD2    H1 1165   0.093   2.855  12.024 -0.8580 -3.3464 -1.0061
   76MPD2    H2 1166   4.574   3.189  12.064  0.9274  0.5491 -0.3467
   76MPD2    H3 1167   0.066   3.068  12.088 -0.4311 -1.5406  1.1624
   76MPD2     N 1168   4.610   2.684  11.946 -0.1622 -0.9600  0.2177
   76MPD2    H5 1169   4.533   2.622  11.924 -0.2654 -0.4404 -0.8669
   76MPD2    N1 1170   4.349   3.082  11.948 -0.4332 -0.0268  0.0733
   76MPD2    H7 1171   4.284   3.025  11.893  0.5028 -0.8650 -0.1586
   77TCq2    C1 1172   0.014   2.616  11.926  0.6590  0.2518  0.1157
   77TCq2    O2 1173   0.133   2.653  11.924  0.4110 -0.2613  0.3522
   77TCq2    C2 1174   4.711   2.478  11.897 -0.1105 -0.1005  0.2314
   77TCq2    C3 1175   4.591   2.432  11.834  0.0888 -0.4474  0.5035
   77TCq2    C4 1176   4.565   2.298  11.820  0.3870  0.0787 -0.3462
   77TCq2    C5 1177   4.667   2.211  11.855  0.1866  0.0338 -0.2434
   77TCq2    C6 1178   0.064   2.261  11.911 -0.0157 -0.6092 -0.0160
   77TCq2    C7 1179   0.092   2.393  11.933 -0.1309  0.5765  0.1271
   77TCq2    C8 1180   0.148   2.165  11.972  0.5230 -0.6702 -0.1949
   77TCq2    O4 1181   0.160   2.052  11.933 -0.2711  0.0468  0.1348
   77TCq2    C9 1182   4.436   2.252  11.777 -0.2568 -0.4884 -0.2132
   77TCq2    O5 1183   4.408   2.129  11.787 -0.2688  0.1125 -0.1059
   77TCq2    O6 1184   4.340   2.333  11.780  0.1059  0.1834  0.2804
   77TCq2    H2 1185   4.515   2.503  11.802  0.1870 -0.4942  0.1670
   77TCq2    H3 1186   4.658   2.104  11.842  2.2168 -0.2442  0.5892
   77TCq2    H4 1187   0.189   2.430  11.964  1.0148 -2.4353  0.1583
   78MPD1     C 1188   2.884   1.826   1.916  0.6545 -0.2669  0.9428
   78MPD1    C1 1189   2.830   1.929   1.993 -0.2342 -0.5945 -0.3319
   78MPD1    C2 1190   2.923   2.004   2.066 -0.6391  0.3070  0.7557
   78MPD1    C3 1191   3.056   1.969   2.079 -0.4408  1.5483 -0.5223
   78MPD1    C4 1192   3.103   1.861   2.005 -0.1015  0.1879 -0.1199
   78MPD1    C5 1193   3.013   1.790   1.928  0.0457 -0.3258 -0.7917
   78MPD1     H 1194   2.895   2.102   2.101  1.8256  1.0423  0.6872
   78MPD1    H1 1195   3.210   1.842   2.001 -0.4875 -1.9794 -0.3681
   78MPD1    H2 1196   2.823   1.767   1.849  1.5745 -0.6929  0.4826
   78MPD1    H3 1197   3.053   1.711   1.866  1.8459  0.3551 -0.5010
   78MPD1     N 1198   3.161   2.051   2.142 -0.1119  0.1171  0.4846
   78MPD1    H5 1199   3.251   2.006   2.154 -0.4521  0.2019  3.3786
   78MPD1    N1 1200   2.705   1.980   1.952 -0.0349 -0.1948 -0.0037
   78MPD1    H6 1201   2.648   1.907   1.911  0.9955 -0.6002 -0.7259
   78MPD1    H7 1202   2.664   2.033   2.029  0.2184 -1.5901  1.0940
   79TCq2    C1 1203   3.157   2.182   2.175  0.0087  0.4899  0.6071
   79TCq2    O2 1204   3.071   2.267   2.171 -0.0081 -0.5054  0.1046
   79TCq2    C2 1205   3.286   2.230   2.219 -0.4300  0.9967 -0.0785
   79TCq2    C3 1206   3.397   2.141   2.226 -0.0958 -0.3465 -0.1103
   79TCq2    C4 1207   3.525   2.189   2.226 -0.1603  0.0913  0.1094
   79TCq2    C5 1208   3.545   2.323   2.233 -0.2454  0.0883 -0.6320
   79TCq2    C6 1209   3.436   2.409   2.235  0.5474 -0.5609 -0.8248
   79TCq2    C7 1210   3.307   2.364   2.230 -0.1607  0.4784  0.9526
   79TCq2    C8 1211   3.449   2.552   2.217  0.0073  0.0735 -0.1934
   79TCq2    O4 1212   3.347   2.623   2.243 -0.4069  0.2351 -0.1230
   79TCq2    C9 1213   3.639   2.099   2.219  0.1010 -0.5128  0.3281
   79TCq2    O5 1214   3.618   1.978   2.217  0.0109  0.2979 -0.3811
   79TCq2    O6 1215   3.753   2.151   2.217  0.1288 -0.4242  0.1364
   79TCq2    H2 1216   3.390   2.033   2.233  0.7457 -0.2676  1.9709
   79TCq2    H3 1217   3.648   2.355   2.248  0.1198 -1.9374  1.2080
   79TCq2    H4 1218   3.220   2.429   2.236  0.6443  1.7778 -1.4759
   80MPD2     C 1219   3.540   2.575  12.444 -0.3681  0.9717 -0.1596
   80MPD2    C1 1220   3.473   2.539  12.339  0.3942 -0.1432  0.3170
   80MPD2    C2 1221   3.336   2.549  12.348 -0.9727  0.4994 -0.2143
   80MPD2    C3 1222   3.271   2.594  12.457  0.4258  0.1004 -0.1849
   80MPD2    C4 1223   3.346   2.606  12.572 -0.1357  0.6167 -0.2220
   80MPD2    C5 1224   3.482   2.612  12.560  0.2750 -0.3739  0.5048
   80MPD2     H 1225   3.281   2.538  12.255 -1.5295 -2.1618  0.4072
   80MPD2    H1 1226   3.296   2.630  12.665 -0.0783  0.0655 -0.0491
   80MPD2    H2 1227   3.649   2.575  12.440 -0.3586 -1.4377 -0.3760
   80MPD2    H3 1228   3.542   2.636  12.647 -0.3758  0.5137  0.7137
   80MPD2     N 1229   3.131   2.617  12.450 -0.0463  0.1360  0.1337
   80MPD2    H5 1230   3.083   2.594  12.363 -0.2018 -0.5481  0.3982
   80MPD2    N1 1231   3.528   2.484  12.222  0.2887  0.5214  0.0591
   80MPD2    H7 1232   3.457   2.460  12.154  1.6073  1.7194 -1.7481
   81TCq2    C1 1233   3.662   2.475  12.198  0.9618 -0.6067  0.2771
   81TCq2    O2 1234   3.763   2.512  12.256  0.9185 -0.1189 -0.1177
   81TCq2    C2 1235   3.672   2.407  12.071 -0.3382 -0.8152  0.2931
   81TCq2    C3 1236   3.774   2.456  11.991 -0.1780 -0.6808 -0.1616
   81TCq2    C4 1237   3.783   2.399  11.868  0.1238 -0.5912 -0.3808
   81TCq2    C5 1238   3.699   2.304  11.828 -0.1006 -0.8403  0.1209
   81TCq2    C6 1239   3.607   2.254  11.909  0.8005  0.1266  0.0503
   81TCq2    C7 1240   3.586   2.307  12.035  0.1575 -0.2403 -0.5111
   81TCq2    C8 1241   3.501   2.168  11.857 -0.0626 -0.6374 -0.1323
   81TCq2    O4 1242   3.483   2.174  11.734 -0.1969  0.4087 -0.4065
   81TCq2    C9 1243   3.888   2.442  11.776  0.1030 -0.0375  0.3919
   81TCq2    O5 1244   3.894   2.397  11.658  0.0763 -0.5723  0.0424
   81TCq2    O6 1245   3.987   2.508  11.832 -0.4331 -0.4657  0.3296
   81TCq2    H2 1246   3.843   2.529  12.031  1.5696 -0.4689 -3.5865
   81TCq2    H3 1247   3.705   2.255  11.732  0.7895  1.7738 -1.1394
   81TCq2    H4 1248   3.515   2.265  12.105  0.6386  1.1948  0.8229
   82MPD2     C 1249   1.802   2.463  10.632 -0.3203 -0.0898  0.1178
   82MPD2    C1 1250   1.722   2.356  10.616 -0.8246 -0.4776 -0.5009
   82MPD2    C2 1251   1.758   2.226  10.666  0.6008 -0.0537 -0.2482
   82MPD2    C3 1252   1.882   2.205  10.722  0.6663 -0.1148  0.4238
   82MPD2    C4 1253   1.974   2.313  10.714  0.6906  0.6107 -0.6795
   82MPD2    C5 1254   1.937   2.439  10.671  0.3541  0.1788 -0.3655
   82MPD2     H 1255   1.687   2.146  10.651  2.5907 -1.3923 -2.4768
   82MPD2    H1 1256   2.069   2.312  10.764  1.2442 -0.0975 -1.7427
   82MPD2    H2 1257   1.770   2.559  10.595  0.0751 -0.4608 -1.1726
   82MPD2    H3 1258   2.009   2.520  10.673  1.0975 -0.4908 -0.5290
   82MPD2     N 1259   1.926   2.085  10.781 -0.4657 -0.0573  0.9674
   82MPD2    H5 1260   2.022   2.082  10.813  0.3284 -0.9290 -1.4980
   82MPD2    N1 1261   1.601   2.383  10.543  0.3282  0.1511 -1.0592
   82MPD2    H7 1262   1.586   2.481  10.522  1.3850  0.4432 -0.4288
   83TCq2    C1 1263   1.839   1.993  10.832 -0.3704  1.0466 -0.9233
   83TCq2    O2 1264   1.718   1.989  10.818 -0.3941 -0.3935 -0.4073
   83TCq2    C2 1265   1.903   1.883  10.902  0.0188 -0.4674 -0.1818
   83TCq2    C3 1266   2.038   1.867  10.896 -0.0068  0.1350 -0.5815
   83TCq2    C4 1267   2.086   1.753  10.962  0.1737 -0.4856 -0.4687
   83TCq2    C5 1268   2.009   1.653  11.013  0.1274  0.5869  0.8522
   83TCq2    C6 1269   1.871   1.669  10.998  0.0082  0.3485 -0.2698
   83TCq2    C7 1270   1.821   1.784  10.952  0.3471  0.6916  0.0698
   83TCq2    C8 1271   1.782   1.572  11.064 -0.8710  0.0178  0.2610
   83TCq2    O4 1272   1.686   1.618  11.134 -0.4977  0.1563  0.1512
   83TCq2    C9 1273   2.226   1.739  10.957  0.3834  0.8876 -0.4096
   83TCq2    O5 1274   2.296   1.820  10.895  0.4523 -0.2046 -0.2330
   83TCq2    O6 1275   2.273   1.663  11.042 -0.0188 -0.2703  0.5069
   83TCq2    H2 1276   2.112   1.938  10.860  0.6486 -0.7101 -0.9027
   83TCq2    H3 1277   2.057   1.561  11.046  3.1353  1.8607  0.0154
   83TCq2    H4 1278   1.716   1.804  10.964 -0.0998  1.0673 -4.5504
   84TCq2    C1 1279   2.507   0.176  11.044  0.7011  0.6371 -0.2737
   84TCq2    O2 1280   2.552   0.241  10.949 -0.2250  0.5929  0.4154
   84TCq2    C2 1281   2.460   0.256  11.158  0.1432 -0.4551  0.3905
   84TCq2    C3 1282   2.463   0.189  11.276 -0.0012 -0.4262  0.6895
   84TCq2    C4 1283   2.488   0.265  11.388 -0.3327  0.8921 -0.2360
   84TCq2    C5 1284   2.528   0.398  11.379 -0.3467  0.0439  0.5676
   84TCq2    C6 1285   2.516   0.460  11.256 -0.1717 -0.8508  0.0398
   84TCq2    C7 1286   2.471   0.395  11.146  0.2546  0.0312  0.3689
   84TCq2    C8 1287   2.525   0.610  11.248 -0.3395 -0.7822  0.1139
   84TCq2    O4 1288   2.484   0.669  11.148 -0.0174 -0.6658 -0.4294
   84TCq2    C9 1289   2.502   0.203  11.516  0.0466 -0.0572 -0.3661
   84TCq2    O5 1290   2.461   0.087  11.523  0.2166  0.0249  0.0163
   84TCq2    O6 1291   2.576   0.263  11.600  0.2117 -0.8295 -0.0756
   84TCq2    H2 1292   2.452   0.082  11.288  1.5972 -0.7144 -0.4496
   84TCq2    H3 1293   2.536   0.454  11.472  1.4522 -0.1596  0.5429
   84TCq2    H4 1294   2.486   0.446  11.052  0.2044  0.0182  0.3537
   85MPD2     C 1295   2.704   3.988  16.099 -0.0847  0.3073 -0.1062
   85MPD2    C1 1296   2.818   3.905  16.105 -0.0902 -0.7048  0.2004
   85MPD2    C2 1297   2.933   3.950  16.041  0.4599 -0.8076 -0.6434
   85MPD2    C3 1298   2.939   4.064  15.969  0.6464 -0.0410 -0.3084
   85MPD2    C4 1299   2.825   4.141  15.967 -0.4162  0.3509 -0.6629
   85MPD2    C5 1300   2.716   4.105  16.033  0.0098  0.2749 -0.1128
   85MPD2     H 1301   3.023   3.890  16.044  0.2021 -1.1363  0.5152
   85MPD2    H1 1302   2.821   4.231  15.907  1.3161  1.1397  0.3792
   85MPD2    H2 1303   2.608   3.977  16.149 -0.0389 -0.2246 -0.1290
   85MPD2    H3 1304   2.633   4.173  16.028 -0.1262  0.1378  0.2336
   85MPD2     N 1305   3.063   4.110  15.921  0.4858  0.0212 -0.1086
   85MPD2    H5 1306   3.143   4.056  15.950 -0.5267 -0.3356  2.0148
   85MPD2    N1 1307   2.817   3.780  16.170  0.0127  0.1460  0.2396
   85MPD2    H7 1308   2.893   3.718  16.143 -1.4516 -1.2929 -0.6064
   86TCq2    C1 1309   3.077   4.228  15.844 -0.2412  0.2517  0.0047
   86TCq2    O2 1310   2.992   4.304  15.799  0.1233  0.1382 -0.3370
   86TCq2    C2 1311   3.211   4.271  15.811 -1.0729 -0.3648 -0.0050
   86TCq2    C3 1312   3.236   4.404  15.775  0.5716 -0.6986  0.6866
   86TCq2    C4 1313   3.349   4.438  15.711  0.1298 -0.6344  0.0528
   86TCq2    C5 1314   3.446   4.350  15.695  0.1162  0.4250 -0.1358
   86TCq2    C6 1315   3.422   4.222  15.736 -0.1057 -0.4502  0.8454
   86TCq2    C7 1316   3.309   4.176  15.793 -0.0847 -0.3969 -0.3933
   86TCq2    C8 1317   3.515   4.119  15.689 -0.3244 -0.1029 -0.4446
   86TCq2    O4 1318   3.524   4.024  15.766  0.3135  0.7425 -0.2396
   86TCq2    C9 1319   3.371   4.571  15.671 -1.0271 -0.5727 -0.3108
   86TCq2    O5 1320   3.475   4.601  15.606 -0.2880 -0.9284  0.2486
   86TCq2    O6 1321   3.302   4.659  15.730 -0.9032 -0.5903 -0.2244
   86TCq2    H2 1322   3.155   4.475  15.782  0.1387 -0.9793 -1.4441
   86TCq2    H3 1323   3.538   4.387  15.650 -0.2582  1.5041 -0.0272
   86TCq2    H4 1324   3.288   4.071  15.812  0.8294 -0.4595  0.2994
   87MPD2     C 1325   1.337   3.081   2.353 -0.2503 -0.1230  0.2306
   87MPD2    C1 1326   1.414   3.111   2.243 -0.2688 -0.1139 -0.2971
   87MPD2    C2 1327   1.399   3.237   2.190  0.2079  0.7454  1.4528
   87MPD2    C3 1328   1.308   3.328   2.232 -0.1422 -0.2781  0.3236
   87MPD2    C4 1329   1.225   3.293   2.338  0.5424  0.0302  0.2628
   87MPD2    C5 1330   1.249   3.176   2.400 -1.0885  0.8031  0.1427
   87MPD2     H 1331   1.449   3.257   2.096 -2.1465  1.9465  0.4720
   87MPD2    H1 1332   1.156   3.365   2.380 -3.7038 -2.8000 -1.8335
   87MPD2    H2 1333   1.346   2.988   2.406 -2.2072 -0.5982 -0.2727
   87MPD2    H3 1334   1.191   3.152   2.488 -0.0198 -0.0545  0.6252
   87MPD2     N 1335   1.294   3.463   2.183  0.3970  0.0945 -0.2620
   87MPD2    H5 1336   1.216   3.519   2.216  1.0503  0.1038  1.2345
   87MPD2    N1 1337   1.486   3.004   2.187 -0.0412  0.3434  0.0174
   87MPD2    H7 1338   1.472   2.917   2.237 -0.0139 -0.1891 -0.8995
   88TCq2    C1 1339   1.551   3.006   2.068 -0.1771  0.6131 -0.7042
   88TCq2    O2 1340   1.578   3.099   1.991 -0.7588 -0.1727  0.1256
   88TCq2    C2 1341   1.617   2.878   2.031  0.2014  0.2765 -0.4125
   88TCq2    C3 1342   1.670   2.796   2.128  0.6521  0.0909  0.5822
   88TCq2    C4 1343   1.733   2.683   2.086  0.3832 -0.7764 -0.1430
   88TCq2    C5 1344   1.746   2.650   1.960 -0.3719  0.0753  0.6110
   88TCq2    C6 1345   1.704   2.737   1.864  0.2501  0.0319  0.3242
   88TCq2    C7 1346   1.641   2.851   1.903 -0.2580 -0.7402 -0.7993
   88TCq2    C8 1347   1.721   2.707   1.724  0.0405 -0.4247  0.0808
   88TCq2    O4 1348   1.656   2.775   1.642 -0.4663 -0.1249 -0.3362
   88TCq2    C9 1349   1.780   2.588   2.183 -0.5535  0.1054 -0.2472
   88TCq2    O5 1350   1.812   2.469   2.150  0.2010  0.3522  0.4085
   88TCq2    O6 1351   1.772   2.619   2.305 -0.4851 -0.2529  0.0761
   88TCq2    H2 1352   1.658   2.817   2.233  2.3106  2.0975  0.3866
   88TCq2    H3 1353   1.792   2.555   1.935 -1.4942 -0.2403 -0.2826
   88TCq2    H4 1354   1.604   2.917   1.826 -1.8022  1.2869  1.6712
   89MPD2     C 1355   2.166   0.285   2.667 -0.2102 -0.0277  0.2663
   89MPD2    C1 1356   2.090   0.329   2.558  0.3429  0.0686  0.2006
   89MPD2    C2 1357   2.132   0.427   2.473 -0.7021  0.7956  0.3261
   89MPD2    C3 1358   2.252   0.494   2.510  0.0904 -0.5707 -0.3288
   89MPD2    C4 1359   2.319   0.464   2.628 -0.0461 -0.5337 -0.6453
   89MPD2    C5 1360   2.275   0.358   2.704 -0.0135 -0.1708 -0.1842
   89MPD2     H 1361   2.076   0.447   2.382  0.8735  3.6985  0.0049
   89MPD2    H1 1362   2.408   0.511   2.667 -0.1310  1.1306 -2.4756
   89MPD2    H2 1363   2.131   0.205   2.731  0.3252  0.6537  1.4019
   89MPD2    H3 1364   2.325   0.334   2.797 -0.8905  3.5546  1.2487
   89MPD2     N 1365   2.285   0.606   2.431 -0.2537  0.1342  0.1912
   89MPD2    H5 1366   2.224   0.619   2.351  2.3297  0.8587 -1.6617
   89MPD2    N1 1367   1.959   0.275   2.534  0.2504 -0.1034  0.3560
   89MPD2    H7 1368   1.909   0.316   2.457 -0.9101 -0.0355  1.1542
   90TCq2    C1 1369   2.386   0.699   2.461 -0.2377 -0.7660 -0.0143
   90TCq2    O2 1370   2.466   0.711   2.551  0.1518 -0.0891 -0.5882
   90TCq2    C2 1371   2.386   0.807   2.362  0.0152 -0.6287 -0.1877
   90TCq2    C3 1372   2.491   0.895   2.368  0.3932 -0.2228 -0.0692
   90TCq2    C4 1373   2.485   1.016   2.297  0.5633 -0.0655  0.6800
   90TCq2    C5 1374   2.388   1.040   2.201 -0.0102 -0.6885 -0.2110
   90TCq2    C6 1375   2.278   0.952   2.203 -0.3288  0.4605  0.0925
   90TCq2    C7 1376   2.281   0.835   2.274 -0.4599 -0.2089  0.5099
   90TCq2    C8 1377   2.164   0.978   2.120 -0.0308 -0.3892 -0.3579
   90TCq2    O4 1378   2.060   0.915   2.154  0.5363  0.0237  0.0850
   90TCq2    C9 1379   2.600   1.103   2.299 -0.6118 -1.6286  0.2704
   90TCq2    O5 1380   2.699   1.063   2.372  0.3092 -0.1137 -0.2434
   90TCq2    O6 1381   2.596   1.206   2.226  0.3700 -0.3233 -0.0054
   90TCq2    H2 1382   2.571   0.880   2.439  0.3940 -1.0186 -0.2407
   90TCq2    H3 1383   2.388   1.136   2.149 -0.5340 -0.0793  0.9101
   90TCq2    H4 1384   2.194   0.770   2.287 -1.1610  0.8361  1.0494
   91TMC2    C1 1385   3.297   0.185  16.692 -0.4829  0.2083  0.7057
   91TMC2    C2 1386   3.337   0.264  16.587  0.3230  0.3438  0.2302
   91TMC2    C3 1387   3.242   0.279  16.489 -0.4541  0.1577  0.0992
   91TMC2    C4 1388   3.187   0.107  16.683  0.2714 -0.5108 -0.1753
   91TMC2    C5 1389   3.091   0.137  16.591  0.2761 -0.2340  0.5176
   91TMC2    C6 1390   3.116   0.232  16.490 -0.0678  0.7629 -0.7057
   91TMC2     C 1391   3.392   0.164  16.800 -0.2499  0.3903  0.3768
   91TMC2     O 1392   3.361   0.106  16.903  0.0373  0.4704  0.0884
   91TMC2     H 1393   3.422   0.331  16.593  0.9425 -0.2706 -1.7626
   91TMC2    H1 1394   3.174   0.041  16.769  1.4223  1.5730  1.6111
   91TMC2    H2 1395   3.049   0.255  16.408 -3.1364 -1.6532  1.1129
   91TMC2    C7 1396   2.962   0.072  16.591  0.1229  1.0211 -0.3880
   91TMC2    C8 1397   3.276   0.362  16.380  0.0602  0.3286 -0.2690
   91TMC2    O1 1398   2.947   0.000  16.693 -0.0880  0.2258 -0.3916
   91TMC2    O2 1399   3.196   0.414  16.303 -0.2809 -0.3928  0.2258
   91TMC2    O5 1400   3.411   0.363  16.364  0.6109  0.2928  0.0194
   91TMC2    H5 1401   3.451   0.292  16.420 -0.5040 -1.1528 -1.0260
   92MPD2     C 1402   3.656   0.123  16.956  0.0739  0.6148  0.0898
   92MPD2    C1 1403   3.641   0.195  16.834  0.2537  0.3393 -0.7618
   92MPD2    C2 1404   3.741   0.263  16.773  0.0162  0.2766 -0.5817
   92MPD2    C3 1405   3.868   0.262  16.829 -0.3419 -0.6681 -0.2431
   92MPD2    C4 1406   3.888   0.189  16.949  0.4441  0.0736 -0.8282
   92MPD2    C5 1407   3.783   0.121  17.009  0.0249 -0.3723  0.0496
   92MPD2     H 1408   3.724   0.309  16.676  0.9808  0.2544 -0.7571
   92MPD2    H1 1409   3.985   0.173  16.994  0.0383 -1.2203 -0.4192
   92MPD2    H2 1410   3.580   0.066  17.008 -1.5375 -0.6584 -3.6437
   92MPD2    H3 1411   3.808   0.074  17.103  0.0451 -0.0324  0.2171
   92MPD2     N 1412   3.976   0.336  16.764 -0.3618 -0.0569 -0.0868
   92MPD2    H5 1413   3.953   0.389  16.681 -1.7867 -0.1435  0.2528
   92MPD2    N1 1414   3.521   0.200  16.763 -0.4510 -0.0950 -0.0192
   92MPD2    H7 1415   3.522   0.245  16.672  1.9381  0.5398  0.3316
   93MPD2     C 1416   0.327   0.797  13.827 -0.2529 -0.5244  0.2769
   93MPD2    C1 1417   0.297   0.664  13.793  0.0509 -0.0345  0.6448
   93MPD2    C2 1418   0.165   0.626  13.804  0.1703 -0.3314 -0.3695
   93MPD2    C3 1419   0.071   0.713  13.859 -0.1299 -0.1031 -0.4488
   93MPD2    C4 1420   0.101   0.843  13.890 -1.0252  0.1906  0.2509
   93MPD2    C5 1421   0.226   0.885  13.875  0.0203  0.4462 -0.3919
   93MPD2     H 1422   0.128   0.526  13.783 -0.5381  0.1164 -1.2251
   93MPD2    H1 1423   0.028   0.902  13.943 -1.9127 -0.7954  0.1138
   93MPD2    H2 1424   0.428   0.835  13.823 -0.0909 -0.9469  0.3558
   93MPD2    H3 1425   0.258   0.985  13.900  1.6994 -0.3484  0.6391
   93MPD2     N 1426   4.658   0.681  13.883  0.3715 -0.3780  0.0444
   93MPD2    H5 1427   4.597   0.755  13.917  2.5586  0.9713  1.0691
   93MPD2    N1 1428   0.387   0.556  13.767  0.5459  0.1011 -0.7753
   93MPD2    H7 1429   0.353   0.468  13.731 -3.0770  1.6326 -1.0908
   94TCq2    C1 1430   0.529   0.567  13.759  0.2669  0.3144  0.3518
   94TCq2    O2 1431   0.599   0.667  13.769 -0.1578 -0.4875  0.5747
   94TCq2    C2 1432   0.601   0.435  13.767  0.1260 -0.0841 -0.3957
   94TCq2    C3 1433   0.535   0.314  13.773 -0.0931 -0.0320  0.2771
   94TCq2    C4 1434   0.611   0.197  13.776  0.0342  0.9263  0.8153
   94TCq2    C5 1435   0.750   0.194  13.769  0.1972  0.7052 -0.4778
   94TCq2    C6 1436   0.805   0.316  13.766  0.6127 -0.0912  0.7291
   94TCq2    C7 1437   0.741   0.435  13.766  0.2218  0.3510 -0.0047
   94TCq2    C8 1438   0.952   0.329  13.751  0.3504 -0.5983  0.4799
   94TCq2    O4 1439   1.012   0.263  13.668  0.7126 -0.6196  0.1048
   94TCq2    C9 1440   0.543   0.072  13.769  0.1255 -0.0449 -0.0777
   94TCq2    O5 1441   0.416   0.080  13.756  0.0929 -0.3054  0.5795
   94TCq2    O6 1442   0.617   4.687  13.777  0.1046  0.1184  0.1718
   94TCq2    H2 1443   0.427   0.307  13.773 -0.0655 -0.3950 -1.5045
   94TCq2    H3 1444   0.814   0.107  13.778 -1.3485 -0.6080 -2.0637
   94TCq2    H4 1445   0.784   0.533  13.750  0.8734 -0.2739 -2.0258
   95TMC2    C1 1446   0.333   1.840  16.146  0.1443 -0.1050  0.3543
   95TMC2    C2 1447   0.394   1.833  16.273 -0.2831  0.3574  0.8489
   95TMC2    C3 1448   0.321   1.763  16.371  0.1423 -0.4125  1.1056
   95TMC2    C4 1449   0.205   1.797  16.129  0.5015 -0.0808 -0.0916
   95TMC2    C5 1450   0.142   1.747  16.237  0.6664 -0.4703  0.7433
   95TMC2    C6 1451   0.194   1.724  16.362 -0.0515  0.0800  0.0318
   95TMC2     C 1452   0.405   1.886  16.029 -0.3214 -0.4732 -0.6031
   95TMC2     O 1453   0.505   1.953  16.056  0.4301  0.1762  0.0333
   95TMC2     H 1454   0.500   1.856  16.271 -0.7188  2.4011  0.3893
   95TMC2    H1 1455   0.143   1.824  16.045  1.0137  1.8005  0.1444
   95TMC2    H2 1456   0.146   1.667  16.440  0.2253  0.6777  0.6386
   95TMC2    C7 1457   0.000   1.727  16.226 -0.2165  0.9419  0.1688
   95TMC2    C8 1458   0.375   1.747  16.503 -0.0554  0.1335 -0.6065
   95TMC2    O1 1459   4.677   1.701  16.112 -0.2460  0.0984  0.4351
   95TMC2    O2 1460   0.313   1.743  16.610 -0.2919  0.2362 -0.1427
   95TMC2    O5 1461   0.505   1.714  16.501  0.2069  0.2970  0.1740
   95TMC2    H5 1462   0.551   1.697  16.416 -0.4680 -1.6305  0.1977
   96MPD2     C 1463   0.482   2.005  15.534 -0.2742 -0.5245  0.5842
   96MPD2    C1 1464   0.556   2.034  15.648  0.3441  0.9592 -0.2976
   96MPD2    C2 1465   0.504   1.994  15.770 -0.2157  0.4655  0.6825
   96MPD2    C3 1466   0.390   1.916  15.781 -0.1435 -0.0111 -0.1114
   96MPD2    C4 1467   0.325   1.874  15.669 -1.1595  0.7365  0.1731
   96MPD2    C5 1468   0.367   1.925  15.544 -0.1015 -0.3792 -0.2747
   96MPD2     H 1469   0.564   2.018  15.857 -1.9182  1.0272  1.6997
   96MPD2    H1 1470   0.232   1.821  15.685  0.0025 -1.3506 -0.0588
   96MPD2    H2 1471   0.531   2.019  15.438  1.6328  1.4851  1.8319
   96MPD2    H3 1472   0.313   1.888  15.457 -2.3599  1.6895  0.2617
   96MPD2     N 1473   0.343   1.866  15.907  0.3849 -0.3708 -0.8825
   96MPD2    H5 1474   0.256   1.814  15.904  0.7632 -1.0981  0.5246
   96MPD2    N1 1475   0.677   2.104  15.632  0.0738  0.6713  1.1440
   96MPD2    H7 1476   0.697   2.136  15.538 -1.6073  2.5084  1.4147
   97MPD2     C 1477   3.063   4.136   2.113 -0.3363  0.2629  0.1893
   97MPD2    C1 1478   3.032   4.259   2.072 -0.6407  1.0546  0.4233
   97MPD2    C2 1479   2.962   4.274   1.956  0.8768  0.1013 -0.8000
   97MPD2    C3 1480   2.900   4.168   1.893  0.1445  0.6907  0.3082
   97MPD2    C4 1481   2.920   4.042   1.943  0.0588  1.0322 -0.1613
   97MPD2    C5 1482   3.002   4.026   2.057  0.0520  0.0668  0.4800
   97MPD2     H 1483   2.938   4.367   1.906 -1.9585 -0.6995 -0.9821
   97MPD2    H1 1484   2.884   3.949   1.901  1.2834  1.0445 -1.2324
   97MPD2    H2 1485   3.127   4.128   2.200 -0.5992 -1.9576  0.1602
   97MPD2    H3 1486   3.010   3.929   2.106 -1.0121  0.4019  1.3031
   97MPD2     N 1487   2.811   4.193   1.783  0.0997  0.1703  0.0290
   97MPD2    H5 1488   2.759   4.116   1.742  0.7962  0.8415 -2.0934
   97MPD2    N1 1489   3.079   4.367   2.142  0.6392  0.1249 -0.2073
   97MPD2    H7 1490   3.144   4.347   2.217  1.0271  1.6740 -0.1345
   98TCq2    C1 1491   2.793   4.308   1.710  0.1683 -0.1471  0.5108
   98TCq2    O2 1492   2.858   4.413   1.707  1.0301 -0.2159  0.1338
   98TCq2    C2 1493   2.707   4.290   1.598  0.0547 -0.0254 -0.8213
   98TCq2    C3 1494   2.630   4.175   1.602  0.3231 -0.3599 -0.4891
   98TCq2    C4 1495   2.584   4.125   1.479  0.2992 -0.3788 -0.6700
   98TCq2    C5 1496   2.637   4.175   1.362  0.2171  0.1667  0.3698
   98TCq2    C6 1497   2.719   4.283   1.368 -0.7513 -0.1731 -0.5242
   98TCq2    C7 1498   2.751   4.347   1.480  0.0458 -0.5400 -0.0638
   98TCq2    C8 1499   2.759   4.353   1.245  0.0289 -0.4915 -0.7731
   98TCq2    O4 1500   2.855   4.434   1.251  0.4368 -0.2508  0.3311
   98TCq2    C9 1501   2.474   4.028   1.480 -0.2428 -0.1565 -0.2565
   98TCq2    O5 1502   2.458   3.950   1.577 -0.0461 -0.3163 -0.0717
   98TCq2    O6 1503   2.392   4.032   1.380 -0.3070 -0.0539  0.2577
   98TCq2    H2 1504   2.583   4.132   1.690  1.5382  1.0849  0.8538
   98TCq2    H3 1505   2.612   4.132   1.266 -2.2285  3.0800 -0.3001
   98TCq2    H4 1506   2.828   4.424   1.475  0.8310 -1.4638 -2.3021
   99MPD2     C 1507   1.363   1.281   2.770  0.0237 -0.3738 -0.3826
   99MPD2    C1 1508   1.244   1.315   2.712 -0.1520 -0.1625 -0.4447
   99MPD2    C2 1509   1.255   1.354   2.580 -0.3595 -0.1490  0.0726
   99MPD2    C3 1510   1.381   1.366   2.511  1.1426 -0.2631  0.2594
   99MPD2    C4 1511   1.499   1.327   2.576 -0.4396 -0.7537 -0.4642
   99MPD2    C5 1512   1.485   1.282   2.703  0.4589  0.4856 -0.3148
   99MPD2     H 1513   1.169   1.384   2.521  0.9041  1.3860 -0.9770
   99MPD2    H1 1514   1.602   1.330   2.544 -0.8500 -0.8137 -1.7682
   99MPD2    H2 1515   1.372   1.250   2.874  0.7588 -1.8209 -0.8753
   99MPD2    H3 1516   1.576   1.249   2.753  0.3347  1.1011  0.3109
   99MPD2     N 1517   1.377   1.412   2.373  0.7508  0.4237 -0.4737
   99MPD2    H5 1518   1.285   1.439   2.340  0.1754  2.2068  2.5872
   99MPD2    N1 1519   1.116   1.310   2.774 -0.1846  0.6376 -0.5438
   99MPD2    H7 1520   1.038   1.349   2.723 -0.7289  2.4800  1.6580
  100TCq2    C1 1521   1.088   1.268   2.903  0.1251 -0.7007 -0.7924
  100TCq2    O2 1522   1.167   1.216   2.983  0.1894 -0.1201  0.9999
  100TCq2    C2 1523   0.959   1.318   2.954 -0.4180 -0.1356  0.1382
  100TCq2    C3 1524   0.944   1.320   3.090  0.1299 -0.1827 -0.6147
  100TCq2    C4 1525   0.852   1.401   3.149 -0.3298 -1.3342  0.0537
  100TCq2    C5 1526   0.757   1.459   3.075 -0.1721 -0.0934  0.0576
  100TCq2    C6 1527   0.762   1.453   2.937  0.0944 -0.2755 -0.1808
  100TCq2    C7 1528   0.864   1.376   2.879 -0.4529 -0.1235 -0.6607
  100TCq2    C8 1529   0.646   1.498   2.853  0.6406  0.0573 -0.8100
  100TCq2    O4 1530   0.539   1.475   2.907 -0.1076 -0.0386 -0.3778
  100TCq2    C9 1531   0.832   1.411   3.289 -0.4147 -0.0162  0.2760
  100TCq2    O5 1532   0.728   1.461   3.340 -0.2416 -0.5893  0.2976
  100TCq2    O6 1533   0.923   1.360   3.360 -0.0669  0.4943  0.2500
  100TCq2    H2 1534   1.004   1.266   3.162 -1.0086 -2.4551 -1.3793
  100TCq2    H3 1535   0.672   1.505   3.124  1.5085  4.4095 -1.2234
  100TCq2    H4 1536   0.862   1.345   2.775 -1.2024 -0.8417 -0.4315
  101MPD2     C 1537   2.007   2.327  13.276 -0.0668  0.6852  0.1163
  101MPD2    C1 1538   1.902   2.406  13.250 -0.2288  0.2252  0.3350
  101MPD2    C2 1539   1.773   2.363  13.271 -0.2276 -0.2060  0.0450
  101MPD2    C3 1540   1.747   2.242  13.327 -0.1866  0.5463 -0.3163
  101MPD2    C4 1541   1.858   2.163  13.352  0.2584 -0.4569 -0.3291
  101MPD2    C5 1542   1.986   2.209  13.337 -0.0392 -0.4156  0.2189
  101MPD2     H 1543   1.692   2.430  13.246  1.8693  2.4339  0.4594
  101MPD2    H1 1544   1.848   2.068  13.404 -1.8854 -0.3893 -0.5908
  101MPD2    H2 1545   2.107   2.355  13.245  0.8360 -1.9521  0.6813
  101MPD2    H3 1546   2.065   2.139  13.363  1.6713  0.0030 -3.9340
  101MPD2     N 1547   1.616   2.208  13.365  0.1894 -0.4000  0.3959
  101MPD2    H5 1548   1.537   2.272  13.371  0.9699  0.7054 -1.3022
  101MPD2    N1 1549   1.936   2.525  13.184  0.0874  0.2221  0.3417
  101MPD2    H7 1550   2.035   2.542  13.174  0.2880 -0.9386  0.3055
  102TCq2    C1 1551   2.218   2.878  12.948 -0.0817 -0.2216 -0.3682
  102TCq2    O2 1552   2.238   2.968  12.863  0.0363  0.3138  0.2874
  102TCq2    C2 1553   2.076   2.858  12.986 -0.4216 -0.8734  0.2881
  102TCq2    C3 1554   1.995   2.951  12.927  0.1374  0.0067  0.0304
  102TCq2    C4 1555   1.868   2.943  12.966 -1.3743 -0.8290  0.5417
  102TCq2    C5 1556   1.812   2.828  13.018 -0.3546 -0.1305  0.0297
  102TCq2    C6 1557   1.896   2.727  13.059  0.1665  0.4546  0.4097
  102TCq2    C7 1558   2.037   2.739  13.040 -0.1984  0.0901 -0.2558
  102TCq2    C8 1559   1.840   2.620  13.139 -0.3676  0.0154 -0.6759
  102TCq2    O4 1560   1.718   2.627  13.161 -0.0461  0.0890 -0.3794
  102TCq2    C9 1561   1.779   3.051  12.927 -0.2362 -0.0780 -0.5941
  102TCq2    O5 1562   1.814   3.134  12.838 -0.0050 -0.0519  0.0502
  102TCq2    O6 1563   1.662   3.046  12.970 -0.0551 -0.0680  0.1248
  102TCq2    H2 1564   2.022   3.048  12.887  0.9145 -0.9528 -1.7644
  102TCq2    H3 1565   1.708   2.824  13.049 -0.0571 -0.5369  0.9890
  102TCq2    H4 1566   2.110   2.659  13.050 -1.6591 -1.3153 -0.8932
  103TMC2    C1 1567   0.449   2.316  12.704 -0.2076 -0.4611 -0.1170
  103TMC2    C2 1568   0.587   2.331  12.710 -0.1812 -0.4519  0.1499
  103TMC2    C3 1569   0.627   2.457  12.754  0.1000 -0.5323 -0.2233
  103TMC2    C4 1570   0.366   2.410  12.762 -1.1681  0.5366 -0.8690
  103TMC2    C5 1571   0.414   2.529  12.813  0.4791  0.6768  1.0087
  103TMC2    C6 1572   0.550   2.553  12.817  0.7493 -0.0481  0.0345
  103TMC2     C 1573   0.381   2.256  12.585  0.1537  0.2433  0.0391
  103TMC2     O 1574   0.260   2.281  12.573 -0.2468  0.2423  0.1462
  103TMC2     H 1575   0.657   2.282  12.644 -0.6298  0.0797 -0.7283
  103TMC2    H1 1576   0.260   2.388  12.767 -1.0470  0.6164  2.3530
  103TMC2    H2 1577   0.579   2.655  12.840  1.4590  0.0616 -1.3634
  103TMC2    C7 1578   0.327   2.641  12.854  0.1172  0.3830 -0.1323
  103TMC2    C8 1579   0.770   2.461  12.761  0.3368 -0.2529 -0.9563
  103TMC2    O1 1580   0.373   2.723  12.931  0.0877 -0.0841 -0.2835
  103TMC2    O2 1581   0.848   2.370  12.786 -0.3668  0.0433  0.0798
  103TMC2    O5 1582   0.798   2.590  12.778  0.2681 -0.0371  0.4156
  103TMC2    H5 1583   0.737   2.647  12.726  0.0940 -0.8552 -0.2766
  104MPD2     C 1584   0.542   2.093  12.290 -0.1632 -0.0630  0.3688
  104MPD2    C1 1585   0.440   2.168  12.360 -0.0037  0.1591 -0.7638
  104MPD2    C2 1586   0.326   2.209  12.283 -0.0398  0.5070 -0.8657
  104MPD2    C3 1587   0.311   2.171  12.153 -0.2353  0.5956 -0.5780
  104MPD2    C4 1588   0.411   2.093  12.088  1.0018 -0.0588 -0.7993
  104MPD2    C5 1589   0.526   2.054  12.156 -0.0666  0.1473 -0.1178
  104MPD2     H 1590   0.246   2.262  12.334 -0.3668 -0.9683  0.1560
  104MPD2    H1 1591   0.405   2.068  11.983  0.2660 -0.0475 -0.7586
  104MPD2    H2 1592   0.636   2.056  12.330 -0.4961 -2.2975 -0.9319
  104MPD2    H3 1593   0.611   2.003  12.111  0.4835 -0.3454  1.4793
  104MPD2     N 1594   0.201   2.222  12.087  0.4036  0.2354  0.1553
  104MPD2    H5 1595   0.145   2.294  12.130 -0.0532  0.8690 -1.4695
  104MPD2    N1 1596   0.463   2.194  12.499  0.2303  0.0631 -0.2276
  104MPD2    H7 1597   0.555   2.182  12.541 -0.1841 -1.4881  0.2424
  105MPD2     C 1598   2.028   2.349   0.175 -0.7109 -0.0059 -0.2157
  105MPD2    C1 1599   1.927   2.439   0.169 -0.3508 -0.2032 -0.1557
  105MPD2    C2 1600   1.861   2.463   0.281 -0.3253  0.2379  0.0523
  105MPD2    C3 1601   1.902   2.401   0.401 -0.5755 -0.3743  0.0017
  105MPD2    C4 1602   2.015   2.321   0.404  0.2985  0.2101 -0.0447
  105MPD2    C5 1603   2.079   2.294   0.288 -0.5774  0.0003  0.3866
  105MPD2     H 1604   1.772   2.524   0.275  0.1581  0.7962 -1.4851
  105MPD2    H1 1605   2.061   2.287   0.495 -0.1784  0.2081  0.1978
  105MPD2    H2 1606   2.089   2.326   0.088  0.1938  1.1738  0.0981
  105MPD2    H3 1607   2.158   2.220   0.291  2.7524  3.6313  1.2098
  105MPD2     N 1608   1.837   2.446   0.519  0.5925 -0.2687  0.3811
  105MPD2    H5 1609   1.784   2.532   0.513  0.8962  0.1195  3.0088
  105MPD2    N1 1610   1.889   2.511   0.054  0.0424  0.4215  0.4901
  105MPD2    H7 1611   1.816   2.581   0.059  1.4075  1.9050 -0.4490
  106TCq2    C1 1612   1.858   2.393   0.641  0.1194 -0.8137 -0.7933
  106TCq2    O2 1613   1.903   2.280   0.663 -0.8842 -0.4792 -0.1729
  106TCq2    C2 1614   1.814   2.477   0.758  0.0793 -0.3457 -0.4629
  106TCq2    C3 1615   1.774   2.608   0.748  0.0602  0.2394 -0.2401
  106TCq2    C4 1616   1.739   2.675   0.863  0.3636 -0.0016  0.3476
  106TCq2    C5 1617   1.760   2.618   0.984 -0.0818  0.2960  0.1958
  106TCq2    C6 1618   1.814   2.493   0.987 -0.5617 -0.4585 -0.4118
  106TCq2    C7 1619   1.843   2.420   0.877  0.3417 -0.4989  0.6589
  106TCq2    C8 1620   1.845   2.440   1.115  0.1097 -0.2437  0.2607
  106TCq2    O4 1621   1.895   2.328   1.113  0.3784  0.1635  0.0627
  106TCq2    C9 1622   1.684   2.810   0.858 -0.1240  0.1142  0.6862
  106TCq2    O5 1623   1.634   2.859   0.962  0.0565  0.1426 -0.6053
  106TCq2    O6 1624   1.685   2.866   0.741  0.7137  0.8260 -0.1239
  106TCq2    H2 1625   1.749   2.656   0.655  1.3984 -1.3013 -1.3856
  106TCq2    H3 1626   1.744   2.683   1.069 -1.6693  0.3175 -0.1276
  106TCq2    H4 1627   1.883   2.320   0.893 -1.4467 -1.2425  0.5200
  107TMC2    C1 1628   2.491   1.568  11.304 -0.0774  0.4401  0.6222
  107TMC2    C2 1629   2.519   1.590  11.178  0.0373  0.1705  0.5672
  107TMC2    C3 1630   2.591   1.489  11.107  0.6116  0.6823 -0.1565
  107TMC2    C4 1631   2.553   1.468  11.371 -0.1161  0.2670  0.2150
  107TMC2    C5 1632   2.622   1.375  11.301  0.3155  0.6772 -0.3546
  107TMC2    C6 1633   2.643   1.380  11.163  0.3734 -0.0833 -0.4423
  107TMC2     C 1634   2.393   1.658  11.376  0.3267 -0.0994 -0.0948
  107TMC2     O 1635   2.425   1.660  11.497  0.3476  0.3345 -0.6600
  107TMC2     H 1636   2.506   1.688  11.133 -0.8017 -0.1593  0.0891
  107TMC2    H1 1637   2.540   1.459  11.478  0.5847  2.2799  0.4702
  107TMC2    H2 1638   2.704   1.310  11.107  0.3682  0.3056 -0.9353
  107TMC2    C7 1639   2.660   1.265  11.384 -0.0402  0.0005 -0.0449
  107TMC2    C8 1640   2.592   1.497  10.967  0.1251 -0.0614 -0.0837
  107TMC2    O1 1641   2.681   1.303  11.498 -0.2527 -0.4719 -0.6065
  107TMC2    O2 1642   2.681   1.444  10.900  0.0686 -0.6271  0.6228
  107TMC2    O5 1643   2.508   1.599  10.924 -0.1682 -0.3612  0.2909
  107TMC2    H5 1644   2.436   1.616  10.989 -0.4444  2.0735 -0.6769
  108MPD2     C 1645   2.114   1.864  11.278  0.4824 -0.1909  0.5413
  108MPD2    C1 1646   2.184   1.788  11.367  0.8941 -0.4603  0.0850
  108MPD2    C2 1647   2.159   1.801  11.502 -0.6578 -0.8970 -0.0863
  108MPD2    C3 1648   2.045   1.858  11.551 -0.1640  0.4191 -0.0504
  108MPD2    C4 1649   1.966   1.919  11.457  0.6041 -0.2223 -0.0454
  108MPD2    C5 1650   2.001   1.926  11.326 -0.1565 -0.1490  0.0200
  108MPD2     H 1651   2.218   1.749  11.577 -0.0007  1.1022  0.7934
  108MPD2    H1 1652   1.872   1.959  11.494  0.8714  2.7859 -2.5962
  108MPD2    H2 1653   2.136   1.874  11.173  2.3784 -1.5223  0.8195
  108MPD2    H3 1654   1.933   1.981  11.262  0.2190 -0.9137 -1.0371
  108MPD2     N 1655   2.002   1.864  11.683  0.1090 -0.7723  0.1900
  108MPD2    H5 1656   1.904   1.888  11.698 -0.4117 -2.7783  0.0268
  108MPD2    N1 1657   2.290   1.707  11.307 -0.8669  0.0173 -0.6392
  108MPD2    H7 1658   2.289   1.697  11.206 -0.1080 -0.5444 -0.5886
  109MPD2     C 1659   3.739   3.432   2.703 -0.1169  0.5117  0.3789
  109MPD2    C1 1660   3.679   3.524   2.626 -0.0665 -0.4007  0.4178
  109MPD2    C2 1661   3.663   3.656   2.660 -0.3310  0.1397 -0.7575
  109MPD2    C3 1662   3.716   3.699   2.783  0.1399 -0.1243 -0.0685
  109MPD2    C4 1663   3.779   3.603   2.861  0.3658 -0.0760 -0.0295
  109MPD2    C5 1664   3.794   3.478   2.816 -0.2075  0.2351  0.7965
  109MPD2     H 1665   3.632   3.733   2.591 -0.5199 -0.0085 -0.8371
  109MPD2    H1 1666   3.839   3.614   2.950 -2.2947 -0.4842  1.8048
  109MPD2    H2 1667   3.760   3.328   2.680 -2.5619 -0.2347  1.4527
  109MPD2    H3 1668   3.858   3.411   2.872  0.6971  2.4842  2.4467
  109MPD2     N 1669   3.723   3.834   2.813  0.0671 -0.7095 -0.6848
  109MPD2    H5 1670   3.691   3.897   2.739 -0.2347 -0.5181 -0.3935
  109MPD2    N1 1671   3.638   3.472   2.502 -0.7623 -0.0935  0.6430
  109MPD2    H7 1672   3.643   3.371   2.497  1.9767  0.0539  0.7721
  110TCq2    C1 1673   3.774   3.886   2.929  0.0881 -0.3591 -0.2698
  110TCq2    O2 1674   3.808   3.824   3.028 -0.3173  0.4417  0.1973
  110TCq2    C2 1675   3.777   4.028   2.947 -0.1552 -0.0472  0.5066
  110TCq2    C3 1676   3.809   4.066   3.072  0.2024 -0.1671  0.3330
  110TCq2    C4 1677   3.821   4.203   3.096 -0.0644 -0.0041  0.5692
  110TCq2    C5 1678   3.826   4.289   2.996  0.4071  0.5850  0.4505
  110TCq2    C6 1679   3.798   4.244   2.872 -0.0180 -0.7238  0.0244
  110TCq2    C7 1680   3.783   4.109   2.842 -0.2872  0.2147  1.0094
  110TCq2    C8 1681   3.716   4.339   2.792  0.0804 -0.0327  0.6604
  110TCq2    O4 1682   3.626   4.284   2.727  0.0241 -0.4736 -0.0618
  110TCq2    C9 1683   3.853   4.259   3.226  0.1417  0.2418 -0.1063
  110TCq2    O5 1684   3.876   4.381   3.238 -0.0915  0.1418  0.4874
  110TCq2    O6 1685   3.912   4.179   3.302  0.3948 -0.1720 -0.0884
  110TCq2    H2 1686   3.819   4.002   3.159 -0.6642  0.5446  0.9651
  110TCq2    H3 1687   3.831   4.395   3.015 -0.0336  1.0457 -2.0864
  110TCq2    H4 1688   3.767   4.077   2.740 -1.2593  1.4197  0.7813
  111TMC2    C1 1689   2.308   3.483  11.698 -0.2272  0.3103  0.2805
  111TMC2    C2 1690   2.206   3.568  11.736 -0.1721  0.0968 -0.2070
  111TMC2    C3 1691   2.223   3.642  11.850 -0.0740 -0.0132  0.1240
  111TMC2    C4 1692   2.433   3.478  11.756  0.3111 -0.2219 -0.2086
  111TMC2    C5 1693   2.431   3.547  11.873 -0.2673  0.1470 -0.2050
  111TMC2    C6 1694   2.330   3.626  11.927 -0.6236 -0.3544  0.3602
  111TMC2     C 1695   2.298   3.412  11.570 -0.5462  0.1946 -0.5762
  111TMC2     O 1696   2.333   3.479  11.476 -0.0246  0.4731  0.2666
  111TMC2     H 1697   2.123   3.583  11.668 -0.2261 -0.5555 -0.2823
  111TMC2    H1 1698   2.511   3.415  11.713  1.2818  1.6135 -1.1494
  111TMC2    H2 1699   2.330   3.678  12.022  1.5693 -0.6607  0.5407
  111TMC2    C7 1700   2.553   3.529  11.952  0.3049  0.1244  1.2150
  111TMC2    C8 1701   2.103   3.678  11.916  0.1904  0.0331  0.1624
  111TMC2    O1 1702   2.536   3.540  12.075 -0.6087 -0.3734 -0.2644
  111TMC2    O2 1703   1.994   3.621  11.910  0.4885  0.4106  0.0819
  111TMC2    O5 1704   2.127   3.806  11.960  0.5352  0.4253 -0.0841
  111TMC2    H5 1705   2.223   3.826  11.955  0.7986 -0.7641  0.1391
  112MPD2     C 1706   2.388   2.953  11.369  0.8270 -0.4577 -0.2461
  112MPD2    C1 1707   2.370   3.076  11.307  0.6436  0.5924 -0.8861
  112MPD2    C2 1708   2.346   3.187  11.379  0.9080  0.3306  0.2752
  112MPD2    C3 1709   2.344   3.183  11.515  0.0631 -0.3486  0.4124
  112MPD2    C4 1710   2.366   3.064  11.578 -0.0624 -1.0276 -0.4472
  112MPD2    C5 1711   2.385   2.947  11.504  0.2585  0.0876 -0.0197
  112MPD2     H 1712   2.324   3.279  11.327 -0.5380 -0.3728 -0.3600
  112MPD2    H1 1713   2.374   3.048  11.684  0.7198 -1.6196 -0.5957
  112MPD2    H2 1714   2.404   2.862  11.312  0.1146 -1.0137  0.4509
  112MPD2    H3 1715   2.405   2.857  11.561  2.0646 -0.3977 -1.4435
  112MPD2     N 1716   2.303   3.283  11.602 -0.2003  0.0438 -0.0218
  112MPD2    H5 1717   2.305   3.258  11.701  0.5585  0.3869  0.0521
  112MPD2    N1 1718   2.381   3.098  11.167 -0.5383 -1.2988 -0.1942
  112MPD2    H7 1719   2.371   3.192  11.130 -0.4130 -0.9554  0.6604
  113MPD2     C 1720   1.101   1.922   1.557 -0.0705  0.4952  0.4617
  113MPD2    C1 1721   1.093   2.057   1.536 -0.1818 -0.1851  0.9402
  113MPD2    C2 1722   0.977   2.107   1.482  0.1795  0.1373 -0.8575
  113MPD2    C3 1723   0.880   2.017   1.449  0.7906  0.7410  0.1351
  113MPD2    C4 1724   0.899   1.880   1.459  0.1060  0.2375  0.2354
  113MPD2    C5 1725   1.007   1.833   1.514  0.3426 -0.3637 -0.2228
  113MPD2     H 1726   0.972   2.215   1.467 -1.1258  0.4042  1.3760
  113MPD2    H1 1727   0.816   1.812   1.445  1.4504 -0.9726 -1.8817
  113MPD2    H2 1728   1.183   1.879   1.613  1.7109  1.2457 -1.5588
  113MPD2    H3 1729   1.014   1.727   1.532 -1.0723 -0.1918  1.3722
  113MPD2     N 1730   0.759   2.058   1.386 -0.1157 -0.0976  0.3960
  113MPD2    H5 1731   0.703   1.986   1.342  0.1921  0.6252 -1.1936
  113MPD2    N1 1732   1.189   2.147   1.595 -0.5922 -0.3176 -0.2275
  113MPD2    H7 1733   1.165   2.245   1.610 -0.0469 -0.1329 -0.5894
  114TCq2    C1 1734   0.716   2.185   1.371  0.4405  0.1334  0.7144
  114TCq2    O2 1735   0.761   2.290   1.415 -0.2572 -0.0211 -0.0093
  114TCq2    C2 1736   0.602   2.194   1.286  0.7942  0.3569  0.1065
  114TCq2    C3 1737   0.553   2.319   1.252 -0.7841  0.3230  0.0156
  114TCq2    C4 1738   0.443   2.327   1.170  0.5293  0.4340  0.1546
  114TCq2    C5 1739   0.374   2.215   1.134  0.4602 -0.3575  0.3736
  114TCq2    C6 1740   0.421   2.087   1.174  0.5237  0.1261 -0.1945
  114TCq2    C7 1741   0.530   2.080   1.258  0.4911 -0.1708  0.3078
  114TCq2    C8 1742   0.356   1.974   1.114 -0.0949  0.6561  0.3539
  114TCq2    O4 1743   0.284   1.999   1.016  0.1931  0.7523 -0.2178
  114TCq2    C9 1744   0.387   2.453   1.141 -0.2193  0.0104  0.6012
  114TCq2    O5 1745   0.456   2.553   1.174 -0.3664  0.3305 -0.5345
  114TCq2    O6 1746   0.270   2.458   1.096  0.5342 -0.0125 -0.3004
  114TCq2    H2 1747   0.589   2.413   1.292 -0.5807 -0.8097  2.4900
  114TCq2    H3 1748   0.295   2.232   1.062 -0.6173  0.0155  1.6323
  114TCq2    H4 1749   0.579   1.984   1.266  1.5286  0.6532  3.9723
  115TMC2    C1 1750   1.236   4.065   0.465  1.0383  0.1251 -0.3954
  115TMC2    C2 1751   1.363   4.062   0.405  0.0811 -0.0186  0.0896
  115TMC2    C3 1752   1.423   4.179   0.376  0.4841  0.0272 -0.0236
  115TMC2    C4 1753   1.175   4.186   0.483  0.3650 -0.1175  0.3732
  115TMC2    C5 1754   1.229   4.299   0.425  0.8212 -0.4901 -0.5274
  115TMC2    C6 1755   1.356   4.294   0.383  0.8165 -0.1758 -0.7222
  115TMC2     C 1756   1.160   3.951   0.432  0.3232 -0.0241  0.0896
  115TMC2     O 1757   1.211   3.884   0.346  0.2210 -0.0067  0.3789
  115TMC2     H 1758   1.423   3.971   0.402 -0.5313 -0.4671  1.1655
  115TMC2    H1 1759   1.076   4.191   0.527  0.3058  1.0893  0.1163
  115TMC2    H2 1760   1.402   4.391   0.369 -1.7606  0.9917 -0.9685
  115TMC2    C7 1761   1.158   4.422   0.447 -0.1201 -0.6491 -0.3812
  115TMC2    C8 1762   1.530   4.179   0.278 -0.2059  0.5125  0.5678
  115TMC2    O1 1763   1.065   4.422   0.525 -0.4687 -0.2377  0.4918
  115TMC2    O2 1764   1.554   4.279   0.209  0.2526  0.5904 -0.1921
  115TMC2    O5 1765   1.627   4.085   0.316 -0.6965 -0.0886 -0.0265
  115TMC2    H5 1766   1.606   4.048   0.405  0.5378 -2.2907 -0.6624
  116MPD2     C 1767   0.718   3.739   0.385 -0.1043 -0.4983 -0.1403
  116MPD2    C1 1768   0.816   3.743   0.290 -0.4646 -0.3111  0.5829
  116MPD2    C2 1769   0.930   3.805   0.329  0.1262  0.0965 -0.6059
  116MPD2    C3 1770   0.931   3.880   0.448  0.6780  0.2411  0.6875
  116MPD2    C4 1771   0.834   3.871   0.539  0.6073 -0.4592 -0.2599
  116MPD2    C5 1772   0.722   3.804   0.506 -0.3783 -0.5723 -0.0376
  116MPD2     H 1773   1.010   3.817   0.257  1.2612 -0.1852  0.6096
  116MPD2    H1 1774   0.829   3.927   0.631 -0.5243  1.5946 -1.5835
  116MPD2    H2 1775   0.618   3.702   0.365 -0.3772  1.2050 -1.8877
  116MPD2    H3 1776   0.635   3.799   0.571  0.3673  1.8786  1.1131
  116MPD2     N 1777   1.038   3.957   0.493 -0.3634 -0.0644  0.0229
  116MPD2    H5 1778   1.041   4.014   0.576  4.0780  1.8113 -1.4012
  116MPD2    N1 1779   0.796   3.666   0.175 -0.0428 -0.4578  0.2089
  116MPD2    H7 1780   0.707   3.620   0.159  0.1354 -0.8235  0.2659
  117TMC2    C1 1781   0.150   0.729  14.250 -0.3775  0.0539  0.4076
  117TMC2    C2 1782   0.234   0.631  14.198  1.1695  0.1147 -0.1805
  117TMC2    C3 1783   0.355   0.676  14.153 -0.4302 -0.3449 -0.0165
  117TMC2    C4 1784   0.178   0.864  14.240 -0.2105 -0.2193  0.9967
  117TMC2    C5 1785   0.304   0.894  14.200  0.2415 -0.1310 -0.6296
  117TMC2    C6 1786   0.393   0.802  14.152  0.3372 -0.2989 -0.2143
  117TMC2     C 1787   0.027   0.671  14.310 -0.2089 -0.2364  0.8456
  117TMC2     O 1788   0.037   0.549  14.324 -0.0516 -0.8968 -0.5694
  117TMC2     H 1789   0.215   0.525  14.213  1.0831  0.3269  1.2295
  117TMC2    H1 1790   0.116   0.938  14.290  0.5448  0.4713  0.9054
  117TMC2    H2 1791   0.490   0.835  14.115 -0.0027  0.8268 -0.0993
  117TMC2    C7 1792   0.365   1.028  14.228  0.3927 -0.2210  0.6592
  117TMC2    C8 1793   0.458   0.584  14.156 -0.3484  0.8400 -0.6445
  117TMC2    O1 1794   0.479   1.041  14.190 -0.3993 -0.3364  0.2000
  117TMC2    O2 1795   0.569   0.628  14.162  0.0942  0.0404 -0.0066
  117TMC2    O5 1796   0.414   0.480  14.072 -0.1558  0.4991  0.2169
  117TMC2    H5 1797   0.316   0.472  14.069 -0.2156  0.8211  1.1408
  118MPD2     C 1798   0.214   1.297  14.440  0.6272  0.2277 -0.1622
  118MPD2    C1 1799   0.304   1.254  14.343 -0.6932  0.1002 -0.2523
  118MPD2    C2 1800   0.395   1.332  14.279 -0.1751 -0.1700  0.0069
  118MPD2    C3 1801   0.404   1.464  14.310  0.0973 -0.0876 -0.0685
  118MPD2    C4 1802   0.322   1.509  14.410 -0.1158  0.4906 -0.7081
  118MPD2    C5 1803   0.229   1.431  14.478  0.4129  0.1004 -0.9330
  118MPD2     H 1804   0.445   1.290  14.192  0.1791 -0.3422  0.2900
  118MPD2    H1 1805   0.335   1.616  14.427  0.4835  0.6569 -2.2337
  118MPD2    H2 1806   0.148   1.225  14.486  0.4608  0.5507  0.1047
  118MPD2    H3 1807   0.169   1.466  14.562 -0.6680  0.8727 -2.0222
  118MPD2     N 1808   0.490   1.547  14.236  0.3716 -0.2075  0.6081
  118MPD2    H5 1809   0.514   1.639  14.271  2.7613 -0.6425  0.0837
  118MPD2    N1 1810   0.292   1.116  14.313 -0.1138  0.7555 -0.0416
  118MPD2    H7 1811   0.211   1.072  14.355 -0.1457  2.1626  1.3679
  119MPD2     C 1812   3.052   1.853  14.148  0.5280  0.2629 -0.1457
  119MPD2    C1 1813   2.930   1.917  14.174  0.2805  0.2867  0.4730
  119MPD2    C2 1814   2.865   1.969  14.063  0.8866 -0.4241 -0.5487
  119MPD2    C3 1815   2.897   1.946  13.931  0.1877 -0.0637 -0.0402
  119MPD2    C4 1816   3.012   1.871  13.908 -0.0304  0.8926 -0.0884
  119MPD2    C5 1817   3.081   1.826  14.020  0.0927 -0.4517  0.0787
  119MPD2     H 1818   2.779   2.030  14.089  0.7480 -0.9256  0.1735
  119MPD2    H1 1819   3.050   1.846  13.810  0.4621 -0.1376  0.3643
  119MPD2    H2 1820   3.101   1.803  14.231 -1.3087  0.4672  1.0601
  119MPD2    H3 1821   3.168   1.764  14.003 -0.6525 -1.3809 -0.3348
  119MPD2     N 1822   2.826   1.993  13.817  0.3835 -0.7471  0.8061
  119MPD2    H5 1823   2.859   1.968  13.725  0.9082 -1.2260  1.1179
  119MPD2    N1 1824   2.901   1.944  14.309 -0.6122  0.2612 -0.2614
  119MPD2    H7 1825   2.971   1.925  14.381 -0.0365 -0.2204 -0.9514
  120TCq2    C1 1826   2.725   2.082  13.823 -0.1407 -0.5022  0.4342
  120TCq2    O2 1827   2.663   2.121  13.926 -0.4938  0.1275  0.3060
  120TCq2    C2 1828   2.676   2.119  13.695  0.0346 -0.2106 -0.1091
  120TCq2    C3 1829   2.734   2.076  13.578  0.7402  0.3839  0.5110
  120TCq2    C4 1830   2.661   2.094  13.465 -0.1673  0.1125 -0.1621
  120TCq2    C5 1831   2.529   2.127  13.469  0.0761 -0.8128 -0.1328
  120TCq2    C6 1832   2.466   2.167  13.583 -0.7808 -0.1203  0.5820
  120TCq2    C7 1833   2.544   2.156  13.696 -0.3861 -0.2871  0.2351
  120TCq2    C8 1834   2.322   2.137  13.589  0.6093 -0.5157 -0.1992
  120TCq2    O4 1835   2.241   2.212  13.535 -0.0835  0.3687  0.1936
  120TCq2    C9 1836   2.725   2.069  13.335 -0.4392 -0.2811  0.8946
  120TCq2    O5 1837   2.850   2.047  13.334  0.0544 -0.4395 -0.2562
  120TCq2    O6 1838   2.659   2.079  13.232 -0.1074  0.6912 -0.2519
  120TCq2    H2 1839   2.838   2.046  13.576  0.6465 -0.0880  2.4689
  120TCq2    H3 1840   2.468   2.128  13.379  0.2454 -2.0197 -0.2533
  120TCq2    H4 1841   2.487   2.187  13.783  0.3939  1.1147  0.2440
  121TMC2    C1 1842   4.085   3.812  14.215  0.1863 -0.2150  0.4458
  121TMC2    C2 1843   4.081   3.673  14.231 -0.2687 -0.3346  0.0706
  121TMC2    C3 1844   3.971   3.610  14.187  0.2607  0.3782  1.2028
  121TMC2    C4 1845   3.991   3.869  14.130  0.6363  1.0465  0.0175
  121TMC2    C5 1846   3.878   3.794  14.105 -0.4645 -0.1344 -0.1025
  121TMC2    C6 1847   3.863   3.664  14.131  0.3517 -0.7856  0.1165
  121TMC2     C 1848   4.215   3.886  14.208  0.2746  0.4793  0.3252
  121TMC2     O 1849   4.270   3.894  14.315  0.3619 -0.1200 -0.0255
  121TMC2     H 1850   4.172   3.622  14.259  0.3423  0.1884 -0.9968
  121TMC2    H1 1851   4.000   3.977  14.126 -0.2963  1.1152 -0.1919
  121TMC2    H2 1852   3.762   3.623  14.125 -0.3818  1.1682 -0.9984
  121TMC2    C7 1853   3.793   3.854  14.006 -0.0895 -0.8170  0.3387
  121TMC2    C8 1854   3.972   3.473  14.193  0.9327  0.1824 -0.0892
  121TMC2    O1 1855   3.846   3.939  13.934  0.2044 -0.0335  0.0138
  121TMC2    O2 1856   3.938   3.402  14.097  0.3998  0.0175 -0.4644
  121TMC2    O5 1857   3.943   3.447  14.326  0.1315  0.1022 -0.9316
  121TMC2    H5 1858   3.949   3.523  14.388 -0.5743 -0.8667  0.3000
  122MPD2     C 1859   4.443   4.072  14.162  0.3746 -0.7163 -0.1705
  122MPD2    C1 1860   4.351   4.038  14.068 -0.2375  0.2026  0.7068
  122MPD2    C2 1861   4.359   4.088  13.941 -0.3301  0.7657 -0.5170
  122MPD2    C3 1862   4.469   4.161  13.910  0.2519 -0.3935  0.3711
  122MPD2    C4 1863   4.563   4.199  13.999  0.0733 -0.0758  0.3887
  122MPD2    C5 1864   4.551   4.143  14.127  0.1528 -0.9951 -0.1072
  122MPD2     H 1865   4.278   4.062  13.874  0.5575  1.9723 -2.0653
  122MPD2    H1 1866   4.656   4.249  13.974  0.1325  0.0756  0.8991
  122MPD2    H2 1867   4.432   4.055  14.269 -2.0196 -0.7423 -0.4067
  122MPD2    H3 1868   4.617   4.182  14.205 -0.2332 -0.6399  0.0420
  122MPD2     N 1869   4.487   4.207  13.776 -0.3538 -0.5937 -0.4369
  122MPD2    H5 1870   4.565   4.269  13.755 -0.1847 -0.5782  0.2487
  122MPD2    N1 1871   4.244   3.950  14.091 -0.2641  0.2986 -0.0752
  122MPD2    H7 1872   4.176   3.946  14.016 -0.6571 -1.4272  0.3591
  123MPD2     C 1873   2.610   2.640   9.233 -0.1742 -0.1879 -0.0438
  123MPD2    C1 1874   2.610   2.516   9.304 -0.1356  0.0081 -0.2905
  123MPD2    C2 1875   2.731   2.465   9.337  0.0062  0.1355 -0.5666
  123MPD2    C3 1876   2.848   2.514   9.288  0.0974 -0.0706  0.4253
  123MPD2    C4 1877   2.848   2.629   9.213  0.4830 -0.3459 -0.3443
  123MPD2    C5 1878   2.726   2.691   9.189 -0.1445  0.3232  0.2165
  123MPD2     H 1879   2.745   2.374   9.396 -0.2034  1.8775  2.1629
  123MPD2    H1 1880   2.940   2.677   9.184  1.0640 -1.9764 -1.2175
  123MPD2    H2 1881   2.524   2.702   9.212 -0.8253 -0.1736  2.7126
  123MPD2    H3 1882   2.724   2.785   9.136 -0.9479  1.4789  2.3269
  123MPD2     N 1883   2.972   2.443   9.314 -0.2963 -0.0400  1.1429
  123MPD2    H5 1884   2.960   2.363   9.375  1.6138 -0.3261  1.1339
  123MPD2    N1 1885   2.491   2.458   9.345 -0.4467 -0.5546  0.6796
  123MPD2    H7 1886   2.407   2.514   9.334  0.2445  0.6804  1.6794
  124TCq2    C1 1887   3.095   2.481   9.258 -0.0193 -0.1556  0.4089
  124TCq2    O2 1888   3.122   2.538   9.156  0.4822 -0.2415 -0.5192
  124TCq2    C2 1889   3.193   2.395   9.312  0.2634 -0.4535 -0.2287
  124TCq2    C3 1890   3.279   2.350   9.216  0.8282  0.1776 -0.1035
  124TCq2    C4 1891   3.368   2.249   9.237 -0.2216  0.2150  0.0775
  124TCq2    C5 1892   3.369   2.193   9.362  0.4437  0.1056 -0.0310
  124TCq2    C6 1893   3.271   2.235   9.448  0.0081 -0.6535  0.8849
  124TCq2    C7 1894   3.187   2.337   9.433  0.3515  0.8235 -0.0049
  124TCq2    C8 1895   3.254   2.168   9.579 -1.0018 -0.0393  0.4013
  124TCq2    O4 1896   3.148   2.179   9.637 -0.2473  0.0748 -0.0067
  124TCq2    C9 1897   3.464   2.190   9.143 -0.0438  0.5754 -0.1316
  124TCq2    O5 1898   3.449   2.230   9.023 -0.7763  0.1674  0.0374
  124TCq2    O6 1899   3.539   2.097   9.176  0.3862  0.6710  0.0061
  124TCq2    H2 1900   3.274   2.393   9.117  0.1264  1.8958  0.6740
  124TCq2    H3 1901   3.433   2.110   9.389 -1.6177 -0.6360  2.5877
  124TCq2    H4 1902   3.111   2.356   9.508  0.3935 -0.1982  0.2866
  125TMC2    C1 1903   4.059   2.496   9.162 -0.2297 -0.1997  0.6757
  125TMC2    C2 1904   4.101   2.373   9.128  0.5903 -0.5616  0.1812
  125TMC2    C3 1905   4.219   2.326   9.178 -0.8007 -0.7854 -0.0493
  125TMC2    C4 1906   4.129   2.570   9.252 -0.1931  0.3389 -0.6124
  125TMC2    C5 1907   4.247   2.513   9.300  0.2095  0.1973 -0.2453
  125TMC2    C6 1908   4.300   2.394   9.264  0.2701  0.0088  0.4990
  125TMC2     C 1909   3.941   2.551   9.098 -0.2632  0.1890  0.1278
  125TMC2     O 1910   3.925   2.526   8.981 -0.6167 -0.7067 -0.2385
  125TMC2     H 1911   4.052   2.314   9.051 -1.5706 -1.8371  2.5259
  125TMC2    H1 1912   4.098   2.674   9.263  0.5016  0.4521  0.1894
  125TMC2    H2 1913   4.393   2.359   9.308 -0.4292 -0.9222  1.2417
  125TMC2    C7 1914   4.327   2.604   9.385  0.3414  0.3127 -0.1282
  125TMC2    C8 1915   4.249   2.192   9.139 -0.5289 -0.2817  0.2044
  125TMC2    O1 1916   4.264   2.694   9.441 -0.5503  0.2349 -0.5911
  125TMC2    O2 1917   4.167   2.115   9.092  0.1401 -0.6347  0.2413
  125TMC2    O5 1918   4.382   2.173   9.139  0.2349 -0.0275 -0.4888
  125TMC2    H5 1919   4.438   2.253   9.152  0.9764 -0.9379  2.0342
  126MPD1     C 1920   3.456   2.742   9.109 -0.0223  0.4261 -0.3761
  126MPD1    C1 1921   3.527   2.795   9.218  0.1009 -0.3831  0.4481
  126MPD1    C2 1922   3.663   2.771   9.231 -0.2323  0.6302  0.4097
  126MPD1    C3 1923   3.729   2.678   9.145 -0.3594 -0.1663  0.5031
  126MPD1    C4 1924   3.653   2.623   9.043  0.0206  0.3458  0.1473
  126MPD1    C5 1925   3.521   2.658   9.026  0.1359 -0.5270 -0.2363
  126MPD1     H 1926   3.719   2.812   9.314 -0.6085 -0.1408  1.0475
  126MPD1    H1 1927   3.689   2.549   8.973 -0.4283  0.9647 -0.7413
  126MPD1    H2 1928   3.348   2.743   9.109 -0.0439 -2.2920 -1.0668
  126MPD1    H3 1929   3.468   2.601   8.951 -0.0464  0.5066 -0.8876
  126MPD1     N 1930   3.862   2.638   9.173  0.5472 -0.3449  0.0675
  126MPD1    H5 1931   3.897   2.664   9.264 -1.6493 -1.1039  1.1438
  126MPD1    N1 1932   3.459   2.881   9.302 -0.5420  0.3676 -0.9497
  126MPD1    H6 1933   3.480   2.879   9.401  1.0726 -0.5326 -1.3114
  126MPD1    H7 1934   3.360   2.865   9.288 -0.1242 -2.9364 -0.0277
  127MPD2     C 1935   4.607   2.481  10.095 -0.5301  0.0988 -0.7733
  127MPD2    C1 1936   4.711   2.411  10.047 -0.0165 -0.5614  0.5754
  127MPD2    C2 1937   0.122   2.440  10.093  0.1890 -0.3256 -0.4420
  127MPD2    C3 1938   0.134   2.556  10.158  0.2126  0.1198  0.3405
  127MPD2    C4 1939   0.033   2.635  10.201  0.4691 -0.2754  0.3760
  127MPD2    C5 1940   4.621   2.585  10.176  0.6569  0.6202 -0.1911
  127MPD2     H 1941   0.207   2.378  10.068  0.5329 -0.3927  0.8903
  127MPD2    H1 1942   0.049   2.724  10.260 -1.4337  0.3384 -0.0270
  127MPD2    H2 1943   4.506   2.455  10.064 -1.3946 -0.0101  2.0854
  127MPD2    H3 1944   4.534   2.640  10.212 -1.6033 -2.1884 -1.4440
  127MPD2     N 1945   0.259   2.601  10.202 -0.1632 -0.1278 -0.2245
  127MPD2    H5 1946   0.257   2.661  10.284  2.6661  1.8406 -1.6152
  127MPD2    N1 1947   4.682   2.307   9.960 -0.2231 -0.5681  0.3246
  127MPD2    H7 1948   4.585   2.284   9.942 -0.6836  0.5975  1.3353
  128TCq2    C1 1949   0.057   2.236   9.891 -0.2364  0.0311 -0.2006
  128TCq2    O2 1950   0.182   2.247   9.885 -0.0581 -0.0956 -0.2930
  128TCq2    C2 1951   4.710   2.120   9.834 -0.6179  0.3487  0.0695
  128TCq2    C3 1952   4.614   2.058   9.912  0.1682 -0.6355  0.0656
  128TCq2    C4 1953   4.609   1.928   9.911 -0.3849 -0.0474 -0.1858
  128TCq2    C5 1954   4.687   1.849   9.824 -0.4076 -0.1176 -0.1389
  128TCq2    C6 1955   0.069   1.913   9.751 -0.3053 -0.4837  0.3243
  128TCq2    C7 1956   0.079   2.049   9.749 -0.0889  0.4083 -0.2713
  128TCq2    C8 1957   0.127   1.849   9.640 -0.0296  0.5562 -0.7755
  128TCq2    O4 1958   0.182   1.915   9.556 -0.3767 -0.4030  0.2935
  128TCq2    C9 1959   4.515   1.850   9.996  0.0964 -0.1729  0.0180
  128TCq2    O5 1960   4.415   1.911  10.041 -0.1958 -0.6644  0.0614
  128TCq2    O6 1961   4.549   1.731  10.021 -0.2628 -0.0050  0.2808
  128TCq2    H2 1962   4.545   2.108   9.979 -0.7194  1.5455 -2.4834
  128TCq2    H3 1963   4.687   1.741   9.829  3.0907 -0.1194 -0.2892
  128TCq2    H4 1964   0.153   2.101   9.688  0.3767 -0.3919 -0.3889
  129MPD2     C 1965   3.577   3.505   1.933  0.2892 -0.2710 -0.7288
  129MPD2    C1 1966   3.466   3.501   1.855 -0.5465  0.3637  0.3960
  129MPD2    C2 1967   3.403   3.624   1.823 -0.0220 -0.1694 -0.4398
  129MPD2    C3 1968   3.453   3.745   1.861  0.1374 -0.8044  0.0049
  129MPD2    C4 1969   3.560   3.749   1.948  0.3179  0.2855 -0.1028
  129MPD2    C5 1970   3.618   3.626   1.986  0.0161  0.1627 -0.1576
  129MPD2     H 1971   3.323   3.628   1.750 -1.5004 -1.7996  1.0928
  129MPD2    H1 1972   3.608   3.842   1.976 -0.3665  0.1047  1.6672
  129MPD2    H2 1973   3.636   3.418   1.961 -0.2223 -0.4070 -0.0602
  129MPD2    H3 1974   3.715   3.616   2.033 -0.7368 -2.5979  0.7846
  129MPD2     N 1975   3.382   3.857   1.824 -0.2676 -0.1704  0.5733
  129MPD2    H5 1976   3.299   3.842   1.769 -0.1016  4.0051 -0.8098
  129MPD2    N1 1977   3.412   3.379   1.806 -0.3253  0.0005 -0.1519
  129MPD2    H7 1978   3.339   3.396   1.738  2.7749 -2.1696 -3.9445
  130TCq2    C1 1979   3.469   3.253   1.828 -0.2687  0.3668  0.6179
  130TCq2    O2 1980   3.572   3.220   1.880 -0.1890 -0.5937 -0.3585
  130TCq2    C2 1981   3.384   3.143   1.773 -0.3950 -0.4384 -0.4285
  130TCq2    C3 1982   3.263   3.173   1.713  0.0414  0.5372 -0.1281
  130TCq2    C4 1983   3.160   3.087   1.717 -0.4347  0.3108 -0.5284
  130TCq2    C5 1984   3.169   2.969   1.785 -0.3095  0.1887 -0.4957
  130TCq2    C6 1985   3.291   2.937   1.841  0.3045  0.0067  0.3349
  130TCq2    C7 1986   3.398   3.022   1.842  0.5273  0.4492  0.4385
  130TCq2    C8 1987   3.307   2.802   1.881  0.2435 -0.7738 -0.3946
  130TCq2    O4 1988   3.206   2.746   1.925 -0.3321 -0.2255  0.4817
  130TCq2    C9 1989   3.047   3.118   1.641  0.1252 -0.1563  0.0639
  130TCq2    O5 1990   3.049   3.214   1.561 -0.5455 -0.2892 -0.5119
  130TCq2    O6 1991   2.947   3.051   1.660  0.2742 -0.6186 -0.0763
  130TCq2    H2 1992   3.241   3.266   1.661 -0.8867  0.6964  0.5548
  130TCq2    H3 1993   3.080   2.908   1.782  0.4921 -0.8762 -3.1445
  130TCq2    H4 1994   3.479   2.997   1.910  1.4298 -0.1730 -0.8600
  131MPD2     C 1995   2.204   1.653   9.928 -0.4633  0.1292  0.2465
  131MPD2    C1 1996   2.324   1.722   9.917 -0.6635  0.6728 -0.0165
  131MPD2    C2 1997   2.320   1.841   9.848  0.4123  0.9804  0.2074
  131MPD2    C3 1998   2.210   1.886   9.785  0.2386  0.2471  0.4908
  131MPD2    C4 1999   2.093   1.814   9.804 -0.9269 -0.6230  0.2884
  131MPD2    C5 2000   2.084   1.706   9.889 -0.2207  0.0896 -0.2084
  131MPD2     H 2001   2.412   1.897   9.832 -0.5257  1.9003 -1.9939
  131MPD2    H1 2002   1.999   1.852   9.766 -1.2117 -1.0062  0.6115
  131MPD2    H2 2003   2.190   1.565   9.990 -3.3340 -0.7563 -1.6568
  131MPD2    H3 2004   1.987   1.659   9.902 -0.2323  0.6605  1.8131
  131MPD2     N 2005   2.222   2.006   9.702  0.1329  0.1631  0.7585
  131MPD2    H5 2006   2.308   2.060   9.712  0.0891  0.3171  0.2966
  131MPD2    N1 2007   2.441   1.668   9.976 -0.5919  0.5875  0.0925
  131MPD2    H7 2008   2.419   1.580  10.024 -0.7309 -0.3368 -1.6701
  132TCq2    C1 2009   2.917   1.776  10.294  0.2127 -0.0369  0.5066
  132TCq2    O2 2010   2.944   1.735  10.405 -0.6061  0.2759 -0.4879
  132TCq2    C2 2011   2.830   1.688  10.226 -0.1741 -0.2885  0.2378
  132TCq2    C3 2012   2.822   1.561  10.268 -0.1475  0.4409  0.1394
  132TCq2    C4 2013   2.728   1.482  10.210  1.0067  0.0500  0.4844
  132TCq2    C5 2014   2.640   1.525  10.111 -0.1396 -0.2674  0.2346
  132TCq2    C6 2015   2.657   1.657  10.078 -0.5776  0.0926  0.5224
  132TCq2    C7 2016   2.745   1.743  10.137 -0.3368 -0.1288 -0.0185
  132TCq2    C8 2017   2.560   1.732  10.000 -0.3740  0.0513 -0.2116
  132TCq2    O4 2018   2.608   1.839   9.960 -0.2960  0.1691 -0.4749
  132TCq2    C9 2019   2.718   1.342  10.243  0.2630 -0.5197 -0.9608
  132TCq2    O5 2020   2.631   1.273  10.185 -0.2477 -0.5925 -0.1867
  132TCq2    O6 2021   2.797   1.304  10.332  0.7648  0.1350  0.0813
  132TCq2    H2 2022   2.886   1.514  10.342  0.4106  0.0630 -0.5908
  132TCq2    H3 2023   2.574   1.457  10.057 -0.8496  2.0377 -1.8352
  132TCq2    H4 2024   2.762   1.848  10.113 -0.5446  0.1746  1.1697
  133MPD2     C 2025   1.799   3.441   9.086 -0.0245  0.8599 -0.7215
  133MPD2    C1 2026   1.898   3.412   9.175 -0.1453 -0.2882  0.3548
  133MPD2    C2 2027   1.904   3.280   9.207 -0.6056 -0.6544  0.5408
  133MPD2    C3 2028   1.811   3.184   9.161  0.8833 -0.6814 -0.4088
  133MPD2    C4 2029   1.709   3.221   9.078 -0.0209  0.1406 -0.1658
  133MPD2    C5 2030   1.703   3.356   9.046  0.1414 -0.4998 -0.8532
  133MPD2     H 2031   1.979   3.243   9.277 -1.8202  1.2338  2.8232
  133MPD2    H1 2032   1.631   3.150   9.056 -2.3127  2.4568  0.4177
  133MPD2    H2 2033   1.785   3.545   9.061 -1.2625  0.9451  0.3215
  133MPD2    H3 2034   1.617   3.398   8.995  1.2361  0.0308 -2.2691
  133MPD2     N 2035   1.803   3.054   9.212 -0.0985  0.4141  0.4456
  133MPD2    H5 2036   1.726   2.999   9.173  1.4116 -0.3866 -1.4459
  133MPD2    N1 2037   1.983   3.510   9.231  0.7580  0.1841 -0.5888
  133MPD2    H7 2038   1.961   3.606   9.207  0.0832 -0.1350 -1.2461
  134TCq2    C1 2039   2.094   3.489   9.315 -0.4269  0.3000 -0.2980
  134TCq2    O2 2040   2.146   3.383   9.359  0.4302 -0.0678  0.4149
  134TCq2    C2 2041   2.168   3.605   9.356 -0.1343  0.0522  0.3442
  134TCq2    C3 2042   2.169   3.714   9.274 -0.0852  0.1500  0.4624
  134TCq2    C4 2043   2.257   3.817   9.315  0.1114 -0.1121 -0.4280
  134TCq2    C5 2044   2.326   3.824   9.428  0.3254  0.1382  0.9718
  134TCq2    C6 2045   2.328   3.714   9.507 -0.2810 -0.0060 -0.5527
  134TCq2    C7 2046   2.244   3.605   9.479 -0.1873  0.6557 -0.3072
  134TCq2    C8 2047   2.335   3.732   9.654  0.3810 -1.2347  0.4995
  134TCq2    O4 2048   2.315   3.631   9.719  0.6154  0.1337 -0.0040
  134TCq2    C9 2049   2.250   3.931   9.233 -0.1999 -0.0291 -0.7249
  134TCq2    O5 2050   2.193   3.926   9.121 -0.2060 -0.2801  0.2550
  134TCq2    O6 2051   2.310   4.032   9.278  0.2907 -0.2116  0.6909
  134TCq2    H2 2052   2.124   3.714   9.176  0.4529  1.3313  0.2168
  134TCq2    H3 2053   2.399   3.903   9.440  0.4710  0.0902  0.3863
  134TCq2    H4 2054   2.239   3.518   9.542  0.8871  1.5302  0.9935
  135MPD2     C 2055   0.431   3.922   9.481 -0.6100 -0.2399 -0.6212
  135MPD2    C1 2056   0.340   3.817   9.470  0.0354 -0.6906 -0.9863
  135MPD2    C2 2057   0.386   3.691   9.430 -0.4951  0.7677  0.0532
  135MPD2    C3 2058   0.522   3.665   9.430 -0.3812  0.5363  0.1448
  135MPD2    C4 2059   0.612   3.767   9.448 -0.0452  0.3258  0.1411
  135MPD2    C5 2060   0.567   3.892   9.480 -0.8176  0.1978  0.7110
  135MPD2     H 2061   0.323   3.607   9.402  0.5471  0.0227 -0.0790
  135MPD2    H1 2062   0.719   3.752   9.442 -0.4153 -3.1308  1.6566
  135MPD2    H2 2063   0.409   4.023   9.515 -1.8754 -0.0850 -1.8963
  135MPD2    H3 2064   0.640   3.970   9.497 -3.6153  2.4917  2.0726
  135MPD2     N 2065   0.580   3.541   9.390 -0.3281 -0.0876 -0.1752
  135MPD2    H5 2066   0.681   3.536   9.382 -0.2158  0.9076  0.6122
  135MPD2    N1 2067   0.199   3.827   9.477 -1.0061 -0.0931  1.2998
  135MPD2    H7 2068   0.142   3.746   9.454  1.9198 -1.7022 -0.2615
  136TCq2    C1 2069   0.129   3.934   9.512  0.2557 -0.1178 -0.0682
  136TCq2    O2 2070   0.176   4.050   9.509  0.2709 -0.3762  0.6060
  136TCq2    C2 2071   4.707   3.921   9.515 -0.1762  0.6522 -0.1431
  136TCq2    C3 2072   4.632   4.042   9.510 -0.1499 -0.0476  0.3435
  136TCq2    C4 2073   4.497   4.030   9.510  0.2529 -0.0036 -0.0404
  136TCq2    C5 2074   4.436   3.916   9.520 -0.0724 -0.8175 -0.1049
  136TCq2    C6 2075   4.507   3.801   9.519  0.1660  0.0297 -0.0144
  136TCq2    C7 2076   4.647   3.801   9.506  1.1221  0.0191 -0.2379
  136TCq2    C8 2077   4.431   3.687   9.473 -0.5974 -0.0901 -0.1609
  136TCq2    O4 2078   4.489   3.600   9.412 -0.2060  0.2211  0.2767
  136TCq2    C9 2079   4.418   4.151   9.488 -0.1742 -0.4737  1.0997
  136TCq2    O5 2080   4.483   4.257   9.461  0.2471 -0.1980  0.6985
  136TCq2    O6 2081   4.296   4.156   9.508 -0.7152 -0.0256  0.8477
  136TCq2    H2 2082   4.675   4.140   9.494 -0.8253  0.1732 -0.1196
  136TCq2    H3 2083   4.331   3.923   9.494 -0.7800 -1.9917  2.4371
  136TCq2    H4 2084   4.699   3.708   9.526  1.1891 -0.2637 -1.7789
  137MPD2     C 2085   4.215   1.999  10.279 -0.0459 -0.2250 -0.9373
  137MPD2    C1 2086   4.152   2.078  10.186  1.1397  0.2421  0.5579
  137MPD2    C2 2087   4.071   2.179  10.233  0.5892 -0.3073 -0.3343
  137MPD2    C3 2088   4.065   2.217  10.364  0.6802  0.6591  0.5264
  137MPD2    C4 2089   4.131   2.138  10.456 -0.4662  0.2433  0.2450
  137MPD2    C5 2090   4.204   2.030  10.408  0.7883  0.5830 -0.1643
  137MPD2     H 2091   4.017   2.248  10.169 -0.5925 -1.0448 -0.1356
  137MPD2    H1 2092   4.154   2.176  10.555  0.8581  0.8509 -0.2945
  137MPD2    H2 2093   4.283   1.920  10.247 -1.3749 -2.1563  1.0116
  137MPD2    H3 2094   4.269   1.988  10.484  0.9765 -0.9539 -1.1603
  137MPD2     N 2095   3.996   2.343  10.384  0.0552 -0.3787  0.2522
  137MPD2    H5 2096   3.959   2.385  10.300  1.5004 -1.6919 -1.0392
  137MPD2    N1 2097   4.175   2.050  10.052  0.4681  0.4427 -0.9743
  137MPD2    H7 2098   4.249   1.983  10.029  0.2345 -0.4110  0.7961
  138TCq2    C1 2099   4.105   2.102   9.945 -0.4303  0.1962 -0.5491
  138TCq2    O2 2100   4.016   2.182   9.946 -0.3635 -0.2025  0.2647
  138TCq2    C2 2101   4.145   2.047   9.811  0.5857 -0.5152  0.0252
  138TCq2    C3 2102   4.211   1.924   9.799 -0.0265  0.0629  0.0002
  138TCq2    C4 2103   4.228   1.873   9.675 -0.0715  0.6767  0.2615
  138TCq2    C5 2104   4.183   1.943   9.566  0.4556 -0.2969 -0.8327
  138TCq2    C6 2105   4.114   2.062   9.583  0.8497 -0.2459  0.4891
  138TCq2    C7 2106   4.088   2.114   9.702 -0.4996  0.9726 -0.8218
  138TCq2    C8 2107   4.028   2.105   9.477 -0.1963  0.6181 -0.9026
  138TCq2    O4 2108   4.056   2.079   9.363 -0.1726  0.7095  0.0764
  138TCq2    C9 2109   4.306   1.750   9.654 -0.1962 -0.3673 -0.0682
  138TCq2    O5 2110   4.340   1.679   9.754 -0.1210 -0.2344  1.1262
  138TCq2    O6 2111   4.303   1.703   9.532  0.4580  0.3996 -0.6438
  138TCq2    H2 2112   4.259   1.879   9.886  1.4007  0.7747 -0.4228
  138TCq2    H3 2113   4.197   1.897   9.469  1.0801 -2.1665  0.1277
  138TCq2    H4 2114   4.037   2.209   9.715 -3.0329 -0.4161 -0.6270
  139TMC2    C1 2115   4.320   1.972  13.305 -0.2359  0.3327 -0.0710
  139TMC2    C2 2116   4.356   2.091  13.251 -0.3909 -0.2307  1.0198
  139TMC2    C3 2117   4.259   2.173  13.201 -0.1013 -0.1334  0.2004
  139TMC2    C4 2118   4.186   1.934  13.316 -0.7315 -0.0611 -0.1019
  139TMC2    C5 2119   4.095   2.025  13.266 -0.3413  0.0724 -0.3712
  139TMC2    C6 2120   4.124   2.141  13.208  0.2467 -1.1013  0.1016
  139TMC2     C 2121   4.417   1.911  13.397  0.5579 -0.0477 -0.0196
  139TMC2     O 2122   4.386   1.805  13.450  0.1696  0.5418  0.4251
  139TMC2     H 2123   4.458   2.125  13.239 -0.0060 -2.5676 -2.2158
  139TMC2    H1 2124   4.162   1.833  13.348  0.0604 -0.5439 -1.0327
  139TMC2    H2 2125   4.044   2.211  13.190  1.4297  0.0726 -0.6193
  139TMC2    C7 2126   3.951   2.008  13.302 -0.3376 -0.3238 -0.5924
  139TMC2    C8 2127   4.307   2.299  13.152 -0.3106 -0.3260  0.3807
  139TMC2    O1 2128   3.876   2.103  13.296 -0.3442 -0.2937  0.6562
  139TMC2    O2 2129   4.418   2.352  13.166  0.2258  0.2088  0.4695
  139TMC2    O5 2130   4.222   2.328  13.048 -0.2460 -0.4453 -0.1210
  139TMC2    H5 2131   4.146   2.268  13.031  0.2739 -1.4423  1.0818
  140MPD2     C 2132   0.029   2.033  13.472 -0.2044 -0.1150  0.7440
  140MPD2    C1 2133   4.630   1.963  13.504  0.7235 -0.4674 -0.6048
  140MPD2    C2 2134   4.621   1.884  13.616  0.3341 -1.2722 -0.3805
  140MPD2    C3 2135   0.014   1.867  13.702  0.0242  0.4656 -1.2575
  140MPD2    C4 2136   0.129   1.936  13.662 -0.1733 -0.3825  0.9039
  140MPD2    C5 2137   0.139   2.026  13.556  0.2506 -0.0885 -0.1608
  140MPD2     H 2138   4.528   1.835  13.642 -0.8228  1.5049  0.6703
  140MPD2    H1 2139   0.226   1.930  13.711  0.3945  0.0522 -0.1687
  140MPD2    H2 2140   0.036   2.097  13.385  1.8504 -0.6410  0.5339
  140MPD2    H3 2141   0.231   2.074  13.524  0.8882  0.4837  2.5532
  140MPD2     N 2142   0.007   1.786  13.817  0.3947 -0.1368  0.3727
  140MPD2    H5 2143   4.634   1.748  13.842  0.6003 -0.7722  0.1643
  140MPD2    N1 2144   4.523   1.991  13.411 -0.0542  0.8009 -0.1619
  140MPD2    H7 2145   4.528   2.080  13.362 -2.3999 -0.1995 -2.2681
  141TCq2    C1 2146   4.499   3.652  13.953 -0.8261 -0.6310  0.1716
  141TCq2    O2 2147   4.601   3.602  13.912 -0.0609 -0.4963 -0.3537
  141TCq2    C2 2148   4.527   3.738  14.066 -0.3574  0.4068  0.4742
  141TCq2    C3 2149   4.507   3.680  14.194 -0.3624  0.2733 -0.6500
  141TCq2    C4 2150   4.588   3.688  14.302  0.0149  1.2085  0.3300
  141TCq2    C5 2151   4.711   3.747  14.287  0.1584  0.0436  0.0753
  141TCq2    C6 2152   0.024   3.802  14.165  0.5874  0.7066 -0.5508
  141TCq2    C7 2153   4.653   3.792  14.059 -0.3545  0.9222  0.0332
  141TCq2    C8 2154   0.162   3.810  14.120 -0.1878 -0.4109 -0.5122
  141TCq2    O4 2155   0.191   3.781  14.006 -0.2214 -0.3577 -0.6726
  141TCq2    C9 2156   4.554   3.622  14.422 -0.0719  0.3396  0.0480
  141TCq2    O5 2157   4.448   3.553  14.425  0.2925 -0.0963  0.3066
  141TCq2    O6 2158   4.637   3.642  14.519  0.0675  0.0755 -0.0815
  141TCq2    H2 2159   4.423   3.616  14.219 -0.1572  1.2381  2.5104
  141TCq2    H3 2160   0.067   3.733  14.365  1.1842  0.8541 -0.7494
  141TCq2    H4 2161   4.678   3.816  13.956  0.5727  1.9582  0.5075
  142MPD2     C 2162   2.295   1.766   9.486  0.1931 -0.3684 -0.1201
  142MPD2    C1 2163   2.276   1.645   9.557 -0.1830  0.2485 -0.1874
  142MPD2    C2 2164   2.391   1.583   9.605  0.3971 -0.4746 -0.8867
  142MPD2    C3 2165   2.517   1.623   9.572 -0.0845  0.4469 -0.2690
  142MPD2    C4 2166   2.531   1.738   9.490 -0.0860  0.2389 -0.3460
  142MPD2    C5 2167   2.418   1.800   9.448  0.4411 -0.2809  0.5483
  142MPD2     H 2168   2.375   1.497   9.669 -1.0534  0.5894  0.1833
  142MPD2    H1 2169   2.631   1.770   9.460  1.0284 -1.5919  1.4523
  142MPD2    H2 2170   2.211   1.818   9.440 -0.9239 -0.0806  2.2343
  142MPD2    H3 2171   2.424   1.879   9.373  1.4033 -2.4778 -1.7080
  142MPD2     N 2172   2.638   1.575   9.626 -0.0369 -0.7111  0.2071
  142MPD2    H5 2173   2.724   1.613   9.587 -0.9090  0.4893 -0.5727
  142MPD2    N1 2174   2.141   1.592   9.562  0.5867  0.4632 -0.0866
  142MPD2    H7 2175   2.066   1.642   9.515  0.7640  1.3186  0.5342
  143TCq2    C1 2176   2.645   1.481   9.725 -0.3926  0.2878  0.2692
  143TCq2    O2 2177   2.567   1.393   9.749  0.5483 -0.1253 -0.3067
  143TCq2    C2 2178   2.780   1.485   9.777 -0.4927 -0.2145  0.4509
  143TCq2    C3 2179   2.822   1.374   9.843 -0.1856 -0.2037  0.1828
  143TCq2    C4 2180   2.945   1.382   9.905  0.2175  0.2912 -0.1048
  143TCq2    C5 2181   3.014   1.498   9.900 -0.0428  0.5341 -0.0821
  143TCq2    C6 2182   2.966   1.614   9.840  0.0172 -0.1153  0.6776
  143TCq2    C7 2183   2.846   1.603   9.771  0.4280 -0.1619 -0.1849
  143TCq2    C8 2184   3.049   1.727   9.802 -0.3582 -0.3124  0.1911
  143TCq2    O4 2185   3.009   1.795   9.711  0.7066  0.3396  0.0171
  143TCq2    C9 2186   2.988   1.272   9.990  0.4665 -0.0689  0.0907
  143TCq2    O5 2187   2.925   1.166   9.998 -0.3000  0.2026  0.3599
  143TCq2    O6 2188   3.095   1.291  10.054 -0.5379  0.0836  0.9257
  143TCq2    H2 2189   2.754   1.290   9.836  0.7206 -0.8189 -1.1330
  143TCq2    H3 2190   3.111   1.502   9.948 -0.8825  0.1047  1.6735
  143TCq2    H4 2191   2.802   1.692   9.727  0.0772  0.2539  1.0075
  144MPD2     C 2192   0.624   1.246   1.123  0.6232  0.1005 -0.3275
  144MPD2    C1 2193   0.641   1.109   1.087  0.2576  0.0124 -0.5573
  144MPD2    C2 2194   0.765   1.043   1.117  0.2830 -0.0984 -0.3786
  144MPD2    C3 2195   0.856   1.117   1.180  0.0134 -0.4192 -0.2937
  144MPD2    C4 2196   0.828   1.244   1.231 -0.3686  0.6132  0.2656
  144MPD2    C5 2197   0.719   1.310   1.194  0.5303 -0.1845 -0.2331
  144MPD2     H 2198   0.776   0.938   1.090 -0.9037  0.0603 -1.4867
  144MPD2    H1 2199   0.908   1.302   1.274 -0.1417  0.0975  0.5300
  144MPD2    H2 2200   0.537   1.306   1.101 -0.0727 -0.4106  1.0547
  144MPD2    H3 2201   0.688   1.409   1.225  4.4963  0.8698  0.3378
  144MPD2     N 2202   0.988   1.075   1.217  0.0019 -0.1722 -0.1632
  144MPD2    H5 2203   1.036   1.139   1.279 -0.4872  0.0579 -0.0198
  144MPD2    N1 2204   0.544   1.037   1.010 -0.0333 -0.0070  0.7306
  144MPD2    H7 2205   0.573   0.944   0.984  1.0326  1.4380 -3.2792
  145TCq2    C1 2206   1.048   0.952   1.186  0.4960 -0.0095  0.2267
  145TCq2    O2 2207   1.003   0.865   1.111 -0.0050  0.0642  0.6797
  145TCq2    C2 2208   1.188   0.956   1.228 -0.1440  0.9695  0.6168
  145TCq2    C3 2209   1.277   0.906   1.138 -0.1443 -0.3333 -0.3400
  145TCq2    C4 2210   1.401   0.889   1.187  0.3588 -0.3212 -0.0899
  145TCq2    C5 2211   1.432   0.910   1.316 -0.1163 -0.0135 -0.0844
  145TCq2    C6 2212   1.341   0.975   1.401  0.5412  0.1469 -0.2995
  145TCq2    C7 2213   1.212   0.995   1.359  0.3154 -0.8067  0.3914
  145TCq2    C8 2214   1.364   0.991   1.546  0.3007 -0.1577  0.6372
  145TCq2    O4 2215   1.471   0.947   1.588 -0.0180 -0.3683  0.0292
  145TCq2    C9 2216   1.499   0.827   1.101 -0.6800 -0.1096  0.3701
  145TCq2    O5 2217   1.587   0.753   1.157  0.5415  0.7530  0.2272
  145TCq2    O6 2218   1.499   0.858   0.978  0.3768 -0.3612 -0.2006
  145TCq2    H2 2219   1.260   0.871   1.037 -2.0569 -1.3045  0.3264
  145TCq2    H3 2220   1.537   0.900   1.339 -0.8548  1.7576  3.9915
  145TCq2    H4 2221   1.133   1.035   1.422 -0.6554  0.5154 -1.6945
  146TMC2    C1 2222   1.823   3.907  12.468 -0.2121 -1.1530 -0.2174
  146TMC2    C2 2223   1.726   3.867  12.374  0.1169  0.2158 -0.3607
  146TMC2    C3 2224   1.769   3.794  12.267  0.3768 -0.1031 -0.3955
  146TMC2    C4 2225   1.953   3.857  12.473 -0.4322 -0.7380  0.1374
  146TMC2    C5 2226   1.990   3.779  12.367 -0.5731 -0.1071 -0.0712
  146TMC2    C6 2227   1.901   3.753  12.260  0.5113 -0.1710 -0.0646
  146TMC2     C 2228   1.784   3.998  12.581 -0.0834 -0.3097 -0.0825
  146TMC2     O 2229   1.677   4.053  12.577  0.1787  0.8780  0.3120
  146TMC2     H 2230   1.634   3.924  12.377 -0.2303 -0.2722 -1.6456
  146TMC2    H1 2231   2.020   3.892  12.550 -0.0034 -1.0520 -0.0967
  146TMC2    H2 2232   1.934   3.717  12.163  0.5753 -1.7897  0.5618
  146TMC2    C7 2233   2.125   3.732  12.348 -0.4509  0.0949 -0.1991
  146TMC2    C8 2234   1.699   3.804  12.145  0.4684 -0.0985  0.0198
  146TMC2    O1 2235   2.163   3.691  12.240 -0.8390  0.0840  0.0767
  146TMC2    O2 2236   1.622   3.898  12.118  0.2085  0.2880 -0.1814
  146TMC2    O5 2237   1.698   3.676  12.096  0.4286  0.4457 -0.4646
  146TMC2    H5 2238   1.736   3.622  12.168 -1.9558  0.8837  1.1294
  147MPD2     C 2239   2.609   3.722  12.536 -0.3181 -0.1205  0.3415
  147MPD2    C1 2240   2.529   3.742  12.644  0.9251 -0.1993 -0.0308
  147MPD2    C2 2241   2.393   3.735  12.617 -0.4171 -0.0315 -0.3703
  147MPD2    C3 2242   2.334   3.725  12.488 -0.8483 -0.0905 -0.1641
  147MPD2    C4 2243   2.419   3.703  12.386  0.3995  0.0510 -0.7489
  147MPD2    C5 2244   2.560   3.691  12.408  1.3287  0.4786 -0.4314
  147MPD2     H 2245   2.320   3.740  12.697 -1.3962  0.5999 -1.2978
  147MPD2    H1 2246   2.385   3.699  12.284 -0.3598  0.0936 -0.4938
  147MPD2    H2 2247   2.710   3.698  12.566 -0.7902 -0.5847  1.5588
  147MPD2    H3 2248   2.631   3.654  12.335  2.6221  0.4516  0.8363
  147MPD2     N 2249   2.194   3.743  12.472 -0.7880  0.3734 -0.9142
  147MPD2    H5 2250   2.142   3.765  12.556  3.4258 -0.0055  1.7766
  147MPD2    N1 2251   2.586   3.753  12.774  0.7938  0.3541  0.1169
  147MPD2    H7 2252   2.687   3.764  12.774  1.0907 -2.5113  3.3782
  148MPD2     C 2253   2.384   2.832  10.569  0.1877  0.6666 -0.6183
  148MPD2    C1 2254   2.447   2.709  10.577 -0.5890  0.3410 -0.2491
  148MPD2    C2 2255   2.380   2.602  10.519  0.0596 -0.2102 -0.7341
  148MPD2    C3 2256   2.261   2.610  10.457  0.4906 -0.0533  0.1240
  148MPD2    C4 2257   2.209   2.734  10.440 -0.6348  0.6193 -0.0809
  148MPD2    C5 2258   2.276   2.847  10.492 -0.4926 -0.0018 -0.2890
  148MPD2     H 2259   2.423   2.503  10.526 -0.3295 -0.3784 -0.6838
  148MPD2    H1 2260   2.126   2.755  10.373 -1.1521 -0.0752  0.3477
  148MPD2    H2 2261   2.431   2.923  10.606 -0.8929  0.6348  0.8028
  148MPD2    H3 2262   2.233   2.946  10.480  3.2442  1.6348 -0.0145
  148MPD2     N 2263   2.194   2.498  10.409 -0.0888 -0.2266  0.4267
  148MPD2    H5 2264   2.100   2.517  10.377  0.6754 -2.3043 -3.0257
  148MPD2    N1 2265   2.574   2.684  10.637 -0.6908 -0.4138  0.0025
  148MPD2    H7 2266   2.617   2.592  10.635 -1.0553 -0.5923  0.3237
  149TCq2    C1 2267   2.646   2.783  10.699 -0.1064 -0.0691 -0.0337
  149TCq2    O2 2268   2.623   2.902  10.730  0.0734 -0.0890  0.6145
  149TCq2    C2 2269   2.768   2.724  10.746  0.3797  0.6347  0.5743
  149TCq2    C3 2270   2.778   2.740  10.883  0.7106  0.2674  0.6648
  149TCq2    C4 2271   2.835   2.643  10.960  0.5609  0.5174 -0.0771
  149TCq2    C5 2272   2.865   2.517  10.916 -0.0753 -0.3816 -0.6511
  149TCq2    C6 2273   2.846   2.503  10.779 -1.3682  0.3924  0.0704
  149TCq2    C7 2274   2.811   2.602  10.696  0.4879 -0.2616 -0.0641
  149TCq2    C8 2275   2.831   2.370  10.722 -0.2647 -0.1359  0.1259
  149TCq2    O4 2276   2.796   2.366  10.602  0.5669 -0.1385 -0.1102
  149TCq2    C9 2277   2.802   2.662  11.105  0.2715 -0.0521  0.5629
  149TCq2    O5 2278   2.765   2.559  11.171 -0.3906 -0.0358  0.2401
  149TCq2    O6 2279   2.782   2.776  11.148 -0.7213  0.0037  0.2805
  149TCq2    H2 2280   2.745   2.832  10.929  1.5635  0.3163  1.1987
  149TCq2    H3 2281   2.879   2.440  10.991 -3.1118  0.0806  0.4079
  149TCq2    H4 2282   2.805   2.593  10.588  2.1234  0.8189 -0.2402
  150MPD2     C 2283   3.606   1.526  12.414  0.0693  0.4025  0.2162
  150MPD2    C1 2284   3.626   1.637  12.337 -0.9395 -0.2114 -0.1302
  150MPD2    C2 2285   3.751   1.695  12.330  0.1646 -0.0362 -0.0543
  150MPD2    C3 2286   3.856   1.653  12.411 -0.5978 -0.5666 -0.7525
  150MPD2    C4 2287   3.838   1.543  12.490 -0.0809  0.1299  0.2135
  150MPD2    C5 2288   3.716   1.485  12.486 -0.1776 -0.5907  0.2718
  150MPD2     H 2289   3.772   1.776  12.262  0.0458 -0.0471 -0.1033
  150MPD2    H1 2290   3.915   1.510  12.559  1.8395  0.3897 -1.7975
  150MPD2    H2 2291   3.520   1.460  12.410  0.4523  0.0337 -2.1859
  150MPD2    H3 2292   3.706   1.386  12.528 -1.7781 -1.6270 -2.5872
  150MPD2     N 2293   3.965   1.733  12.419  0.0724 -0.0187 -0.4161
  150MPD2    H5 2294   3.962   1.822  12.371 -0.0284  0.1077 -0.1731
  150MPD2    N1 2295   3.524   1.682  12.239  0.0253 -0.3334  0.7990
  150MPD2    H7 2296   3.556   1.755  12.177  1.0210 -1.3769  0.0760
  151TCq2    C1 2297   4.087   1.704  12.477  0.2655 -0.0549  0.1319
  151TCq2    O2 2298   4.120   1.623  12.562  0.3441  0.2496 -0.0725
  151TCq2    C2 2299   4.186   1.782  12.410  0.4041  0.6521  0.6860
  151TCq2    C3 2300   4.170   1.835  12.288 -0.4492  0.0708 -0.0632
  151TCq2    C4 2301   4.241   1.945  12.249 -0.0897  1.1512 -0.3518
  151TCq2    C5 2302   4.341   1.991  12.330  0.4211 -0.6347 -0.3620
  151TCq2    C6 2303   4.370   1.923  12.447 -0.8660 -1.0307  0.4839
  151TCq2    C7 2304   4.290   1.821  12.491  0.8097  0.5060  0.4286
  151TCq2    C8 2305   4.490   1.961  12.517 -0.2351 -0.2140 -0.5396
  151TCq2    O4 2306   4.549   2.057  12.475 -0.0813  0.1463 -0.1255
  151TCq2    C9 2307   4.216   2.003  12.128  0.6983 -0.0888 -0.2134
  151TCq2    O5 2308   4.296   2.098  12.091 -0.4486  0.2994 -0.0839
  151TCq2    O6 2309   4.112   1.980  12.063  1.0092 -0.5145  0.0176
  151TCq2    H2 2310   4.091   1.799  12.222 -1.0839 -2.4905  2.0828
  151TCq2    H3 2311   4.392   2.084  12.304 -2.4420  0.7612 -1.0130
  151TCq2    H4 2312   4.305   1.776  12.588  1.8558  0.0259  0.0518
  152MPD2     C 2313   3.565   1.219  12.779 -0.1175  0.1771 -0.0585
  152MPD2    C1 2314   3.593   1.357  12.789 -0.2413 -0.3342  0.4098
  152MPD2    C2 2315   3.501   1.449  12.747  0.3562  0.9203  0.6549
  152MPD2    C3 2316   3.380   1.404  12.705  0.2383  0.0111 -0.2889
  152MPD2    C4 2317   3.348   1.270  12.698 -0.1023 -0.4718 -0.6525
  152MPD2    C5 2318   3.443   1.184  12.741 -0.1665  0.6319  0.1826
  152MPD2     H 2319   3.517   1.556  12.744  1.5290  0.7043 -0.6411
  152MPD2    H1 2320   3.252   1.236  12.663 -1.9584  1.9679  1.9878
  152MPD2    H2 2321   3.638   1.149  12.817 -0.1701 -0.3132 -0.8769
  152MPD2    H3 2322   3.419   1.079  12.749 -0.2426  0.5343 -1.3914
  152MPD2     N 2323   3.286   1.504  12.663  0.1504 -0.5856  0.2665
  152MPD2    H5 2324   3.315   1.601  12.673 -1.8633  0.0239  0.1770
  152MPD2    N1 2325   3.722   1.398  12.840  0.3029  0.5170  0.4235
  152MPD2    H7 2326   3.788   1.320  12.839 -0.3368 -0.0455  3.0368
  153TCq2    C1 2327   3.753   1.526  12.881  0.8475 -0.3824 -0.1701
  153TCq2    O2 2328   3.687   1.629  12.880 -0.4351  0.2825  0.7426
  153TCq2    C2 2329   3.894   1.543  12.900  0.7431  0.2662  0.6560
  153TCq2    C3 2330   3.981   1.432  12.886 -0.2567 -0.5770 -0.1035
  153TCq2    C4 2331   4.117   1.462  12.886 -0.5052  0.3217 -0.8307
  153TCq2    C5 2332   4.168   1.587  12.899 -0.8652 -0.1915 -0.6278
  153TCq2    C6 2333   4.078   1.685  12.915  0.7604  0.7766 -0.7339
  153TCq2    C7 2334   3.944   1.664  12.921  0.8430 -0.3035  0.3109
  153TCq2    C8 2335   4.132   1.826  12.897 -0.1084 -0.5755 -0.2469
  153TCq2    O4 2336   4.045   1.906  12.863  0.0296 -0.5588  0.4573
  153TCq2    C9 2337   4.211   1.345  12.894 -0.3930  0.5612 -0.7227
  153TCq2    O5 2338   4.327   1.367  12.847  0.1635  0.5109 -0.4851
  153TCq2    O6 2339   4.176   1.229  12.931 -0.4245 -0.3261  0.2951
  153TCq2    H2 2340   3.956   1.328  12.870 -0.6920 -0.8461  2.3753
  153TCq2    H3 2341   4.273   1.607  12.885 -0.4161 -1.4537  1.0759
  153TCq2    H4 2342   3.880   1.751  12.933  1.3429  0.2477 -1.0044
  154MPD2     C 2343   1.261   2.933   0.693 -0.2716 -0.4798 -0.4909
  154MPD2    C1 2344   1.251   2.846   0.799 -0.4733 -0.0287 -0.3450
  154MPD2    C2 2345   1.176   2.880   0.906 -0.0312 -0.1971  0.0557
  154MPD2    C3 2346   1.117   2.998   0.921 -0.0176 -0.0349 -0.0848
  154MPD2    C4 2347   1.137   3.092   0.821 -0.1794 -0.0092 -0.0167
  154MPD2    C5 2348   1.211   3.060   0.708  0.2637 -0.4959 -0.2854
  154MPD2     H 2349   1.168   2.805   0.984 -0.6360  1.4657  1.6021
  154MPD2    H1 2350   1.085   3.187   0.824 -0.9944 -0.4655  0.2388
  154MPD2    H2 2351   1.331   2.911   0.613 -0.5048 -0.1454 -0.7862
  154MPD2    H3 2352   1.234   3.138   0.637  1.8596 -0.1011  0.6794
  154MPD2     N 2353   1.047   3.016   1.039 -0.5514  0.2352 -0.4929
  154MPD2    H5 2354   1.015   2.935   1.091  3.3153 -0.5476  0.6642
  154MPD2    N1 2355   1.316   2.720   0.787 -0.0021  0.2043 -0.3315
  154MPD2    H7 2356   1.363   2.698   0.700  0.3621 -0.8933  0.1521
  155TCq2    C1 2357   1.335   2.626   0.884 -0.1105 -0.5427 -0.0584
  155TCq2    O2 2358   1.315   2.633   1.003  0.1280 -0.3460 -0.0228
  155TCq2    C2 2359   1.405   2.503   0.841  0.0636  0.0547 -0.5440
  155TCq2    C3 2360   1.461   2.411   0.930  0.0680 -0.3824  0.9049
  155TCq2    C4 2361   1.521   2.298   0.887 -0.3357  0.0640  0.1917
  155TCq2    C5 2362   1.513   2.272   0.757  0.1378  0.2061 -0.5474
  155TCq2    C6 2363   1.456   2.359   0.669  0.4620 -0.3482  0.5591
  155TCq2    C7 2364   1.400   2.479   0.708 -0.3563  0.0690  0.1315
  155TCq2    C8 2365   1.491   2.331   0.528  1.1685 -0.9589 -0.3040
  155TCq2    O4 2366   1.552   2.225   0.506  0.0475 -0.1797  0.1858
  155TCq2    C9 2367   1.573   2.203   0.976 -0.0693  0.7383 -0.7747
  155TCq2    O5 2368   1.565   2.225   1.100 -0.4345  0.1811 -0.1660
  155TCq2    O6 2369   1.648   2.107   0.935  0.8224 -0.3887  0.4062
  155TCq2    H2 2370   1.470   2.430   1.036  1.6263 -3.6140  1.3652
  155TCq2    H3 2371   1.565   2.183   0.722  2.2059  1.2674 -0.1822
  155TCq2    H4 2372   1.352   2.548   0.640 -2.2086  0.1090  1.4887
  156MPD2     C 2373   4.197   3.551  11.736 -0.0808  0.2860  0.1214
  156MPD2    C1 2374   4.112   3.657  11.723  0.7461 -0.5072  0.6962
  156MPD2    C2 2375   4.126   3.757  11.817  0.2936 -0.2554  0.2150
  156MPD2    C3 2376   4.229   3.755  11.907 -0.7174  0.2052  0.6113
  156MPD2    C4 2377   4.307   3.642  11.923  0.1775  0.1002  0.6822
  156MPD2    C5 2378   4.293   3.543  11.833 -1.4504  0.4256  0.0056
  156MPD2     H 2379   4.058   3.841  11.817 -0.3900 -0.8031 -1.8048
  156MPD2    H1 2380   4.379   3.631  12.004 -0.0963  0.9328  1.0333
  156MPD2    H2 2381   4.190   3.462  11.674 -3.3001 -0.9087  2.1985
  156MPD2    H3 2382   4.353   3.454  11.847  2.8634  3.2763 -0.5130
  156MPD2     N 2383   4.237   3.856  11.998  0.1443  0.5507  0.1170
  156MPD2    H5 2384   4.174   3.934  11.980 -1.8081 -1.9699 -3.9468
  156MPD2    N1 2385   4.020   3.662  11.620 -0.1948 -0.1961  0.3639
  156MPD2    H7 2386   4.037   3.594  11.546 -1.2671  0.7543 -0.7430
  157TCq2    C1 2387   3.936   3.765  11.587  0.4525 -0.5235 -0.2178
  157TCq2    O2 2388   3.917   3.863  11.658 -0.3283 -0.0007 -0.2426
  157TCq2    C2 2389   3.866   3.753  11.461  0.4684  0.0189 -0.7118
  157TCq2    C3 2390   3.865   3.634  11.394  1.0568 -0.4727 -0.0653
  157TCq2    C4 2391   3.846   3.639  11.255  0.9798 -0.2721  0.1147
  157TCq2    C5 2392   3.835   3.763  11.196  1.0154 -0.1694 -0.7223
  157TCq2    C6 2393   3.823   3.880  11.268 -0.1647  0.9444 -0.6528
  157TCq2    C7 2394   3.832   3.875  11.400 -0.7779  0.0595  0.2437
  157TCq2    C8 2395   3.789   4.007  11.209 -0.4935  0.1026  0.0093
  157TCq2    O4 2396   3.823   4.116  11.257 -0.2227 -0.0180 -0.0068
  157TCq2    C9 2397   3.842   3.520  11.183  0.2814 -0.3307 -1.1197
  157TCq2    O5 2398   3.841   3.533  11.058  0.5434  0.3712 -0.1169
  157TCq2    O6 2399   3.869   3.414  11.247 -0.2604  0.3799 -0.1343
  157TCq2    H2 2400   3.874   3.539  11.447  2.6642  0.9441  2.1936
  157TCq2    H3 2401   3.838   3.756  11.088  0.6141 -0.6622 -0.7015
  157TCq2    H4 2402   3.813   3.956  11.469  1.9824  0.3096  0.7033
  158TMC2    C1 2403   3.734   3.174  13.629 -0.2258 -0.6778  0.1839
  158TMC2    C2 2404   3.739   3.272  13.532 -0.3362 -0.1812  0.3899
  158TMC2    C3 2405   3.620   3.312  13.478  0.3461  0.2572 -0.5724
  158TMC2    C4 2406   3.616   3.115  13.672 -0.5669  0.3776 -0.0908
  158TMC2    C5 2407   3.502   3.156  13.609 -0.4627  0.6536  0.4718
  158TMC2    C6 2408   3.495   3.258  13.515 -0.2175  0.1859  0.0565
  158TMC2     C 2409   3.859   3.136  13.693 -0.5774  0.4162 -0.1194
  158TMC2     O 2410   3.960   3.196  13.657  0.2008  0.3967  0.5705
  158TMC2     H 2411   3.832   3.321  13.505 -0.7042 -0.0484 -0.6680
  158TMC2    H1 2412   3.605   3.053  13.761  0.0794  0.3640 -0.0188
  158TMC2    H2 2413   3.401   3.300  13.480  0.2386  2.1864  1.2429
  158TMC2    C7 2414   3.374   3.087  13.635 -0.8087 -0.6135 -0.3187
  158TMC2    C8 2415   3.630   3.388  13.359 -0.6233  0.1755 -0.8302
  158TMC2    O1 2416   3.270   3.155  13.620 -0.6123  0.3222 -0.2295
  158TMC2    O2 2417   3.727   3.464  13.340 -0.0918 -0.1345  0.2410
  158TMC2    O5 2418   3.548   3.334  13.261 -0.1441  0.2538 -0.5857
  158TMC2    H5 2419   3.488   3.260  13.285  1.1666 -0.6575 -0.1498
  159MPD2     C 2420   4.086   2.999  14.135 -0.3912  0.4933  0.0505
  159MPD2    C1 2421   3.984   2.915  14.105  0.5748  0.6591 -0.2070
  159MPD2    C2 2422   3.902   2.937  13.998 -0.3401 -0.0332 -0.5220
  159MPD2    C3 2423   3.939   3.035  13.903  0.2531  0.1657 -0.2339
  159MPD2    C4 2424   4.045   3.119  13.928 -0.3472 -0.5432 -0.6467
  159MPD2    C5 2425   4.123   3.086  14.039 -0.9645 -0.9264  0.4857
  159MPD2     H 2426   3.808   2.886  13.984 -0.5054  0.6696 -1.9288
  159MPD2    H1 2427   4.077   3.197  13.861  2.2191  0.4799  1.7562
  159MPD2    H2 2428   4.152   2.992  14.221  0.0636 -0.3742 -0.3728
  159MPD2    H3 2429   4.210   3.149  14.054 -0.7412 -0.8434 -1.1254
  159MPD2     N 2430   3.846   3.050  13.801  0.5604 -0.0122  0.0190
  159MPD2    H5 2431   3.761   2.995  13.810 -0.4017  1.1343 -2.0812
  159MPD2    N1 2432   3.965   2.799  14.191  0.3858  0.4899 -0.2515
  159MPD2    H7 2433   4.043   2.771  14.250 -0.6241  1.5685  1.5888
  160TMC2    C1 2434   0.082   1.459   1.744 -0.3908  0.2331  0.1910
  160TMC2    C2 2435   0.207   1.443   1.806  0.0997  0.2004  0.4291
  160TMC2    C3 2436   0.306   1.534   1.783 -0.0396 -0.0668 -0.1951
  160TMC2    C4 2437   0.060   1.561   1.659  0.1446 -0.0189  0.3856
  160TMC2    C5 2438   0.166   1.644   1.632  0.1431  0.7624 -0.3456
  160TMC2    C6 2439   0.289   1.631   1.691  0.3409  0.2911 -0.9105
  160TMC2     C 2440   4.702   1.351   1.740 -0.3675  0.4867  0.0087
  160TMC2     O 2441   0.036   1.239   1.716 -0.0399 -0.0516  0.1342
  160TMC2     H 2442   0.227   1.354   1.865 -3.1308 -2.1987 -2.1281
  160TMC2    H1 2443   4.681   1.578   1.614  0.2874  3.2089  1.2898
  160TMC2    H2 2444   0.368   1.702   1.673  0.6002 -0.2351 -1.8830
  160TMC2    C7 2445   0.140   1.743   1.540 -0.1229  0.5095 -0.2298
  160TMC2    C8 2446   0.448   1.520   1.821 -0.2004 -1.0902  0.3151
  160TMC2    O1 2447   0.048   1.726   1.469 -0.4986  0.0713  0.6174
  160TMC2    O2 2448   0.537   1.568   1.749  0.3008  0.2863 -0.4805
  160TMC2    O5 2449   0.454   1.417   1.907 -0.0647 -0.1094 -0.1302
  160TMC2    H5 2450   0.367   1.403   1.951 -1.6298  0.3503 -3.0971
  161MPD2     C 2451   4.470   1.191   1.625  0.4803 -0.2250  0.1927
  161MPD2    C1 2452   4.463   1.320   1.671 -0.7294  0.4339 -0.1056
  161MPD2    C2 2453   4.345   1.390   1.663  0.3224  0.5417 -0.6693
  161MPD2    C3 2454   4.227   1.340   1.599  0.2228 -0.5318  0.0846
  161MPD2    C4 2455   4.242   1.213   1.557 -0.0824  0.8843 -0.7747
  161MPD2    C5 2456   4.360   1.142   1.566 -0.1383 -0.4561 -0.2251
  161MPD2     H 2457   4.344   1.493   1.697  3.1015  0.7218 -1.1301
  161MPD2    H1 2458   4.160   1.169   1.501 -0.8118  1.2731 -0.0033
  161MPD2    H2 2459   4.562   1.137   1.640  1.1212  1.0745  0.8894
  161MPD2    H3 2460   4.363   1.043   1.522  0.0171 -0.5819  0.0704
  161MPD2     N 2461   4.112   1.410   1.572  0.0163  0.5690  0.4392
  161MPD2    H5 2462   4.043   1.360   1.517 -1.0744  2.2894  0.2781
  161MPD2    N1 2463   4.569   1.392   1.732 -0.0393  0.3875 -0.2467
  161MPD2    H7 2464   4.551   1.487   1.763 -0.5023 -0.0211  0.7502
  162TMC2    C1 2465   2.557   3.033   1.580  0.1549 -0.3513 -0.0164
  162TMC2    C2 2466   2.659   3.068   1.672 -0.3358 -0.1630 -0.4972
  162TMC2    C3 2467   2.669   2.987   1.782 -0.0102  0.3621  0.6332
  162TMC2    C4 2468   2.471   2.931   1.604 -0.2004  0.5377  0.4447
  162TMC2    C5 2469   2.476   2.869   1.720 -0.1322  0.0200 -0.6812
  162TMC2    C6 2470   2.583   2.890   1.808 -1.0299  0.0296  1.0438
  162TMC2     C 2471   2.587   3.059   1.443  0.2287 -0.0146 -0.4342
  162TMC2     O 2472   2.497   3.040   1.361  0.4338  0.2119  0.1204
  162TMC2     H 2473   2.702   3.167   1.670 -0.0132 -0.3078 -0.6561
  162TMC2    H1 2474   2.401   2.903   1.526 -1.1987  0.7100  1.2747
  162TMC2    H2 2475   2.576   2.838   1.902  0.1201 -1.0819  0.5034
  162TMC2    C7 2476   2.412   2.737   1.727  0.2439 -0.4720 -0.4388
  162TMC2    C8 2477   2.727   3.045   1.900  0.1356  0.5829  0.0455
  162TMC2    O1 2478   2.304   2.722   1.671 -0.8014 -0.0866  0.2916
  162TMC2    O2 2479   2.661   3.044   2.001  0.6153  0.1650 -0.7131
  162TMC2    O5 2480   2.813   3.142   1.865 -0.4564  0.4294  0.0860
  162TMC2    H5 2481   2.862   3.110   1.787  0.6442  0.7283  0.6594
  163MPD2     C 2482   2.897   3.041   1.033  0.2303 -0.6536 -0.5107
  163MPD2    C1 2483   2.756   3.045   1.044 -0.6291  0.6140 -0.6571
  163MPD2    C2 2484   2.699   3.057   1.167  0.7927  0.2979 -0.3720
  163MPD2    C3 2485   2.774   3.065   1.282 -0.0331 -0.3258  0.5041
  163MPD2    C4 2486   2.914   3.049   1.269  0.0623 -0.5330 -0.3770
  163MPD2    C5 2487   2.975   3.041   1.148  0.3392 -0.0866 -0.7189
  163MPD2     H 2488   2.593   3.077   1.180  1.1507  0.8964  1.5511
  163MPD2    H1 2489   2.983   3.054   1.352  0.0017  0.3271 -0.3797
  163MPD2    H2 2490   2.943   3.025   0.936  3.7047  2.9061  0.5506
  163MPD2    H3 2491   3.080   3.018   1.138  0.9108  1.7877  0.7844
  163MPD2     N 2492   2.724   3.065   1.415  0.9345  0.0710 -0.4292
  163MPD2    H5 2493   2.790   3.058   1.492 -0.3158 -1.2148  0.5406
  163MPD2    N1 2494   2.686   3.023   0.925 -0.3431  0.0205 -0.7242
  163MPD2    H7 2495   2.741   3.020   0.840 -0.6658 -0.5667 -0.9111
  164TCq2    C1 2496   2.809   2.191  11.877  0.0834 -0.4302 -0.5368
  164TCq2    O2 2497   2.840   2.128  11.976 -0.4826  0.2174 -0.5849
  164TCq2    C2 2498   2.804   2.333  11.904 -0.5023 -0.7569  0.3925
  164TCq2    C3 2499   2.882   2.386  12.003 -0.1641 -0.1083  0.5275
  164TCq2    C4 2500   2.850   2.505  12.051 -0.6181 -0.1312 -0.4036
  164TCq2    C5 2501   2.740   2.573  11.999  0.1094 -0.3286  0.5353
  164TCq2    C6 2502   2.671   2.518  11.893  0.3193  0.8122 -0.0096
  164TCq2    C7 2503   2.709   2.400  11.831  0.4679 -0.4597 -0.3718
  164TCq2    C8 2504   2.547   2.579  11.858  0.0786 -0.0433 -0.2704
  164TCq2    O4 2505   2.502   2.575  11.746 -0.4062  0.1878 -0.5731
  164TCq2    C9 2506   2.929   2.581  12.148 -0.4149 -0.4133  0.4462
  164TCq2    O5 2507   2.995   2.514  12.234  0.1956  0.3773 -0.0922
  164TCq2    O6 2508   2.926   2.709  12.138 -0.3679 -0.3461 -0.8281
  164TCq2    H2 2509   2.966   2.325  12.035  0.2485  1.0704  1.6691
  164TCq2    H3 2510   2.725   2.673  12.039  0.0753 -0.0831 -0.0829
  164TCq2    H4 2511   2.642   2.356  11.758  0.5884 -0.4985 -0.4576
  165MPD2     C 2512   4.314   0.277   2.434  0.1788 -0.4669 -0.4687
  165MPD2    C1 2513   4.189   0.305   2.399  0.6086  0.8873  0.5537
  165MPD2    C2 2514   4.179   0.395   2.290  0.4088 -0.2379 -0.0019
  165MPD2    C3 2515   4.287   0.454   2.225  0.1441  0.3576 -0.1006
  165MPD2    C4 2516   4.412   0.434   2.272 -0.7454  0.0363 -0.2552
  165MPD2    C5 2517   4.425   0.345   2.375  0.2637 -0.1940  0.2591
  165MPD2     H 2518   4.083   0.418   2.244  0.8628 -0.8583 -1.2756
  165MPD2    H1 2519   4.502   0.478   2.230  0.6723 -1.5439  1.1678
  165MPD2    H2 2520   4.331   0.212   2.519  1.1634 -0.4406 -0.6507
  165MPD2    H3 2521   4.524   0.319   2.414  0.1495 -0.8689  0.1055
  165MPD2     N 2522   4.272   0.538   2.114 -0.6264  0.4446 -0.2307
  165MPD2    H5 2523   4.358   0.562   2.066 -0.0173 -0.0920  0.5932
  165MPD2    N1 2524   4.096   0.216   2.449  0.0595  0.2401 -0.0668
  165MPD2    H7 2525   4.124   0.132   2.498 -0.0570 -0.0618 -0.5143
  166TCq2    C1 2526   4.149   0.601   2.084  0.0006  0.5447 -0.4925
  166TCq2    O2 2527   4.044   0.610   2.146 -0.4565 -0.9011  1.1066
  166TCq2    C2 2528   4.161   0.684   1.967  0.2847  0.6241 -0.6819
  166TCq2    C3 2529   4.044   0.749   1.919  0.0983 -0.3338 -0.1154
  166TCq2    C4 2530   4.033   0.804   1.797 -0.2079  0.5682 -0.0607
  166TCq2    C5 2531   4.147   0.803   1.715  0.2283  0.2214  0.0236
  166TCq2    C6 2532   4.259   0.729   1.754 -0.3469 -0.6342 -0.6325
  166TCq2    C7 2533   4.261   0.659   1.872 -0.4891 -0.6874  0.0175
  166TCq2    C8 2534   4.390   0.740   1.682 -0.0740  0.0104 -0.1389
  166TCq2    O4 2535   4.487   0.749   1.758  0.2872 -0.0160 -0.1416
  166TCq2    C9 2536   3.909   0.863   1.752  0.1190 -0.1499 -0.4174
  166TCq2    O5 2537   3.897   0.895   1.630  0.3613 -0.6047 -0.7787
  166TCq2    O6 2538   3.814   0.861   1.835  0.5511  0.1629 -0.3278
  166TCq2    H2 2539   3.968   0.777   1.992 -0.6481  1.6657 -1.6316
  166TCq2    H3 2540   4.137   0.838   1.612  1.2684 -1.0624 -0.5045
  166TCq2    H4 2541   4.344   0.593   1.895 -0.2522 -0.7499 -0.9731
  167TMC2    C1 2542   1.801   2.184  12.934  0.2728 -0.0414 -0.3175
  167TMC2    C2 2543   1.666   2.158  12.976 -0.0826  0.2840  0.1728
  167TMC2    C3 2544   1.647   2.049  13.056 -0.1059  0.8251  0.7011
  167TMC2    C4 2545   1.904   2.107  12.979  0.2862 -0.1859 -0.1106
  167TMC2    C5 2546   1.878   2.004  13.069 -0.9034 -0.4139  0.1985
  167TMC2    C6 2547   1.752   1.970  13.105  0.1402  0.0793  0.0600
  167TMC2     C 2548   1.843   2.314  12.874 -0.5755  0.4678  0.5013
  167TMC2     O 2549   1.961   2.323  12.847  0.5667  0.1281  0.3148
  167TMC2     H 2550   1.578   2.208  12.935 -1.2791 -1.7232  0.2937
  167TMC2    H1 2551   2.005   2.133  12.950  0.9452 -0.5348  1.8613
  167TMC2    H2 2552   1.734   1.880  13.162 -1.1931  2.1031  2.8076
  167TMC2    C7 2553   1.981   1.904  13.092 -0.1644  0.2195 -0.6206
  167TMC2    C8 2554   1.505   2.017  13.077 -0.4826  0.3661 -0.7600
  167TMC2    O1 2555   1.972   1.831  13.188 -0.5319  0.2789 -0.3095
  167TMC2    O2 2556   1.420   2.102  13.046  0.2508  0.3548  0.4077
  167TMC2    O5 2557   1.494   1.887  13.064 -0.0193  0.1461 -0.4340
  167TMC2    H5 2558   1.565   1.833  13.105 -0.0708 -0.7127 -1.4769
  168MPD2     C 2559   1.642   2.601  12.796  0.2889 -0.4072  0.0260
  168MPD2    C1 2560   1.753   2.530  12.792  0.1010 -0.5678 -0.4784
  168MPD2    C2 2561   1.862   2.579  12.722  0.6799  0.6578 -0.1098
  168MPD2    C3 2562   1.847   2.692  12.643  0.6229 -0.3482 -0.1251
  168MPD2    C4 2563   1.735   2.765  12.655 -0.3840  0.0530 -0.1641
  168MPD2    C5 2564   1.632   2.721  12.735 -0.3005 -0.0622  0.6412
  168MPD2     H 2565   1.950   2.516  12.733  0.5737  0.8918  2.1960
  168MPD2    H1 2566   1.733   2.860  12.605 -0.8034  0.6262  0.9462
  168MPD2    H2 2567   1.558   2.570  12.857  0.2892 -0.9472 -0.2525
  168MPD2    H3 2568   1.536   2.772  12.739  0.3850  1.5250 -2.4029
  168MPD2     N 2569   1.947   2.742  12.555  0.2485  0.8126  0.7220
  168MPD2    H5 2570   1.922   2.821  12.496 -1.1190 -0.7934 -0.8167
  168MPD2    N1 2571   1.737   2.402  12.857  0.4923  0.9879 -0.4815
  168MPD2    H7 2572   1.648   2.375  12.897 -0.2202  0.3157 -2.5127
  169MPD1     C 2573   0.775   0.279   9.937 -0.1423 -0.3283 -0.5794
  169MPD1    C1 2574   0.741   0.322  10.066  0.4224 -0.3834 -0.2315
  169MPD1    C2 2575   0.691   0.452  10.082  0.4955 -0.0849  0.1474
  169MPD1    C3 2576   0.709   0.540   9.976 -0.2011  0.2571  0.8283
  169MPD1    C4 2577   0.752   0.500   9.851  0.8896 -0.4966  0.1219
  169MPD1    C5 2578   0.781   0.370   9.834 -0.3093  0.3158  0.5424
  169MPD1     H 2579   0.657   0.496  10.175  0.3229 -1.0065  0.5259
  169MPD1    H1 2580   0.753   0.568   9.767 -1.9662  1.1215  1.4064
  169MPD1    H2 2581   0.816   0.178   9.933 -1.5671 -0.9149 -0.2736
  169MPD1    H3 2582   0.821   0.346   9.737 -2.3020 -0.3616 -0.1034
  169MPD1     N 2583   0.650   0.668   9.995 -0.0425 -0.4461 -0.2019
  169MPD1    H5 2584   0.607   0.692  10.083  0.2551 -0.4726 -0.0520
  169MPD1    N1 2585   0.744   0.238  10.181  0.0336 -0.4290  0.1972
  169MPD1    H6 2586   0.766   0.309  10.250  1.8571 -2.7450  1.9662
  169MPD1    H7 2587   0.823   0.175  10.169  1.4378  1.5254 -0.8763
  170MPD1     C 2588   2.062   4.668  13.719 -0.0256 -0.1201  0.4917
  170MPD1    C1 2589   2.144   4.657  13.827 -0.3709 -0.3599 -0.2386
  170MPD1    C2 2590   2.253   0.011  13.836  0.5846 -0.1953  0.5474
  170MPD1    C3 2591   2.299   0.083  13.721 -0.4722 -0.2417 -0.3650
  170MPD1    C4 2592   2.210   0.095  13.609  0.1275 -0.4822  0.2155
  170MPD1    C5 2593   2.093   0.028  13.615  0.7184 -0.9148 -0.3464
  170MPD1     H 2594   2.319   0.013  13.922 -0.4163  0.2411  1.3105
  170MPD1    H1 2595   2.246   0.142  13.518 -0.8414 -0.3649 -0.1083
  170MPD1    H2 2596   1.964   4.621  13.719 -0.4553  0.7754 -0.1394
  170MPD1    H3 2597   2.019   0.029  13.535 -0.3725  1.5837  0.7033
  170MPD1     N 2598   2.426   0.153  13.730 -0.2342 -0.4374  0.0290
  170MPD1    H5 2599   2.468   0.140  13.822 -1.4828 -0.1665  0.6351
  170MPD1    N1 2600   2.090   4.606  13.942  0.2862 -0.0089  0.2702
  170MPD1    H6 2601   2.160   4.576  14.009  1.7560  1.0920 -0.8041
  170MPD1    H7 2602   2.034   4.522  13.927  1.4912 -0.8399  0.4613
  171MPD1     C 2603   1.829   1.848  15.625  0.1632 -0.5392  0.0566
  171MPD1    C1 2604   1.913   1.788  15.718  0.3417  0.3769 -0.1724
  171MPD1    C2 2605   1.873   1.663  15.757  0.0096 -0.6784  0.2003
  171MPD1    C3 2606   1.754   1.608  15.724  0.9760  0.2349 -0.4605
  171MPD1    C4 2607   1.668   1.678  15.647  0.5139  0.2891 -0.1618
  171MPD1    C5 2608   1.707   1.798  15.590  0.2097  0.3191  0.5027
  171MPD1     H 2609   1.945   1.610  15.818 -0.4070 -4.4006 -2.4832
  171MPD1    H1 2610   1.569   1.642  15.621  0.4597  0.2776  0.0596
  171MPD1    H2 2611   1.859   1.938  15.572 -1.7879 -0.1265 -0.3672
  171MPD1    H3 2612   1.634   1.861  15.540 -0.0232  0.7484  1.3816
  171MPD1     N 2613   1.724   1.481  15.771 -0.2767 -1.0316 -0.1953
  171MPD1    H5 2614   1.790   1.445  15.839 -1.2732 -0.1733  1.2582
  171MPD1    N1 2615   2.037   1.849  15.749  0.1171  0.7735 -0.1721
  171MPD1    H6 2616   2.019   1.949  15.759  0.1052  0.7082  0.4830
  171MPD1    H7 2617   2.084   1.804  15.827 -0.0380  0.7189 -0.1101
  172MPD1     C 2618   0.856   0.443   0.599 -0.0501  0.2167  0.3473
  172MPD1    C1 2619   0.771   0.550   0.633  0.2496 -0.1921 -0.1823
  172MPD1    C2 2620   0.831   0.661   0.687 -0.2455  0.1890 -0.4787
  172MPD1    C3 2621   0.964   0.684   0.697  0.1483 -0.0940 -0.0436
  172MPD1    C4 2622   1.043   0.577   0.661  0.3119  0.9502 -0.3060
  172MPD1    C5 2623   0.994   0.461   0.619  0.3185  0.2375 -0.4092
  172MPD1     H 2624   0.760   0.733   0.723 -1.1523 -0.1047 -1.6701
  172MPD1    H1 2625   1.150   0.587   0.661  0.1665  2.7375  3.5457
  172MPD1    H2 2626   0.810   0.352   0.564  0.9082 -1.0392  2.4042
  172MPD1    H3 2627   1.064   0.382   0.596  0.4793  0.2485  0.0487
  172MPD1     N 2628   1.030   0.803   0.733  0.3348  0.1768 -0.2285
  172MPD1    H5 2629   1.130   0.804   0.749  0.3441  1.0292 -0.3099
  172MPD1    N1 2630   0.636   0.540   0.602 -0.2211 -0.1274 -0.1059
  172MPD1    H6 2631   0.605   0.443   0.603 -1.1213  0.1578 -0.4391
  172MPD1    H7 2632   0.584   0.584   0.677  0.7561  0.9103 -0.0304
  173MPD1     C 2633   2.453   0.712  13.481  0.0679  0.2344 -0.1028
  173MPD1    C1 2634   2.335   0.659  13.517  0.0941  0.4859  0.4549
  173MPD1    C2 2635   2.322   0.609  13.646  0.5858 -0.0554  0.1324
  173MPD1    C3 2636   2.425   0.623  13.738 -0.0856  0.0166  0.0480
  173MPD1    C4 2637   2.541   0.682  13.703 -0.2251  0.1415 -0.2983
  173MPD1    C5 2638   2.551   0.732  13.576 -0.0058 -0.0449  0.0953
  173MPD1     H 2639   2.228   0.564  13.676 -0.5159  2.3492  0.2960
  173MPD1    H1 2640   2.615   0.696  13.781 -1.6497 -0.4944  1.1771
  173MPD1    H2 2641   2.469   0.743  13.378 -2.6521 -1.0316 -0.9035
  173MPD1    H3 2642   2.639   0.789  13.549 -0.6498  1.6443  1.5739
  173MPD1     N 2643   2.398   0.562  13.866  0.4496 -0.5527 -0.3168
  173MPD1    H5 2644   2.313   0.506  13.869  1.1542 -1.6705 -0.9847
  173MPD1    N1 2645   2.242   0.635  13.403 -0.0270 -0.5513 -0.2572
  173MPD1    H6 2646   2.246   0.702  13.327  1.9245 -1.6493 -1.1213
  173MPD1    H7 2647   2.144   0.634  13.431 -0.2049 -1.6952 -0.9043
  174MPD1     C 2648   2.946   0.198  14.644  0.7277  0.3515  0.3958
  174MPD1    C1 2649   2.816   0.231  14.691 -0.7329 -0.0727 -0.1200
  174MPD1    C2 2650   2.726   0.284  14.608  0.2291  0.3228  0.2977
  174MPD1    C3 2651   2.745   0.289  14.471  0.4828  0.1545  0.0298
  174MPD1    C4 2652   2.868   0.252  14.425  0.3381 -0.3603  0.1885
  174MPD1    C5 2653   2.964   0.200  14.506  0.3952 -0.6426  0.0826
  174MPD1     H 2654   2.633   0.312  14.656  0.9662  0.6639  1.5330
  174MPD1    H1 2655   2.879   0.245  14.318 -0.5817  2.8026 -0.1136
  174MPD1    H2 2656   3.025   0.159  14.706 -0.1347 -1.5993  0.2486
  174MPD1    H3 2657   3.058   0.174  14.458  0.2313  1.3227 -1.3106
  174MPD1     N 2658   2.647   0.338  14.383 -0.0406  0.3113 -0.6182
  174MPD1    H5 2659   2.677   0.359  14.288 -0.5371  0.5262 -0.7285
  174MPD1    N1 2660   2.796   0.230  14.833  0.2616 -0.1920 -0.0194
  174MPD1    H6 2661   2.870   0.177  14.879  1.2908  3.0390  2.0370
  174MPD1    H7 2662   2.818   0.321  14.872  0.8272 -0.5758  0.5537
  175MPD1     C 2663   4.659   1.292  16.113  1.2166  0.0818  0.4730
  175MPD1    C1 2664   0.080   1.307  16.114  0.1318 -0.3801 -0.0217
  175MPD1    C2 2665   0.139   1.325  16.238 -0.9208  0.4688  0.2784
  175MPD1    C3 2666   0.059   1.335  16.351 -0.4599 -0.4162  0.4371
  175MPD1    C4 2667   4.638   1.329  16.341 -0.1160  0.7080 -0.0024
  175MPD1    C5 2668   4.580   1.312  16.222 -0.3313  0.6888 -0.6057
  175MPD1     H 2669   0.248   1.322  16.238 -0.8775  2.5157  1.4491
  175MPD1    H1 2670   4.582   1.348  16.432  0.1476  0.4262  0.2188
  175MPD1    H2 2671   4.613   1.266  16.018  1.6775  0.0156  0.2710
  175MPD1    H3 2672   4.472   1.317  16.213 -0.4836 -1.4874  0.1106
  175MPD1     N 2673   0.113   1.366  16.478 -0.3388  0.8911  0.5358
  175MPD1    H5 2674   0.048   1.363  16.555  0.1714  3.3683  1.0834
  175MPD1    N1 2675   0.159   1.270  16.006  0.4130  0.1623 -0.1840
  175MPD1    H6 2676   0.252   1.307  16.026  0.9076  0.1529 -2.5246
  175MPD1    H7 2677   0.123   1.289  15.913  1.1496 -0.7529 -0.6498
  176MPD1     C 2678   1.792   3.254  16.844  0.5135 -0.1546  0.1490
  176MPD1    C1 2679   1.900   3.257  16.928 -0.5189 -0.8699 -0.4902
  176MPD1    C2 2680   1.901   3.364  17.019 -0.0862  0.1320 -0.1842
  176MPD1    C3 2681   1.798   3.457  17.039  0.3178 -0.2977  0.0185
  176MPD1    C4 2682   1.683   3.433  16.964  0.1565 -0.5462 -0.3083
  176MPD1    C5 2683   1.690   3.340  16.863  0.4063 -0.2267 -0.0398
  176MPD1     H 2684   1.989   3.379  17.081  1.5904  1.2116 -2.8185
  176MPD1    H1 2685   1.593   3.492  16.978  0.0926 -0.3802 -1.4116
  176MPD1    H2 2686   1.781   3.181  16.765  1.2785 -0.6268  0.4764
  176MPD1    H3 2687   1.612   3.328  16.789 -0.1056 -2.4430  0.8702
  176MPD1     N 2688   1.808   3.553  17.143  0.5693  0.0371  0.5178
  176MPD1    H5 2689   1.902   3.563  17.179  1.7032 -0.6247 -2.2617
  176MPD1    N1 2690   2.013   3.172  16.902 -0.8059  0.0676 -0.3674
  176MPD1    H6 2691   2.005   3.083  16.853 -1.2476  1.8863 -3.5586
  176MPD1    H7 2692   2.048   3.143  16.993 -1.2490 -2.1611 -0.8866
  177MPD1     C 2693   0.760   3.028  10.911 -0.0610  0.2325 -0.1401
  177MPD1    C1 2694   0.867   3.015  10.823  0.0086  0.0668 -0.2518
  177MPD1    C2 2695   0.836   2.964  10.696  0.0172 -0.2608 -0.5109
  177MPD1    C3 2696   0.706   2.953  10.650 -0.4216  0.4318 -0.0991
  177MPD1    C4 2697   0.604   2.991  10.736 -0.1956  1.1648 -0.3659
  177MPD1    C5 2698   0.630   3.028  10.869  0.2171 -0.8305  0.1363
  177MPD1     H 2699   0.917   2.927  10.633 -1.0338 -0.0758 -1.9662
  177MPD1    H1 2700   0.501   2.984  10.701  0.5295  2.3288 -2.7442
  177MPD1    H2 2701   0.784   3.054  11.014 -0.6201  0.9429 -0.1962
  177MPD1    H3 2702   0.544   3.056  10.929  0.6476 -1.0208  0.8426
  177MPD1     N 2703   0.678   2.925  10.516  0.6569 -0.4687 -0.5281
  177MPD1    H5 2704   0.756   2.927  10.452  2.8510  0.4645  2.1657
  177MPD1    N1 2705   1.003   2.989  10.869 -0.0864 -0.1634 -0.6869
  177MPD1    H6 2706   1.065   3.008  10.791 -0.3706  0.0941 -0.8517
  177MPD1    H7 2707   1.041   3.039  10.948 -1.8254  0.3952 -0.1955
  178MPD1     C 2708   2.644   0.409  17.235 -0.0456 -0.6549 -0.8004
  178MPD1    C1 2709   2.743   0.354  17.153  0.3100 -0.5663  0.4483
  178MPD1    C2 2710   2.758   0.215  17.131 -0.4130 -0.7623  0.6127
  178MPD1    C3 2711   2.676   0.132  17.207  0.0015 -0.4756 -0.6093
  178MPD1    C4 2712   2.567   0.181  17.282 -1.1027  0.2999 -0.6325
  178MPD1    C5 2713   2.555   0.319  17.295  0.0532 -0.1854 -0.5426
  178MPD1     H 2714   2.840   0.171  17.075 -2.1599 -1.9363 -1.0175
  178MPD1    H1 2715   2.489   0.119  17.325  0.6164  0.3396  2.4875
  178MPD1    H2 2716   2.631   0.516  17.249 -0.8481 -0.7745 -0.6226
  178MPD1    H3 2717   2.469   0.350  17.353  1.5461  3.6746 -0.3603
  178MPD1     N 2718   2.702   4.710  17.190  0.0399 -0.0314 -0.1298
  178MPD1    H5 2719   2.786   4.687  17.137  0.5298  0.3669  0.4762
  178MPD1    N1 2720   2.812   0.441  17.066  0.2674  0.1760  0.2638
  178MPD1    H6 2721   2.882   0.382  17.021 -0.1690 -0.2030  0.0766
  178MPD1    H7 2722   2.864   0.512  17.117 -1.9543  0.6903  1.8440
  179MPD1     C 2723   2.508   3.010  16.229  0.1888  0.3259 -0.0670
  179MPD1    C1 2724   2.501   2.975  16.096  0.8942 -0.2679 -0.1681
  179MPD1    C2 2725   2.493   2.837  16.073 -0.2654 -0.1220 -0.1509
  179MPD1    C3 2726   2.486   2.749  16.179  0.3002  0.2514  0.1894
  179MPD1    C4 2727   2.498   2.792  16.313 -0.2068  0.4520  0.2096
  179MPD1    C5 2728   2.503   2.923  16.332 -0.5305 -0.2805  0.7177
  179MPD1     H 2729   2.488   2.801  15.971  1.3516 -0.4922 -0.1008
  179MPD1    H1 2730   2.509   2.727  16.399 -0.3119 -1.3451 -1.1510
  179MPD1    H2 2731   2.503   3.115  16.255 -0.8142 -0.3120  2.2922
  179MPD1    H3 2732   2.511   2.967  16.431 -0.5208  0.5404  0.3513
  179MPD1     N 2733   2.474   2.607  16.159  0.3965 -0.8611 -0.0257
  179MPD1    H5 2734   2.479   2.552  16.244  1.5236 -1.9380 -0.8025
  179MPD1    N1 2735   2.552   3.056  15.997  0.3478 -0.2366  0.1083
  179MPD1    H6 2736   2.527   3.032  15.902 -0.3067  0.3824  0.1207
  179MPD1    H7 2737   2.536   3.156  16.013  2.7128  0.3083 -1.0827
  180MPD1     C 2738   3.191   4.163  14.953 -0.3063 -0.2048 -0.3806
  180MPD1    C1 2739   3.079   4.107  15.018  0.0044  0.4623  0.1521
  180MPD1    C2 2740   2.986   4.050  14.936 -0.7170  0.0811 -0.6236
  180MPD1    C3 2741   3.009   4.042  14.799  0.7292 -0.6870 -1.0865
  180MPD1    C4 2742   3.116   4.101  14.743  0.5391 -0.1856  0.0262
  180MPD1    C5 2743   3.205   4.170  14.817 -1.3280  0.1160 -0.2186
  180MPD1     H 2744   2.908   3.991  14.982 -0.6206  2.1300  2.1753
  180MPD1    H1 2745   3.122   4.099  14.635  0.0529 -0.7886  0.0084
  180MPD1    H2 2746   3.276   4.202  15.009 -2.6313  1.3957  2.0038
  180MPD1    H3 2747   3.290   4.221  14.775  0.7644 -2.5689  0.7406
  180MPD1     N 2748   2.920   3.982  14.709 -0.0413  0.1094 -1.3528
  180MPD1    H5 2749   2.942   3.977  14.610 -2.9649 -2.4479 -1.8817
  180MPD1    N1 2750   3.077   4.069  15.155  0.0418  0.0350  0.2017
  180MPD1    H6 2751   3.134   4.132  15.213 -1.6135 -0.2855  2.1901
  180MPD1    H7 2752   2.982   4.061  15.190 -0.4961 -1.3177 -1.5751
  181MPD1     C 2753   4.552   3.401  10.028 -0.4070 -0.2780 -0.1306
  181MPD1    C1 2754   4.577   3.469   9.908 -0.4747  0.4535 -0.7801
  181MPD1    C2 2755   4.630   3.597   9.907  0.0960  0.4446  0.7736
  181MPD1    C3 2756   4.662   3.663  10.017  0.8410  0.3280 -0.2550
  181MPD1    C4 2757   4.641   3.593  10.137 -0.5049  0.5976  0.3225
  181MPD1    C5 2758   4.584   3.469  10.144 -0.2108 -0.0903  0.1145
  181MPD1     H 2759   4.637   3.645   9.810  1.2760 -0.1667  0.5532
  181MPD1    H1 2760   4.673   3.638  10.230  0.3833 -2.8084  1.7015
  181MPD1    H2 2761   4.502   3.305  10.033  0.0906 -0.5433 -0.2178
  181MPD1    H3 2762   4.575   3.430  10.245  0.2728 -0.8578 -0.1419
  181MPD1     N 2763   4.711   3.790  10.029 -0.3084 -0.0304  0.2235
  181MPD1    H5 2764   4.714   3.823  10.125 -0.2902  0.1316  0.1668
  181MPD1    N1 2765   4.530   3.409   9.787 -0.2381 -0.4877 -0.2804
  181MPD1    H6 2766   4.592   3.435   9.711  1.9126 -2.6582  0.7420
  181MPD1    H7 2767   4.536   3.308   9.792  1.4967 -0.4016 -0.5875
  182MPD1     C 2768   1.067   0.037   1.925  0.6606  0.2888  0.3091
  182MPD1    C1 2769   1.093   4.684   1.812 -0.1222  0.3915  0.5902
  182MPD1    C2 2770   1.000   4.697   1.704  1.0485 -0.0480  0.2488
  182MPD1    C3 2771   0.889   0.064   1.710  0.0729  0.0497  0.0724
  182MPD1    C4 2772   0.875   0.135   1.830 -0.1265 -0.0467 -0.3913
  182MPD1    C5 2773   0.964   0.119   1.932 -0.6317 -0.2514 -1.1862
  182MPD1     H 2774   1.019   4.638   1.615 -1.9846 -2.2229  1.0440
  182MPD1    H1 2775   0.789   0.198   1.850 -0.4902 -0.9087  0.8012
  182MPD1    H2 2776   1.138   0.041   2.006  0.6307 -1.0614  0.3988
  182MPD1    H3 2777   0.953   0.187   2.015 -0.2655 -2.0802  0.3793
  182MPD1     N 2778   0.794   0.083   1.611  0.0063 -0.4198  0.3876
  182MPD1    H5 2779   0.713   0.140   1.633  0.5652 -0.0034  1.3564
  182MPD1    N1 2780   1.193   4.579   1.821 -0.0674  0.4432 -0.3309
  182MPD1    H6 2781   1.273   4.612   1.875 -0.2561 -0.0525  0.2527
  182MPD1    H7 2782   1.224   4.551   1.729  2.1894  0.2621  0.4935
  183MPD1     C 2783   1.491   0.354   9.269 -0.9591 -0.5625  0.1414
  183MPD1    C1 2784   1.447   0.473   9.332  0.7904  0.3655 -0.7363
  183MPD1    C2 2785   1.410   0.461   9.461  0.2224 -1.0369 -0.3189
  183MPD1    C3 2786   1.420   0.344   9.525  0.0006  0.1904  0.8765
  183MPD1    C4 2787   1.486   0.235   9.467 -0.4771 -0.2538  0.5852
  183MPD1    C5 2788   1.521   0.241   9.334  0.2473 -0.4725 -0.6709
  183MPD1     H 2789   1.349   0.539   9.505  2.6698 -0.0786  1.3298
  183MPD1    H1 2790   1.494   0.137   9.513  2.3467  0.7024  2.1326
  183MPD1    H2 2791   1.515   0.345   9.164 -0.7781 -1.1024  0.2274
  183MPD1    H3 2792   1.565   0.153   9.288  0.4659 -1.4454  1.3637
  183MPD1     N 2793   1.371   0.342   9.662 -0.2621  0.7468 -0.4597
  183MPD1    H5 2794   1.310   0.418   9.688  1.9243  2.1502  0.5821
  183MPD1    N1 2795   1.402   0.582   9.256  0.4934  0.5741  0.1617
  183MPD1    H6 2796   1.447   0.586   9.165  0.4728  0.8812  0.1662
  183MPD1    H7 2797   1.406   0.666   9.312 -0.7898 -0.4621  1.8212
  184MPD1     C 2798   4.247   3.145  10.162 -0.3428 -0.1008  0.0793
  184MPD1    C1 2799   4.210   3.052  10.067 -0.0173  0.2141 -0.5991
  184MPD1    C2 2800   4.304   2.974  10.004  0.0479 -0.3902 -1.1996
  184MPD1    C3 2801   4.438   2.981  10.051 -0.1317 -0.0284  0.0432
  184MPD1    C4 2802   4.471   3.064  10.156  0.0361  0.0716  0.2697
  184MPD1    C5 2803   4.375   3.151  10.206 -0.8303  0.0700  0.1925
  184MPD1     H 2804   4.273   2.909   9.923 -1.0175 -3.5714  1.7593
  184MPD1    H1 2805   4.571   3.069  10.198 -0.1102  0.6748  0.5490
  184MPD1    H2 2806   4.170   3.213  10.195  2.1082  2.2009  0.9820
  184MPD1    H3 2807   4.409   3.218  10.284  0.8658 -3.1130  2.2151
  184MPD1     N 2808   4.534   2.885  10.005 -0.3751  0.9179 -0.4038
  184MPD1    H5 2809   4.621   2.887  10.057  0.2084  1.0915 -1.3954
  184MPD1    N1 2810   4.070   3.065  10.038 -0.2453 -0.1505  0.3513
  184MPD1    H6 2811   4.038   2.997   9.970  1.8136  1.7022 -2.4406
  184MPD1    H7 2812   4.052   3.152   9.990  0.5592 -1.0723 -1.5856
  185MPD1     C 2813   4.638   2.127   9.361 -0.3005 -0.1049  0.2394
  185MPD1    C1 2814   0.022   2.212   9.346  0.1146  0.1093  0.1463
  185MPD1    C2 2815   0.052   2.311   9.437 -0.1109  0.8783 -0.2072
  185MPD1    C3 2816   4.688   2.325   9.542  0.3634 -0.4235  0.9685
  185MPD1    C4 2817   4.573   2.243   9.548 -0.3936 -0.7221  0.5682
  185MPD1    C5 2818   4.557   2.134   9.464 -0.2211  0.0265 -0.1986
  185MPD1     H 2819   0.138   2.376   9.431  1.4336 -0.9985  1.8042
  185MPD1    H1 2820   4.506   2.248   9.633  1.3361 -3.1584  2.0963
  185MPD1    H2 2821   4.608   2.062   9.279  1.1132 -1.4955  0.8325
  185MPD1    H3 2822   4.482   2.057   9.477 -0.5142  0.2940 -0.3064
  185MPD1     N 2823   4.701   2.424   9.640 -0.1294  0.3049 -0.5799
  185MPD1    H5 2824   4.620   2.432   9.701  1.3342  0.3481  1.3423
  185MPD1    N1 2825   0.099   2.203   9.227  0.5026  0.0402  0.7056
  185MPD1    H6 2826   0.188   2.253   9.232 -0.3094  1.4578  1.0373
  185MPD1    H7 2827   0.116   2.107   9.197  4.1983  1.1868 -0.8134
  186MPD1     C 2828   3.175   2.262  16.189 -0.0711 -0.7294  0.2249
  186MPD1    C1 2829   3.120   2.239  16.315  0.5499  0.3770 -0.1394
  186MPD1    C2 2830   3.023   2.322  16.362 -0.0562 -0.4638  0.4970
  186MPD1    C3 2831   2.972   2.429  16.288  0.5744  0.0062 -0.3935
  186MPD1    C4 2832   3.028   2.447  16.164  0.2058  0.1466  0.0092
  186MPD1    C5 2833   3.125   2.366  16.118  0.5459 -0.2370  0.2589
  186MPD1     H 2834   2.993   2.296  16.463 -2.1485 -1.1915 -0.3089
  186MPD1    H1 2835   2.996   2.524  16.094 -1.2813  0.2952  0.8554
  186MPD1    H2 2836   3.258   2.205  16.148  0.4654  0.4977 -0.4009
  186MPD1    H3 2837   3.159   2.363  16.014 -1.4127 -0.2205 -0.3726
  186MPD1     N 2838   2.870   2.521  16.334 -0.2734 -0.4174 -0.2067
  186MPD1    H5 2839   2.828   2.586  16.268 -0.3349  1.5553  1.7755
  186MPD1    N1 2840   3.168   2.138  16.405 -0.0502  0.6266  0.7439
  186MPD1    H6 2841   3.105   2.121  16.483 -1.6599 -0.1288 -0.7294
  186MPD1    H7 2842   3.257   2.156  16.451  1.4235 -3.7118 -0.4759
  187MPD1     C 2843   2.427   4.314   0.319 -0.0039 -0.6018 -0.7085
  187MPD1    C1 2844   2.365   4.236   0.229  0.2362 -0.3987 -0.1343
  187MPD1    C2 2845   2.287   4.291   0.125 -0.0659 -0.3810  0.4036
  187MPD1    C3 2846   2.298   4.424   0.099  0.0805  0.9565  0.3990
  187MPD1    C4 2847   2.379   4.499   0.176 -0.2546  0.2220  0.2291
  187MPD1    C5 2848   2.444   4.444   0.278 -0.4629  0.3915 -0.2087
  187MPD1     H 2849   2.235   4.228   0.054 -1.7924 -0.2262  1.5409
  187MPD1    H1 2850   2.374   4.607   0.162  0.4641  0.1715 -0.3819
  187MPD1    H2 2851   2.485   4.279   0.403  1.4492  2.2253 -0.5401
  187MPD1    H3 2852   2.507   4.503   0.343 -1.4894  0.3319  0.8407
  187MPD1     N 2853   2.226   4.495  17.670  0.5894 -0.3073  0.1016
  187MPD1    H5 2854   2.269   4.581  17.638 -0.5569  0.5051  0.7320
  187MPD1    N1 2855   2.352   4.098   0.243  0.5082  0.1055 -0.6225
  187MPD1    H6 2856   2.429   4.059   0.298  0.0848  0.0023 -0.0965
  187MPD1    H7 2857   2.354   4.058   0.149  1.1056  0.1256 -0.6190
  188MPD1     C 2858   1.637   4.211  10.654 -0.0703 -0.1470  0.3924
  188MPD1    C1 2859   1.689   4.114  10.735 -0.2186 -0.0202  0.8835
  188MPD1    C2 2860   1.778   4.027  10.672  0.4837  0.5735 -0.1312
  188MPD1    C3 2861   1.823   4.043  10.538 -0.5453  0.1835 -0.3025
  188MPD1    C4 2862   1.771   4.148  10.465 -0.3233 -0.3472 -0.0875
  188MPD1    C5 2863   1.670   4.227  10.520 -0.4727 -0.4476 -0.4804
  188MPD1     H 2864   1.809   3.939  10.727  0.8129  0.1830 -0.9430
  188MPD1    H1 2865   1.790   4.159  10.359  1.4672 -1.8696  0.0719
  188MPD1    H2 2866   1.567   4.284  10.695 -0.8182 -0.3898 -0.4429
  188MPD1    H3 2867   1.629   4.308  10.461 -0.3854  0.7486  1.1107
  188MPD1     N 2868   1.913   3.948  10.477 -0.0569  0.4227  0.1271
  188MPD1    H5 2869   1.928   3.971  10.379 -0.2581 -0.2174 -0.0570
  188MPD1    N1 2870   1.620   4.076  10.856 -0.5185 -0.0707  0.0106
  188MPD1    H6 2871   1.575   4.157  10.898 -1.3991 -0.2007 -0.6798
  188MPD1    H7 2872   1.680   4.037  10.928 -2.8077 -1.6832  1.0208
  189MPD1     C 2873   3.905   4.547   0.843 -0.5016  0.1822  0.3367
  189MPD1    C1 2874   3.806   4.464   0.886  0.0289 -0.3501 -0.2719
  189MPD1    C2 2875   3.678   4.525   0.892  0.3145 -0.1316  0.1263
  189MPD1    C3 2876   3.644   4.650   0.839 -0.1732  0.2045 -0.4178
  189MPD1    C4 2877   3.744   0.002   0.771  0.7117 -0.2970 -0.0333
  189MPD1    C5 2878   3.871   4.670   0.791 -0.1499  0.5369  0.3425
  189MPD1     H 2879   3.593   4.472   0.930 -0.4497 -0.4093 -1.9512
  189MPD1    H1 2880   3.726   0.088   0.708 -2.7422 -1.6827 -0.9415
  189MPD1    H2 2881   4.010   4.519   0.839 -0.6875 -0.4245 -0.2968
  189MPD1    H3 2882   3.954   0.012   0.757  0.9796  0.5751  3.1351
  189MPD1     N 2883   3.508   4.685   0.820  0.7777 -0.1278  0.0716
  189MPD1    H5 2884   3.444   4.614   0.856  1.4112 -0.0120  1.4294
  189MPD1    N1 2885   3.850   4.338   0.937  0.0120  0.0302 -0.2839
  189MPD1    H6 2886   3.781   4.265   0.925  1.0672 -0.9396 -0.4614
  189MPD1    H7 2887   3.935   4.308   0.889  1.0618  2.2284  0.1658
  190MPD1     C 2888   2.247   4.151  15.608 -0.1272  0.1857  0.0723
  190MPD1    C1 2889   2.298   4.120  15.733  0.0963 -0.0159 -0.1442
  190MPD1    C2 2890   2.320   3.986  15.756  1.2627  0.1658  0.3954
  190MPD1    C3 2891   2.297   3.891  15.658  0.4743 -0.1819  0.2901
  190MPD1    C4 2892   2.254   3.929  15.531  0.6743  0.6418  0.2896
  190MPD1    C5 2893   2.232   4.059  15.507  0.7060  0.3748 -0.1565
  190MPD1     H 2894   2.331   3.949  15.858 -0.9836 -2.5655 -0.3681
  190MPD1    H1 2895   2.232   3.857  15.454 -1.0242  0.5344  0.8802
  190MPD1    H2 2896   2.220   4.252  15.581 -0.1241  0.4235  0.9733
  190MPD1    H3 2897   2.195   4.094  15.411 -1.1045 -0.6542  0.1542
  190MPD1     N 2898   2.317   3.758  15.700 -0.2943  0.6426 -0.1121
  190MPD1    H5 2899   2.338   3.737  15.797 -0.2093  2.4088  0.2662
  190MPD1    N1 2900   2.298   4.212  15.840  0.3302 -0.3751 -0.3376
  190MPD1    H6 2901   2.314   4.306  15.804  0.6041 -0.6336 -0.8954
  190MPD1    H7 2902   2.364   4.179  15.910 -0.7057 -0.5757  0.5452
  191MPD1     C 2903   1.531   0.309  12.941 -0.3550 -0.2252 -0.1986
  191MPD1    C1 2904   1.467   0.418  12.987 -0.2933 -0.4910 -0.6156
  191MPD1    C2 2905   1.531   0.546  12.988 -0.2703  0.8774 -0.4596
  191MPD1    C3 2906   1.661   0.558  12.936 -0.8309  0.0279 -0.2225
  191MPD1    C4 2907   1.720   0.447  12.892  0.0968 -0.2534 -0.2389
  191MPD1    C5 2908   1.658   0.325  12.896 -0.3987 -0.0077 -0.7342
  191MPD1     H 2909   1.490   0.639  13.024  2.4958  0.7148  3.1304
  191MPD1    H1 2910   1.820   0.453  12.851  0.8085 -3.3393  0.9903
  191MPD1    H2 2911   1.492   0.208  12.938  2.5238 -1.3364 -0.4204
  191MPD1    H3 2912   1.698   0.234  12.853 -0.9684 -1.4512  1.7685
  191MPD1     N 2913   1.732   0.677  12.917 -0.0560  0.4471  0.2288
  191MPD1    H5 2914   1.820   0.676  12.867 -0.1470 -1.8541  0.1279
  191MPD1    N1 2915   1.333   0.412  13.032 -0.1811  0.8963  0.4896
  191MPD1    H6 2916   1.290   0.501  13.058  1.2808  1.1821  1.8795
  191MPD1    H7 2917   1.314   0.338  13.098 -0.3350  1.1465  0.7241
  192MPD1     C 2918   1.725   1.708  12.539 -0.2531 -0.0315  0.0710
  192MPD1    C1 2919   1.663   1.667  12.656  0.0082 -0.3933 -0.5215
  192MPD1    C2 2920   1.672   1.535  12.688  0.3351 -1.1065 -0.3786
  192MPD1    C3 2921   1.730   1.439  12.606 -1.1127  0.3066  0.7667
  192MPD1    C4 2922   1.768   1.478  12.487  0.0208 -0.4183  0.0494
  192MPD1    C5 2923   1.771   1.613  12.451  0.4265 -0.3706 -0.9815
  192MPD1     H 2924   1.630   1.503  12.783  1.6903  1.7080  1.1535
  192MPD1    H1 2925   1.804   1.405  12.415 -2.7158 -1.7799  0.0657
  192MPD1    H2 2926   1.730   1.814  12.521  3.1471 -0.1452  0.2561
  192MPD1    H3 2927   1.828   1.633  12.361 -0.8861 -1.4031 -2.0351
  192MPD1     N 2928   1.738   1.297  12.632  0.1793  0.3769 -0.4085
  192MPD1    H5 2929   1.776   1.245  12.553  0.8515  2.2672 -1.3237
  192MPD1    N1 2930   1.624   1.768  12.745 -0.1161 -1.0891 -0.0267
  192MPD1    H6 2931   1.569   1.743  12.827 -0.6144  1.5468  0.4297
  192MPD1    H7 2932   1.594   1.858  12.709  0.0702 -0.7973  0.5428
  193MPD1     C 2933   1.134   1.154  17.373 -0.1861 -0.2185 -0.4422
  193MPD1    C1 2934   1.257   1.090  17.370 -0.1295 -0.1202  0.3649
  193MPD1    C2 2935   1.367   1.153  17.313  0.3534  0.0831 -0.0957
  193MPD1    C3 2936   1.340   1.267  17.233  0.2255 -0.7679 -0.8516
  193MPD1    C4 2937   1.215   1.324  17.234 -0.7959  0.1004  0.2131
  193MPD1    C5 2938   1.116   1.265  17.302 -0.4159  0.5282  0.2683
  193MPD1     H 2939   1.465   1.107  17.325  0.1666 -0.9118 -2.3753
  193MPD1    H1 2940   1.189   1.411  17.175  0.8427  1.4199  1.4282
  193MPD1    H2 2941   1.053   1.132  17.441  1.4292  1.6507  2.1022
  193MPD1    H3 2942   1.017   1.308  17.303 -1.1898 -1.2126 -0.5991
  193MPD1     N 2943   1.446   1.341  17.175 -0.6132  0.2959 -0.7245
  193MPD1    H5 2944   1.427   1.430  17.131  1.4358  1.4521  0.7532
  193MPD1    N1 2945   1.282   0.980  17.457  0.3205 -0.3932 -0.3771
  193MPD1    H6 2946   1.367   0.928  17.434  0.1071 -2.5476  3.6060
  193MPD1    H7 2947   1.204   0.917  17.473 -0.1652  0.6473  1.4398
  194MPD1     C 2948   0.350   3.614  16.485  0.1312 -0.2454 -0.5797
  194MPD1    C1 2949   0.360   3.479  16.460  1.0170 -1.0554  0.5522
  194MPD1    C2 2950   0.363   3.389  16.569 -0.1915 -0.9030 -0.2177
  194MPD1    C3 2951   0.357   3.430  16.700  0.3327  0.0642 -0.0372
  194MPD1    C4 2952   0.361   3.569  16.725 -0.5181  0.8036 -0.2173
  194MPD1    C5 2953   0.355   3.659  16.617  0.5213 -0.1431  0.0923
  194MPD1     H 2954   0.378   3.285  16.542  1.5751 -1.0348  1.2670
  194MPD1    H1 2955   0.366   3.602  16.828  1.1814  1.3159 -0.4555
  194MPD1    H2 2956   0.334   3.691  16.411  0.1862  1.1284  0.8389
  194MPD1    H3 2957   0.353   3.765  16.640 -2.2840 -0.1751  0.0065
  194MPD1     N 2958   0.356   3.343  16.807  0.6571  0.1731  0.2496
  194MPD1    H5 2959   0.369   3.379  16.901 -0.1245  4.2218 -1.1919
  194MPD1    N1 2960   0.365   3.438  16.328 -0.6126  0.4155 -0.3222
  194MPD1    H6 2961   0.372   3.523  16.274  0.9486  0.1885 -0.4964
  194MPD1    H7 2962   0.446   3.380  16.304  0.3330  1.4161  0.4245
  195MPD1     C 2963   1.470   0.788  17.647  0.4768 -0.2029  0.0463
  195MPD1    C1 2964   1.394   0.737   0.070 -0.4121  1.1808  0.4866
  195MPD1    C2 2965   1.437   0.623   0.137 -0.3950 -0.8817  0.7390
  195MPD1    C3 2966   1.548   0.553   0.087  0.4268  0.2065  0.0876
  195MPD1    C4 2967   1.621   0.602  17.661  0.3314 -0.7227 -0.4517
  195MPD1    C5 2968   1.583   0.720  17.602  0.1651 -0.8957 -0.9044
  195MPD1     H 2969   1.377   0.588   0.220 -0.1161  1.0184  1.7402
  195MPD1    H1 2970   1.717   0.559  17.635  0.8513 -0.1648  0.5516
  195MPD1    H2 2971   1.461   0.889  17.609 -1.6450 -0.9062 -1.2945
  195MPD1    H3 2972   1.640   0.771  17.525  1.3097 -0.5641  0.1679
  195MPD1     N 2973   1.589   0.433   0.147 -0.2724 -0.0350  0.1315
  195MPD1    H5 2974   1.649   0.375   0.089  1.5351  1.4644  0.4713
  195MPD1    N1 2975   1.306   0.825   0.138  0.1914  0.5076  0.4872
  195MPD1    H6 2976   1.239   0.783   0.202 -1.0907  0.1234 -1.1114
  195MPD1    H7 2977   1.250   0.876   0.070  0.7755 -1.1191 -1.2129
  196MPD1     C 2978   1.956   0.131   0.221  0.3177 -0.2159  0.6555
  196MPD1    C1 2979   1.903   0.232   0.288 -0.1846 -0.4441 -0.2792
  196MPD1    C2 2980   1.854   0.220   0.421 -0.1354 -0.3417  0.6100
  196MPD1    C3 2981   1.843   0.090   0.469  0.0803 -0.1114  0.0518
  196MPD1    C4 2982   1.897   4.702   0.401 -0.0944  0.0755  0.1393
  196MPD1    C5 2983   1.949   0.008   0.273 -1.0045  1.1223  0.2655
  196MPD1     H 2984   1.830   0.308   0.481 -2.2723 -0.6085  0.1685
  196MPD1    H1 2985   1.899   4.600   0.436  0.2741 -0.7953 -2.3744
  196MPD1    H2 2986   1.986   0.138   0.117 -0.2321 -1.8928  0.3758
  196MPD1    H3 2987   1.986   4.641   0.216  0.6236  1.6896  0.4771
  196MPD1     N 2988   1.803   0.056   0.596  0.3431 -0.1677  1.1148
  196MPD1    H5 2989   1.824   4.681   0.631 -0.5904 -0.5300  0.7112
  196MPD1    N1 2990   1.913   0.364   0.241 -0.5127 -0.3299 -0.0142
  196MPD1    H6 2991   1.892   0.367   0.142 -0.4551  0.7021  0.0118
  196MPD1    H7 2992   1.848   0.431   0.281 -0.6211  0.4482 -1.5281
  197MPD1     C 2993   0.443   1.531   0.496  0.5937 -0.4140 -0.2201
  197MPD1    C1 2994   0.555   1.610   0.496  0.4244  0.3673  0.6037
  197MPD1    C2 2995   0.559   1.711   0.406  0.3748 -0.2201  0.1596
  197MPD1    C3 2996   0.469   1.731   0.305 -0.3725 -0.1128 -0.3108
  197MPD1    C4 2997   0.363   1.643   0.302  0.0050  0.7257  0.4525
  197MPD1    C5 2998   0.352   1.538   0.393  0.1868 -0.5784  0.1490
  197MPD1     H 2999   0.631   1.790   0.423 -1.4987  1.8156 -1.2112
  197MPD1    H1 3000   0.286   1.647   0.227  0.6620  0.1620 -0.2530
  197MPD1    H2 3001   0.424   1.448   0.563  2.2557  1.7436  2.9212
  197MPD1    H3 3002   0.268   1.470   0.395  0.8514 -1.4167 -0.4923
  197MPD1     N 3003   0.469   1.833   0.209 -0.7012  1.1176 -0.4042
  197MPD1    H5 3004   0.403   1.820   0.133  0.9707 -1.3997 -1.4276
  197MPD1    N1 3005   0.643   1.603   0.609 -0.1465 -0.3689 -0.0396
  197MPD1    H6 3006   0.650   1.510   0.651 -0.7411  1.3265  3.8017
  197MPD1    H7 3007   0.736   1.636   0.585 -0.7725  3.5158  2.7856
  198MPD1     C 3008   1.854   0.673  16.046 -1.0633 -0.1301  0.1473
  198MPD1    C1 3009   1.930   0.618  16.145  0.1726  0.0868  0.4395
  198MPD1    C2 3010   2.030   0.532  16.107  0.1597  0.5673 -0.3416
  198MPD1    C3 3011   2.036   0.474  15.982 -0.0379 -0.3632  0.4769
  198MPD1    C4 3012   1.946   0.511  15.890 -0.0716 -0.1623 -0.0375
  198MPD1    C5 3013   1.859   0.611  15.923 -0.4341 -0.0732 -0.1200
  198MPD1     H 3014   2.106   0.506  16.180  1.4074 -1.9247 -2.5612
  198MPD1    H1 3015   1.940   0.478  15.787  1.9154  0.9791 -0.5191
  198MPD1    H2 3016   1.790   0.760  16.062 -1.1029 -0.2824  0.7799
  198MPD1    H3 3017   1.795   0.645  15.842  0.4721  0.1918 -0.7266
  198MPD1     N 3018   2.130   0.370  15.958  0.1121  0.1987 -0.5639
  198MPD1    H5 3019   2.188   0.346  16.037  0.2386  1.0615 -0.3865
  198MPD1    N1 3020   1.930   0.669  16.280 -0.2921  0.2342 -0.0508
  198MPD1    H6 3021   1.956   0.599  16.349  1.4330  0.8671 -0.0691
  198MPD1    H7 3022   1.841   0.705  16.315 -0.6520  0.2255 -0.9530
  199MPD1     C 3023   0.200   4.347   9.193  1.0850  1.1704 -0.0107
  199MPD1    C1 3024   0.237   4.481   9.186 -0.3347  0.2330 -0.0306
  199MPD1    C2 3025   0.174   4.568   9.270  0.1539 -0.2338  0.0722
  199MPD1    C3 3026   0.093   4.527   9.371  0.9476 -0.4398 -0.3728
  199MPD1    C4 3027   0.071   4.387   9.387  0.3453  0.0020  0.3136
  199MPD1    C5 3028   0.121   4.297   9.295  0.9688 -0.6999 -0.5397
  199MPD1     H 3029   0.196   4.674   9.260  0.2957 -0.4261 -1.6757
  199MPD1    H1 3030   4.712   4.358   9.457 -1.5717 -0.4015 -1.9414
  199MPD1    H2 3031   0.244   4.272   9.129 -1.1373 -0.3207  0.2160
  199MPD1    H3 3032   0.101   4.191   9.287  1.7441 -0.7751 -1.4472
  199MPD1     N 3033   0.019   4.609   9.466  0.5468 -0.0964  0.0925
  199MPD1    H5 3034   4.674   4.562   9.530 -1.0390 -0.4011 -1.6924
  199MPD1    N1 3035   0.314   4.522   9.076 -0.5744  0.0083  0.4675
  199MPD1    H6 3036   0.373   4.445   9.046  0.6082 -0.0557  2.9218
  199MPD1    H7 3037   0.369   4.607   9.090 -0.2297 -0.1977  0.3724
  200MPD1     C 3038   3.140   1.120  15.557  0.1358 -0.5813  0.3550
  200MPD1    C1 3039   3.085   1.115  15.426  0.2179 -0.3508 -0.3033
  200MPD1    C2 3040   3.174   1.098  15.321  0.8865  0.2290  0.0242
  200MPD1    C3 3041   3.316   1.110  15.336 -0.1914  0.2333  0.0335
  200MPD1    C4 3042   3.364   1.109  15.467 -0.0100 -0.4815 -0.0435
  200MPD1    C5 3043   3.274   1.116  15.575 -0.8836 -0.1209  0.2714
  200MPD1     H 3044   3.136   1.075  15.222  2.3454 -0.9185 -0.2763
  200MPD1    H1 3045   3.471   1.107  15.486  0.2670 -1.9690 -1.8024
  200MPD1    H2 3046   3.075   1.125  15.644  1.1040 -0.8750  1.0839
  200MPD1    H3 3047   3.309   1.114  15.677  0.6326  0.8035 -0.2168
  200MPD1     N 3048   3.398   1.124  15.225  0.6794  0.9568  0.6797
  200MPD1    H5 3049   3.353   1.096  15.138  0.7144  0.4970  0.8067
  200MPD1    N1 3050   2.947   1.083  15.408 -0.0366  0.3557  0.2720
  200MPD1    H6 3051   2.931   1.102  15.309  1.1544  0.7361  0.1481
  200MPD1    H7 3052   2.880   1.139  15.460  0.5685  0.3566  1.0350
  201MPD1     C 3053   1.124   0.353  12.557  0.8935  0.6790  0.5983
  201MPD1    C1 3054   1.151   0.333  12.688 -0.5083  0.4239 -0.1389
  201MPD1    C2 3055   1.104   0.216  12.744  0.3397  0.0342 -0.1064
  201MPD1    C3 3056   1.038   0.114  12.673 -0.6795  0.1729  0.2163
  201MPD1    C4 3057   1.022   0.137  12.540 -0.5000  0.2677 -0.0862
  201MPD1    C5 3058   1.049   0.259  12.486  0.3166 -0.6330  0.1372
  201MPD1     H 3059   1.108   0.198  12.851 -1.6234  1.5836  0.2239
  201MPD1    H1 3060   0.967   0.063  12.482  0.6505  0.3279 -1.2554
  201MPD1    H2 3061   1.138   0.444  12.500 -0.7001  0.9341  0.6238
  201MPD1    H3 3062   1.026   0.281  12.383 -1.5621 -1.3466  0.4042
  201MPD1     N 3063   1.010   4.710  12.742 -0.0463  0.9643  0.3128
  201MPD1    H5 3064   1.045   4.712  12.838  1.3634  0.3129 -0.1952
  201MPD1    N1 3065   1.195   0.442  12.772 -0.0848 -0.3375  0.8070
  201MPD1    H6 3066   1.247   0.517  12.728  1.1345 -1.5791  0.1082
  201MPD1    H7 3067   1.238   0.417  12.862  0.3135  0.2690  0.7812
  202MPD1     C 3068   1.946   3.865   9.572  0.1786  0.4291 -0.3122
  202MPD1    C1 3069   1.858   3.972   9.580 -0.3158  0.1766 -0.0872
  202MPD1    C2 3070   1.784   3.975   9.701  0.1603  0.3998 -0.1941
  202MPD1    C3 3071   1.830   3.911   9.816 -0.6225 -0.1850 -0.0823
  202MPD1    C4 3072   1.942   3.832   9.800 -0.0919  0.8644 -0.2221
  202MPD1    C5 3073   1.982   3.797   9.677 -0.1857  0.3821  0.5122
  202MPD1     H 3074   1.706   4.049   9.698  0.2905  0.5027 -1.0533
  202MPD1    H1 3075   1.990   3.792   9.888  0.9229  1.2336 -0.6024
  202MPD1    H2 3076   1.984   3.831   9.476 -0.1076  0.7970 -0.5534
  202MPD1    H3 3077   2.055   3.718   9.661 -0.2365  0.5888 -0.7134
  202MPD1     N 3078   1.764   3.916   9.940  0.2393 -0.4501 -0.2856
  202MPD1    H5 3079   1.813   3.871  10.017 -0.0065 -0.5559 -0.1906
  202MPD1    N1 3080   1.794   4.008   9.457  0.7315  0.2108  0.4477
  202MPD1    H6 3081   1.746   4.098   9.464  1.7235  0.7439  0.4792
  202MPD1    H7 3082   1.855   4.016   9.376 -0.3750  3.1406 -0.0993
  203MPD1     C 3083   0.067   0.706  12.623 -0.1662 -0.0099 -0.0148
  203MPD1    C1 3084   0.009   0.595  12.566  0.6247 -0.2111  0.2098
  203MPD1    C2 3085   0.057   0.473  12.590  0.1995  0.9995 -0.5872
  203MPD1    C3 3086   0.165   0.452  12.679 -1.1276  0.8505  0.8387
  203MPD1    C4 3087   0.225   0.562  12.733 -0.6448  0.5961 -0.3571
  203MPD1    C5 3088   0.172   0.691  12.712  0.0139 -0.5073  0.4488
  203MPD1     H 3089   0.015   0.386  12.542  3.7696 -0.6191 -0.8096
  203MPD1    H1 3090   0.315   0.566  12.793  1.0537 -1.1141 -2.8011
  203MPD1    H2 3091   0.040   0.807  12.597 -0.1132  0.2395  0.8975
  203MPD1    H3 3092   0.203   0.782  12.762  1.1750 -0.8110  0.2808
  203MPD1     N 3093   0.212   0.319  12.686 -0.6108  0.6667  0.1782
  203MPD1    H5 3094   0.168   0.251  12.625  2.1560 -1.0519  0.1040
  203MPD1    N1 3095   4.600   0.616  12.513  0.1714  0.4042 -0.1280
  203MPD1    H6 3096   4.591   0.559  12.429 -5.1316  1.0275  0.0420
  203MPD1    H7 3097   4.590   0.714  12.488  0.1051  0.0770 -1.3958
  204MPD1     C 3098   2.776   1.392   0.273  0.0128 -0.6269  0.6005
  204MPD1    C1 3099   2.831   1.430   0.155  0.4779 -0.3051 -0.3013
  204MPD1    C2 3100   2.947   1.369   0.110  0.0553 -0.1902  0.1732
  204MPD1    C3 3101   3.014   1.272   0.190  0.7081 -0.2458 -0.0286
  204MPD1    C4 3102   2.953   1.227   0.302 -0.2346 -0.5052 -0.0890
  204MPD1    C5 3103   2.834   1.287   0.337 -0.1835  0.2321 -0.5142
  204MPD1     H 3104   2.988   1.403   0.016  0.8516  0.4540  0.7524
  204MPD1    H1 3105   3.006   1.170   0.378 -2.0056 -3.1180 -0.8368
  204MPD1    H2 3106   2.685   1.442   0.306 -0.5177 -0.6376 -0.8339
  204MPD1    H3 3107   2.789   1.251   0.429 -2.8948 -0.0817 -1.9622
  204MPD1     N 3108   3.138   1.219   0.145 -0.0285  0.5628 -0.0706
  204MPD1    H5 3109   3.163   1.235   0.048  1.4041  0.7735  0.3358
  204MPD1    N1 3110   2.768   1.526   0.079  0.2903  0.1793  0.3338
  204MPD1    H6 3111   2.827   1.608   0.076  1.4364 -0.7481 -2.4041
  204MPD1    H7 3112   2.675   1.554   0.111  0.6878  1.0808  0.7034
  205MPD1     C 3113   4.585   0.157  17.144 -0.0544 -0.1073 -0.2373
  205MPD1    C1 3114   4.461   0.209  17.144  0.4623  0.1145 -0.2002
  205MPD1    C2 3115   4.401   0.246  17.271 -0.0800 -0.2588  0.2603
  205MPD1    C3 3116   4.465   0.220  17.388  0.4047  0.5640  0.5940
  205MPD1    C4 3117   4.597   0.171  17.380  0.2399 -0.2490  0.2450
  205MPD1    C5 3118   4.654   0.145  17.258  0.5050 -0.1991 -0.0857
  205MPD1     H 3119   4.300   0.284  17.272  0.1606  0.3783  0.7833
  205MPD1    H1 3120   4.671   0.170  17.459 -0.9908  1.1149  1.4000
  205MPD1    H2 3121   4.639   0.147  17.050  0.8822 -0.3648  0.3306
  205MPD1    H3 3122   0.040   0.117  17.256  0.8742  1.0303  2.2476
  205MPD1     N 3123   4.405   0.233  17.512  0.3793  0.0836  0.0301
  205MPD1    H5 3124   4.458   0.189  17.587 -1.3119 -0.7419  0.7407
  205MPD1    N1 3125   4.395   0.249  17.031 -0.3415 -0.1744  0.1028
  205MPD1    H6 3126   4.293   0.250  17.037 -0.5062  0.8607 -3.1629
  205MPD1    H7 3127   4.411   0.195  16.946 -0.5741  1.0021 -0.6860
  206MPD1     C 3128   4.267   3.152  16.764  0.5664  0.2468  0.5668
  206MPD1    C1 3129   4.345   3.170  16.654 -0.0218 -0.6573  0.3990
  206MPD1    C2 3130   4.282   3.146  16.534  0.9622 -0.3092 -0.6032
  206MPD1    C3 3131   4.143   3.141  16.523 -0.2291  0.1373  0.4479
  206MPD1    C4 3132   4.068   3.130  16.634  0.8934  0.2350  0.1815
  206MPD1    C5 3133   4.136   3.131  16.756  0.2034  0.3231  0.5318
  206MPD1     H 3134   4.332   3.158  16.439  1.2786  2.4373 -0.0747
  206MPD1    H1 3135   3.963   3.106  16.632  0.8830  0.4059 -1.0986
  206MPD1    H2 3136   4.304   3.173  16.864  0.7623  1.2684  0.2778
  206MPD1    H3 3137   4.073   3.130  16.844 -0.4933  0.5961  0.0353
  206MPD1     N 3138   4.085   3.140  16.395  1.0521  0.6271  0.3784
  206MPD1    H5 3139   4.147   3.134  16.315  1.3031  2.6307  0.4129
  206MPD1    N1 3140   4.482   3.165  16.677  0.1034 -0.5471  0.4306
  206MPD1    H6 3141   4.538   3.195  16.597 -1.7249  1.2418 -0.1679
  206MPD1    H7 3142   4.514   3.223  16.755 -0.2339  0.5421 -0.2438
  207MPD1     C 3143   1.490   2.067   9.444 -0.3733 -0.4623  0.6179
  207MPD1    C1 3144   1.421   1.949   9.451 -0.7730 -0.0415 -0.2169
  207MPD1    C2 3145   1.492   1.834   9.480 -0.2366 -0.3694 -0.1285
  207MPD1    C3 3146   1.634   1.840   9.495  0.4541 -0.0849 -0.1623
  207MPD1    C4 3147   1.697   1.968   9.486 -0.0638  0.2040  0.9339
  207MPD1    C5 3148   1.626   2.079   9.462  0.3083  0.4661 -0.1315
  207MPD1     H 3149   1.436   1.748   9.516 -1.5578  0.3354 -0.5087
  207MPD1    H1 3150   1.805   1.971   9.490 -0.0331 -0.4837  0.6341
  207MPD1    H2 3151   1.440   2.161   9.425 -0.6701 -0.5830  0.7996
  207MPD1    H3 3152   1.678   2.173   9.443  0.5297  0.9999  3.1027
  207MPD1     N 3153   1.706   1.722   9.524  0.1105 -0.2340 -0.3756
  207MPD1    H5 3154   1.801   1.743   9.552  0.6111 -1.8288 -0.9112
  207MPD1    N1 3155   1.290   1.938   9.406  0.1688  1.1240 -0.4098
  207MPD1    H6 3156   1.232   2.008   9.452 -1.2424  0.6570 -1.4458
  207MPD1    H7 3157   1.257   1.844   9.431 -0.0585  0.7596 -2.0529
  208MPD1     C 3158   0.496   4.636  17.439 -0.0989  0.0393 -0.0355
  208MPD1    C1 3159   0.442   4.512  17.432  0.3700 -0.4937 -0.8889
  208MPD1    C2 3160   0.412   4.446  17.548 -0.1552  0.4994  0.2080
  208MPD1    C3 3161   0.440   4.504  17.671  0.0473 -0.4157 -0.7622
  208MPD1    C4 3162   0.515   4.623  17.669  0.2394 -0.0304  0.5269
  208MPD1    C5 3163   0.534   4.689  17.556  0.5416  0.7200 -0.0150
  208MPD1     H 3164   0.360   4.351  17.546 -0.3408  0.5718  1.6012
  208MPD1    H1 3165   0.535   4.685   0.080  0.0901 -0.1923  0.6781
  208MPD1    H2 3166   0.509   4.694  17.348 -0.1943  0.1498  0.0202
  208MPD1    H3 3167   0.574   0.072  17.556  0.9760  0.5463  0.3268
  208MPD1     N 3168   0.402   4.442   0.116  0.0201  0.1110 -0.1680
  208MPD1    H5 3169   0.363   4.349   0.099  1.1172 -0.2670 -0.6020
  208MPD1    N1 3170   0.387   4.461  17.313  0.4883 -0.1428 -0.5889
  208MPD1    H6 3171   0.399   4.361  17.299 -0.3663  0.0203 -2.4828
  208MPD1    H7 3172   0.448   4.494  17.239 -0.5712  1.7442 -0.6112
  209MPD1     C 3173   1.968   4.675  10.409 -0.0072  0.6326  0.0997
  209MPD1    C1 3174   2.025   4.633  10.289  0.7180 -0.0359  0.2547
  209MPD1    C2 3175   1.992   4.706  10.172  0.3770  1.0574  0.2993
  209MPD1    C3 3176   1.918   0.096  10.184  0.6617 -0.4481 -0.5996
  209MPD1    C4 3177   1.868   0.141  10.306  0.0092  0.4331 -0.2764
  209MPD1    C5 3178   1.891   0.067  10.418  0.3349  0.5462  0.2770
  209MPD1     H 3179   2.023   4.672  10.074 -1.2042  0.6662 -0.0605
  209MPD1    H1 3180   1.808   0.230  10.318  0.6583  0.4492  2.6595
  209MPD1    H2 3181   1.972   4.610  10.496 -2.3501 -1.2327 -1.1692
  209MPD1    H3 3182   1.858   0.096  10.518  2.0933  0.6499  0.8255
  209MPD1     N 3183   1.895   0.161  10.058 -0.1545  0.4268  0.8013
  209MPD1    H5 3184   1.961   0.126   9.988 -0.8946 -0.4604  0.5541
  209MPD1    N1 3185   2.082   4.501  10.279  0.5059 -0.3127 -0.4345
  209MPD1    H6 3186   2.141   4.503  10.197 -2.2566 -1.0693 -2.4267
  209MPD1    H7 3187   2.135   4.465  10.358  0.2545  0.0995 -0.0755
  210MPD1     C 3188   1.936   4.550   9.146 -0.2235  0.1446 -0.4758
  210MPD1    C1 3189   1.950   4.500   9.279 -0.4477 -0.6266  0.3573
  210MPD1    C2 3190   1.901   4.590   9.371  0.1887 -0.1449 -0.0885
  210MPD1    C3 3191   1.875   0.011   9.345 -0.2193 -0.1801 -0.3425
  210MPD1    C4 3192   1.874   0.046   9.217 -0.1472 -0.0949  0.1150
  210MPD1    C5 3193   1.904   4.677   9.119 -0.1648 -0.3535 -0.7089
  210MPD1     H 3194   1.896   4.553   9.472  0.3089 -1.6890 -0.6360
  210MPD1    H1 3195   1.847   0.147   9.188 -0.6916  0.3011  2.0041
  210MPD1    H2 3196   1.965   4.496   9.057  0.5299 -0.1633 -0.0407
  210MPD1    H3 3197   1.896   4.713   9.017 -0.4456  2.0001  0.1556
  210MPD1     N 3198   1.849   0.106   9.447 -0.4807  0.6207  0.4286
  210MPD1    H5 3199   1.834   0.201   9.414  1.1881  0.4689 -0.7666
  210MPD1    N1 3200   1.979   4.369   9.319  0.3178 -0.2915 -0.5641
  210MPD1    H6 3201   2.054   4.332   9.260 -0.4623 -1.4460 -0.8478
  210MPD1    H7 3202   2.013   4.362   9.415  0.5680  0.1337 -0.6239
  211MPD1     C 3203   0.265   0.217  16.784 -0.1240 -0.4495  0.5612
  211MPD1    C1 3204   0.162   0.130  16.816  0.1723 -0.1600  0.4479
  211MPD1    C2 3205   0.029   0.171  16.787 -0.3055  0.2159 -0.1803
  211MPD1    C3 3206   4.718   0.301  16.738 -0.5293 -0.1680 -0.0902
  211MPD1    C4 3207   0.105   0.383  16.710  0.8929  0.4574 -0.0839
  211MPD1    C5 3208   0.231   0.339  16.735  0.2537 -0.1802 -0.1130
  211MPD1     H 3209   4.663   0.112  16.823  1.1003 -1.3826  0.5077
  211MPD1    H1 3210   0.100   0.480  16.661  2.5654  1.4628  1.7283
  211MPD1    H2 3211   0.370   0.196  16.798  0.7281  3.1707 -0.5261
  211MPD1    H3 3212   0.313   0.396  16.693  0.6669 -0.1968  0.6819
  211MPD1     N 3213   4.581   0.340  16.708 -0.1682 -0.5067  0.3312
  211MPD1    H5 3214   4.514   0.265  16.724  1.3935 -1.7693  0.9116
  211MPD1    N1 3215   0.187   0.021  16.898  0.0551  0.6729 -0.2799
  211MPD1    H6 3216   0.174   0.040  16.997  1.5572  2.3436 -0.3982
  211MPD1    H7 3217   0.287   0.003  16.900 -0.3116 -1.2190  1.4203
  212MPD1     C 3218   3.583   3.630  16.456  0.2415 -0.0354 -0.7312
  212MPD1    C1 3219   3.512   3.697  16.555  0.8651  0.0084 -0.1652
  212MPD1    C2 3220   3.440   3.624  16.650  0.2332  0.2428 -0.1397
  212MPD1    C3 3221   3.438   3.490  16.660 -0.6034 -0.1565 -0.3720
  212MPD1    C4 3222   3.519   3.424  16.564  0.5771  0.3178  0.2817
  212MPD1    C5 3223   3.590   3.492  16.468  0.0188  0.6624  0.1301
  212MPD1     H 3224   3.378   3.684  16.716  0.4828  2.6617 -2.0722
  212MPD1    H1 3225   3.535   3.316  16.559  0.8630  0.4993 -2.8795
  212MPD1    H2 3226   3.634   3.679  16.374  0.4963 -1.9069 -1.7018
  212MPD1    H3 3227   3.654   3.440  16.398  0.5517 -0.2625  1.3040
  212MPD1     N 3228   3.369   3.413  16.757 -0.0256  0.6001  0.4615
  212MPD1    H5 3229   3.404   3.318  16.768 -2.9093 -0.4870  0.2824
  212MPD1    N1 3230   3.475   3.827  16.527 -0.0130  0.0315  0.5238
  212MPD1    H6 3231   3.449   3.857  16.621 -1.0589 -1.6132  0.7662
  212MPD1    H7 3232   3.552   3.881  16.488 -0.0986 -0.4277 -0.2836
  213MPD1     C 3233   1.650   3.760  15.968 -0.5226  0.4177 -0.7491
  213MPD1    C1 3234   1.536   3.726  15.900  0.3346 -0.7999  0.5561
  213MPD1    C2 3235   1.497   3.820  15.804  0.1742  0.0752 -0.1795
  213MPD1    C3 3236   1.554   3.946  15.796 -0.2138  0.1499 -0.2145
  213MPD1    C4 3237   1.654   3.978  15.886  0.4091 -0.3125 -0.8636
  213MPD1    C5 3238   1.698   3.885  15.978 -0.5100  0.3145 -0.8316
  213MPD1     H 3239   1.418   3.800  15.732  2.2492  2.0021 -2.9842
  213MPD1    H1 3240   1.701   4.076  15.887 -2.7356  1.1390  2.4121
  213MPD1    H2 3241   1.692   3.683  16.032 -4.5693 -0.2888  1.0772
  213MPD1    H3 3242   1.784   3.901  16.041 -0.6953 -3.0836  0.2242
  213MPD1     N 3243   1.500   4.030  15.693 -0.9111 -0.0552  0.7979
  213MPD1    H5 3244   1.435   3.989  15.628 -0.9338 -1.2110  1.5450
  213MPD1    N1 3245   1.502   3.592  15.882  0.2736  0.4086  0.5560
  213MPD1    H6 3246   1.414   3.574  15.834  0.4011  1.6787 -0.1554
  213MPD1    H7 3247   1.505   3.533  15.966 -0.8549 -0.6414 -0.1401
  214MPD1     C 3248   0.801   4.159  15.155  0.0277 -0.4232  0.0964
  214MPD1    C1 3249   0.914   4.197  15.080 -0.6027 -0.0006  0.3049
  214MPD1    C2 3250   1.041   4.180  15.129  0.2275 -0.6405 -0.4402
  214MPD1    C3 3251   1.066   4.123  15.252 -0.1051 -0.2960 -0.3445
  214MPD1    C4 3252   0.956   4.092  15.329  0.4846 -0.3541  0.6120
  214MPD1    C5 3253   0.827   4.120  15.286 -0.1524 -0.2885  0.3445
  214MPD1     H 3254   1.128   4.221  15.079 -0.6254 -0.6735 -1.9441
  214MPD1    H1 3255   0.971   4.048  15.427  0.3203  0.6166  1.0794
  214MPD1    H2 3256   0.699   4.179  15.125 -0.0562 -0.8333  0.1148
  214MPD1    H3 3257   0.746   4.096  15.354  0.0857 -1.6339  0.1396
  214MPD1     N 3258   1.187   4.109  15.320 -0.3318 -0.4115 -0.2569
  214MPD1    H5 3259   1.179   4.080  15.416  0.7763  1.9121  0.5337
  214MPD1    N1 3260   0.902   4.249  14.952 -0.0244  0.2309  0.0977
  214MPD1    H6 3261   0.814   4.212  14.918  0.6706 -1.2131 -0.1078
  214MPD1    H7 3262   0.975   4.209  14.893  1.0360  1.5031  0.5260
  215MPD1     C 3263   2.391   3.935  10.604  0.2978 -0.6361  0.5801
  215MPD1    C1 3264   2.432   3.999  10.715 -0.2713 -0.0203 -0.6602
  215MPD1    C2 3265   2.401   4.133  10.729 -0.8435  0.2282 -0.2191
  215MPD1    C3 3266   2.316   4.199  10.643  0.9678 -0.0251  0.6775
  215MPD1    C4 3267   2.269   4.130  10.531 -0.6175  0.3519  0.4733
  215MPD1    C5 3268   2.318   4.002  10.509 -0.6654 -0.4566  0.6603
  215MPD1     H 3269   2.426   4.186  10.819  0.2989  0.9572 -0.9700
  215MPD1    H1 3270   2.206   4.165  10.449 -2.1401 -0.6833  1.1964
  215MPD1    H2 3271   2.424   3.833  10.588 -0.1752 -0.6103 -0.5835
  215MPD1    H3 3272   2.272   3.954  10.423 -0.8192  1.8646 -0.5318
  215MPD1     N 3273   2.298   4.339  10.665  0.2167 -0.4599  0.2805
  215MPD1    H5 3274   2.327   4.379  10.754  0.0254  0.6815 -0.1764
  215MPD1    N1 3275   2.521   3.931  10.807 -0.8054  0.0804  0.3127
  215MPD1    H6 3276   2.495   3.952  10.903  0.4001  2.6817  0.0701
  215MPD1    H7 3277   2.527   3.831  10.788 -0.6393 -0.0251  0.9402
  216MPD1     C 3278   3.931   2.433  16.975 -0.8900 -0.1881 -0.5281
  216MPD1    C1 3279   3.892   2.313  17.029  0.4541  0.8122 -0.6292
  216MPD1    C2 3280   3.961   2.274  17.138 -0.0207  0.2183  0.5374
  216MPD1    C3 3281   4.063   2.344  17.202  0.7142 -0.0566  0.1989
  216MPD1    C4 3282   4.119   2.447  17.127 -0.1729  0.7306 -0.3211
  216MPD1    C5 3283   4.051   2.487  17.016  0.6756 -0.1990 -0.1464
  216MPD1     H 3284   3.923   2.190  17.195  0.2303  1.0423  1.9072
  216MPD1    H1 3285   4.206   2.507  17.151 -0.8614  0.4945  2.7743
  216MPD1    H2 3286   3.876   2.485  16.897 -0.9256 -1.2256 -1.1998
  216MPD1    H3 3287   4.105   2.560  16.957  0.0051  1.1783  0.9368
  216MPD1     N 3288   4.113   2.294  17.325  0.1466  0.3163  0.3615
  216MPD1    H5 3289   4.065   2.210  17.353  1.2616 -0.6782 -0.7331
  216MPD1    N1 3290   3.772   2.245  16.988  0.3256 -0.8483  0.5706
  216MPD1    H6 3291   3.748   2.254  16.889 -1.2563  0.0743  1.0410
  216MPD1    H7 3292   3.789   2.144  16.991  0.4978 -0.7881  1.4224
  217MPD1     C 3293   0.302   2.752   8.837 -1.0491 -0.2343  0.7766
  217MPD1    C1 3294   0.432   2.770   8.815 -1.1731 -0.3506  0.3251
  217MPD1    C2 3295   0.492   2.862   8.900  0.0451  0.5311 -0.4824
  217MPD1    C3 3296   0.417   2.929   8.998 -0.1921  0.3484 -0.1464
  217MPD1    C4 3297   0.292   2.896   9.023  0.0081 -0.2502 -0.3531
  217MPD1    C5 3298   0.232   2.805   8.942  0.6009 -0.1307 -0.6025
  217MPD1     H 3299   0.597   2.888   8.887 -0.0897  1.5556  0.4673
  217MPD1    H1 3300   0.233   2.918   9.111 -0.3718  0.1992 -0.7227
  217MPD1    H2 3301   0.253   2.681   8.771 -0.8529  2.3667 -2.1516
  217MPD1    H3 3302   0.132   2.765   8.946  0.5197  0.0932 -0.4079
  217MPD1     N 3303   0.490   3.012   9.096 -0.0398  0.1002 -0.7195
  217MPD1    H5 3304   0.433   3.047   9.172  1.2713  0.3712  0.1360
  217MPD1    N1 3305   0.505   2.685   8.730  0.3679 -0.2361 -0.9410
  217MPD1    H6 3306   0.449   2.619   8.675 -0.4435 -1.3885  1.2611
  217MPD1    H7 3307   0.595   2.715   8.694  1.2026  0.9066  2.1669
  218MPD1     C 3308   1.485   0.432  11.760 -0.2085 -0.9667  1.0615
  218MPD1    C1 3309   1.575   0.459  11.662 -0.2457 -0.2390 -0.0248
  218MPD1    C2 3310   1.708   0.481  11.705  0.4607 -0.4556  0.4206
  218MPD1    C3 3311   1.740   0.485  11.835 -0.3033 -0.1286 -0.1532
  218MPD1    C4 3312   1.640   0.469  11.929  0.3124 -0.3705  0.4684
  218MPD1    C5 3313   1.515   0.457  11.891 -1.0018  0.8427 -0.1179
  218MPD1     H 3314   1.780   0.498  11.626 -0.4823  1.7773  0.0284
  218MPD1    H1 3315   1.652   0.475  12.036 -0.1373  0.0837  0.4985
  218MPD1    H2 3316   1.382   0.414  11.733  0.5855 -3.4202 -0.3409
  218MPD1    H3 3317   1.438   0.444  11.966 -0.1441 -0.0911  0.6158
  218MPD1     N 3318   1.880   0.492  11.873  0.5895 -0.0288  0.7498
  218MPD1    H5 3319   1.943   0.533  11.805 -0.0098 -1.8613 -0.9216
  218MPD1    N1 3320   1.536   0.444  11.526  0.0248 -0.5343  0.3167
  218MPD1    H6 3321   1.440   0.471  11.505 -0.0006 -1.7264 -1.0838
  218MPD1    H7 3322   1.604   0.483  11.461  1.1222  1.5519  2.7198
  219MPD1     C 3323   2.366   1.108  11.575 -0.3987  0.6645  0.3387
  219MPD1    C1 3324   2.442   1.084  11.689  0.2912  0.2387  0.3547
  219MPD1    C2 3325   2.410   0.974  11.769  0.4098  0.2314 -0.3513
  219MPD1    C3 3326   2.313   0.884  11.721  0.3544 -0.4897 -0.6828
  219MPD1    C4 3327   2.246   0.909  11.601  0.5827  0.1549  0.3174
  219MPD1    C5 3328   2.276   1.019  11.525 -0.2221 -0.0937 -0.0761
  219MPD1     H 3329   2.466   0.964  11.862 -2.2195  2.4646  1.4774
  219MPD1    H1 3330   2.170   0.843  11.561 -2.1243  3.2758  0.3327
  219MPD1    H2 3331   2.370   1.204  11.524 -1.8537  0.5703  0.0719
  219MPD1    H3 3332   2.215   1.045  11.439 -1.3712 -1.4595  0.3347
  219MPD1     N 3333   2.263   0.779  11.801  0.3049  0.7519 -0.3071
  219MPD1    H5 3334   2.189   0.724  11.760  0.9435 -0.1768 -0.1996
  219MPD1    N1 3335   2.532   1.183  11.732 -0.2369  0.5462 -0.1025
  219MPD1    H6 3336   2.571   1.236  11.655  0.1891  1.4626  0.7462
  219MPD1    H7 3337   2.615   1.143  11.774 -0.4605 -0.6306 -0.7841
  220MPD1     C 3338   1.548   1.397   9.806  0.2715 -0.1733  0.6559
  220MPD1    C1 3339   1.644   1.365   9.892 -0.7289 -0.1684 -0.1656
  220MPD1    C2 3340   1.650   1.240   9.945  0.4795 -0.6736 -0.3323
  220MPD1    C3 3341   1.569   1.140   9.895 -0.1518 -0.1336 -0.4254
  220MPD1    C4 3342   1.473   1.186   9.800 -0.0005 -0.1054 -0.1991
  220MPD1    C5 3343   1.458   1.312   9.756  0.4496 -0.5282 -0.4631
  220MPD1     H 3344   1.720   1.217  10.026  1.3330 -0.0316 -0.8941
  220MPD1    H1 3345   1.405   1.112   9.759 -1.3353  1.1114 -0.1996
  220MPD1    H2 3346   1.549   1.497   9.764  3.3662 -1.1318 -1.5036
  220MPD1    H3 3347   1.383   1.347   9.686 -0.1803  2.1514  1.5591
  220MPD1     N 3348   1.575   1.007   9.957  0.3786  0.1190  0.3955
  220MPD1    H5 3349   1.650   0.993  10.024 -0.4720  0.9169  1.5128
  220MPD1    N1 3350   1.716   1.469   9.940 -0.2170 -0.1093 -0.9328
  220MPD1    H6 3351   1.808   1.451   9.979 -0.9274 -0.2998  0.6567
  220MPD1    H7 3352   1.730   1.548   9.877 -0.6303 -1.9514 -3.2992
  221MPD1     C 3353   3.356   4.065  17.198  0.6164 -0.2755 -0.0289
  221MPD1    C1 3354   3.340   4.149  17.082  0.0702  0.3741 -0.6395
  221MPD1    C2 3355   3.451   4.161  17.004  0.1849 -0.6903 -0.2950
  221MPD1    C3 3356   3.572   4.103  17.033  0.0391 -1.0838  0.0972
  221MPD1    C4 3357   3.582   4.022  17.148 -0.7226 -0.2654  0.7184
  221MPD1    C5 3358   3.472   3.996  17.227  0.4295 -1.0164  0.3959
  221MPD1     H 3359   3.443   4.222  16.914  1.3565 -0.1303 -0.0345
  221MPD1    H1 3360   3.672   3.963  17.162 -0.3705 -0.2737 -1.6189
  221MPD1    H2 3361   3.280   4.058  17.275  0.2256  1.3309 -0.2724
  221MPD1    H3 3362   3.475   3.938  17.318 -3.2983 -0.4815  0.8784
  221MPD1     N 3363   3.693   4.133  16.965  0.4366 -0.1580  0.2675
  221MPD1    H5 3364   3.783   4.099  16.997  0.0373  0.2815  1.8495
  221MPD1    N1 3365   3.216   4.209  17.049 -0.6687  0.2971  0.2555
  221MPD1    H6 3366   3.235   4.280  16.979 -1.9524  0.8782  0.4976
  221MPD1    H7 3367   3.153   4.235  17.125 -1.2594  1.3900 -0.6016
  222MPD1     C 3368   2.958   3.977  16.947 -0.1329 -0.1324  1.0415
  222MPD1    C1 3369   3.070   3.917  17.005 -0.3779  0.1529  0.1740
  222MPD1    C2 3370   3.070   3.860  17.133  0.6448 -0.3935  0.2621
  222MPD1    C3 3371   2.949   3.855  17.199 -0.3658  0.0254  0.5249
  222MPD1    C4 3372   2.838   3.915  17.140  0.0567  0.0167 -0.3605
  222MPD1    C5 3373   2.842   3.963  17.014 -0.4974  0.0057 -0.3164
  222MPD1     H 3374   3.159   3.829  17.186  0.6559  0.1550  0.5651
  222MPD1    H1 3375   2.741   3.911  17.189  0.8017  0.3672  1.1435
  222MPD1    H2 3376   2.954   4.035  16.856  0.1424  2.0327  2.4160
  222MPD1    H3 3377   2.759   4.013  16.965  0.2379  2.4923  0.9589
  222MPD1     N 3378   2.934   3.806  17.329 -0.9180 -0.1880 -0.1265
  222MPD1    H5 3379   2.848   3.834  17.375 -1.6278 -1.0215 -0.9512
  222MPD1    N1 3380   3.189   3.931  16.937  0.3661 -0.2802  0.1430
  222MPD1    H6 3381   3.244   4.002  16.985 -0.3672  0.1450  0.3636
  222MPD1    H7 3382   3.248   3.859  16.978 -0.4734 -1.5549 -0.8813
  223MPD1     C 3383   3.361   2.994   0.031 -0.2012 -0.2468 -0.2787
  223MPD1    C1 3384   3.324   3.014  17.580  0.0387  0.0147  0.0707
  223MPD1    C2 3385   3.249   3.124  17.544  0.0271 -0.3251  0.4266
  223MPD1    C3 3386   3.196   3.203  17.644  0.2295 -0.3457 -0.5739
  223MPD1    C4 3387   3.238   3.188   0.100  0.7874  0.5718  0.2789
  223MPD1    C5 3388   3.326   3.083   0.128 -0.3235 -0.3470  0.8705
  223MPD1     H 3389   3.213   3.152  17.446  0.2310 -1.7477 -0.0486
  223MPD1    H1 3390   3.206   3.264   0.170  1.4400  1.7438 -0.6884
  223MPD1    H2 3391   3.427   2.912   0.056 -2.0162 -1.3786  0.8209
  223MPD1    H3 3392   3.378   3.072   0.222  0.1625  2.1834  0.9056
  223MPD1     N 3393   3.102   3.305  17.612  0.0144  0.2842  0.1402
  223MPD1    H5 3394   3.078   3.307  17.513 -2.5295  0.1392  0.7398
  223MPD1    N1 3395   3.383   2.947  17.475  0.3547 -0.2408  1.0223
  223MPD1    H6 3396   3.381   2.846  17.483 -1.3123 -0.2080  0.8237
  223MPD1    H7 3397   3.327   2.962  17.392  1.7491 -2.0119 -0.2509
  224MPD1     C 3398   0.976   0.163   9.543 -1.0008 -0.4520  0.2392
  224MPD1    C1 3399   1.082   0.080   9.563 -0.6268 -0.6575  0.3104
  224MPD1    C2 3400   1.058   4.692   9.648 -0.1885  0.1123  0.4207
  224MPD1    C3 3401   0.944   4.678   9.730  0.4488  0.3540 -0.0251
  224MPD1    C4 3402   0.839   0.043   9.704  0.2644  0.3036  0.1185
  224MPD1    C5 3403   0.856   0.140   9.610 -0.1853  0.0921 -0.3021
  224MPD1     H 3404   1.136   4.616   9.650  0.2097  0.4680 -1.2985
  224MPD1    H1 3405   0.745   0.033   9.756  1.5488 -2.6007  1.9133
  224MPD1    H2 3406   0.985   0.240   9.467  0.4854 -0.7688  0.1059
  224MPD1    H3 3407   0.768   0.198   9.588 -1.1966 -1.8477 -1.3464
  224MPD1     N 3408   0.919   4.563   9.813 -0.4510  0.1381  0.1619
  224MPD1    H5 3409   0.827   4.554   9.854  0.1247 -3.5829  0.6684
  224MPD1    N1 3410   1.189   0.090   9.475  0.6220 -0.7075  0.6479
  224MPD1    H6 3411   1.203   0.184   9.438 -2.5494 -1.1788 -1.7884
  224MPD1    H7 3412   1.273   0.068   9.528  1.6453  0.0238 -0.6766
  225MPD1     C 3413   1.872   1.386  12.122 -0.4260 -0.5651  0.6075
  225MPD1    C1 3414   1.837   1.254  12.108 -0.0736 -0.1670 -0.4639
  225MPD1    C2 3415   1.700   1.224  12.104 -0.5587  1.2458  0.3535
  225MPD1    C3 3416   1.603   1.322  12.122  0.2099  0.3236  0.1026
  225MPD1    C4 3417   1.645   1.452  12.143 -0.3215 -0.1773 -0.3256
  225MPD1    C5 3418   1.776   1.482  12.135 -0.3525  0.6052 -0.2253
  225MPD1     H 3419   1.673   1.119  12.108 -1.8045  1.6284  1.9895
  225MPD1    H1 3420   1.576   1.534  12.158  0.8845  0.9042 -0.7081
  225MPD1    H2 3421   1.974   1.418  12.104  0.3040 -1.5630  2.8979
  225MPD1    H3 3422   1.793   1.589  12.139  2.1764  0.1877 -0.0548
  225MPD1     N 3423   1.462   1.303  12.124 -0.2779 -0.3048  0.2462
  225MPD1    H5 3424   1.392   1.376  12.134  2.7687  2.7669 -0.6816
  225MPD1    N1 3425   1.926   1.151  12.105  0.3725 -0.3608 -0.3474
  225MPD1    H6 3426   2.023   1.164  12.077  0.6610 -4.1841 -1.0679
  225MPD1    H7 3427   1.890   1.066  12.063 -1.4755  1.1504 -1.8142
  226MPD1     C 3428   1.400   1.070   9.371 -0.6920  0.3944  0.5085
  226MPD1    C1 3429   1.373   0.989   9.479 -0.4270  0.5400 -0.5395
  226MPD1    C2 3430   1.272   1.033   9.564  0.2957 -0.2999 -0.4830
  226MPD1    C3 3431   1.210   1.154   9.555 -0.8043  0.3240 -0.1358
  226MPD1    C4 3432   1.248   1.236   9.452 -0.4660 -0.3766 -0.1192
  226MPD1    C5 3433   1.337   1.191   9.361 -0.1391 -0.0201 -0.5423
  226MPD1     H 3434   1.235   0.970   9.644 -1.5366  0.6046 -0.6035
  226MPD1    H1 3435   1.203   1.334   9.443  0.6462  0.0079 -1.5654
  226MPD1    H2 3436   1.457   1.035   9.285  0.7028  0.0764  1.5489
  226MPD1    H3 3437   1.348   1.252   9.272  2.1210 -1.5030 -1.3138
  226MPD1     N 3438   1.117   1.194   9.655  0.5025  0.6182  0.5826
  226MPD1    H5 3439   1.117   1.139   9.739  2.0912  2.5385  1.8481
  226MPD1    N1 3440   1.399   0.850   9.475  0.1525  0.1023  0.4960
  226MPD1    H6 3441   1.400   0.810   9.568  1.1867  1.0905  0.9064
  226MPD1    H7 3442   1.492   0.834   9.436  0.6809  2.5616  0.7737
  227MPD1     C 3443   0.608   1.924  10.315  0.5410  0.3607 -0.1934
  227MPD1    C1 3444   0.534   1.809  10.305  0.5699  0.3302  0.0578
  227MPD1    C2 3445   0.579   1.709  10.226  0.1237 -0.4499 -0.3066
  227MPD1    C3 3446   0.691   1.720  10.141  0.4616  1.1275  0.5518
  227MPD1    C4 3447   0.750   1.846  10.141 -0.0957 -0.6645 -0.1503
  227MPD1    C5 3448   0.712   1.942  10.225  1.1406 -0.4781  0.1959
  227MPD1     H 3449   0.529   1.613  10.231  0.4905 -0.6870 -1.1062
  227MPD1    H1 3450   0.837   1.864  10.080 -0.6838 -0.9304 -1.0773
  227MPD1    H2 3451   0.590   1.996  10.394  1.1472 -1.3043  1.4458
  227MPD1    H3 3452   0.766   2.035  10.241  0.2460 -0.5016  3.1998
  227MPD1     N 3453   0.722   1.615  10.053 -0.2121  0.6562 -0.3039
  227MPD1    H5 3454   0.671   1.528  10.067 -1.5230  1.1663 -1.8609
  227MPD1    N1 3455   0.439   1.779  10.399 -0.0226 -0.2994  0.0639
  227MPD1    H6 3456   0.396   1.865  10.434 -0.2923  0.3675 -1.9036
  227MPD1    H7 3457   0.362   1.734  10.352  1.4413 -1.6834 -1.0075
  228MPD1     C 3458   3.430   3.660  12.891 -0.3503  0.2000  0.8035
  228MPD1    C1 3459   3.341   3.689  12.792  0.1590 -0.4344  0.1300
  228MPD1    C2 3460   3.207   3.682  12.819  0.2816  0.7570 -0.0902
  228MPD1    C3 3461   3.159   3.645  12.944  0.1912  0.2236  0.1843
  228MPD1    C4 3462   3.246   3.621  13.047 -0.2707 -0.1928  0.2485
  228MPD1    C5 3463   3.375   3.637  13.018 -0.1284 -0.1025  0.1398
  228MPD1     H 3464   3.143   3.695  12.732 -0.2908  1.1108  0.3941
  228MPD1    H1 3465   3.218   3.604  13.150 -1.7451 -0.1731 -0.1449
  228MPD1    H2 3466   3.536   3.644  12.878 -0.4965 -0.1762  0.1075
  228MPD1    H3 3467   3.445   3.633  13.101 -2.8625 -0.7306  2.4270
  228MPD1     N 3468   3.018   3.645  12.957  0.2755  0.7248 -0.3395
  228MPD1    H5 3469   2.965   3.682  12.878 -0.3454 -0.9575 -0.6971
  228MPD1    N1 3470   3.381   3.712  12.656 -0.1084  0.0697 -0.2365
  228MPD1    H6 3471   3.469   3.763  12.647  0.3700 -0.7434 -0.2285
  228MPD1    H7 3472   3.308   3.765  12.610  1.4553  1.4639 -1.1005
  229MPD1     C 3473   2.229   2.487  15.494  0.5604  0.0927 -0.2471
  229MPD1    C1 3474   2.226   2.376  15.413 -0.5564 -0.2615  0.1453
  229MPD1    C2 3475   2.309   2.273  15.440  0.5649  0.4013 -0.0106
  229MPD1    C3 3476   2.405   2.279  15.537 -0.0687  0.2207 -0.2955
  229MPD1    C4 3477   2.410   2.389  15.619 -0.2338  0.0739 -0.0024
  229MPD1    C5 3478   2.317   2.491  15.600  0.3237  0.6820  0.2935
  229MPD1     H 3479   2.292   2.179  15.390 -0.7369  1.8965 -2.3590
  229MPD1    H1 3480   2.478   2.387  15.703  0.8897 -2.2887 -0.9746
  229MPD1    H2 3481   2.156   2.565  15.478  1.2671  0.4607 -1.6497
  229MPD1    H3 3482   2.315   2.572  15.672 -2.5200  0.4996  0.3996
  229MPD1     N 3483   2.498   2.175  15.566 -0.6234  0.1648 -0.1887
  229MPD1    H5 3484   2.566   2.190  15.640 -1.0268 -0.8680  0.3852
  229MPD1    N1 3485   2.115   2.360  15.322  0.1130 -0.2882 -0.3310
  229MPD1    H6 3486   2.142   2.298  15.247  1.0479 -0.7383  0.3795
  229MPD1    H7 3487   2.081   2.444  15.275  2.1904 -1.1914 -3.4443
  230MPD1     C 3488   3.239   1.803  16.143  0.5770  0.2786 -0.6126
  230MPD1    C1 3489   3.229   1.706  16.041 -1.0927 -0.1754 -0.3584
  230MPD1    C2 3490   3.128   1.721  15.955 -0.1251  1.0814  0.8673
  230MPD1    C3 3491   3.040   1.833  15.955  0.1165  0.3188  0.5845
  230MPD1    C4 3492   3.050   1.928  16.055 -0.2521  0.7847  0.1762
  230MPD1    C5 3493   3.150   1.911  16.147  0.2815 -0.0777 -0.3999
  230MPD1     H 3494   3.123   1.661  15.865  2.6179 -0.9231  2.0146
  230MPD1    H1 3495   2.991   2.019  16.059 -0.5269  0.4716  3.4654
  230MPD1    H2 3496   3.315   1.794  16.220 -0.1963  2.1025  0.3749
  230MPD1    H3 3497   3.156   1.981  16.229 -0.1130 -3.0314  2.1600
  230MPD1     N 3498   2.945   1.837  15.852 -0.4966  0.2100 -0.1500
  230MPD1    H5 3499   2.934   1.747  15.807 -0.6030 -0.9168  2.1457
  230MPD1    N1 3500   3.319   1.597  16.034  0.0085 -0.0434 -0.5589
  230MPD1    H6 3501   3.405   1.623  16.082  0.4903  2.3564 -2.7218
  230MPD1    H7 3502   3.339   1.565  15.939 -0.7006  0.3257 -0.8346
  231MPD1     C 3503   1.144   4.534  15.451  0.1570  0.0703  0.0667
  231MPD1    C1 3504   1.071   4.506  15.342  0.2696  0.6690  0.4751
  231MPD1    C2 3505   1.113   4.557  15.214  0.1637  0.4377  0.4382
  231MPD1    C3 3506   1.240   4.612  15.202 -0.1230  0.6290 -0.0600
  231MPD1    C4 3507   1.308   4.640  15.317 -0.4307 -0.1714 -0.3004
  231MPD1    C5 3508   1.257   4.609  15.438 -0.0435 -0.1176  0.0681
  231MPD1     H 3509   1.055   4.524  15.129  0.0966 -0.0061  0.6563
  231MPD1    H1 3510   1.404   4.689  15.303 -0.8904  1.2556  1.4506
  231MPD1    H2 3511   1.121   4.518  15.556 -1.1559  0.3536 -0.1751
  231MPD1    H3 3512   1.306   4.639  15.530 -0.0115  0.8057 -0.2468
  231MPD1     N 3513   1.289   4.633  15.070  0.7436  0.2624 -0.4338
  231MPD1    H5 3514   1.241   4.582  14.997 -0.3016 -0.0361  0.4697
  231MPD1    N1 3515   0.947   4.431  15.359 -0.0801 -0.4975  0.2132
  231MPD1    H6 3516   0.952   4.377  15.445 -2.9464  1.5425  1.6273
  231MPD1    H7 3517   0.923   4.360  15.290  1.4562  0.4635 -1.2925
  232MPD1     C 3518   2.836   1.334   0.826  0.1687  0.0164 -0.7662
  232MPD1    C1 3519   2.786   1.435   0.748 -0.1942  0.3137 -0.8108
  232MPD1    C2 3520   2.677   1.411   0.660 -0.5179 -0.4517 -0.3947
  232MPD1    C3 3521   2.634   1.285   0.646  0.3964 -0.0966  0.5150
  232MPD1    C4 3522   2.707   1.179   0.693 -0.1643  0.0697  0.8951
  232MPD1    C5 3523   2.806   1.206   0.786 -0.1283 -0.1289  0.3491
  232MPD1     H 3524   2.629   1.493   0.607 -0.5548  0.7336  1.4571
  232MPD1    H1 3525   2.694   1.074   0.669  3.2400 -0.0523 -0.3334
  232MPD1    H2 3526   2.911   1.347   0.902  0.8498 -1.9972 -1.0818
  232MPD1    H3 3527   2.855   1.128   0.843  1.8913  0.7214 -0.2174
  232MPD1     N 3528   2.517   1.268   0.571 -0.2214 -0.7732  0.2018
  232MPD1    H5 3529   2.474   1.355   0.540 -2.6545 -1.6039  1.2197
  232MPD1    N1 3530   2.822   1.564   0.783  0.0975 -0.1082 -0.3300
  232MPD1    H6 3531   2.795   1.635   0.714  0.2874 -0.7043 -1.0241
  232MPD1    H7 3532   2.921   1.574   0.802 -0.4559 -0.7585  2.8699
  233MPD1     C 3533   4.251   1.118   2.041  0.5999  0.0090  0.3890
  233MPD1    C1 3534   4.249   1.017   2.135 -0.0103  0.3528 -0.0455
  233MPD1    C2 3535   4.359   0.929   2.134 -0.4587 -0.4994  0.1544
  233MPD1    C3 3536   4.439   0.926   2.021 -0.7560 -0.3136 -0.3075
  233MPD1    C4 3537   4.422   1.012   1.914  0.2959  0.7811  0.3243
  233MPD1    C5 3538   4.329   1.111   1.925 -0.0540  0.4994 -0.3283
  233MPD1     H 3539   4.368   0.849   2.207  0.0428  1.1059  1.8555
  233MPD1    H1 3540   4.490   1.011   1.830  1.9659 -0.0513  1.7040
  233MPD1    H2 3541   4.168   1.188   2.042  0.8758  0.3739 -1.8014
  233MPD1    H3 3542   4.322   1.199   1.863  1.1392 -0.7588 -2.2541
  233MPD1     N 3543   4.550   0.842   2.015 -0.1243 -0.2050 -0.0561
  233MPD1    H5 3544   4.588   0.839   1.920  1.1163  0.3509  0.4202
  233MPD1    N1 3545   4.152   1.026   2.235 -0.2345 -0.2843 -0.9562
  233MPD1    H6 3546   4.066   1.071   2.201 -0.6511  0.8518  1.6616
  233MPD1    H7 3547   4.131   0.936   2.277  2.6492  0.0832  1.1881
  234MPD1     C 3548   2.192   3.089  10.247 -0.5295  0.6834  0.1599
  234MPD1    C1 3549   2.106   3.170  10.323 -0.2039 -0.1620  0.3002
  234MPD1    C2 3550   1.987   3.200  10.270  0.3405  0.4790 -0.3024
  234MPD1    C3 3551   1.962   3.171  10.137  0.4478  0.1419  0.1886
  234MPD1    C4 3552   2.053   3.101  10.056  0.2719 -0.4094 -0.1973
  234MPD1    C5 3553   2.165   3.056  10.116 -0.0113 -0.1235  0.0793
  234MPD1     H 3554   1.908   3.241  10.331  0.0720  2.1431 -1.7502
  234MPD1    H1 3555   2.032   3.092   9.950  0.2194  0.9558 -0.3059
  234MPD1    H2 3556   2.281   3.061  10.303  0.6421 -0.3891 -2.2180
  234MPD1    H3 3557   2.249   3.020  10.058  2.3428  2.9838  1.5782
  234MPD1     N 3558   1.834   3.213  10.084 -0.3979  0.0003 -0.2130
  234MPD1    H5 3559   1.780   3.275  10.144  0.8881 -0.3406  1.2818
  234MPD1    N1 3560   2.127   3.184  10.459  0.2675  0.6242  0.2286
  234MPD1    H6 3561   2.223   3.200  10.487  0.4232  2.0897 -1.1566
  234MPD1    H7 3562   2.067   3.256  10.498 -0.9557  0.3057 -1.0499
  235MPD1     C 3563   1.543   2.504   9.101 -0.2957  0.2113  0.2375
  235MPD1    C1 3564   1.531   2.500   9.241 -0.3250 -0.2164 -0.8016
  235MPD1    C2 3565   1.642   2.463   9.309 -0.1230 -0.3413 -0.7880
  235MPD1    C3 3566   1.765   2.434   9.244 -0.6029  0.0142 -0.2505
  235MPD1    C4 3567   1.775   2.437   9.106 -0.7833 -0.1649 -0.6643
  235MPD1    C5 3568   1.666   2.480   9.037  0.3207  0.6293 -0.1157
  235MPD1     H 3569   1.633   2.447   9.415 -1.9809 -3.2203 -1.3906
  235MPD1    H1 3570   1.865   2.404   9.055  0.7277  0.9984  1.2455
  235MPD1    H2 3571   1.457   2.527   9.039  0.2657  3.1521  0.5459
  235MPD1    H3 3572   1.668   2.484   8.929  0.9853  0.7943 -0.0959
  235MPD1     N 3573   1.875   2.394   9.330 -0.2873 -0.0775 -0.1980
  235MPD1    H5 3574   1.848   2.384   9.428  0.6177  1.1429  0.1798
  235MPD1    N1 3575   1.409   2.515   9.313 -0.3106 -0.1879 -0.5058
  235MPD1    H6 3576   1.420   2.524   9.413 -1.8862  0.1629 -0.3709
  235MPD1    H7 3577   1.352   2.591   9.277 -0.6807 -0.4873 -0.5531
  236MPD1     C 3578   1.456   2.502   9.946 -0.5357  0.2769 -0.1369
  236MPD1    C1 3579   1.474   2.369   9.952  0.3639 -0.4830  0.0241
  236MPD1    C2 3580   1.584   2.317  10.026 -0.6971 -0.0690  0.4449
  236MPD1    C3 3581   1.661   2.399  10.109 -0.2792  0.0995  0.1913
  236MPD1    C4 3582   1.641   2.536  10.098 -0.0501  0.4424  0.4489
  236MPD1    C5 3583   1.541   2.581  10.018 -0.3587 -0.0025  0.5796
  236MPD1     H 3584   1.607   2.211  10.031  1.4984  0.5159  2.6114
  236MPD1    H1 3585   1.690   2.606  10.164  0.5523  0.9256 -0.5009
  236MPD1    H2 3586   1.375   2.558   9.900 -1.0909  0.2444  0.7916
  236MPD1    H3 3587   1.526   2.689  10.014  1.5801  0.2411 -0.1372
  236MPD1     N 3588   1.768   2.359  10.191  0.1444  0.2432 -0.6986
  236MPD1    H5 3589   1.813   2.434  10.243  2.3888 -0.9010 -0.9895
  236MPD1    N1 3590   1.400   2.285   9.859 -0.4788 -0.1059  0.3655
  236MPD1    H6 3591   1.304   2.309   9.837  0.6314  2.0250 -2.1197
  236MPD1    H7 3592   1.387   2.193   9.902 -2.1153 -0.4881 -0.9555
  237MPD1     C 3593   1.345   0.576  15.283 -0.0796 -0.8416  0.3923
  237MPD1    C1 3594   1.245   0.627  15.198  0.5239  0.0853  0.2008
  237MPD1    C2 3595   1.149   0.695  15.260  0.2031  0.4088  0.4767
  237MPD1    C3 3596   1.127   0.707  15.396 -0.6459 -0.0208  0.4375
  237MPD1    C4 3597   1.226   0.653  15.481 -0.3916  0.2875  0.4060
  237MPD1    C5 3598   1.331   0.589  15.418  0.0399  0.5410  0.2798
  237MPD1     H 3599   1.074   0.733  15.192  1.8794  1.5525 -0.7502
  237MPD1    H1 3600   1.232   0.669  15.588  0.2056 -0.3263  0.4574
  237MPD1    H2 3601   1.435   0.530  15.243 -0.1271  0.2354 -0.9587
  237MPD1    H3 3602   1.413   0.563  15.484  0.6706  0.7735 -0.4013
  237MPD1     N 3603   1.015   0.772  15.451  0.3774 -0.9925  0.3532
  237MPD1    H5 3604   0.997   0.755  15.550  1.3829 -1.7477  0.3998
  237MPD1    N1 3605   1.265   0.642  15.061 -0.1841 -0.2846  0.0230
  237MPD1    H6 3606   1.177   0.631  15.011 -0.6108 -1.1851  0.9835
  237MPD1    H7 3607   1.329   0.572  15.024  0.2622  0.2891 -0.2932
  238MPD1     C 3608   2.670   4.207  15.666  0.3093 -0.3069  1.0846
  238MPD1    C1 3609   2.731   4.316  15.600 -0.1811 -0.0356  0.3013
  238MPD1    C2 3610   2.715   4.315  15.457  0.5827 -0.4902  0.2890
  238MPD1    C3 3611   2.659   4.207  15.390  0.7624 -0.0272 -0.2096
  238MPD1    C4 3612   2.614   4.092  15.458  0.3005 -0.0460 -0.2701
  238MPD1    C5 3613   2.617   4.102  15.596  0.0290  0.0188 -0.0135
  238MPD1     H 3614   2.746   4.400  15.399  1.8366 -1.8191 -0.9879
  238MPD1    H1 3615   2.578   4.006  15.404 -3.3187  1.6770 -0.5883
  238MPD1    H2 3616   2.660   4.206  15.774  0.7039 -0.6605  1.1187
  238MPD1    H3 3617   2.597   4.014  15.656  0.2899  0.8667  1.3105
  238MPD1     N 3618   2.648   4.199  15.243  0.1007 -0.0229  0.0497
  238MPD1    H5 3619   2.573   4.140  15.207  0.1754 -0.3528  0.4292
  238MPD1    N1 3620   2.780   4.425  15.670 -0.2588  0.2126  0.0846
  238MPD1    H6 3621   2.817   4.388  15.757  0.4487  1.9618  0.5167
  238MPD1    H7 3622   2.836   4.476  15.602  0.7077  0.3379  0.9819
  239MPD1     C 3623   3.166   0.382  15.306  0.2285 -0.0172 -0.2582
  239MPD1    C1 3624   3.033   0.410  15.279  0.2430 -0.3321 -0.1849
  239MPD1    C2 3625   3.005   0.453  15.151 -0.5261 -0.6656  0.5558
  239MPD1    C3 3626   3.106   0.465  15.056 -0.2138 -0.5047 -0.2085
  239MPD1    C4 3627   3.229   0.426  15.082 -0.3158 -0.4839 -0.2293
  239MPD1    C5 3628   3.263   0.390  15.209  0.2277  0.3710  0.1170
  239MPD1     H 3629   2.903   0.483  15.130  0.1132  1.8829  1.0951
  239MPD1    H1 3630   3.311   0.431  15.012 -0.6398  0.8819 -0.5042
  239MPD1    H2 3631   3.196   0.358  15.407  0.2673  1.1655  0.0036
  239MPD1    H3 3632   3.365   0.366  15.234 -0.2355  2.6183  4.1378
  239MPD1     N 3633   3.084   0.516  14.927  0.3365  0.3487 -0.0689
  239MPD1    H5 3634   3.165   0.545  14.874  0.2368  2.3215  0.8680
  239MPD1    N1 3635   2.933   0.425  15.375  0.4025  0.3260 -0.1577
  239MPD1    H6 3636   2.953   0.363  15.454 -0.5980 -0.9870 -0.9282
  239MPD1    H7 3637   2.845   0.392  15.334  1.0965 -2.0384  0.2219
  240MPD1     C 3638   3.087   4.499  14.815  0.8040  0.1595 -0.8510
  240MPD1    C1 3639   3.003   4.503  14.932 -0.4690  0.3261 -0.8741
  240MPD1    C2 3640   2.890   4.580  14.929  0.6585 -0.2102  0.3785
  240MPD1    C3 3641   2.837   4.605  14.798  0.7223  0.8721  0.1106
  240MPD1    C4 3642   2.917   4.594  14.689 -0.3749 -0.4029  0.0193
  240MPD1    C5 3643   3.047   4.550  14.700 -0.3719 -0.5518 -0.8193
  240MPD1     H 3644   2.830   4.597  15.018  0.7210 -1.8535  0.7367
  240MPD1    H1 3645   2.888   4.633  14.592  2.1600 -0.1442 -0.6360
  240MPD1    H2 3646   3.186   4.455  14.813  0.8278  0.1453  0.7680
  240MPD1    H3 3647   3.105   4.544  14.609 -0.8774  1.6237 -1.2889
  240MPD1     N 3648   2.703   4.643  14.791  0.6874  0.0367 -0.5422
  240MPD1    H5 3649   2.660   4.649  14.883  0.4416  1.7165 -0.7737
  240MPD1    N1 3650   3.056   4.454  15.054  0.1272  0.4657 -0.1666
  240MPD1    H6 3651   2.987   4.436  15.127 -0.0072  0.6420 -0.2494
  240MPD1    H7 3652   3.091   4.360  15.035 -0.6678  0.1806 -0.2436
  241MPD1     C 3653   2.204   0.443  15.306 -0.7175  0.1132  0.3370
  241MPD1    C1 3654   2.193   0.308  15.335  0.4172  0.0026  0.3078
  241MPD1    C2 3655   2.226   0.221  15.230  0.6132 -0.0637 -0.1992
  241MPD1    C3 3656   2.294   0.265  15.118 -0.4020 -0.0185 -0.0395
  241MPD1    C4 3657   2.322   0.399  15.103 -0.5518  0.7332  0.6073
  241MPD1    C5 3658   2.272   0.489  15.197  0.2313  0.1926  0.0926
  241MPD1     H 3659   2.211   0.114  15.241 -2.6907  0.1287 -2.7799
  241MPD1    H1 3660   2.379   0.423  15.014  0.4631 -2.4859  0.3821
  241MPD1    H2 3661   2.163   0.515  15.376  1.5248  0.9515  0.7870
  241MPD1    H3 3662   2.285   0.596  15.195  2.1494 -0.0339  0.1978
  241MPD1     N 3663   2.330   0.178  15.013  0.0273 -0.2190 -0.5350
  241MPD1    H5 3664   2.377   0.228  14.938  1.0624  0.5282  0.5988
  241MPD1    N1 3665   2.110   0.268  15.436 -0.0661  0.4029  0.5905
  241MPD1    H6 3666   2.129   0.172  15.462  1.7522  0.5209 -0.2977
  241MPD1    H7 3667   2.114   0.333  15.515 -0.4205 -0.6258  1.4475
  242MPD1     C 3668   1.754   3.132  16.024  0.2952 -0.1075  0.0424
  242MPD1    C1 3669   1.747   3.205  15.912 -0.6723  0.0223  0.6205
  242MPD1    C2 3670   1.781   3.146  15.790  0.4734  0.2576  0.7314
  242MPD1    C3 3671   1.824   3.015  15.782  0.6597  0.1347  0.1544
  242MPD1    C4 3672   1.822   2.941  15.896  0.2706  0.4366 -0.5176
  242MPD1    C5 3673   1.779   3.002  16.016  0.2864  0.3587 -0.1974
  242MPD1     H 3674   1.784   3.207  15.701 -0.3161 -0.2292  0.3764
  242MPD1    H1 3675   1.852   2.837  15.898 -0.8518  0.1002 -1.0842
  242MPD1    H2 3676   1.741   3.181  16.120 -0.7358  0.2627 -0.2849
  242MPD1    H3 3677   1.772   2.942  16.106  0.3571 -0.3712 -0.6791
  242MPD1     N 3678   1.884   2.963  15.661  0.2859  0.0023 -0.7082
  242MPD1    H5 3679   1.935   2.876  15.673 -2.6734 -1.4378  1.6281
  242MPD1    N1 3680   1.719   3.342  15.928  0.5057  0.0750  0.1260
  242MPD1    H6 3681   1.683   3.389  15.845 -0.2932 -1.3212 -0.3097
  242MPD1    H7 3682   1.657   3.358  16.006  0.9688 -2.0166  0.9192
  243MPD1     C 3683   4.489   1.151   0.298 -0.1684 -0.9043 -0.1979
  243MPD1    C1 3684   4.508   1.209   0.168 -0.2264 -0.1818 -0.3723
  243MPD1    C2 3685   4.406   1.293   0.118  0.6752 -0.7234  0.2034
  243MPD1    C3 3686   4.293   1.307   0.188  0.6641  0.5914 -1.0689
  243MPD1    C4 3687   4.281   1.259   0.315  0.1695  0.2446 -0.6171
  243MPD1    C5 3688   4.380   1.180   0.377 -0.1386 -0.5883 -0.1822
  243MPD1     H 3689   4.402   1.327   0.015 -1.0082  2.1840  1.2390
  243MPD1    H1 3690   4.192   1.285   0.371  2.8836  1.4520  3.1203
  243MPD1    H2 3691   4.574   1.091   0.328  0.0116  0.9300  2.9395
  243MPD1    H3 3692   4.367   1.147   0.479  0.7053  1.3949  0.5641
  243MPD1     N 3693   4.180   1.359   0.118  0.6086 -0.2792 -0.2397
  243MPD1    H5 3694   4.192   1.377   0.019  0.1782 -2.2841 -0.6650
  243MPD1    N1 3695   4.629   1.175   0.092  0.5226 -0.1155 -0.0029
  243MPD1    H6 3696   4.644   1.076   0.076  0.7794 -0.5255  2.7999
  243MPD1    H7 3697   4.637   1.231   0.007 -0.5470 -0.1335 -0.1226
  244MPD1     C 3698   3.274   1.497   0.478 -1.4131 -0.7347  0.2545
  244MPD1    C1 3699   3.396   1.451   0.518 -0.2089 -0.0631  0.0597
  244MPD1    C2 3700   3.498   1.472   0.434  0.1317  0.1596  0.1974
  244MPD1    C3 3701   3.479   1.505   0.300  0.0896 -0.3611 -0.1897
  244MPD1    C4 3702   3.354   1.524   0.252 -0.2260  0.3460 -0.4726
  244MPD1    C5 3703   3.251   1.510   0.342 -0.0509  0.0828  0.1216
  244MPD1     H 3704   3.596   1.438   0.465 -2.0617 -2.2174  4.4765
  244MPD1    H1 3705   3.337   1.537   0.145 -0.1731 -2.7398 -0.8495
  244MPD1    H2 3706   3.198   1.502   0.555 -0.0041  1.9017  1.4898
  244MPD1    H3 3707   3.151   1.526   0.303 -0.4989 -3.6607 -0.2985
  244MPD1     N 3708   3.597   1.495   0.221 -0.3036  0.1812  0.1424
  244MPD1    H5 3709   3.677   1.479   0.281 -3.3749 -0.3408  4.1081
  244MPD1    N1 3710   3.406   1.409   0.647  0.2329 -0.6485 -0.4604
  244MPD1    H6 3711   3.317   1.378   0.683  0.4684 -1.9478 -0.9810
  244MPD1    H7 3712   3.481   1.343   0.668 -0.1214 -0.3605  1.6577
  245MPD1     C 3713   0.951   2.256  13.216 -1.1931  0.5869  0.2652
  245MPD1    C1 3714   0.922   2.358  13.301  0.2748 -0.2523  0.8528
  245MPD1    C2 3715   1.016   2.458  13.313 -0.4140 -0.2644  0.0785
  245MPD1    C3 3716   1.149   2.436  13.278 -0.2503 -0.5153  0.4688
  245MPD1    C4 3717   1.179   2.326  13.202 -0.4889  0.1315  0.1023
  245MPD1    C5 3718   1.078   2.240  13.165 -0.1413 -0.2603 -0.7094
  245MPD1     H 3719   0.984   2.542  13.374 -3.6688  1.5187 -4.0725
  245MPD1    H1 3720   1.278   2.300  13.168 -0.8732  0.1713 -1.0354
  245MPD1    H2 3721   0.881   2.176  13.196 -2.3546  1.7376 -0.2072
  245MPD1    H3 3722   1.100   2.159  13.096 -0.8752  0.1527 -1.4217
  245MPD1     N 3723   1.239   2.533  13.321 -0.8974 -0.0483 -0.0386
  245MPD1    H5 3724   1.191   2.609  13.368  1.0107  1.3302 -0.3209
  245MPD1    N1 3725   0.786   2.388  13.328  0.1414  0.5988 -0.3515
  245MPD1    H6 3726   0.772   2.467  13.390  0.9619  1.4447 -1.2381
  245MPD1    H7 3727   0.728   2.313  13.366  2.1678 -1.1501 -0.7076
  246MPD1     C 3728   2.351   3.990  10.101 -0.7687  0.1697  1.4016
  246MPD1    C1 3729   2.408   4.063  10.000  0.1371 -0.6415  0.3231
  246MPD1    C2 3730   2.412   4.022   9.867  0.4052  0.0032  1.0678
  246MPD1    C3 3731   2.357   3.895   9.834 -0.5381  0.4449 -0.0061
  246MPD1    C4 3732   2.315   3.815   9.940  0.7325 -0.1044  0.5530
  246MPD1    C5 3733   2.304   3.865  10.070  0.2428 -0.3747 -0.0692
  246MPD1     H 3734   2.457   4.088   9.794 -1.0698  1.9159  1.8776
  246MPD1    H1 3735   2.269   3.719   9.925 -1.8358  1.2560 -0.3020
  246MPD1    H2 3736   2.341   4.027  10.202  2.2304  1.0458  1.3601
  246MPD1    H3 3737   2.273   3.800  10.151  0.0871  0.3733  0.4747
  246MPD1     N 3738   2.363   3.861   9.696 -0.5581  0.0524  0.4431
  246MPD1    H5 3739   2.407   3.916   9.624 -1.3799 -1.1158 -0.9538
  246MPD1    N1 3740   2.445   4.193  10.025  0.3071  0.3063  0.3825
  246MPD1    H6 3741   2.530   4.220   9.976  1.8738  0.8951  3.3914
  246MPD1    H7 3742   2.468   4.209  10.123 -0.4135 -2.6124  1.0376
  247MPD1     C 3743   4.284   1.606  16.461  0.0164  0.2439 -0.6258
  247MPD1    C1 3744   4.322   1.573  16.334  0.5796 -1.1005 -0.1291
  247MPD1    C2 3745   4.448   1.607  16.296  0.0508 -0.3263  0.0314
  247MPD1    C3 3746   4.533   1.664  16.385  0.2217  0.1278  0.2668
  247MPD1    C4 3747   4.502   1.690  16.513  0.1950  0.0455  0.1511
  247MPD1    C5 3748   4.370   1.669  16.542 -0.2444 -0.4645  0.2576
  247MPD1     H 3749   4.480   1.595  16.193 -1.0302 -0.9710 -0.2371
  247MPD1    H1 3750   4.571   1.738  16.582  2.4325 -1.5678 -0.9702
  247MPD1    H2 3751   4.183   1.588  16.497  0.3952 -1.3078 -0.3546
  247MPD1    H3 3752   4.326   1.691  16.638 -0.4487  1.0139 -0.1881
  247MPD1     N 3753   4.661   1.716  16.350  0.2889 -0.0399  0.0975
  247MPD1    H5 3754   4.712   1.758  16.427  1.2363 -1.1051  0.0445
  247MPD1    N1 3755   4.223   1.518  16.251  0.1880  0.2863 -0.2179
  247MPD1    H6 3756   4.164   1.462  16.313  2.8603 -0.6376  1.4921
  247MPD1    H7 3757   4.258   1.462  16.173  1.3089  0.3205  0.2563
  248MPD1     C 3758   1.528   2.469   0.029  0.0886 -0.6368 -0.0961
  248MPD1    C1 3759   1.473   2.578   0.097 -0.4604 -0.1861  0.3550
  248MPD1    C2 3760   1.457   2.560   0.229 -0.7639  0.0831  0.5592
  248MPD1    C3 3761   1.483   2.441   0.296 -0.0556 -0.1419 -0.3423
  248MPD1    C4 3762   1.542   2.337   0.224 -0.1754 -0.3367  0.0569
  248MPD1    C5 3763   1.567   2.354   0.093 -0.2417  0.4715  0.2200
  248MPD1     H 3764   1.430   2.645   0.292  0.2334  1.1692 -0.4661
  248MPD1    H1 3765   1.560   2.241   0.270 -1.5935 -0.7274 -0.1986
  248MPD1    H2 3766   1.557   2.471  17.600  0.3362  3.4565  0.0482
  248MPD1    H3 3767   1.596   2.274   0.025  1.2587  1.4748 -0.3277
  248MPD1     N 3768   1.463   2.434   0.441  0.1082 -0.1603  0.2785
  248MPD1    H5 3769   1.429   2.522   0.479 -2.0912  0.1885 -2.5537
  248MPD1    N1 3770   1.479   2.710   0.036 -0.4523 -0.1634  0.1808
  248MPD1    H6 3771   1.404   2.773   0.064 -1.0679 -0.5753 -0.5236
  248MPD1    H7 3772   1.465   2.704  17.611  2.1721  0.9798 -0.2520
  249MPD1     C 3773   3.481   0.090  10.119 -0.1729 -0.2078  0.8484
  249MPD1    C1 3774   3.402   0.023  10.038  0.0244 -0.4519 -0.5214
  249MPD1    C2 3775   3.275   4.706  10.083  0.1357  0.3430 -0.2118
  249MPD1    C3 3776   3.223   0.018  10.204  0.3802  0.2402  0.6132
  249MPD1    C4 3777   3.299   0.098  10.277 -0.3972  0.0942 -0.2128
  249MPD1    C5 3778   3.427   0.125  10.241 -0.4280 -0.0133  0.7636
  249MPD1     H 3779   3.217   4.640  10.019  2.7470  0.1317 -2.3599
  249MPD1    H1 3780   3.268   0.114  10.380 -0.8544  1.3763 -0.5554
  249MPD1    H2 3781   3.585   0.107  10.094  0.1332 -0.6458  1.8179
  249MPD1    H3 3782   3.504   0.171  10.303  0.9086  1.3567 -1.9169
  249MPD1     N 3783   3.091   4.701  10.239 -0.4832  0.0378  0.3429
  249MPD1    H5 3784   3.049   4.639  10.171  0.5985 -0.8939  0.5272
  249MPD1    N1 3785   3.456   4.689   9.920  0.0784  0.5091 -0.4422
  249MPD1    H6 3786   3.387   4.671   9.847  1.1461  0.8321 -1.5438
  249MPD1    H7 3787   3.531   0.029   9.884 -0.6107  1.2382 -0.6982
  250MPD2     C 3788   4.583   0.520  13.477 -0.6365 -0.1798 -0.1301
  250MPD2    C1 3789   4.488   0.577  13.397 -0.3838  0.3784 -0.3437
  250MPD2    C2 3790   4.407   0.499  13.313 -0.4008  0.7273  0.4369
  250MPD2    C3 3791   4.437   0.364  13.299 -0.4135  0.7721  0.6062
  250MPD2    C4 3792   4.528   0.308  13.393  0.2286 -0.8730 -0.6017
  250MPD2    C5 3793   4.599   0.387  13.482  0.0075  0.2126  0.2371
  250MPD2     H 3794   4.340   0.544  13.240  1.3168  0.3854 -1.3654
  250MPD2    H1 3795   4.548   0.202  13.395 -2.2122 -1.3332 -0.7137
  250MPD2    H2 3796   4.643   0.580  13.546  2.0094 -1.4641 -1.3015
  250MPD2    H3 3797   4.677   0.342  13.542 -0.3161 -1.2025 -0.3888
  250MPD2     N 3798   4.381   0.286  13.200  0.0684  0.0207 -0.1364
  250MPD2    H5 3799   4.397   0.186  13.205  1.8712  0.1882 -2.5721
  250MPD2    N1 3800   4.470   0.712  13.421  0.2417  0.5585  0.3015
  250MPD2    H7 3801   4.548   0.755  13.469  0.6834 -1.1597  1.1257
  251TMC3    C1 3802   4.363   0.915  13.447 -0.1183 -0.3140 -0.6349
  251TMC3    C2 3803   4.235   0.975  13.448 -0.0507 -0.3685 -0.1873
  251TMC3    C3 3804   4.216   1.082  13.525  1.1418  0.0841  0.0674
  251TMC3    C4 3805   4.466   0.965  13.514  0.3280 -0.4474  0.6031
  251TMC3    C5 3806   4.438   1.078  13.589  0.0403 -0.3228 -0.1867
  251TMC3    C6 3807   4.318   1.140  13.591  0.1748 -0.2134  0.7522
  251TMC3     C 3808   4.361   0.789  13.381  0.8499 -0.0468  0.0592
  251TMC3     O 3809   4.265   0.762  13.311  0.1812 -0.2582 -0.1123
  251TMC3     H 3810   4.154   0.938  13.386 -1.2061  0.9919  0.5028
  251TMC3    H1 3811   4.566   0.923  13.527  0.3523 -0.7341 -0.5561
  251TMC3    H2 3812   4.314   1.238  13.637 -1.3389  0.4229 -0.7515
  251TMC3    C7 3813   4.545   1.146  13.669  0.2413 -0.7554  0.4805
  251TMC3    C8 3814   4.087   1.144  13.535 -0.2170 -0.3137 -0.2470
  251TMC3    O1 3815   4.506   1.215  13.764  0.0678  0.1311 -0.3725
  251TMC3    O2 3816   4.055   1.194  13.638 -0.3558 -0.2195  0.5711
  252TMC3    C1 3817   0.560   0.879   9.919 -0.0743  0.0682  0.0469
  252TMC3    C2 3818   0.593   1.000   9.861 -0.1005 -0.7905 -0.0819
  252TMC3    C3 3819   0.502   1.104   9.867 -0.0637 -0.1377  0.2432
  252TMC3    C4 3820   0.438   0.848   9.968 -0.3187 -0.0738  0.2017
  252TMC3    C5 3821   0.347   0.951   9.972  0.4670  0.2187  0.1112
  252TMC3    C6 3822   0.375   1.078   9.919 -0.7388 -0.2623 -0.1038
  252TMC3     C 3823   0.660   0.771   9.900  0.9688 -0.5801 -0.3828
  252TMC3     O 3824   0.747   0.788   9.811  0.4045  0.5308  0.3671
  252TMC3     H 3825   0.690   1.011   9.814  0.6531  2.5240  2.2334
  252TMC3    H1 3826   0.420   0.757  10.023 -0.5644  0.4754  1.0199
  252TMC3    H2 3827   0.294   1.150   9.919 -0.1955  0.3638  3.6954
  252TMC3    C7 3828   0.209   0.930  10.020 -0.1821 -0.4199  0.7804
  252TMC3    C8 3829   0.533   1.224   9.800 -0.2521  0.5294 -0.6788
  252TMC3    O1 3830   0.143   1.018  10.077 -0.3521 -0.2023  0.2434
  252TMC3    O2 3831   0.627   1.217   9.717 -0.3076  0.5185 -0.2368
  253MPD2     C 3832   0.647   1.262  16.141 -0.2089 -0.0112 -0.1671
  253MPD2    C1 3833   0.542   1.192  16.079  0.3132  0.5015 -0.6500
  253MPD2    C2 3834   0.453   1.130  16.166  0.0175  0.1124  0.4546
  253MPD2    C3 3835   0.468   1.129  16.303 -0.1916 -0.3585  0.4629
  253MPD2    C4 3836   0.580   1.185  16.362 -0.2228 -0.5986  0.0345
  253MPD2    C5 3837   0.669   1.255  16.278  0.5431  1.0560  0.2754
  253MPD2     H 3838   0.360   1.092  16.125 -0.0518  0.3778  0.3620
  253MPD2    H1 3839   0.595   1.182  16.469  0.1298 -1.9151 -0.0555
  253MPD2    H2 3840   0.718   1.315  16.079 -1.6967  0.9114 -1.0635
  253MPD2    H3 3841   0.756   1.299  16.325  2.3423  0.4306 -2.4553
  253MPD2     N 3842   0.368   1.073  16.388  0.4774  0.2890  0.8981
  253MPD2    H5 3843   0.379   1.082  16.489  0.3180  0.3857  0.9080
  253MPD2    N1 3844   0.516   1.192  15.940 -0.3871 -0.6785  0.1671
  253MPD2    H7 3845   0.432   1.140  15.919 -0.4573 -1.1574  1.6196
  254TMC3    C1 3846   0.174   0.977  16.463 -0.4108  0.5846 -0.2982
  254TMC3    C2 3847   0.036   0.984  16.449  0.7309  0.5708  0.7557
  254TMC3    C3 3848   4.686   0.918  16.546  0.5173  0.1912 -0.2070
  254TMC3    C4 3849   0.242   0.913  16.568  0.5780 -0.1141 -0.0405
  254TMC3    C5 3850   0.165   0.845  16.651  0.6538 -0.5206  0.2648
  254TMC3    C6 3851   0.022   0.842  16.636  0.8490 -0.2045  0.4938
  254TMC3     C 3852   0.252   1.019  16.353 -0.2593  0.3246  0.5429
  254TMC3     O 3853   0.211   1.011  16.236  0.0583  0.1096 -0.8879
  254TMC3     H 3854   4.713   1.019  16.355  1.2813  2.3365  1.1689
  254TMC3    H1 3855   0.350   0.918  16.575  0.7640 -2.2471 -1.2407
  254TMC3    H2 3856   4.670   0.793  16.702  1.1037 -3.4797 -1.6419
  254TMC3    C7 3857   0.229   0.808  16.776 -0.0276  0.3103  0.5079
  254TMC3    C8 3858   4.549   0.956  16.572 -0.5056 -0.4026 -0.8908
  254TMC3    O1 3859   0.342   0.859  16.794 -0.4903 -0.0833 -0.0444
  254TMC3    O2 3860   4.504   0.943  16.686 -0.5105  0.4595 -0.3087
  255MPD2     C 3861   3.367   3.061  10.120  0.4938 -0.1727  0.7386
  255MPD2    C1 3862   3.494   3.105  10.098  0.2468  0.7147 -0.1927
  255MPD2    C2 3863   3.605   3.044  10.154  0.3791 -0.4181  0.6306
  255MPD2    C3 3864   3.581   2.923  10.227 -0.2855  0.1369 -0.8982
  255MPD2    C4 3865   3.457   2.868  10.226  0.1754 -0.4762  0.3962
  255MPD2    C5 3866   3.350   2.935  10.171  0.1410 -0.4762 -0.2517
  255MPD2     H 3867   3.705   3.081  10.134 -0.0470 -0.5783 -1.8349
  255MPD2    H1 3868   3.434   2.770  10.266 -0.5585 -1.1075 -1.5710
  255MPD2    H2 3869   3.281   3.108  10.073 -0.5358  0.0207  2.7836
  255MPD2    H3 3870   3.252   2.890  10.179 -0.7250  1.3798 -0.3100
  255MPD2     N 3871   3.691   2.856  10.295 -0.1255 -0.1502 -0.2760
  255MPD2    H5 3872   3.775   2.911  10.312 -0.1422 -0.5956  1.3091
  255MPD2    N1 3873   3.499   3.217  10.015 -0.3683  0.1082  0.3247
  255MPD2    H7 3874   3.412   3.245   9.970  0.0657  1.7086  0.4770
  256TMC3    C1 3875   3.586   3.396   9.880 -0.5991  0.3836 -0.7797
  256TMC3    C2 3876   3.685   3.405   9.787 -0.2222 -0.1288  0.4444
  256TMC3    C3 3877   3.641   3.412   9.659  0.4202  0.2819 -0.1513
  256TMC3    C4 3878   3.451   3.433   9.859 -0.3423 -0.1661  0.4687
  256TMC3    C5 3879   3.416   3.421   9.722  0.6745  0.5408 -0.0412
  256TMC3    C6 3880   3.510   3.405   9.626 -0.1320  0.0634 -0.9434
  256TMC3     C 3881   3.613   3.286   9.975  0.0106 -0.6791  0.3769
  256TMC3     O 3882   3.726   3.252  10.010 -0.2742  0.2248  0.1038
  256TMC3     H 3883   3.788   3.375   9.806 -0.1477  0.2861  0.6866
  256TMC3    H1 3884   3.377   3.434   9.938 -1.1925 -2.7707 -0.2995
  256TMC3    H2 3885   3.481   3.405   9.522 -0.6735  0.5093 -0.7902
  256TMC3    C7 3886   3.321   3.316   9.706 -0.5832 -0.4253  0.1772
  256TMC3    C8 3887   3.739   3.437   9.554  0.0655 -0.6881 -0.3464
  256TMC3    O1 3888   3.356   3.232   9.619 -0.2723 -0.0276 -0.6042
  256TMC3    O2 3889   3.689   3.441   9.440 -0.3809 -0.3793 -0.3011
  257MPD2     C 3890   2.949   0.851  13.153 -0.6478 -0.1515  0.4243
  257MPD2    C1 3891   2.893   0.734  13.110  0.1482  0.0516  0.4594
  257MPD2    C2 3892   2.851   0.637  13.203 -0.2687  0.6374 -0.3010
  257MPD2    C3 3893   2.871   0.655  13.338 -0.5000 -0.1965  0.4584
  257MPD2    C4 3894   2.925   0.773  13.375  0.0569  0.3789 -0.1113
  257MPD2    C5 3895   2.956   0.867  13.286 -0.2654 -0.3072  0.2428
  257MPD2     H 3896   2.796   0.552  13.165 -1.2692  0.1165  2.3164
  257MPD2    H1 3897   2.936   0.790  13.482 -2.2453 -1.1292  0.3580
  257MPD2    H2 3898   2.970   0.936  13.089  0.8343 -0.4075  0.5599
  257MPD2    H3 3899   2.999   0.956  13.329  1.3805 -1.3441  0.7496
  257MPD2     N 3900   2.836   0.547  13.427  0.1443  0.5263 -0.4457
  257MPD2    H5 3901   2.807   0.460  13.384 -0.5966  0.4602  0.1867
  257MPD2    N1 3902   2.870   0.724  12.972  0.3325 -0.0717  0.7621
  257MPD2    H7 3903   2.896   0.801  12.910  1.7579 -2.7535 -1.9961
  258TMC3    C1 3904   2.784   0.427  13.623  0.4085 -0.9397  0.6450
  258TMC3    C2 3905   2.666   0.368  13.583 -0.6551 -0.4407  0.0191
  258TMC3    C3 3906   2.623   0.263  13.659  0.0248 -0.3000 -0.2968
  258TMC3    C4 3907   2.839   0.405  13.747  0.0235  0.2348 -0.0513
  258TMC3    C5 3908   2.788   0.308  13.825 -1.3842  0.0042  0.4789
  258TMC3    C6 3909   2.680   0.232  13.785 -0.3845  0.4009 -0.1435
  258TMC3     C 3910   2.828   0.556  13.561 -0.1672  0.0568  0.1830
  258TMC3     O 3911   2.874   0.634  13.646 -0.5590 -0.3747 -0.3443
  258TMC3     H 3912   2.611   0.404  13.496  3.3395 -0.4295 -2.5120
  258TMC3    H1 3913   2.926   0.457  13.785 -1.3941  0.0474  3.4734
  258TMC3    H2 3914   2.653   0.140  13.835 -2.0054 -0.1044 -1.9518
  258TMC3    C7 3915   2.885   0.249  13.909 -0.5158  0.1261 -0.5830
  258TMC3    C8 3916   2.482   0.226  13.631  0.4382  0.1854  0.1444
  258TMC3    O1 3917   3.001   0.264  13.869  0.0257  0.1254  0.5026
  258TMC3    O2 3918   2.426   0.278  13.534 -0.0099  0.0175 -0.0952
  259MPD2     C 3919   2.228   2.403   0.770 -0.2895 -0.6674 -0.4264
  259MPD2    C1 3920   2.265   2.280   0.738 -0.6260  0.6795  0.6047
  259MPD2    C2 3921   2.337   2.268   0.620  0.2996  0.3556 -0.2767
  259MPD2    C3 3922   2.357   2.375   0.531 -0.6276  0.2581 -0.2120
  259MPD2    C4 3923   2.313   2.504   0.564 -1.1936  0.2206 -0.0164
  259MPD2    C5 3924   2.247   2.512   0.684 -0.5879 -0.2642 -0.7878
  259MPD2     H 3925   2.380   2.175   0.585  0.6278  0.3977  0.0051
  259MPD2    H1 3926   2.317   2.587   0.495  1.6158  0.1816  0.1254
  259MPD2    H2 3927   2.185   2.420   0.868  0.0199  0.1970 -0.4370
  259MPD2    H3 3928   2.201   2.605   0.714  2.0107  0.1906  1.7069
  259MPD2     N 3929   2.414   2.338   0.411  0.3960  0.2575  0.4637
  259MPD2    H5 3930   2.425   2.237   0.404  2.6768  0.4824  0.8225
  259MPD2    N1 3931   2.243   2.180   0.835 -0.3157 -0.1667 -0.0827
  259MPD2    H7 3932   2.195   2.207   0.920 -1.2992 -2.9590  0.2781
  260TMC3    C1 3933   2.484   2.338   0.188 -0.1093 -0.4857 -0.5353
  260TMC3    C2 3934   2.385   2.275   0.119 -0.1997 -0.7050 -0.1369
  260TMC3    C3 3935   2.415   2.161   0.062  0.0727  0.0600 -1.0742
  260TMC3    C4 3936   2.600   2.268   0.214  0.2719  0.0626 -0.1122
  260TMC3    C5 3937   2.618   2.143   0.165  0.3140  0.6167  0.2818
  260TMC3    C6 3938   2.528   2.087   0.083 -0.6266  0.0606  0.0576
  260TMC3     C 3939   2.437   2.414   0.303  0.5923 -0.2546 -0.1082
  260TMC3     O 3940   2.400   2.531   0.277 -0.2200 -0.0176  0.2575
  260TMC3     H 3941   2.294   2.331   0.103  0.4808 -0.1817 -2.1850
  260TMC3    H1 3942   2.674   2.313   0.279  0.0557  0.1292  0.0885
  260TMC3    H2 3943   2.554   1.992   0.039  0.4877  0.9241 -1.1475
  260TMC3    C7 3944   2.753   2.091   0.153 -0.3760  0.0374 -0.3521
  260TMC3    C8 3945   2.294   2.083   0.031  0.6897  0.1318  0.0558
  260TMC3    O1 3946   2.830   2.161   0.088  0.1595  0.1866  0.2386
  260TMC3    O2 3947   2.209   2.142  17.638  0.5547 -0.1299 -0.0788
  261MPD2     C 3948   3.743   0.415  12.719  0.5708 -0.1704 -0.1477
  261MPD2    C1 3949   3.869   0.404  12.656  0.0075  1.1708 -0.0242
  261MPD2    C2 3950   3.892   0.476  12.534  0.3147  0.0404 -0.2571
  261MPD2    C3 3951   3.789   0.552  12.478 -0.6560 -0.2002 -0.4752
  261MPD2    C4 3952   3.667   0.552  12.536 -0.4169  0.1952 -0.3260
  261MPD2    C5 3953   3.645   0.492  12.658 -0.4308 -0.8208 -0.4076
  261MPD2     H 3954   3.990   0.495  12.490 -0.1905  0.1776 -1.3205
  261MPD2    H1 3955   3.583   0.604  12.491  0.1714  1.7529  0.3763
  261MPD2    H2 3956   3.719   0.364  12.811  2.2837 -0.6739  0.0166
  261MPD2    H3 3957   3.555   0.514  12.714  0.9378 -0.1290  1.4965
  261MPD2     N 3958   3.818   0.609  12.350  0.6870 -0.1979  0.0274
  261MPD2    H5 3959   3.904   0.583  12.303 -0.3830 -2.7893 -0.5235
  261MPD2    N1 3960   3.968   0.313  12.705 -0.0914  0.5338  0.0292
  261MPD2    H7 3961   4.060   0.335  12.668 -0.5069  2.6640  0.2792
  262TMC3    C1 3962   3.752   0.719  12.154  0.2511  0.1390 -0.2098
  262TMC3    C2 3963   3.689   0.828  12.103  0.7131  0.1039 -0.7263
  262TMC3    C3 3964   3.682   0.844  11.969 -0.4362 -1.4387 -0.3711
  262TMC3    C4 3965   3.795   0.619  12.071 -0.6158  0.5560  0.6206
  262TMC3    C5 3966   3.811   0.648  11.938  0.0121 -1.1777  0.2678
  262TMC3    C6 3967   3.738   0.755  11.883 -0.2712 -0.0744  0.3162
  262TMC3     C 3968   3.735   0.696  12.295 -0.2937  0.1315 -0.1316
  262TMC3     O 3969   3.652   0.770  12.342 -0.0077 -1.2680 -0.4919
  262TMC3     H 3970   3.653   0.904  12.171  0.5766 -0.5129 -0.1063
  262TMC3    H1 3971   3.823   0.522  12.111 -1.4824  0.3219  0.6530
  262TMC3    H2 3972   3.737   0.770  11.775 -0.8408  1.5121  0.5417
  262TMC3    C7 3973   3.780   0.528  11.860 -0.3013 -0.3574 -0.0965
  262TMC3    C8 3974   3.566   0.913  11.920  0.1416 -0.1375 -0.0184
  262TMC3    O1 3975   3.830   0.513  11.752  0.0632  0.2822  0.2254
  262TMC3    O2 3976   3.571   0.979  11.817 -0.3683  0.6563 -0.1545
  263MPD2     C 3977   4.312   4.656  11.425 -0.5429 -0.7745 -0.2379
  263MPD2    C1 3978   4.431   4.700  11.388  0.3684 -0.6024 -0.2370
  263MPD2    C2 3979   4.454   0.038  11.266  0.0838  0.0167  0.2505
  263MPD2    C3 3980   4.352   0.043  11.178 -0.5625 -0.5398  0.2463
  263MPD2    C4 3981   4.226   4.705  11.205 -0.2641 -0.2770  0.3565
  263MPD2    C5 3982   4.205   4.664  11.330 -0.3735 -0.1129  0.0312
  263MPD2     H 3983   4.545   0.080  11.223  0.6561 -1.5419 -0.0432
  263MPD2    H1 3984   4.151   4.678  11.132 -1.5489 -1.6111  2.1684
  263MPD2    H2 3985   4.284   4.634  11.528 -2.1989 -2.2130 -1.0071
  263MPD2    H3 3986   4.110   4.618  11.355 -0.8968  2.0660  2.0713
  263MPD2     N 3987   4.386   0.113  11.056  0.2144 -0.0019  0.5900
  263MPD2    H5 3988   4.478   0.156  11.051  0.4857 -0.2943  2.9981
  263MPD2    N1 3989   4.533   4.687  11.493 -0.4453  0.0812  0.3205
  263MPD2    H7 3990   4.508   4.652  11.585 -0.3274 -0.4480  0.1551
  264TMC3    C1 3991   4.345   0.209  10.841 -0.1227 -0.1236 -0.3110
  264TMC3    C2 3992   4.281   0.327  10.827  0.0509 -0.1825 -0.2718
  264TMC3    C3 3993   4.334   0.417  10.734 -0.4876 -0.5922 -0.0997
  264TMC3    C4 3994   4.474   0.182  10.791  0.1274  0.0019  0.8624
  264TMC3    C5 3995   4.516   0.268  10.697 -0.0897  0.3072  0.2605
  264TMC3    C6 3996   4.443   0.377  10.660  0.5276  0.1983 -0.8613
  264TMC3     C 3997   4.295   0.140  10.956  0.5322  0.5510 -1.1503
  264TMC3     O 3998   4.174   0.108  10.959 -0.2089  0.1423  0.0690
  264TMC3     H 3999   4.185   0.342  10.876 -0.3606 -1.5769 -0.6452
  264TMC3    H1 4000   4.527   0.089  10.812 -0.2539 -0.1556  1.1402
  264TMC3    H2 4001   4.477   0.443  10.581 -1.2923  1.7083 -0.4080
  264TMC3    C7 4002   4.661   0.283  10.691 -0.3554 -0.7910 -0.5546
  264TMC3    C8 4003   4.354   0.546  10.790  0.0388 -0.5169  0.4115
  264TMC3    O1 4004   0.011   0.183  10.683 -0.3374 -0.1040  0.6659
  264TMC3    O2 4005   4.463   0.601  10.765 -0.4552 -0.0385  0.6817
  265MPD2     C 4006   1.555   0.655  15.686 -0.0113 -0.2835 -0.1983
  265MPD2    C1 4007   1.625   0.759  15.624  0.0785  0.3436 -0.4924
  265MPD2    C2 4008   1.696   0.725  15.504 -0.1168 -0.3358 -0.1780
  265MPD2    C3 4009   1.712   0.593  15.466 -0.5066 -0.2210 -0.1481
  265MPD2    C4 4010   1.664   0.496  15.550  0.1527  0.1899  0.2476
  265MPD2    C5 4011   1.587   0.526  15.655 -0.1536 -0.6639 -0.0430
  265MPD2     H 4012   1.738   0.801  15.440  0.1833  1.3457  1.9950
  265MPD2    H1 4013   1.675   0.397  15.506  0.4863  0.8095 -1.0608
  265MPD2    H2 4014   1.497   0.665  15.777  0.6484 -0.0203  0.1998
  265MPD2    H3 4015   1.540   0.448  15.713  2.0115 -2.4867 -0.7451
  265MPD2     N 4016   1.786   0.550  15.350 -0.0271 -0.4188  0.2142
  265MPD2    H5 4017   1.777   0.451  15.332 -0.2041 -0.5499  1.0279
  265MPD2    N1 4018   1.635   0.887  15.683 -0.0384 -0.7631 -0.2390
  265MPD2    H7 4019   1.703   0.946  15.637  0.0260 -0.5418  0.1454
  266TMC3    C1 4020   1.579   1.059  15.842 -0.0153 -0.1782 -0.6752
  266TMC3    C2 4021   1.588   1.073  15.979  0.7501 -0.0005 -0.4995
  266TMC3    C3 4022   1.616   1.194  16.031 -0.0548 -1.0663 -0.0342
  266TMC3    C4 4023   1.590   1.164  15.756  0.6072  0.3420 -0.2774
  266TMC3    C5 4024   1.620   1.282  15.820  0.2570  0.5837 -0.1018
  266TMC3    C6 4025   1.644   1.301  15.950  0.9341  0.0987 -0.2450
  266TMC3     C 4026   1.562   0.921  15.795 -0.2197  0.5545  0.0724
  266TMC3     O 4027   1.485   0.865  15.869 -0.2503  0.0416  0.9952
  266TMC3     H 4028   1.578   0.990  16.048 -1.5368  0.1006 -0.7258
  266TMC3    H1 4029   1.568   1.150  15.651 -1.5786  1.2749  0.0536
  266TMC3    H2 4030   1.648   1.403  15.986 -0.0268  0.6717 -1.7525
  266TMC3    C7 4031   1.628   1.394  15.731  0.3456  0.2622  0.4746
  266TMC3    C8 4032   1.683   1.191  16.161  0.2159 -0.4645 -0.0535
  266TMC3    O1 4033   1.577   1.389  15.623  0.3835  0.1896  0.4745
  266TMC3    O2 4034   1.723   1.084  16.206  0.0240  0.6649 -0.1130
  267MPD2     C 4035   0.091   2.265   0.517  0.3647 -0.5006  0.0298
  267MPD2    C1 4036   0.077   2.370   0.427  0.1076  0.4707 -1.0880
  267MPD2    C2 4037   4.701   2.357   0.323  0.3508  0.6328  0.0391
  267MPD2    C3 4038   4.631   2.238   0.309  0.4182  0.7204 -0.2026
  267MPD2    C4 4039   4.673   2.132   0.386 -0.0780  0.2550 -0.0245
  267MPD2    C5 4040   0.037   2.140   0.489 -0.6418  0.8186  0.2460
  267MPD2     H 4041   4.696   2.442   0.257  1.0314 -1.2832 -2.4725
  267MPD2    H1 4042   4.615   2.041   0.376 -0.4060  0.3082  1.4366
  267MPD2    H2 4043   0.156   2.278   0.602 -0.0559  1.4655  0.0506
  267MPD2    H3 4044   0.044   2.058   0.560 -2.9829  0.6690  0.3162
  267MPD2     N 4045   4.534   2.212   0.209  0.4164  0.4551 -0.2131
  267MPD2    H5 4046   4.483   2.125   0.216  0.3018  0.5323 -0.1041
  267MPD2    N1 4047   0.147   2.489   0.454  0.1835  0.2616 -0.0169
  267MPD2    H7 4048   0.206   2.493   0.537  1.2264 -0.0247 -0.7608
  268TMC3    C1 4049   0.275   2.671   0.422  0.7695  0.1023 -0.3856
  268TMC3    C2 4050   0.342   2.742   0.326 -0.4135 -0.1899  0.2765
  268TMC3    C3 4051   0.435   2.830   0.368 -0.1437  0.4037  1.0716
  268TMC3    C4 4052   0.302   2.675   0.554 -0.1387 -0.6762 -0.7326
  268TMC3    C5 4053   0.412   2.757   0.588 -0.8162  0.1295  0.4777
  268TMC3    C6 4054   0.480   2.828   0.496  0.0412 -0.1664  0.4316
  268TMC3     C 4055   0.161   2.596   0.376 -0.7459 -0.3506 -0.2267
  268TMC3     O 4056   0.107   2.637   0.275  0.1024 -0.3945 -0.6309
  268TMC3     H 4057   0.316   2.719   0.223 -2.2969  0.0507  0.7001
  268TMC3    H1 4058   0.240   2.627   0.629  0.3704  2.0500  1.4596
  268TMC3    H2 4059   0.571   2.875   0.531  0.8145 -0.6831 -0.8659
  268TMC3    C7 4060   0.432   2.767   0.732  0.0156  0.3261  0.2611
  268TMC3    C8 4061   0.499   2.928   0.288  0.6884 -0.3483  0.1178
  268TMC3    O1 4062   0.385   2.677   0.803 -0.0546 -0.6458 -0.4925
  268TMC3    O2 4063   0.572   3.006   0.347 -1.0061 -0.0277 -0.0599
  269MPD2     C 4064   4.292   1.049  15.946 -0.2386 -0.5241  0.7169
  269MPD2    C1 4065   4.163   1.085  15.986  0.2699  0.5821  0.3684
  269MPD2    C2 4066   4.122   1.215  15.995 -0.5716 -0.6417  0.1676
  269MPD2    C3 4067   4.211   1.317  15.957  0.1960  0.1839 -0.3908
  269MPD2    C4 4068   4.336   1.281  15.901  0.1201 -0.0803  0.5295
  269MPD2    C5 4069   4.375   1.150  15.897  0.0943  0.9162 -0.6088
  269MPD2     H 4070   4.029   1.233  16.047 -0.7146  1.9521 -1.0002
  269MPD2    H1 4071   4.400   1.347  15.843 -0.3371 -0.0102  0.1028
  269MPD2    H2 4072   4.331   0.950  15.963  0.9576 -0.2695 -0.5860
  269MPD2    H3 4073   4.472   1.126  15.854  0.7126  0.1722  1.1963
  269MPD2     N 4074   4.177   1.450  15.960 -0.1726  0.4655 -0.6992
  269MPD2    H5 4075   4.108   1.466  16.032  0.0068  1.9434 -0.8560
  269MPD2    N1 4076   4.084   0.975  16.027 -0.2108 -0.1235 -0.4525
  269MPD2    H7 4077   4.128   0.883  16.032  0.1363 -0.0651 -2.5934
  270TMC3    C1 4078   3.889   0.846  16.080 -0.4827 -0.6766  0.6119
  270TMC3    C2 4079   3.773   0.820  16.013 -0.7067 -0.3102  0.2687
  270TMC3    C3 4080   3.730   0.688  15.994  0.7986 -0.1708  0.2796
  270TMC3    C4 4081   3.969   0.741  16.119  0.5649 -0.3267  1.4051
  270TMC3    C5 4082   3.925   0.614  16.100  0.2521  0.0009  0.5701
  270TMC3    C6 4083   3.806   0.583  16.038  0.6754 -0.4478 -0.1418
  270TMC3     C 4084   3.948   0.977  16.044 -0.3195 -0.1578  0.3043
  270TMC3     O 4085   3.864   1.070  16.033  0.0219 -0.7197 -0.2953
  270TMC3     H 4086   3.710   0.896  15.968 -0.4388 -0.7610 -0.8844
  270TMC3    H1 4087   4.057   0.758  16.181 -0.1567  0.0066  2.3435
  270TMC3    H2 4088   3.772   0.483  16.013  0.6855 -0.5910  0.4187
  270TMC3    C7 4089   4.021   0.512  16.132 -0.2057 -0.1590  0.9066
  270TMC3    C8 4090   3.650   0.668  15.880 -0.9743 -0.8313  0.1729
  270TMC3    O1 4091   4.142   0.537  16.146 -0.1039 -0.8449 -0.3995
  270TMC3    O2 4092   3.541   0.728  15.879  0.4490  0.0216 -0.7748
  271MPD2     C 4093   3.566   0.649  14.103 -0.5849  0.3389 -1.1158
  271MPD2    C1 4094   3.491   0.686  14.212 -0.0461  0.6313  0.2367
  271MPD2    C2 4095   3.404   0.787  14.196 -0.0785  0.3817  0.3507
  271MPD2    C3 4096   3.381   0.847  14.068  0.1302  0.1572 -0.4984
  271MPD2    C4 4097   3.450   0.789  13.966 -0.6948  0.6853 -0.0297
  271MPD2    C5 4098   3.542   0.700  13.981  0.6138  0.6763  0.3967
  271MPD2     H 4099   3.342   0.818  14.279 -1.2866 -2.2552  0.4494
  271MPD2    H1 4100   3.426   0.816  13.864  0.6416  0.5666 -0.3689
  271MPD2    H2 4101   3.642   0.572  14.112 -1.7193 -0.6780 -0.1467
  271MPD2    H3 4102   3.601   0.667  13.896 -0.0624  0.1854  0.1157
  271MPD2     N 4103   3.274   0.934  14.035 -0.0943  0.5556  0.1472
  271MPD2    H5 4104   3.278   0.958  13.936  1.3855 -0.3982 -0.0297
  271MPD2    N1 4105   3.509   0.638  14.338 -1.1598 -0.1724  0.3224
  271MPD2    H7 4106   3.447   0.673  14.410 -1.0089  2.5071 -0.8481
  272TMC3    C1 4107   3.601   0.519  14.520 -0.0574 -0.0352 -0.4565
  272TMC3    C2 4108   3.708   0.442  14.558  0.1196  0.4682  0.6253
  272TMC3    C3 4109   3.720   0.412  14.689 -0.3482 -0.0413 -0.2051
  272TMC3    C4 4110   3.510   0.565  14.612 -0.1505  0.1748  0.5426
  272TMC3    C5 4111   3.532   0.539  14.742  0.4061 -0.5583 -0.6408
  272TMC3    C6 4112   3.636   0.470  14.786 -0.3754  0.3906  0.1560
  272TMC3     C 4113   3.604   0.554  14.381  0.1528  0.0163  0.2306
  272TMC3     O 4114   3.690   0.489  14.318 -0.3122 -0.1032  0.2834
  272TMC3     H 4115   3.783   0.409  14.487  2.3925  0.5233  2.9765
  272TMC3    H1 4116   3.428   0.629  14.582 -0.8598 -0.5247  0.9420
  272TMC3    H2 4117   3.640   0.443  14.891 -1.3830  0.9678  0.3406
  272TMC3    C7 4118   3.453   0.612  14.836  0.0689 -0.5928  0.1024
  272TMC3    C8 4119   3.853   0.353  14.721  0.9418 -0.6813  0.5288
  272TMC3    O1 4120   3.334   0.631  14.812 -0.3632 -0.3219  0.4361
  272TMC3    O2 4121   3.929   0.327  14.625 -0.0992  0.0578 -0.2661
  273MPD2     C 4122   0.212   3.346  11.929 -0.1438 -0.2527 -0.3260
  273MPD2    C1 4123   0.341   3.410  11.938 -0.0518 -0.1256  0.8650
  273MPD2    C2 4124   0.387   3.478  11.829 -0.3407 -0.5128 -0.6794
  273MPD2    C3 4125   0.314   3.490  11.712 -0.6254  0.7360  0.0687
  273MPD2    C4 4126   0.186   3.434  11.708 -0.0751 -0.5931 -0.1795
  273MPD2    C5 4127   0.134   3.362  11.814 -0.1244  0.3116  0.4605
  273MPD2     H 4128   0.491   3.509  11.833 -0.2069 -1.0286 -0.1754
  273MPD2    H1 4129   0.116   3.453  11.627 -2.1931 -2.8814  1.1019
  273MPD2    H2 4130   0.171   3.290  12.012 -3.1099 -0.1127 -1.7123
  273MPD2    H3 4131   0.031   3.327  11.818 -0.1575  0.1464 -1.6566
  273MPD2     N 4132   0.359   3.553  11.594  0.3188  0.0079 -0.0249
  273MPD2    H5 4133   0.299   3.553  11.512 -1.6768  0.5966  1.4308
  273MPD2    N1 4134   0.413   3.388  12.057  0.0665 -0.5530  0.3264
  273MPD2    H7 4135   0.359   3.329  12.120 -1.8503  0.4624 -0.3496
  274TMC3    C1 4136   0.520   3.675  11.456  0.8538 -0.5326 -0.0794
  274TMC3    C2 4137   0.464   3.619  11.347  0.2185  0.1383  0.0002
  274TMC3    C3 4138   0.484   3.677  11.226  0.8203  0.1114 -0.3209
  274TMC3    C4 4139   0.578   3.792  11.463 -0.7816 -0.1463  0.7865
  274TMC3    C5 4140   0.585   3.865  11.343 -0.1134 -0.1556 -0.0428
  274TMC3    C6 4141   0.543   3.805  11.228  0.2025 -0.0456  0.1453
  274TMC3     C 4142   0.485   3.619  11.588 -0.6767  0.8631 -0.1812
  274TMC3     O 4143   0.574   3.640  11.672  0.0537 -0.3689 -0.3971
  274TMC3     H 4144   0.420   3.520  11.343 -1.8705  1.0668  0.4529
  274TMC3    H1 4145   0.612   3.839  11.554  0.6609 -0.3142  0.3440
  274TMC3    H2 4146   0.501   3.874  11.155 -0.9764 -1.3899 -0.4646
  274TMC3    C7 4147   0.560   4.014  11.367  0.2365  0.5040  0.0147
  274TMC3    C8 4148   0.417   3.633  11.107  1.4371 -0.7002 -0.4238
  274TMC3    O1 4149   0.508   4.030  11.476  0.0947 -0.1597  0.0752
  274TMC3    O2 4150   0.346   3.534  11.120 -0.8083  1.0161  0.3746
  275MPD2     C 4151   0.046   1.786  14.526 -0.8440  0.3584 -1.2299
  275MPD2    C1 4152   0.016   1.790  14.657 -0.5200 -0.1457  0.6534
  275MPD2    C2 4153   4.612   1.741  14.694  0.1230 -0.8529  0.6211
  275MPD2    C3 4154   4.527   1.689  14.604 -0.6707  0.3023  0.1539
  275MPD2    C4 4155   4.561   1.681  14.471  0.0146 -0.1484  0.4305
  275MPD2    C5 4156   4.681   1.736  14.440 -0.1397  0.3165 -0.1378
  275MPD2     H 4157   4.591   1.743  14.801 -0.4403  4.1448  0.4184
  275MPD2    H1 4158   4.490   1.646  14.397 -0.3450  0.5759  0.4275
  275MPD2    H2 4159   0.141   1.807  14.478 -1.0238  0.0210 -1.7240
  275MPD2    H3 4160   4.716   1.730  14.337 -1.4154 -0.5990 -0.5139
  275MPD2     N 4161   4.401   1.630  14.635  0.2214  0.2741 -0.2485
  275MPD2    H5 4162   4.347   1.584  14.563  0.7085 -2.4017  1.1021
  275MPD2    N1 4163   0.094   1.860  14.752 -0.2321  0.2825  0.1491
  275MPD2    H7 4164   0.063   1.866  14.848 -0.2080  0.0502  0.1706
  276TMC3    C1 4165   0.266   1.981  14.847 -0.3869 -0.4034  0.6279
  276TMC3    C2 4166   0.205   1.940  14.963  0.0470  1.3460  0.0576
  276TMC3    C3 4167   0.206   2.023  15.074  0.0651  0.8500  0.1703
  276TMC3    C4 4168   0.349   2.092  14.846 -0.0375  0.2734  0.3313
  276TMC3    C5 4169   0.360   2.166  14.963  0.8179 -0.3151  0.6121
  276TMC3    C6 4170   0.277   2.139  15.070  0.9324 -0.0682  0.1777
  276TMC3     C 4171   0.217   1.921  14.722  0.0803  0.5091 -0.1509
  276TMC3     O 4172   0.269   1.944  14.616  0.3235 -0.2796 -0.0387
  276TMC3     H 4173   0.162   1.841  14.980  2.6685  0.2248  0.0527
  276TMC3    H1 4174   0.414   2.114  14.763  1.3228  1.5329  1.7338
  276TMC3    H2 4175   0.294   2.186  15.166  1.9899 -0.8735  0.3853
  276TMC3    C7 4176   0.464   2.260  14.992 -0.0887  0.0081  0.4779
  276TMC3    C8 4177   0.149   1.994  15.204  0.2375 -0.2785  1.0076
  276TMC3    O1 4178   0.445   2.340  15.085  0.1763  0.1072 -0.0294
  276TMC3    O2 4179   0.119   2.085  15.277  0.3988  0.0831  0.0703
  277MPD2     C 4180   2.144   0.935  13.028  0.1311 -0.4686  0.6709
  277MPD2    C1 4181   2.030   0.992  13.074 -0.3376  0.3967  0.0400
  277MPD2    C2 4182   1.947   0.907  13.137  0.2108  0.3259  0.5762
  277MPD2    C3 4183   1.962   0.767  13.149 -0.1193  0.6511  0.1108
  277MPD2    C4 4184   2.078   0.720  13.095 -0.0233 -0.3944  0.5719
  277MPD2    C5 4185   2.176   0.801  13.042 -0.0725 -0.0618  0.8323
  277MPD2     H 4186   1.861   0.950  13.188  0.3809  0.3266  0.8611
  277MPD2    H1 4187   2.099   0.614  13.096  0.1305 -0.3637 -0.7700
  277MPD2    H2 4188   2.215   0.995  12.972  0.6164 -2.0836 -0.4290
  277MPD2    H3 4189   2.262   0.761  12.989 -0.0768  0.8310  0.1567
  277MPD2     N 4190   1.861   0.697  13.213 -0.4985 -0.2782 -0.3675
  277MPD2    H5 4191   1.775   0.748  13.230 -0.7016 -0.0050 -2.1822
  277MPD2    N1 4192   2.011   1.132  13.064  0.1683  0.8739  0.1491
  277MPD2    H7 4193   2.086   1.182  13.017  0.8991 -0.3951 -0.0233
  278TMC3    C1 4194   1.744   0.507  13.304 -0.4187  0.3041  0.6263
  278TMC3    C2 4195   1.699   0.386  13.264 -0.8964 -0.2312 -0.1916
  278TMC3    C3 4196   1.581   0.343  13.310  0.3325  1.2582  0.2523
  278TMC3    C4 4197   1.672   0.592  13.385  0.2159  0.0807  0.6275
  278TMC3    C5 4198   1.556   0.533  13.443  0.5792 -0.4198  0.6609
  278TMC3    C6 4199   1.508   0.410  13.406 -0.3907 -0.3128  0.4175
  278TMC3     C 4200   1.865   0.560  13.237  0.1773 -0.3343 -0.4874
  278TMC3     O 4201   1.943   0.481  13.188  0.1418  0.1379  0.3771
  278TMC3     H 4202   1.755   0.333  13.188 -0.8606 -0.9007  0.3035
  278TMC3    H1 4203   1.719   0.680  13.428 -1.0996  0.8280  0.5458
  278TMC3    H2 4204   1.404   0.384  13.422 -0.7834  0.4692 -0.8689
  278TMC3    C7 4205   1.507   0.604  13.554  0.3192  0.2791 -1.4848
  278TMC3    C8 4206   1.527   0.213  13.259 -0.0128  0.6134  0.2063
  278TMC3    O1 4207   1.549   0.706  13.597 -0.6327 -0.1494 -0.0215
  278TMC3    O2 4208   1.407   0.198  13.260  0.5336 -0.6552  0.6724
  279MPD2     C 4209   1.495   0.969   0.443  0.7068  0.0300 -0.3402
  279MPD2    C1 4210   1.463   1.081   0.515  0.1380 -0.4556  0.7370
  279MPD2    C2 4211   1.436   1.199   0.449 -0.5092  0.9686 -0.4981
  279MPD2    C3 4212   1.448   1.205   0.310 -0.2694  0.2747 -0.1452
  279MPD2    C4 4213   1.481   1.090   0.242 -0.5194  0.2728  0.1035
  279MPD2    C5 4214   1.518   0.978   0.309  0.0566 -0.0996 -0.1904
  279MPD2     H 4215   1.385   1.281   0.500  0.1324  1.0578 -0.0026
  279MPD2    H1 4216   1.457   1.085   0.137  1.3099  0.0115 -0.3047
  279MPD2    H2 4217   1.506   0.871   0.487  0.6852  0.0071 -0.3857
  279MPD2    H3 4218   1.533   0.883   0.260  2.1561 -0.3143  0.8950
  279MPD2     N 4219   1.398   1.310   0.237 -0.4770 -0.3298 -0.0774
  279MPD2    H5 4220   1.376   1.301   0.138 -0.4622  2.0988 -0.3213
  279MPD2    N1 4221   1.429   1.063   0.650 -0.4209 -0.2475  0.4581
  279MPD2    H7 4222   1.414   0.974   0.695 -0.2600 -0.5623 -0.1053
  280TMC3    C1 4223   1.278   1.112   0.821 -0.3951  0.0314  0.1526
  280TMC3    C2 4224   1.187   1.033   0.761  0.4522  0.0405  1.1638
  280TMC3    C3 4225   1.051   1.034   0.792 -1.0272 -0.0020 -0.1659
  280TMC3    C4 4226   1.238   1.201   0.916 -0.4043 -0.2174  0.0534
  280TMC3    C5 4227   1.104   1.210   0.940 -0.1057 -0.2210  0.3797
  280TMC3    C6 4228   1.007   1.127   0.877 -0.1671  0.8395 -0.4930
  280TMC3     C 4229   1.383   1.162   0.732 -0.3434  0.1351 -0.2741
  280TMC3     O 4230   1.404   1.282   0.736  1.1168 -0.3319 -0.2793
  280TMC3     H 4231   1.213   0.974   0.674 -0.5446 -0.2477  1.0612
  280TMC3    H1 4232   1.312   1.260   0.970  0.3072  0.4753 -1.6842
  280TMC3    H2 4233   0.902   1.123   0.902  0.5111 -4.4580  1.5697
  280TMC3    C7 4234   1.058   1.321   1.021  0.2556  0.3661  0.7864
  280TMC3    C8 4235   0.966   0.919   0.768 -1.2208  0.7308 -0.4681
  280TMC3    O1 4236   1.142   1.365   1.103  0.4335 -0.1118 -1.2648
  280TMC3    O2 4237   0.847   0.936   0.787 -0.4103  0.1699  0.1732
  281TMC3    C1 4238   0.073   1.666  14.003  0.2720 -0.0576  0.0736
  281TMC3    C2 4239   0.157   1.568  14.045  0.0576 -0.6823 -0.2044
  281TMC3    C3 4240   0.114   1.471  14.139  0.2215  0.0929  0.1251
  281TMC3    C4 4241   4.669   1.676  14.056  0.2529  0.1986 -0.2740
  281TMC3    C5 4242   4.624   1.584  14.148  0.4874  0.0280  0.0179
  281TMC3    C6 4243   4.706   1.492  14.193  0.0474  0.8079  0.2067
  281TMC3     C 4244   0.111   1.748  13.894  0.1181 -0.0560 -0.4787
  281TMC3     O 4245   0.233   1.754  13.874  0.2967  0.0034  0.2758
  281TMC3     H 4246   0.241   1.553  13.979 -0.8489  0.8857 -1.7117
  281TMC3    H1 4247   4.605   1.758  14.026  1.2490  0.5063 -1.5468
  281TMC3    H2 4248   4.668   1.421  14.267 -1.2316  0.5322 -0.7098
  281TMC3    C7 4249   4.489   1.545  14.130  0.0568  0.1213 -0.7282
  281TMC3    C8 4250   0.106   1.336  14.071 -0.1363  0.5557 -0.4376
  281TMC3    O1 4251   4.403   1.629  14.137 -0.9598  0.5470 -0.0599
  281TMC3    O2 4252   4.717   1.274  14.082 -0.6161  0.5543  0.5155
  282MPD2     C 4253   1.745   2.690  15.454 -0.0986 -0.5631 -0.0899
  282MPD2    C1 4254   1.633   2.756  15.449 -0.1721 -1.0969 -0.6821
  282MPD2    C2 4255   1.568   2.774  15.333 -0.5405 -0.1415 -0.2789
  282MPD2    C3 4256   1.617   2.721  15.215  0.0865  0.5782  0.4342
  282MPD2    C4 4257   1.745   2.664  15.225  0.4371 -0.3646 -0.2929
  282MPD2    C5 4258   1.810   2.647  15.338  0.2326 -0.3896  0.2048
  282MPD2     H 4259   1.467   2.814  15.325 -1.0697 -1.1228  1.4293
  282MPD2    H1 4260   1.800   2.623  15.141 -0.4940 -1.1423 -0.5215
  282MPD2    H2 4261   1.802   2.662  15.542 -0.6204 -2.3451 -0.3115
  282MPD2    H3 4262   1.903   2.592  15.346  0.5214 -0.1766 -1.8376
  282MPD2     N 4263   1.544   2.732  15.098 -0.1148 -0.0397 -0.0666
  282MPD2    H5 4264   1.454   2.778  15.106  0.9492  2.1978 -0.7869
  282MPD2    N1 4265   1.570   2.808  15.572 -0.2044 -0.4795  0.4487
  282MPD2    H7 4266   1.492   2.867  15.548 -1.9530 -3.1309 -0.4335
  283TMC3    C1 4267   1.479   2.811  15.788  0.6881 -0.7603  0.4211
  283TMC3    C2 4268   1.437   2.940  15.775 -0.3192 -0.5382  0.7009
  283TMC3    C3 4269   1.337   2.988  15.861  0.1222  0.3113 -0.0716
  283TMC3    C4 4270   1.421   2.730  15.886 -1.0773  0.3031 -0.6139
  283TMC3    C5 4271   1.334   2.780  15.981 -0.1124 -0.3505  0.1987
  283TMC3    C6 4272   1.293   2.912  15.964 -0.0503  0.3518 -0.0937
  283TMC3     C 4273   1.575   2.752  15.693 -0.4563 -0.4908 -0.7475
  283TMC3     O 4274   1.652   2.665  15.738 -0.1180  1.0158 -0.6703
  283TMC3     H 4275   1.497   3.009  15.718 -0.5283 -1.8197 -1.0675
  283TMC3    H1 4276   1.453   2.626  15.885 -0.4599  0.5068 -1.9554
  283TMC3    H2 4277   1.213   2.951  16.025 -0.5616  0.0140 -0.5542
  283TMC3    C7 4278   1.259   2.696  16.070  0.7988 -0.5166  0.2287
  283TMC3    C8 4279   1.294   3.125  15.868 -0.0110 -0.8386  0.2173
  283TMC3    O1 4280   1.214   2.760  16.162  0.7040  0.0234 -0.0825
  283TMC3    O2 4281   1.252   3.170  15.975  0.8471 -0.8114  0.0119
  284MPD2     C 4282   4.448   1.674  11.953  0.8063  0.1903 -0.0550
  284MPD2    C1 4283   4.564   1.607  11.917  0.5887 -0.6966 -0.2351
  284MPD2    C2 4284   4.596   1.494  11.983  0.2833 -0.0315 -0.3031
  284MPD2    C3 4285   4.523   1.452  12.093  0.0973 -0.2290 -0.0701
  284MPD2    C4 4286   4.415   1.523  12.136 -0.1895 -0.4864  0.7760
  284MPD2    C5 4287   4.374   1.631  12.059 -0.1130 -0.4157 -0.4681
  284MPD2     H 4288   4.685   1.439  11.954  0.8266  0.7591 -0.1115
  284MPD2    H1 4289   4.363   1.509  12.230 -2.5323 -1.0480 -0.6126
  284MPD2    H2 4290   4.406   1.756  11.895  0.0772 -1.0778 -1.3506
  284MPD2    H3 4291   4.291   1.689  12.095  0.2046 -2.2884  3.2638
  284MPD2     N 4292   4.565   1.343  12.179  0.5821  0.1574 -0.1115
  284MPD2    H5 4293   4.522   1.333  12.270  1.6410 -1.0660  0.2603
  284MPD2    N1 4294   4.652   1.650  11.818 -0.6776  0.0736 -0.6729
  284MPD2    H7 4295   0.008   1.587  11.788 -0.8849  0.0838 -1.2008
  285TMC3    C1 4296   0.018   1.791  11.642 -0.1066  0.2946  0.5371
  285TMC3    C2 4297   0.060   1.676  11.581  0.4769 -0.4979  0.4119
  285TMC3    C3 4298   0.187   1.675  11.533 -0.3891  1.6326  0.6366
  285TMC3    C4 4299   0.085   1.909  11.631  0.2506 -0.3779  0.2804
  285TMC3    C5 4300   0.218   1.895  11.589  0.2665 -0.3400 -0.5025
  285TMC3    C6 4301   0.269   1.780  11.531  0.0600  0.3849  0.0703
  285TMC3     C 4302   4.639   1.775  11.751 -0.4882 -0.2580  0.2781
  285TMC3     O 4303   4.561   1.865  11.776  0.2495  0.0618  0.1020
  285TMC3     H 4304   4.715   1.589  11.590 -2.0109  1.2327 -0.4315
  285TMC3    H1 4305   0.054   2.003  11.676  0.0620  0.1358 -0.9303
  285TMC3    H2 4306   0.371   1.783  11.496 -0.0481  2.5294 -0.0525
  285TMC3    C7 4307   0.307   2.005  11.643  0.8366 -0.5351 -0.8656
  285TMC3    C8 4308   0.224   1.554  11.464  0.2148 -0.3210 -0.3250
  285TMC3    O1 4309   0.261   2.114  11.645  0.2538 -0.1901  0.0442
  285TMC3    O2 4310   0.143   1.482  11.413 -0.3275 -0.0313 -0.0224
  286MPD2     C 4311   0.550   0.907   1.989 -0.5604  0.0482  0.2392
  286MPD2    C1 4312   0.570   0.879   1.850  0.4929 -0.0104 -0.5996
  286MPD2    C2 4313   0.663   0.784   1.805 -0.0603 -0.3756 -0.4510
  286MPD2    C3 4314   0.733   0.713   1.901  0.0186  0.2231  0.0474
  286MPD2    C4 4315   0.721   0.743   2.033  0.0083 -0.2161  0.2568
  286MPD2    C5 4316   0.631   0.834   2.073 -0.2010  0.4943  0.4067
  286MPD2     H 4317   0.675   0.767   1.699  0.0885 -0.0839 -0.4798
  286MPD2    H1 4318   0.773   0.692   2.113 -1.8441  0.4302  1.8708
  286MPD2    H2 4319   0.480   0.982   2.026 -1.4440 -0.3817 -0.5656
  286MPD2    H3 4320   0.628   0.856   2.179 -2.9026  1.6943  0.0719
  286MPD2     N 4321   0.817   0.604   1.867  0.0111  0.1165  0.3424
  286MPD2    H5 4322   0.851   0.547   1.944 -0.4004  0.9499  1.1552
  286MPD2    N1 4323   0.500   0.942   1.749  0.2212  0.2574 -0.1301
  286MPD2    H7 4324   0.532   0.923   1.654  0.1219  2.6891 -0.6538
  287TMC3    C1 4325   0.935   0.458   1.721 -0.1370 -0.3799 -0.1441
  287TMC3    C2 4326   0.935   0.400   1.598  0.1819  0.1408  0.3202
  287TMC3    C3 4327   1.041   0.320   1.556 -0.3723 -0.5913 -0.2294
  287TMC3    C4 4328   1.043   0.438   1.801  0.0957  0.1656 -0.2041
  287TMC3    C5 4329   1.143   0.358   1.756 -0.2799  0.2022  0.3060
  287TMC3    C6 4330   1.149   0.291   1.637  0.0505 -0.2944 -0.2871
  287TMC3     C 4331   0.853   0.575   1.740 -0.1708  0.0656 -0.5164
  287TMC3     O 4332   0.820   0.630   1.640 -0.5329  0.9480  0.4720
  287TMC3     H 4333   0.853   0.428   1.533  0.7577  1.5378  0.1963
  287TMC3    H1 4334   1.062   0.510   1.879  0.3546  0.0435 -0.1539
  287TMC3    H2 4335   1.224   0.216   1.616  2.4120  1.3889  2.1775
  287TMC3    C7 4336   1.260   0.337   1.849  0.8147  0.3620  0.5081
  287TMC3    C8 4337   1.046   0.268   1.416  0.7057  0.1819 -0.0949
  287TMC3    O1 4338   1.229   0.364   1.965 -0.4151 -0.0364 -0.7965
  287TMC3    O2 4339   1.128   0.183   1.401  0.6967 -0.1473  0.0191
  288TMC3    C1 4340   2.445   0.421  14.300  0.3650  0.1487 -0.2697
  288TMC3    C2 4341   2.312   0.428  14.316 -0.1770 -0.0645  0.2932
  288TMC3    C3 4342   2.241   0.502  14.221 -0.4712  0.2061 -1.0446
  288TMC3    C4 4343   2.512   0.464  14.191  0.1537  0.5121  0.3309
  288TMC3    C5 4344   2.428   0.503  14.086  0.0441 -0.7283 -0.2158
  288TMC3    C6 4345   2.296   0.535  14.099  0.0571  0.2859 -0.1838
  288TMC3     C 4346   2.513   0.362  14.410 -1.2479  0.2575 -0.4122
  288TMC3     O 4347   2.445   0.323  14.508 -0.1267  0.4256  0.2671
  288TMC3     H 4348   2.265   0.429  14.414 -2.7989 -1.5042 -0.9360
  288TMC3    H1 4349   2.620   0.474  14.185  0.2818 -1.3257 -0.3185
  288TMC3    H2 4350   2.256   0.614  14.037  3.3446  0.8852 -1.5348
  288TMC3    C7 4351   2.488   0.562  13.968 -0.0506 -0.5840 -0.1247
  288TMC3    C8 4352   2.101   0.521  14.235  0.4353 -0.5398 -0.2178
  288TMC3    O1 4353   2.603   0.602  13.974 -0.3538 -0.4263  0.0010
  288TMC3    O2 4354   2.044   0.593  14.161  0.2966 -0.6928 -0.0992
  289MPD2     C 4355   2.262   4.193  14.396  0.2747  0.0263 -0.3748
  289MPD2    C1 4356   2.186   4.294  14.449 -0.4911 -0.2977 -0.3719
  289MPD2    C2 4357   2.056   4.304  14.403 -0.2479  0.4362  0.5051
  289MPD2    C3 4358   2.004   4.213  14.316 -0.3330  0.1025 -0.7147
  289MPD2    C4 4359   2.088   4.120  14.263  0.1115  0.0568 -0.0778
  289MPD2    C5 4360   2.210   4.099  14.313  0.0684  0.0928 -0.0213
  289MPD2     H 4361   1.991   4.384  14.437 -0.2417  1.7470 -2.6267
  289MPD2    H1 4362   2.042   4.052  14.192 -0.6838  0.9801 -0.4489
  289MPD2    H2 4363   2.364   4.174  14.429  0.0626  2.0290  1.3871
  289MPD2    H3 4364   2.273   4.020  14.274  2.6516  1.2782  1.6949
  289MPD2     N 4365   1.877   4.225  14.263 -0.4672  0.2274  0.1403
  289MPD2    H5 4366   1.836   4.145  14.216  0.0103 -0.6174  1.1636
  289MPD2    N1 4367   2.249   4.388  14.536 -0.0081 -0.2064 -0.3243
  289MPD2    H7 4368   2.350   4.377  14.539 -0.0728 -0.8432 -0.5550
  290TMC3    C1 4369   1.665   4.312  14.196 -0.1540  0.3441 -0.3693
  290TMC3    C2 4370   1.607   4.413  14.127 -0.1175  0.3700 -0.3539
  290TMC3    C3 4371   1.496   4.385  14.051  0.2164 -0.2038  0.1917
  290TMC3    C4 4372   1.611   4.188  14.213  0.1971 -0.0384 -1.1410
  290TMC3    C5 4373   1.497   4.168  14.141  0.3337  0.3194  0.6732
  290TMC3    C6 4374   1.442   4.257  14.053  0.2799  0.4900  0.3169
  290TMC3     C 4375   1.799   4.338  14.252 -0.2893  0.3834 -0.2330
  290TMC3     O 4376   1.841   4.454  14.268 -0.1179 -0.1338 -0.2254
  290TMC3     H 4377   1.648   4.513  14.124  0.9552 -0.0991 -1.7086
  290TMC3    H1 4378   1.648   4.109  14.277  0.5556  0.7957 -0.3261
  290TMC3    H2 4379   1.350   4.235  14.001 -0.8851  2.8355  1.3880
  290TMC3    C7 4380   1.409   4.065  14.185  0.9351 -0.4995 -0.2402
  290TMC3    C8 4381   1.394   4.485  14.051 -0.0343 -0.3693 -0.2386
  290TMC3    O1 4382   1.290   4.074  14.166 -0.3869  0.3390  0.0903
  290TMC3    O2 4383   1.286   4.447  14.094  0.2635  0.0700 -0.0450
  291MPD2     C 4384   1.323   4.604   0.980  0.1989 -0.2940  0.2651
  291MPD2    C1 4385   1.404   4.522   0.900 -0.1484  0.3434 -0.0908
  291MPD2    C2 4386   1.437   4.560   0.773  0.4316 -0.4196  0.4293
  291MPD2    C3 4387   1.389   4.676   0.721 -0.0331  0.2092 -0.1506
  291MPD2    C4 4388   1.302   0.036   0.793 -0.2350  0.2306 -0.0672
  291MPD2    C5 4389   1.263   4.715   0.920 -0.2433  0.7772  0.5911
  291MPD2     H 4390   1.508   4.497   0.721  0.6894  0.4742 -0.2911
  291MPD2    H1 4391   1.265   0.133   0.759 -1.2834  0.8992  3.0301
  291MPD2    H2 4392   1.279   4.582   1.077 -0.4025  0.4166  0.1508
  291MPD2    H3 4393   1.199   0.060   0.979 -1.7556 -0.6571  0.4846
  291MPD2     N 4394   1.433   0.009   0.595  0.1649 -0.0905 -0.7536
  291MPD2    H5 4395   1.417   0.109   0.591 -1.4877 -0.3381 -0.3732
  291MPD2    N1 4396   1.451   4.399   0.946 -0.6062 -0.5188  0.3679
  291MPD2    H7 4397   1.507   4.339   0.886  0.0435 -2.5193  2.9568
  292TMC3    C1 4398   1.468   4.196   1.054  0.7970 -0.0541  0.4276
  292TMC3    C2 4399   1.530   4.131   1.156  0.1855  1.0609 -0.5398
  292TMC3    C3 4400   1.534   3.996   1.158  0.4593 -0.3701  0.2948
  292TMC3    C4 4401   1.409   4.130   0.949 -0.0451  0.4083 -0.0750
  292TMC3    C5 4402   1.420   3.991   0.952 -0.7348  0.1496 -0.1886
  292TMC3    C6 4403   1.488   3.929   1.053  0.1975  0.2400  0.2402
  292TMC3     C 4404   1.425   4.335   1.065  0.4030  0.7007  0.0109
  292TMC3     O 4405   1.372   4.382   1.164  0.0027  0.4018  0.4128
  292TMC3     H 4406   1.554   4.196   1.239  1.2577  1.3132 -1.0527
  292TMC3    H1 4407   1.337   4.180   0.886 -0.1725 -1.9263 -1.7844
  292TMC3    H2 4408   1.508   3.824   1.040  2.9749  0.6511  1.0944
  292TMC3    C7 4409   1.289   3.930   0.917 -0.2885 -0.3568 -0.2163
  292TMC3    C8 4410   1.622   3.928   1.246 -0.0054 -0.2911  0.3163
  292TMC3    O1 4411   1.188   3.964   0.975 -0.0220 -0.0985 -0.0964
  292TMC3    O2 4412   1.691   3.841   1.195 -0.5998 -0.1729  0.6125
  293MPD2     C 4413   3.223   0.526  12.783 -0.2287 -0.1130  0.7025
  293MPD2    C1 4414   3.149   0.456  12.879  0.3002  0.4801 -0.0775
  293MPD2    C2 4415   3.151   0.491  13.014 -0.4066 -0.3179 -0.4293
  293MPD2    C3 4416   3.240   0.591  13.055 -0.6836  0.1786  0.3002
  293MPD2    C4 4417   3.316   0.650  12.959  0.0102  0.1292  0.5759
  293MPD2    C5 4418   3.306   0.621  12.825 -0.4757 -0.1096  0.3284
  293MPD2     H 4419   3.098   0.430  13.085 -0.4180  1.0664  0.7597
  293MPD2    H1 4420   3.391   0.723  12.987 -0.3790  1.1979 -1.1869
  293MPD2    H2 4421   3.202   0.522  12.677  2.0963 -0.4643  0.2374
  293MPD2    H3 4422   3.371   0.670  12.755 -2.9818 -0.0635 -1.9768
  293MPD2     N 4423   3.241   0.616  13.191 -0.2695  0.2693 -0.0897
  293MPD2    H5 4424   3.162   0.577  13.242 -0.7451  2.5783  0.9561
  293MPD2    N1 4425   3.075   0.344  12.833 -0.4416 -0.8873 -0.2557
  293MPD2    H7 4426   3.091   0.324  12.734 -0.8114 -0.6184 -0.3702
  294TMC3    C1 4427   2.914   0.166  12.824  0.2105 -0.4675  0.3269
  294TMC3    C2 4428   2.838   0.072  12.891  0.2339  0.2727 -0.4866
  294TMC3    C3 4429   2.777   4.695  12.814  0.0707  0.1297 -0.6134
  294TMC3    C4 4430   2.912   0.177  12.689  0.3629  0.1382  0.3086
  294TMC3    C5 4431   2.844   0.079  12.620  0.0374  0.2338 -0.0776
  294TMC3    C6 4432   2.782   4.693  12.678  0.4449 -0.1852  0.4635
  294TMC3     C 4433   2.983   0.267  12.903 -0.5390 -0.2091  0.3800
  294TMC3     O 4434   2.948   0.277  13.019 -0.4532 -0.1490 -0.5315
  294TMC3     H 4435   2.843   0.065  12.999 -1.7568  0.7729 -0.3582
  294TMC3    H1 4436   2.948   0.269  12.644 -0.8701  0.0009 -0.9640
  294TMC3    H2 4437   2.704   4.635  12.629 -0.0384  0.1738  0.8013
  294TMC3    C7 4438   2.817   0.088  12.476 -0.0190 -1.2042  0.1300
  294TMC3    C8 4439   2.719   4.578  12.881  0.7991  0.0550  0.1781
  294TMC3    O1 4440   2.720   0.021  12.449 -0.8834  0.0559  0.6251
  294TMC3    O2 4441   2.663   4.595  12.990 -0.3173 -0.0222 -0.5582
  295MPD2     C 4442   2.733   3.861   1.233 -0.7659 -0.1844 -0.1910
  295MPD2    C1 4443   2.810   3.969   1.198 -0.5974  0.2267 -0.1592
  295MPD2    C2 4444   2.905   4.022   1.281 -0.2066  0.1555 -0.2819
  295MPD2    C3 4445   2.931   3.961   1.408  0.1904  0.3720 -0.3693
  295MPD2    C4 4446   2.847   3.852   1.440  1.0434 -0.3954 -0.4620
  295MPD2    C5 4447   2.748   3.798   1.360  0.1685  0.4028 -0.2302
  295MPD2     H 4448   2.965   4.096   1.230  1.4349 -0.9223  0.0862
  295MPD2    H1 4449   2.869   3.811   1.538 -0.3118 -0.8074 -0.3274
  295MPD2    H2 4450   2.658   3.814   1.170  0.5925 -1.6310 -0.7179
  295MPD2    H3 4451   2.690   3.715   1.399  0.2820  0.4616  0.0589
  295MPD2     N 4452   3.031   3.996   1.497 -0.6600  0.7189 -0.0906
  295MPD2    H5 4453   3.054   3.928   1.569 -1.5810  0.4780 -0.0317
  295MPD2    N1 4454   2.805   4.019   1.066 -0.2568 -0.1943  0.3777
  295MPD2    H7 4455   2.870   4.093   1.040 -0.7354 -0.6772 -2.1689
  296TMC3    C1 4456   3.180   4.145   1.617 -0.4727  0.5216  0.8239
  296TMC3    C2 4457   3.179   4.271   1.661  0.5627 -0.0000  0.4784
  296TMC3    C3 4458   3.260   4.301   1.768  0.8345 -0.3844 -0.0892
  296TMC3    C4 4459   3.252   4.043   1.682  0.1319  0.3570  0.5745
  296TMC3    C5 4460   3.319   4.081   1.800  0.5757 -0.2835  0.5581
  296TMC3    C6 4461   3.325   4.208   1.843 -0.8632 -0.5685 -0.6298
  296TMC3     C 4462   3.102   4.117   1.495 -0.2731  0.1025 -0.3564
  296TMC3     O 4463   3.092   4.207   1.410  0.8161  0.0785 -0.1487
  296TMC3     H 4464   3.109   4.339   1.614  1.3027  0.3973 -0.0451
  296TMC3    H1 4465   3.279   3.958   1.621  1.6900 -0.3983  2.3144
  296TMC3    H2 4466   3.383   4.225   1.933 -0.3224  0.6156 -1.2044
  296TMC3    C7 4467   3.408   3.988   1.869  0.3953  0.2835 -0.3316
  296TMC3    C8 4468   3.267   4.438   1.801 -0.2149 -0.3473 -0.3127
  296TMC3    O1 4469   3.493   4.034   1.943  0.3896 -0.2240 -0.8008
  296TMC3    O2 4470   3.206   4.511   1.722 -0.1654 -0.6907  0.5008
  297MPD2     C 4471   0.844   1.581  16.868  0.0231 -0.6758  0.3279
  297MPD2    C1 4472   0.754   1.629  16.772 -0.0006  0.4211  0.4694
  297MPD2    C2 4473   0.813   1.712  16.679 -0.4916 -0.3237 -0.1749
  297MPD2    C3 4474   0.941   1.755  16.687 -0.4189  0.7148 -0.4259
  297MPD2    C4 4475   1.022   1.714  16.789 -0.3529 -0.8650 -0.1282
  297MPD2    C5 4476   0.978   1.619  16.881 -0.3935 -0.2902  0.4064
  297MPD2     H 4477   0.738   1.756  16.614  2.0078  1.1615 -2.0501
  297MPD2    H1 4478   1.124   1.753  16.794 -0.4374 -0.6253 -0.2396
  297MPD2    H2 4479   0.800   1.516  16.942 -0.2386 -2.5664 -1.4933
  297MPD2    H3 4480   1.039   1.583  16.963  2.4678  1.6454 -0.9149
  297MPD2     N 4481   0.976   1.876  16.612 -0.0781  0.2073  0.4067
  297MPD2    H5 4482   0.908   1.928  16.558  1.8361  1.4744 -0.7603
  297MPD2    N1 4483   0.622   1.587  16.765  0.3128  0.1073 -0.4554
  297MPD2    H7 4484   0.572   1.614  16.681  0.8606 -1.1060 -1.1674
  298TMC3    C1 4485   0.424   1.474  16.808  0.6748  0.2829 -0.5823
  298TMC3    C2 4486   0.403   1.452  16.674 -0.5860 -0.0841  0.4264
  298TMC3    C3 4487   0.271   1.441  16.644 -0.0414 -0.1916  0.0304
  298TMC3    C4 4488   0.326   1.495  16.908  0.2196 -0.3526  1.1023
  298TMC3    C5 4489   0.196   1.493  16.866  0.6717 -0.1271  0.8871
  298TMC3    C6 4490   0.167   1.458  16.729  0.3969 -0.5638  0.5048
  298TMC3     C 4491   0.558   1.510  16.858  0.4211 -0.1423 -0.4057
  298TMC3     O 4492   0.574   1.498  16.978  0.6832 -0.1691  0.3479
  298TMC3     H 4493   0.488   1.432  16.610  0.3202 -0.0648  1.6102
  298TMC3    H1 4494   0.358   1.525  17.008 -1.6091  0.1370  1.5492
  298TMC3    H2 4495   0.066   1.460  16.688  0.6713 -0.8862 -0.1886
  298TMC3    C7 4496   0.092   1.535  16.954 -0.3983 -0.7368  0.7507
  298TMC3    C8 4497   0.244   1.402  16.505 -0.3998  0.3587 -0.2186
  298TMC3    O1 4498   0.139   1.554  17.070  0.1793 -0.2394  0.4081
  298TMC3    O2 4499   0.342   1.401  16.426 -0.3494  0.2218 -0.1387
  299MPD2     C 4500   1.788   0.717  10.980 -0.6277  0.2202  0.6422
  299MPD2    C1 4501   1.798   0.676  10.845 -0.2055 -0.3929 -0.1310
  299MPD2    C2 4502   1.710   0.580  10.795  0.1015 -0.5368  0.4433
  299MPD2    C3 4503   1.598   0.537  10.866  0.4474  0.2367  0.4262
  299MPD2    C4 4504   1.586   0.589  10.993 -0.2270  0.2217 -0.0778
  299MPD2    C5 4505   1.681   0.672  11.048  0.1464  0.0384 -0.5186
  299MPD2     H 4506   1.733   0.541  10.696 -2.5867 -1.4978  0.2062
  299MPD2    H1 4507   1.504   0.557  11.057 -0.9831  0.4722 -0.9149
  299MPD2    H2 4508   1.864   0.780  11.024  1.3645 -1.8672  0.1603
  299MPD2    H3 4509   1.669   0.695  11.153  1.2699 -1.9054  0.0543
  299MPD2     N 4510   1.491   0.471  10.808  0.4541  0.5407  0.3846
  299MPD2    H5 4511   1.412   0.473  10.872 -0.3114 -0.2979 -0.5394
  299MPD2    N1 4512   1.906   0.729  10.771 -0.2218 -0.2435  0.3482
  299MPD2    H7 4513   1.971   0.791  10.817 -0.9766  1.9547 -1.5156
  300TMC3    C1 4514   1.331   0.398  10.647  0.5935  0.5372 -0.1052
  300TMC3    C2 4515   1.284   0.482  10.560  0.1351  0.3731  0.2208
  300TMC3    C3 4516   1.160   0.541  10.580  0.2822 -0.4110  0.0283
  300TMC3    C4 4517   1.250   0.348  10.743  0.5559 -0.6753  0.3256
  300TMC3    C5 4518   1.121   0.399  10.759 -0.4289 -0.3731 -0.5564
  300TMC3    C6 4519   1.069   0.497  10.679  0.7742 -0.5171 -1.1618
  300TMC3     C 4520   1.472   0.423  10.680 -0.1357  0.0361  0.3255
  300TMC3     O 4521   1.546   0.429  10.588  0.5215  0.2314  0.2433
  300TMC3     H 4522   1.356   0.542  10.504 -0.2744 -0.1131 -0.8299
  300TMC3    H1 4523   1.291   0.284  10.819  4.0480  0.0805 -0.9258
  300TMC3    H2 4524   0.966   0.528  10.683  0.1913 -2.2534 -2.6418
  300TMC3    C7 4525   1.030   0.323  10.846  0.5717 -0.2739 -0.6252
  300TMC3    C8 4526   1.141   0.681  10.546  0.0635 -0.0076 -0.1171
  300TMC3    O1 4527   1.035   0.202  10.839  0.1862  0.5315 -0.1023
  300TMC3    O2 4528   1.068   0.746  10.621 -0.9280 -0.5640  0.1803
  301MPD2     C 4529   4.015   2.396   1.450 -1.3735 -0.5362 -0.1994
  301MPD2    C1 4530   3.883   2.350   1.477  0.6736  0.1050  0.3638
  301MPD2    C2 4531   3.864   2.219   1.514 -0.2238  0.1640  0.3541
  301MPD2    C3 4532   3.972   2.129   1.520 -0.5186 -0.5712  0.0689
  301MPD2    C4 4533   4.103   2.169   1.499 -0.7635 -1.2606 -0.4816
  301MPD2    C5 4534   4.113   2.300   1.463 -0.7065 -0.2149 -0.0712
  301MPD2     H 4535   3.762   2.183   1.524 -1.4563  3.4271 -0.3718
  301MPD2    H1 4536   4.185   2.104   1.526 -0.5565 -1.4362 -1.5356
  301MPD2    H2 4537   4.050   2.493   1.417  1.1203 -2.0165 -1.9369
  301MPD2    H3 4538   4.215   2.336   1.459 -1.1656  0.9451 -1.2925
  301MPD2     N 4539   3.954   1.993   1.545  0.2346  0.3831 -0.4903
  301MPD2    H5 4540   4.043   1.944   1.552 -0.2804 -0.1183  2.5384
  301MPD2    N1 4541   3.767   2.425   1.465 -0.4306  0.2751  0.4847
  301MPD2    H7 4542   3.683   2.374   1.492  0.3738 -2.0052 -1.3048
  302TMC3    C1 4543   3.851   1.787   1.509 -0.3865  0.1865  0.5165
  302TMC3    C2 4544   3.953   1.729   1.582  0.1790  0.2372  0.5413
  302TMC3    C3 4545   3.956   1.589   1.570 -0.7894  0.5025  0.7168
  302TMC3    C4 4546   3.768   1.722   1.425 -0.5177  0.4893  0.8225
  302TMC3    C5 4547   3.772   1.588   1.425 -0.1572  0.2758  0.3143
  302TMC3    C6 4548   3.866   1.519   1.493  0.5916 -0.5768 -0.2777
  302TMC3     C 4549   3.844   1.926   1.514  0.7893  0.2542 -0.7854
  302TMC3     O 4550   3.748   1.970   1.455  0.3555  0.2283  0.0901
  302TMC3     H 4551   4.016   1.781   1.654  0.1577 -0.0942  0.7974
  302TMC3    H1 4552   3.691   1.777   1.373 -1.6776 -2.2738 -0.3805
  302TMC3    H2 4553   3.861   1.411   1.489  2.4424 -0.6815  0.1501
  302TMC3    C7 4554   3.682   1.520   1.333  0.3089  0.5617 -0.1924
  302TMC3    C8 4555   4.073   1.525   1.629  0.1318  0.2755 -0.4440
  302TMC3    O1 4556   3.704   1.395   1.322  0.0549  0.1811 -0.0461
  302TMC3    O2 4557   4.132   1.583   1.720 -0.5341 -0.2658 -0.4485
  303MPD2     C 4558   4.136   4.226  10.302  0.2074  0.1843 -0.1373
  303MPD2    C1 4559   4.108   4.093  10.295  0.2015 -0.8062 -0.1421
  303MPD2    C2 4560   4.066   4.031  10.178  0.5892  0.0711 -0.5157
  303MPD2    C3 4561   4.050   4.106  10.064 -0.0584  0.0574  0.7372
  303MPD2    C4 4562   4.081   4.242  10.069 -0.7207 -0.0367  0.7617
  303MPD2    C5 4563   4.119   4.299  10.186 -0.2730  0.0769 -0.5614
  303MPD2     H 4564   4.062   3.923  10.177 -0.9645  0.1358 -0.9833
  303MPD2    H1 4565   4.054   4.314   9.993 -0.8277 -0.5291  0.3261
  303MPD2    H2 4566   4.163   4.275  10.395  0.4728  1.2533 -0.7752
  303MPD2    H3 4567   4.147   4.403  10.186 -1.7806  0.4758  2.1371
  303MPD2     N 4568   4.029   4.052   9.934 -0.1159 -0.1026  0.2353
  303MPD2    H5 4569   4.030   4.114   9.854 -2.6301 -0.5303 -0.1458
  303MPD2    N1 4570   4.113   4.029  10.413  0.3709 -0.1149 -0.5429
  303MPD2    H7 4571   4.152   4.088  10.486 -1.3342  0.8489 -0.4091
  304TMC3    C1 4572   4.038   3.905  10.594  0.3556 -0.1266  0.5637
  304TMC3    C2 4573   3.991   4.024  10.642  0.2703 -0.0821 -0.2734
  304TMC3    C3 4574   3.881   4.031  10.725  0.2686  0.5506  0.1829
  304TMC3    C4 4575   3.988   3.788  10.640 -0.3281 -0.1184 -0.2725
  304TMC3    C5 4576   3.871   3.791  10.720 -0.3498 -0.4363  0.2193
  304TMC3    C6 4577   3.825   3.913  10.766 -0.4830 -0.4808 -0.2073
  304TMC3     C 4578   4.077   3.906  10.450 -0.1372 -0.0277 -0.0872
  304TMC3     O 4579   4.051   3.813  10.376  0.1508  0.5433  0.1991
  304TMC3     H 4580   4.009   4.121  10.597 -0.3502  0.3528  0.4071
  304TMC3    H1 4581   4.022   3.697  10.591 -0.1655  1.2030 -2.6234
  304TMC3    H2 4582   3.754   3.921  10.848 -1.4350  4.5186 -1.4949
  304TMC3    C7 4583   3.770   3.697  10.697  0.2051  0.4272  0.1877
  304TMC3    C8 4584   3.793   4.135  10.676 -0.6502  0.0660  0.2053
  304TMC3    O1 4585   3.658   3.746  10.704  0.6352 -0.4510 -0.6237
  304TMC3    O2 4586   3.841   4.242  10.642  0.5075  0.2998 -0.6413
  305MPD2     C 4587   1.293   2.673  13.969 -0.4003 -0.6025  0.1608
  305MPD2    C1 4588   1.376   2.568  14.002  0.0918  0.6442 -0.1053
  305MPD2    C2 4589   1.367   2.451  13.925 -0.0956  0.9520  0.4744
  305MPD2    C3 4590   1.291   2.447  13.806  0.2805  0.5639 -0.0683
  305MPD2    C4 4591   1.218   2.564  13.771 -0.0950 -0.0234 -0.4704
  305MPD2    C5 4592   1.223   2.676  13.851 -0.3182  0.1599 -0.1560
  305MPD2     H 4593   1.429   2.367  13.954 -0.8627  0.1943 -0.1168
  305MPD2    H1 4594   1.148   2.558  13.689  0.3730  0.6620 -0.9282
  305MPD2    H2 4595   1.299   2.764  14.028  2.9152 -2.4281  2.5883
  305MPD2    H3 4596   1.160   2.758  13.819  0.0484  0.3159 -0.4834
  305MPD2     N 4597   1.298   2.330  13.729 -0.2790 -1.0217  0.0217
  305MPD2    H5 4598   1.382   2.279  13.754 -1.6922 -3.3675 -0.0021
  305MPD2    N1 4599   1.446   2.569  14.129  0.3752 -0.3189  0.3815
  305MPD2    H7 4600   1.421   2.651  14.184 -0.0567  1.1407 -2.0097
  306TMC3    C1 4601   1.560   2.486  14.320  0.2179 -0.0250  0.5110
  306TMC3    C2 4602   1.582   2.375  14.397 -0.4751 -0.5247 -0.3770
  306TMC3    C3 4603   1.650   2.386  14.509 -0.4388  0.1092  0.3244
  306TMC3    C4 4604   1.602   2.609  14.352  0.0222 -0.7540 -0.2782
  306TMC3    C5 4605   1.683   2.619  14.462 -0.1706 -1.2203  0.1751
  306TMC3    C6 4606   1.697   2.509  14.546  0.6876 -0.3359  0.4457
  306TMC3     C 4607   1.514   2.460  14.187  0.1496  0.1641  0.6628
  306TMC3     O 4608   1.547   2.353  14.137  0.3630 -0.2244 -0.2766
  306TMC3     H 4609   1.537   2.284  14.360 -1.3915 -0.2198 -0.0117
  306TMC3    H1 4610   1.598   2.696  14.287  0.2476 -1.5367 -1.3418
  306TMC3    H2 4611   1.735   2.516  14.647  2.5716  2.7095 -0.4678
  306TMC3    C7 4612   1.670   2.744  14.521  0.2239 -0.9944 -0.3578
  306TMC3    C8 4613   1.648   2.276  14.601  0.5823 -0.1434 -0.4019
  306TMC3    O1 4614   1.565   2.798  14.494  0.1284  0.1032 -0.2940
  306TMC3    O2 4615   1.744   2.261  14.675  0.7097 -0.1370  0.5621
  307MPD2     C 4616   4.357   0.034   0.563 -0.4525 -0.4204 -0.5094
  307MPD2    C1 4617   4.319   0.164   0.579 -0.1898  0.2152 -0.7307
  307MPD2    C2 4618   4.279   0.198   0.702  0.8966 -0.6166  0.3870
  307MPD2    C3 4619   4.261   0.102   0.807 -0.1134  0.0798 -0.0755
  307MPD2    C4 4620   4.307   4.690   0.787 -0.6580 -0.6979  0.1362
  307MPD2    C5 4621   4.359   4.659   0.666 -0.6261 -0.6418 -0.5401
  307MPD2     H 4622   4.240   0.298   0.717 -2.7307 -1.5761 -2.6359
  307MPD2    H1 4623   4.306   4.616   0.866  1.5897 -1.9340 -1.0125
  307MPD2    H2 4624   4.397   4.718   0.469  0.0698  0.4551 -0.6030
  307MPD2    H3 4625   4.404   4.562   0.655 -1.3100 -1.2349  1.7220
  307MPD2     N 4626   4.192   0.150   0.925  0.0880 -0.3460 -0.6294
  307MPD2    H5 4627   4.162   0.247   0.927 -0.1800 -0.4598  0.5728
  307MPD2    N1 4628   4.318   0.266   0.476 -0.1196  0.1941  0.4011
  307MPD2    H7 4629   4.282   0.357   0.501  1.1388  0.6263  0.6525
  308TMC3    C1 4630   3.854   0.187   1.158  0.1542 -0.3026 -0.0578
  308TMC3    C2 4631   3.897   0.315   1.158 -0.3049 -0.3997  0.0521
  308TMC3    C3 4632   4.025   0.358   1.146  0.4877 -0.1067  0.3524
  308TMC3    C4 4633   3.958   0.094   1.150 -0.5486 -0.1401 -0.6667
  308TMC3    C5 4634   4.088   0.142   1.132 -0.4064 -0.3379  0.0328
  308TMC3    C6 4635   4.121   0.273   1.135  0.4615 -0.2240  0.1018
  308TMC3     C 4636   3.712   0.148   1.165  0.5880 -0.1591 -0.0601
  308TMC3     O 4637   3.692   0.030   1.181 -0.1541 -0.6293 -0.0327
  308TMC3     H 4638   3.826   0.395   1.172  1.7758  1.9454 -2.7537
  308TMC3    H1 4639   3.934   4.706   1.147 -1.1539 -0.0773  2.2673
  308TMC3    H2 4640   4.221   0.310   1.115  0.1959  1.5962  2.1803
  308TMC3    C7 4641   4.170   0.069   1.036 -0.1997 -0.3614 -0.7835
  308TMC3    C8 4642   4.063   0.495   1.148  0.1461 -0.0575 -0.0740
  308TMC3    O1 4643   4.174   4.666   1.054 -0.1325  0.5953 -0.3191
  308TMC3    O2 4644   4.176   0.514   1.185 -0.9237 -0.5027  0.3557
  309MPD2     C 4645   3.319   0.994  17.433 -0.1660  0.0608  0.3369
  309MPD2    C1 4646   3.259   1.108  17.369  0.1749  0.3809  0.3626
  309MPD2    C2 4647   3.131   1.137  17.400  0.1075  0.3724  0.2549
  309MPD2    C3 4648   3.058   1.065  17.497 -0.1724 -0.6329 -0.1975
  309MPD2    C4 4649   3.107   0.942  17.539  0.6200  0.2834  0.8786
  309MPD2    C5 4650   3.240   0.917  17.514  0.5112 -0.3933  0.2579
  309MPD2     H 4651   3.086   1.222  17.349  0.8286  1.0522  0.7404
  309MPD2    H1 4652   3.054   0.874  17.606  1.1319 -2.1507 -1.1796
  309MPD2    H2 4653   3.417   0.956  17.407 -1.0917 -3.7807  2.4689
  309MPD2    H3 4654   3.278   0.827  17.562  1.0914  0.5876  1.6192
  309MPD2     N 4655   2.929   1.099  17.542 -0.3710 -0.2332 -0.4406
  309MPD2    H5 4656   2.889   1.046  17.618  0.1070 -2.5495 -1.8133
  309MPD2    N1 4657   3.321   1.173  17.257  0.3735  0.3872  0.4977
  309MPD2    H7 4658   3.263   1.244  17.214  1.5056 -0.6759 -2.8394
  310TMC3    C1 4659   3.483   1.209  17.086  0.2283 -0.4458 -0.1370
  310TMC3    C2 4660   3.415   1.308  17.025 -0.5274  0.0904  0.1473
  310TMC3    C3 4661   3.470   1.370  16.919 -1.0880  0.4534 -0.0642
  310TMC3    C4 4662   3.599   1.160  17.035 -0.0834  0.1021  0.0619
  310TMC3    C5 4663   3.652   1.221  16.928  0.1163 -0.9766  0.5556
  310TMC3    C6 4664   3.585   1.320  16.862  0.6844  0.3514  0.6244
  310TMC3     C 4665   3.443   1.137  17.210  0.0660  0.2792  0.0537
  310TMC3     O 4666   3.522   1.051  17.246 -0.0399 -0.0529 -0.1558
  310TMC3     H 4667   3.327   1.353  17.071  1.9360  0.8353  4.0792
  310TMC3    H1 4668   3.655   1.083  17.088 -0.1627  0.0538  0.0755
  310TMC3    H2 4669   3.626   1.357  16.768  2.1856  1.7018  1.8129
  310TMC3    C7 4670   3.764   1.151  16.864 -0.4289 -0.3329 -0.1224
  310TMC3    C8 4671   3.379   1.435  16.837  0.2637 -0.8022 -0.4239
  310TMC3    O1 4672   3.807   1.058  16.933  0.2666  0.3291  0.4105
  310TMC3    O2 4673   3.258   1.431  16.865 -0.2604 -0.4364 -0.2459
  311MPD2     C 4674   0.931   1.885  12.885  0.3800  0.3816 -0.0135
  311MPD2    C1 4675   0.908   2.025  12.894  0.4198  0.4961  0.4480
  311MPD2    C2 4676   0.792   2.075  12.955  0.7794 -0.4267 -0.3041
  311MPD2    C3 4677   0.698   1.985  12.998  0.6268  0.6187  0.1028
  311MPD2    C4 4678   0.725   1.851  12.998  0.2836 -0.9425 -0.4486
  311MPD2    C5 4679   0.841   1.804  12.946 -0.0823  0.3107  0.1228
  311MPD2     H 4680   0.780   2.182  12.971  1.2044 -0.4452  0.1395
  311MPD2    H1 4681   0.651   1.780  13.033  0.1480 -0.3681  0.4336
  311MPD2    H2 4682   1.021   1.847  12.838 -0.7181 -2.8875  0.4946
  311MPD2    H3 4683   0.862   1.698  12.937  0.4065  0.4944 -0.8518
  311MPD2     N 4684   0.573   2.044  13.041 -0.3594  0.1954  0.1357
  311MPD2    H5 4685   0.576   2.141  13.069 -0.1447 -0.8393  3.6878
  311MPD2    N1 4686   0.993   2.132  12.852  0.2317 -0.0734  0.5167
  311MPD2    H7 4687   0.958   2.227  12.841  2.0207  0.7948  2.1990
  312TMC3    C1 4688   0.356   2.066  13.123  0.2017  0.4017  0.4398
  312TMC3    C2 4689   0.240   1.995  13.123 -0.2810 -0.1486  1.3784
  312TMC3    C3 4690   0.128   2.082  13.125 -0.3721 -0.8343  0.5206
  312TMC3    C4 4691   0.368   2.203  13.136  0.3734 -0.2411  0.1863
  312TMC3    C5 4692   0.256   2.274  13.162 -0.3471  0.9222  0.5386
  312TMC3    C6 4693   0.135   2.215  13.153 -0.3843 -0.0747 -0.1064
  312TMC3     C 4694   0.467   1.979  13.085 -0.1123 -0.2265  0.3347
  312TMC3     O 4695   0.446   1.864  13.046 -0.0330  0.3928 -0.1412
  312TMC3     H 4696   0.232   1.888  13.112  1.3564 -0.0689 -0.7381
  312TMC3    H1 4697   0.462   2.257  13.137  1.2889 -1.8608  2.0330
  312TMC3    H2 4698   0.040   2.265  13.164 -0.2479  0.7553 -2.6548
  312TMC3    C7 4699   0.266   2.410  13.188 -0.3144 -0.4841  0.0792
  312TMC3    C8 4700   0.001   2.022  13.096  0.0572  0.1931  0.3894
  312TMC3    O1 4701   0.176   2.480  13.147 -0.4922 -0.3260  0.0574
  312TMC3    O2 4702   4.701   1.912  13.142  0.2134  0.9474 -0.1193
  313MPD2     C 4703   0.517   1.098  10.570 -0.4600  0.1225 -0.0629
  313MPD2    C1 4704   0.399   1.053  10.624 -0.4418  0.8361  0.7803
  313MPD2    C2 4705   0.330   0.947  10.562 -0.2010 -0.4134 -0.5758
  313MPD2    C3 4706   0.386   0.885  10.457 -0.3106 -0.3517 -1.2106
  313MPD2    C4 4707   0.505   0.935  10.398  0.3749 -0.3541 -0.7705
  313MPD2    C5 4708   0.566   1.040  10.456 -0.0502  0.8325 -0.2172
  313MPD2     H 4709   0.231   0.916  10.592 -0.5938  0.6918 -0.6973
  313MPD2    H1 4710   0.555   0.900  10.309  1.6504 -2.4150  0.7535
  313MPD2    H2 4711   0.568   1.188  10.602 -0.3850  0.0366  0.0591
  313MPD2    H3 4712   0.663   1.075  10.422  0.3965  2.0324  2.2671
  313MPD2     N 4713   0.315   0.776  10.402  0.5620 -0.3169  0.3001
  313MPD2    H5 4714   0.228   0.749  10.447  0.5669 -0.1080  0.4366
  313MPD2    N1 4715   0.340   1.122  10.734 -0.0822 -0.5656 -0.0696
  313MPD2    H7 4716   0.240   1.107  10.740 -0.4047  1.7654  0.2008
  314TMC3    C1 4717   0.328   1.306  10.884 -0.7313  0.7053  0.1320
  314TMC3    C2 4718   0.412   1.388  10.955  0.1030 -0.5022  0.3263
  314TMC3    C3 4719   0.381   1.522  10.961  0.0872  0.3190  0.4372
  314TMC3    C4 4720   0.215   1.353  10.824  0.1268  0.1323  0.0501
  314TMC3    C5 4721   0.189   1.487  10.838 -0.0670 -0.0522 -0.0900
  314TMC3    C6 4722   0.264   1.577  10.906 -0.6219 -0.6016  0.1771
  314TMC3     C 4723   0.404   1.200  10.829 -0.0143  0.6325 -0.1198
  314TMC3     O 4724   0.525   1.185  10.853 -0.3644 -0.0677 -0.5245
  314TMC3     H 4725   0.504   1.349  10.996  0.8569  1.7607  0.7967
  314TMC3    H1 4726   0.165   1.288  10.753  0.7902  0.7653 -0.9938
  314TMC3    H2 4727   0.247   1.684  10.908  2.9474 -0.0728  2.0319
  314TMC3    C7 4728   0.097   1.539  10.743 -0.2107  0.2569 -0.4784
  314TMC3    C8 4729   0.471   1.622  11.019 -0.4156 -0.1525 -0.2966
  314TMC3    O1 4730   0.014   1.461  10.695  0.1127  0.0490 -0.4834
  314TMC3    O2 4731   0.424   1.725  11.054  0.2451  0.4760 -0.2570
  315MPD2     C 4732   4.653   1.283   0.630 -0.0954  0.3652 -0.8018
  315MPD2    C1 4733   0.041   1.278   0.716  0.4595 -0.3076 -0.3492
  315MPD2    C2 4734   0.116   1.388   0.743  0.1650 -0.7559 -0.2070
  315MPD2    C3 4735   0.091   1.508   0.682  0.6840 -0.3753 -0.4904
  315MPD2    C4 4736   4.710   1.513   0.586 -0.2681  0.2278 -0.5944
  315MPD2    C5 4737   4.630   1.402   0.557 -0.0292  0.5986  0.2475
  315MPD2     H 4738   0.205   1.365   0.801  0.0181  1.9478  1.0690
  315MPD2    H1 4739   4.676   1.605   0.539  0.4046 -0.5967 -2.7157
  315MPD2    H2 4740   4.590   1.198   0.605  1.1995 -0.2028 -2.1428
  315MPD2    H3 4741   4.548   1.409   0.486  0.8607  1.6693 -0.6790
  315MPD2     N 4742   0.184   1.619   0.705  0.6550  0.0793 -0.4973
  315MPD2    H5 4743   0.273   1.605   0.751  1.0263 -1.5638 -1.7133
  315MPD2    N1 4744   0.084   1.162   0.781  1.0269 -0.5196 -0.2589
  315MPD2    H7 4745   0.172   1.166   0.831 -0.3586 -2.3724  2.3306
  316TMC3    C1 4746   0.303   1.824   0.660 -0.3259 -0.1639 -0.1333
  316TMC3    C2 4747   0.394   1.804   0.761  0.2094  0.4940  0.6893
  316TMC3    C3 4748   0.496   1.894   0.770  0.5116 -0.0464 -0.1615
  316TMC3    C4 4749   0.302   1.925   0.571 -0.9054 -0.1381 -0.2599
  316TMC3    C5 4750   0.407   2.016   0.580 -0.4918  0.0288 -0.9378
  316TMC3    C6 4751   0.502   1.999   0.683 -0.0934  1.0583  0.2710
  316TMC3     C 4752   0.180   1.737   0.634  0.1070 -0.4108 -0.2542
  316TMC3     O 4753   0.092   1.787   0.566 -0.0289 -0.2286 -0.0700
  316TMC3     H 4754   0.385   1.724   0.833 -0.2516  0.3591  0.4860
  316TMC3    H1 4755   0.251   1.917   0.476 -0.3506  1.3398 -0.6669
  316TMC3    H2 4756   0.581   2.073   0.689  2.3283 -1.5080 -0.1297
  316TMC3    C7 4757   0.437   2.102   0.471 -0.5531 -0.9493  0.1675
  316TMC3    C8 4758   0.606   1.874   0.861 -1.6249  0.9337  1.0096
  316TMC3    O1 4759   0.537   2.172   0.480 -0.5962  0.5500 -0.2478
  316TMC3    O2 4760   0.659   1.974   0.911 -0.3668 -0.6241 -0.0920
  317MPD2     C 4761   1.765   4.149  12.845  0.9492  0.1192  0.2790
  317MPD2    C1 4762   1.852   4.047  12.815  0.4736 -0.4515  0.1378
  317MPD2    C2 4763   1.940   4.014  12.911 -0.2477 -0.0952 -0.2353
  317MPD2    C3 4764   1.948   4.078  13.029 -0.0282 -0.4056  0.3331
  317MPD2    C4 4765   1.877   4.191  13.046  0.2608 -0.2759 -0.1405
  317MPD2    C5 4766   1.786   4.231  12.957 -0.6672  1.0436 -0.4445
  317MPD2     H 4767   2.007   3.929  12.910  0.1756  0.2363  0.2952
  317MPD2    H1 4768   1.880   4.237  13.144  1.7447  3.2694 -1.8323
  317MPD2    H2 4769   1.691   4.184  12.774  0.4230 -1.2961  0.1327
  317MPD2    H3 4770   1.713   4.307  12.981 -0.2336  2.3921 -3.3466
  317MPD2     N 4771   2.028   4.024  13.123 -0.3611  0.5648 -0.4595
  317MPD2    H5 4772   2.074   3.936  13.100 -0.7780  0.3538 -0.4740
  317MPD2    N1 4773   1.862   3.975  12.693  0.3142  0.0436 -0.1535
  317MPD2    H7 4774   1.931   3.902  12.679 -0.0748 -0.6787  1.6346
  318TMC3    C1 4775   2.114   3.975  13.344  0.3870 -0.3638 -0.2694
  318TMC3    C2 4776   2.068   3.847  13.334  0.0693  0.1308  0.5050
  318TMC3    C3 4777   2.129   3.760  13.419 -0.7682 -0.5411  0.1286
  318TMC3    C4 4778   2.219   4.014  13.419 -0.1429 -0.4075 -0.0504
  318TMC3    C5 4779   2.278   3.912  13.497 -0.0551 -0.3776  0.1701
  318TMC3    C6 4780   2.241   3.783  13.503 -1.0519 -0.7836 -0.5225
  318TMC3     C 4781   2.050   4.073  13.253 -0.9426  0.3956  0.0443
  318TMC3     O 4782   2.021   4.176  13.306  0.4798  0.3270 -0.2901
  318TMC3     H 4783   1.988   3.825  13.264  0.1603  2.2664 -0.2745
  318TMC3    H1 4784   2.255   4.116  13.416  1.3501 -0.9322 -0.0638
  318TMC3    H2 4785   2.294   3.703  13.553 -0.6817  0.0226  0.3743
  318TMC3    C7 4786   2.396   3.949  13.579 -0.0333 -0.3920 -0.4825
  318TMC3    C8 4787   2.075   3.627  13.430  1.0234  0.4374 -0.6334
  318TMC3    O1 4788   2.384   4.057  13.641 -0.6934 -0.0456 -0.1539
  318TMC3    O2 4789   2.148   3.553  13.490 -0.3817 -0.0441 -0.2949
  319MPD2     C 4790   3.244   0.646  16.591  0.2356  0.4408  0.0702
  319MPD2    C1 4791   3.147   0.578  16.656  0.6595  0.3016  0.5698
  319MPD2    C2 4792   3.017   0.560  16.595 -0.1643  0.1179 -1.3242
  319MPD2    C3 4793   2.991   0.613  16.470 -0.5151  0.7446  0.3207
  319MPD2    C4 4794   3.087   0.688  16.416  0.2768 -0.0598 -0.8829
  319MPD2    C5 4795   3.211   0.704  16.472 -0.2490 -0.0089 -0.6676
  319MPD2     H 4796   2.935   0.517  16.651  1.3692  0.1129  0.9477
  319MPD2    H1 4797   3.069   0.736  16.320 -2.4863 -0.2458 -0.4561
  319MPD2    H2 4798   3.335   0.678  16.641  0.9431 -2.3764  0.5632
  319MPD2    H3 4799   3.280   0.771  16.422  1.1521 -0.4030  0.7299
  319MPD2     N 4800   2.857   0.606  16.416  0.1245  0.1777  0.0400
  319MPD2    H5 4801   2.789   0.558  16.474 -0.0126 -0.3924 -0.6049
  319MPD2    N1 4802   3.174   0.523  16.786  0.4123 -0.3185  0.4424
  319MPD2    H7 4803   3.098   0.476  16.834 -0.1215 -0.6714 -0.7574
  320TMC3    C1 4804   2.679   0.653  16.276  0.1527  0.1466 -0.1276
  320TMC3    C2 4805   2.631   0.754  16.196 -0.7420  0.1346  0.0888
  320TMC3    C3 4806   2.503   0.749  16.139  0.2022  0.6832  0.0129
  320TMC3    C4 4807   2.614   0.533  16.283  0.0184  0.5001 -0.9134
  320TMC3    C5 4808   2.490   0.527  16.226  0.1344  0.0294  0.2658
  320TMC3    C6 4809   2.426   0.633  16.164  0.0116 -0.1143 -0.0533
  320TMC3     C 4810   2.821   0.659  16.294  0.3200 -0.0317 -0.2383
  320TMC3     O 4811   2.892   0.696  16.201 -0.1229  0.4013  1.1722
  320TMC3     H 4812   2.691   0.843  16.183  1.0052 -1.0476  0.1209
  320TMC3    H1 4813   2.669   0.444  16.313  0.6580  1.2051 -0.0096
  320TMC3    H2 4814   2.320   0.632  16.145 -0.2566  2.6474  1.3811
  320TMC3    C7 4815   2.411   0.410  16.243  0.4920  0.6073 -0.4322
  320TMC3    C8 4816   2.443   0.881  16.106 -0.2949  0.4780  0.4433
  320TMC3    O1 4817   2.329   0.380  16.160  0.7993  0.0731 -0.5947
  320TMC3    O2 4818   2.501   0.975  16.148 -0.2665  0.1005 -0.2591
  321TMC3    C1 4819   3.277   0.506  16.990  0.8736 -0.6530  0.4559
  321TMC3    C2 4820   3.401   0.516  17.056  0.0865 -0.1421 -0.4759
  321TMC3    C3 4821   3.406   0.602  17.161  0.5359 -0.3265  0.7983
  321TMC3    C4 4822   3.158   0.569  17.038 -0.7613  0.5109  0.3742
  321TMC3    C5 4823   3.175   0.655  17.144  0.0538 -0.1090  0.0236
  321TMC3    C6 4824   3.298   0.674  17.195  0.6274 -0.3527 -0.7246
  321TMC3     C 4825   3.292   0.522  16.846  0.1227 -0.6310  0.5452
  321TMC3     O 4826   3.405   0.535  16.803  0.4697  0.1600 -0.0639
  321TMC3     H 4827   3.494   0.474  17.020 -0.3399  0.6924 -2.5477
  321TMC3    H1 4828   3.057   0.556  17.004 -0.6407 -1.7078  0.8604
  321TMC3    H2 4829   3.305   0.741  17.280  1.6236  0.0953 -1.1591
  321TMC3    C7 4830   3.075   0.630  17.254  0.3145 -0.6129  0.2467
  321TMC3    C8 4831   3.480   0.554  17.271  0.2566 -0.7152 -0.2628
  321TMC3    O1 4832   2.961   0.619  17.220  0.0053 -0.4186 -0.6427
  321TMC3    O2 4833   3.420   0.563  17.378 -0.1324  0.5639 -0.3316
  322MPD2     C 4834   1.559   1.728  13.729 -0.5288  0.2124 -0.4205
  322MPD2    C1 4835   1.574   1.617  13.818 -0.0089  0.3999  0.0966
  322MPD2    C2 4836   1.629   1.501  13.770  0.4554  0.3638  0.1829
  322MPD2    C3 4837   1.678   1.497  13.637 -0.0237 -0.1791 -0.1180
  322MPD2    C4 4838   1.664   1.604  13.549  0.1939  0.5717  0.0496
  322MPD2    C5 4839   1.605   1.713  13.599  0.3681  0.1251  0.2465
  322MPD2     H 4840   1.656   1.414  13.830 -1.1807 -1.3014 -1.5163
  322MPD2    H1 4841   1.681   1.607  13.442  1.3727 -1.3964  0.1872
  322MPD2    H2 4842   1.510   1.821  13.755  0.4688  0.1058  1.8483
  322MPD2    H3 4843   1.589   1.800  13.535 -1.9567 -0.8226 -0.4521
  322MPD2     N 4844   1.746   1.378  13.594  0.0754  0.3574 -0.5376
  322MPD2    H5 4845   1.751   1.295  13.652 -0.6565 -0.4092 -1.5792
  322MPD2    N1 4846   1.557   1.656  13.955  0.5578  0.7206  0.6737
  322MPD2    H7 4847   1.548   1.757  13.966  2.6351  1.0080 -0.1076
  323TMC3    C1 4848   1.564   1.624  14.187  0.0438 -0.0916 -0.0203
  323TMC3    C2 4849   1.561   1.760  14.210  0.1611  0.0532 -0.3326
  323TMC3    C3 4850   1.600   1.797  14.338 -0.0234  0.1754 -0.6868
  323TMC3    C4 4851   1.599   1.529  14.279  0.2352 -0.3849  0.2776
  323TMC3    C5 4852   1.639   1.577  14.402  0.0678 -0.6605 -0.2292
  323TMC3    C6 4853   1.629   1.708  14.433  0.3283  0.7844  0.8419
  323TMC3     C 4854   1.538   1.565  14.057  0.0144 -0.6119  0.0145
  323TMC3     O 4855   1.527   1.442  14.042  0.6980  0.4021 -0.3562
  323TMC3     H 4856   1.550   1.834  14.131  2.5653  0.5108 -0.2414
  323TMC3    H1 4857   1.617   1.427  14.247  1.1125 -0.1522  0.0294
  323TMC3    H2 4858   1.644   1.734  14.537  0.6830 -0.3889  1.0920
  323TMC3    C7 4859   1.757   1.508  14.449 -0.0097 -0.1189 -0.5165
  323TMC3    C8 4860   1.717   1.884  14.342  0.0833 -0.0462  0.3213
  323TMC3    O1 4861   1.776   1.391  14.419 -0.2384  0.0555  0.1606
  323TMC3    O2 4862   1.791   1.862  14.438  0.3261 -0.1961 -0.3306
  324MPD2     C 4863   3.742   2.496  14.801 -1.1211 -0.3166  0.3830
  324MPD2    C1 4864   3.774   2.626  14.772  0.0290  0.0634 -0.7345
  324MPD2    C2 4865   3.694   2.700  14.686  0.4525  0.0255 -1.3512
  324MPD2    C3 4866   3.574   2.645  14.643 -0.5286 -0.0878  0.3839
  324MPD2    C4 4867   3.545   2.512  14.663 -0.1398 -0.1556 -0.2132
  324MPD2    C5 4868   3.637   2.439  14.732 -0.1799 -0.3558  0.1299
  324MPD2     H 4869   3.723   2.804  14.672  2.1534 -0.1951  0.4947
  324MPD2    H1 4870   3.454   2.463  14.629  0.5037 -0.7241 -1.1221
  324MPD2    H2 4871   3.809   2.432  14.857  0.8947  0.5685 -0.9663
  324MPD2    H3 4872   3.610   2.335  14.747  1.1494 -0.5831  0.9204
  324MPD2     N 4873   3.476   2.715  14.565 -0.2121 -0.2198  0.0833
  324MPD2    H5 4874   3.396   2.656  14.545 -1.1383  0.8431  0.6444
  324MPD2    N1 4875   3.887   2.686  14.831  0.1874 -0.2597 -0.0250
  324MPD2    H7 4876   3.912   2.775  14.790  1.7078  0.2936  2.1384
  325TMC3    C1 4877   3.366   2.883  14.463  0.7606 -0.1329  0.4640
  325TMC3    C2 4878   3.249   2.820  14.497  0.0576  0.1592 -0.2348
  325TMC3    C3 4879   3.133   2.882  14.475 -0.0392  0.0044 -0.3480
  325TMC3    C4 4880   3.359   3.006  14.410  0.4002  0.2074 -0.4392
  325TMC3    C5 4881   3.240   3.057  14.371  0.5696  0.3724  0.3818
  325TMC3    C6 4882   3.122   2.997  14.393  0.3705 -0.0084 -0.6017
  325TMC3     C 4883   3.486   2.840  14.520  0.2467 -0.0871 -0.3359
  325TMC3     O 4884   3.576   2.922  14.534  0.1435  0.2390 -0.4378
  325TMC3     H 4885   3.253   2.726  14.550 -2.7923  0.3511  0.3203
  325TMC3    H1 4886   3.449   3.064  14.393  1.0468 -0.9276 -0.8664
  325TMC3    H2 4887   3.030   3.030  14.345 -0.4826  0.6479  1.4912
  325TMC3    C7 4888   3.238   3.191  14.307 -0.4192 -0.3467 -0.1717
  325TMC3    C8 4889   3.015   2.800  14.479 -0.3019 -0.3545 -0.3372
  325TMC3    O1 4890   3.341   3.217  14.252  0.0815 -0.8619 -0.5264
  325TMC3    O2 4891   3.032   2.679  14.477 -0.2240 -0.3008 -0.5111
  326MPD2     C 4892   4.529   3.612  11.350  0.1194 -0.1087 -0.0346
  326MPD2    C1 4893   4.566   3.617  11.215  0.4688 -0.1307 -0.4253
  326MPD2    C2 4894   4.656   3.714  11.167  0.2849 -0.6140  0.6627
  326MPD2    C3 4895   4.705   3.812  11.255  0.1754 -0.2093  0.4440
  326MPD2    C4 4896   4.664   3.806  11.387 -0.0246  0.0789 -0.7609
  326MPD2    C5 4897   4.578   3.709  11.432  0.5660 -0.4194  0.2789
  326MPD2     H 4898   4.670   3.719  11.059 -1.1730 -1.6704  0.4229
  326MPD2    H1 4899   4.693   3.878  11.462 -0.8983 -1.2233  0.8169
  326MPD2    H2 4900   4.467   3.533  11.390 -0.9224  0.9264  0.3818
  326MPD2    H3 4901   4.554   3.712  11.538  0.5754  3.3263  0.1975
  326MPD2     N 4902   0.064   3.924  11.225  0.9261 -0.3095  0.2871
  326MPD2    H5 4903   0.080   3.993  11.298 -0.4525  0.1695  0.1323
  326MPD2    N1 4904   4.513   3.528  11.119 -0.4660  0.0765  0.0111
  326MPD2    H7 4905   4.421   3.487  11.133 -1.4525  2.1877 -0.3861
  327TMC3    C1 4906   4.498   3.460  10.892  0.0341  0.2274  0.6929
  327TMC3    C2 4907   4.407   3.563  10.866 -0.6312  0.3555  0.0424
  327TMC3    C3 4908   4.418   3.628  10.741  0.6291 -0.0948  0.7082
  327TMC3    C4 4909   4.576   3.404  10.795  0.1686  0.4364  0.1237
  327TMC3    C5 4910   4.586   3.473  10.679  0.1522 -0.9278 -0.3255
  327TMC3    C6 4911   4.509   3.582  10.645  0.4513  0.4634  0.1254
  327TMC3     C 4912   4.580   3.486  11.009 -0.5312 -0.4053  0.6447
  327TMC3     O 4913   4.704   3.481  10.999 -0.7440  0.0255 -0.2342
  327TMC3     H 4914   4.359   3.610  10.951  0.3433 -0.1300  0.8586
  327TMC3    H1 4915   4.637   3.317  10.815  2.0107  1.2688 -1.9346
  327TMC3    H2 4916   4.505   3.615  10.542  0.2100  0.4789  0.1407
  327TMC3    C7 4917   0.007   3.494  10.632  0.5247  1.2068 -0.5991
  327TMC3    C8 4918   4.366   3.756  10.715  0.3498  0.8901  0.4630
  327TMC3    O1 4919   0.018   3.527  10.518 -0.2018 -0.1606 -0.5718
  327TMC3    O2 4920   4.420   3.820  10.626  0.6446 -0.0753  0.3941
  328MPD2     C 4921   2.211   4.237  17.369 -0.1856 -0.3289 -0.3297
  328MPD2    C1 4922   2.135   4.171  17.282 -0.2655  0.2388 -0.4612
  328MPD2    C2 4923   2.098   4.229  17.161 -0.1322  0.4607  0.2002
  328MPD2    C3 4924   2.143   4.353  17.135 -0.4224  0.2219 -0.5120
  328MPD2    C4 4925   2.235   4.416  17.216 -0.6009  0.3822 -0.3673
  328MPD2    C5 4926   2.267   4.357  17.338 -0.0091 -0.5992 -0.7653
  328MPD2     H 4927   2.041   4.177  17.085 -1.2663  0.2430  1.1964
  328MPD2    H1 4928   2.269   4.518  17.208 -0.1149  0.2818  0.4611
  328MPD2    H2 4929   2.236   4.204  17.470 -0.6415  0.0699 -0.0844
  328MPD2    H3 4930   2.336   4.394  17.412 -0.6240 -1.5387  0.2832
  328MPD2     N 4931   2.088   4.434  17.034 -0.6258 -0.1278  0.2370
  328MPD2    H5 4932   2.107   4.533  17.034  1.6031 -0.5585 -0.5107
  328MPD2    N1 4933   2.075   4.057  17.331 -0.1011  0.3347  0.1688
  328MPD2    H7 4934   2.083   4.038  17.430 -0.3658 -2.1896 -0.3081
  329TMC3    C1 4935   1.932   3.876  17.349  0.5530  0.5684  0.1259
  329TMC3    C2 4936   1.838   3.941  17.419 -0.2414  1.3039 -0.0042
  329TMC3    C3 4937   1.709   3.903  17.433 -0.0788  0.4287  0.0688
  329TMC3    C4 4938   1.905   3.761  17.282 -0.7023  0.5523  0.5138
  329TMC3    C5 4939   1.774   3.722  17.287 -0.3951 -0.7808  1.1138
  329TMC3    C6 4940   1.678   3.789  17.367  0.6072  0.5336 -0.3976
  329TMC3     C 4941   2.008   3.963  17.263  0.0018  0.1151  0.0053
  329TMC3     O 4942   1.992   3.952  17.142 -0.6091 -0.1999  0.3453
  329TMC3     H 4943   1.859   4.042  17.453  0.6935  1.8010 -2.0786
  329TMC3    H1 4944   1.980   3.725  17.213 -0.8795  4.0426 -1.5077
  329TMC3    H2 4945   1.576   3.753  17.366  0.1685  1.8134 -1.5971
  329TMC3    C7 4946   1.714   3.635  17.189  0.2454 -0.3445  0.3019
  329TMC3    C8 4947   1.600   3.995  17.442 -0.1596  0.6569 -0.5725
  329TMC3    O1 4948   1.593   3.643  17.167  0.4195 -0.2066 -0.1162
  329TMC3    O2 4949   1.497   3.966  17.385 -0.2197  0.1448  0.2276
  330TMC3    C1 4950   0.681   2.788  10.140 -0.0381  0.6101  0.2780
  330TMC3    C2 4951   0.593   2.687  10.108  0.5954 -0.3552  0.3544
  330TMC3    C3 4952   0.486   2.666  10.186 -0.2583 -0.4938 -0.4452
  330TMC3    C4 4953   0.669   2.847  10.259  0.2130 -0.5690  0.9269
  330TMC3    C5 4954   0.567   2.823  10.335  0.2386  0.3495 -0.4882
  330TMC3    C6 4955   0.470   2.733  10.304 -0.1444  0.4570  0.1372
  330TMC3     C 4956   0.771   2.849  10.041  0.4315  0.0136 -0.0276
  330TMC3     O 4957   0.879   2.906  10.074  0.2347  0.9367 -0.0205
  330TMC3     H 4958   0.584   2.659  10.004  0.8128  0.5789  0.0925
  330TMC3    H1 4959   0.730   2.937  10.264 -1.5416  0.7785 -1.8351
  330TMC3    H2 4960   0.384   2.711  10.365  1.5708 -0.9958  2.0245
  330TMC3    C7 4961   0.563   2.873  10.468 -0.0019 -0.5674 -0.1526
  330TMC3    C8 4962   0.377   2.582  10.134 -0.8146  0.5558 -0.2794
  330TMC3    O1 4963   0.463   2.835  10.536 -0.4829 -0.2915 -0.2346
  330TMC3    O2 4964   0.386   2.524  10.028  0.5345  0.0934  0.4265
  331MPD2     C 4965   2.500   2.210  12.660 -0.3305 -0.5746 -0.5542
  331MPD2    C1 4966   2.626   2.248  12.620 -0.2580 -0.2021  0.1441
  331MPD2    C2 4967   2.714   2.147  12.580 -0.5047  0.1897 -0.2116
  331MPD2    C3 4968   2.688   2.010  12.588  0.0190 -0.9195 -0.2357
  331MPD2    C4 4969   2.561   1.977  12.641 -0.3924  0.2862  0.1401
  331MPD2    C5 4970   2.465   2.077  12.663 -0.3028 -0.0663  0.1319
  331MPD2     H 4971   2.815   2.169  12.546  0.7340 -2.1421  2.0008
  331MPD2    H1 4972   2.525   1.876  12.657 -0.7035  0.1853 -1.1763
  331MPD2    H2 4973   2.420   2.279  12.681 -1.2669 -2.1129  0.9103
  331MPD2    H3 4974   2.368   2.042  12.697  0.1517 -0.1401  1.3660
  331MPD2     N 4975   2.785   1.920  12.544 -0.5702 -0.1347  0.1659
  331MPD2    H5 4976   2.871   1.956  12.503  0.3957  0.4193  2.6729
  331MPD2    N1 4977   2.677   2.380  12.614  0.3978  0.0640  0.2088
  331MPD2    H7 4978   2.761   2.387  12.557  0.9446 -0.7840  0.9057
  332TMC3    C1 4979   2.899   1.715  12.513  0.6493 -0.5643 -0.3690
  332TMC3    C2 4980   2.957   1.787  12.413 -0.0318 -0.5796 -0.7156
  332TMC3    C3 4981   3.091   1.765  12.394 -0.0581 -0.4433 -0.3810
  332TMC3    C4 4982   2.964   1.615  12.581 -1.1759 -0.7914 -0.9389
  332TMC3    C5 4983   3.099   1.598  12.555 -0.1169  0.1301 -0.1525
  332TMC3    C6 4984   3.164   1.677  12.466 -0.5604  0.5609 -0.8559
  332TMC3     C 4985   2.790   1.788  12.585 -0.4578 -0.1845  0.2866
  332TMC3     O 4986   2.726   1.733  12.673  0.4517 -0.1499 -0.0205
  332TMC3     H 4987   2.902   1.853  12.347 -0.9982 -1.3741 -0.6856
  332TMC3    H1 4988   2.918   1.567  12.666  1.1083  0.1249  0.8278
  332TMC3    H2 4989   3.271   1.674  12.449 -0.5346  0.7128 -0.7200
  332TMC3    C7 4990   3.157   1.486  12.632 -0.5912  0.3038 -0.1282
  332TMC3    C8 4991   3.167   1.843  12.301  0.5314  0.4282  0.4357
  332TMC3    O1 4992   3.089   1.398  12.684  0.0714  0.1821 -0.4074
  332TMC3    O2 4993   3.275   1.886  12.344 -0.3056 -0.1907 -0.4171
  333MPD2     C 4994   3.327   1.940  11.404  0.4509  0.6033 -0.0777
  333MPD2    C1 4995   3.382   1.844  11.332 -0.4439  0.2156  0.0750
  333MPD2    C2 4996   3.334   1.715  11.342 -0.0556  0.2132 -0.1301
  333MPD2    C3 4997   3.238   1.675  11.427 -0.6380  0.2717 -0.1051
  333MPD2    C4 4998   3.198   1.770  11.517  0.2404  0.6093 -0.1792
  333MPD2    C5 4999   3.238   1.899  11.501 -0.2700  0.0623 -0.0259
  333MPD2     H 5000   3.358   1.641  11.267 -1.0896  0.6299 -0.8869
  333MPD2    H1 5001   3.127   1.750  11.596 -0.0965 -0.4876 -0.7729
  333MPD2    H2 5002   3.351   2.045  11.394  1.8116  0.3532  0.5417
  333MPD2    H3 5003   3.190   1.974  11.563 -1.3694 -1.6653  1.1992
  333MPD2     N 5004   3.192   1.540  11.439  0.1455  0.3957  0.5804
  333MPD2    H5 5005   3.228   1.474  11.371  2.2606  1.6456  0.4658
  333MPD2    N1 5006   3.464   1.883  11.228 -0.1797  0.8104  0.8816
  333MPD2    H7 5007   3.484   1.982  11.237 -4.6448  1.7185  0.9171
  334TMC3    C1 5008   3.595   1.889  11.035  0.1420 -0.0151  0.3108
  334TMC3    C2 5009   3.714   1.839  10.983 -0.6020  0.6795  0.3477
  334TMC3    C3 5010   3.797   1.919  10.911 -0.1698 -0.0771 -0.3547
  334TMC3    C4 5011   3.562   2.019  11.013 -0.0832 -0.5410  0.6893
  334TMC3    C5 5012   3.643   2.091  10.938  0.4659  0.4221 -0.0927
  334TMC3    C6 5013   3.765   2.050  10.885  0.6998  0.2310  0.0967
  334TMC3     C 5014   3.519   1.804  11.129 -0.4048 -0.2813  0.2037
  334TMC3     O 5015   3.521   1.687  11.102 -0.2835  0.3978 -0.5469
  334TMC3     H 5016   3.739   1.734  10.994 -0.3018  0.9933  2.7701
  334TMC3    H1 5017   3.474   2.057  11.062  1.4124  1.2178  2.0063
  334TMC3    H2 5018   3.814   2.118  10.817 -1.1507 -0.6811 -2.1732
  334TMC3    C7 5019   3.602   2.227  10.900  0.9925 -0.1958 -0.6170
  334TMC3    C8 5020   3.917   1.862  10.857 -0.2100  1.3873 -0.1626
  334TMC3    O1 5021   3.686   2.313  10.880 -0.0392  0.4263  0.3194
  334TMC3    O2 5022   3.927   1.742  10.861 -0.3786  0.8428 -0.0122
  335TMC3    C1 5023   2.678   4.476  17.217 -0.0004 -0.2167 -0.4790
  335TMC3    C2 5024   2.601   4.370  17.252 -0.0504 -0.2284 -0.6403
  335TMC3    C3 5025   2.647   4.256  17.308 -0.1150 -0.0044  0.2193
  335TMC3    C4 5026   2.814   4.459  17.238 -0.4113  0.4239 -0.2268
  335TMC3    C5 5027   2.860   4.340  17.288 -0.4037  0.3540  0.2268
  335TMC3    C6 5028   2.785   4.236  17.324 -0.4392 -0.0891  0.2142
  335TMC3     C 5029   2.625   4.606  17.238 -0.5278  0.1207 -0.0947
  335TMC3     O 5030   2.525   4.617  17.307  0.6011  0.0334 -0.7499
  335TMC3     H 5031   2.495   4.392  17.256 -0.2712 -0.9002 -2.5467
  335TMC3    H1 5032   2.880   4.542  17.216  1.5249 -0.9917  0.2391
  335TMC3    H2 5033   2.828   4.145  17.364  0.5587  0.1463 -0.3162
  335TMC3    C7 5034   3.000   4.329  17.334  0.6762 -0.6573  0.2023
  335TMC3    C8 5035   2.574   4.128  17.302  0.0054 -0.4421 -0.4644
  335TMC3    O1 5036   3.088   4.387  17.272 -0.6852 -0.0333 -0.0790
  335TMC3    O2 5037   2.604   4.045  17.384 -0.1090  0.3224  0.1388
  336MPD2     C 5038   2.549   1.994  16.563  0.5594 -0.3694 -0.5620
  336MPD2    C1 5039   2.551   1.925  16.443 -0.2687  0.1170  0.2187
  336MPD2    C2 5040   2.544   1.784  16.438 -0.0692 -0.5627 -0.5220
  336MPD2    C3 5041   2.575   1.717  16.556  0.4316 -0.1875 -0.2633
  336MPD2    C4 5042   2.585   1.792  16.676 -0.1211  0.2963  0.1268
  336MPD2    C5 5043   2.564   1.926  16.679 -0.1442 -0.4666  0.4054
  336MPD2     H 5044   2.538   1.739  16.340  0.0469  2.7286 -2.0592
  336MPD2    H1 5045   2.606   1.740  16.769  0.8939 -0.4531 -0.5119
  336MPD2    H2 5046   2.527   2.099  16.578  1.6272 -0.4370  1.4653
  336MPD2    H3 5047   2.553   1.982  16.771  0.0388 -2.1785  1.4919
  336MPD2     N 5048   2.591   1.575  16.561  0.4561 -0.0350 -0.3553
  336MPD2    H5 5049   2.598   1.534  16.654 -1.9189  2.8206  1.1118
  336MPD2    N1 5050   2.533   1.997  16.316 -0.5002  0.0598 -0.1384
  336MPD2    H7 5051   2.524   1.933  16.238  0.4575 -0.8497  0.4883
  337TMC3    C1 5052   2.501   2.191  16.183 -0.1033  0.0572  0.5218
  337TMC3    C2 5053   2.401   2.131  16.114  0.0365 -0.6392 -0.0971
  337TMC3    C3 5054   2.346   2.193  16.007 -0.3208  0.5706  0.4903
  337TMC3    C4 5055   2.523   2.322  16.168  0.1032  0.0098 -0.2597
  337TMC3    C5 5056   2.461   2.389  16.067  0.2271  0.6685 -0.2599
  337TMC3    C6 5057   2.381   2.323  15.976  0.6732  0.3239  0.0205
  337TMC3     C 5058   2.532   2.135  16.308  0.2083  0.4658 -0.6932
  337TMC3     O 5059   2.581   2.208  16.393  0.0803 -0.5725 -0.3707
  337TMC3     H 5060   2.365   2.031  16.136  1.6012 -1.1331  0.2540
  337TMC3    H1 5061   2.606   2.374  16.215 -1.1673  1.8495 -0.0277
  337TMC3    H2 5062   2.320   2.382  15.909 -1.8606 -2.6605 -0.2788
  337TMC3    C7 5063   2.464   2.530  16.048  0.7599  0.5576 -0.8521
  337TMC3    C8 5064   2.209   2.153  15.967 -0.2440  0.0214 -0.4946
  337TMC3    O1 5065   2.438   2.571  15.934  0.7238  0.2617 -0.2293
  337TMC3    O2 5066   2.167   2.051  16.020  0.7248 -0.1550 -0.1652
  338MPD2     C 5067   3.012   1.235   1.258 -0.4354  0.0980 -0.6949
  338MPD2    C1 5068   2.922   1.167   1.180 -0.0776 -0.1309 -0.1950
  338MPD2    C2 5069   2.786   1.203   1.173 -0.2990 -0.6662  0.6221
  338MPD2    C3 5070   2.741   1.308   1.249  0.2647  0.1855  0.1774
  338MPD2    C4 5071   2.832   1.379   1.326 -0.1256  0.4733  0.3450
  338MPD2    C5 5072   2.966   1.342   1.332 -0.3400  0.4267 -0.5554
  338MPD2     H 5073   2.725   1.157   1.096 -0.6775 -0.0917  0.5805
  338MPD2    H1 5074   2.810   1.470   1.380  1.5982  1.8451 -1.3125
  338MPD2    H2 5075   3.117   1.208   1.264 -0.0009  1.5327 -1.7486
  338MPD2    H3 5076   3.034   1.403   1.391  0.7926 -0.3902 -1.0140
  338MPD2     N 5077   2.605   1.346   1.237 -0.3337 -0.8657  0.2908
  338MPD2    H5 5078   2.548   1.308   1.163  0.2616 -0.6422 -0.2832
  338MPD2    N1 5079   2.958   1.061   1.096 -0.2596  0.6027 -0.0425
  338MPD2    H7 5080   2.882   1.032   1.035  1.6519 -0.5235 -1.9029
  339TMC3    C1 5081   2.384   1.412   1.317  0.0675  1.0050 -0.5063
  339TMC3    C2 5082   2.304   1.412   1.430  0.3764 -0.1800  0.5458
  339TMC3    C3 5083   2.168   1.400   1.403 -1.2465  0.4401 -0.6429
  339TMC3    C4 5084   2.337   1.409   1.189 -0.3177 -0.2177  0.2753
  339TMC3    C5 5085   2.202   1.407   1.171 -0.1894 -0.2491  0.2338
  339TMC3    C6 5086   2.119   1.394   1.274  0.2958  0.4110 -0.1051
  339TMC3     C 5087   2.530   1.401   1.342  0.0569 -0.1564 -0.0678
  339TMC3     O 5088   2.563   1.423   1.455 -0.2760 -0.1105  0.5428
  339TMC3     H 5089   2.331   1.427   1.534 -1.6370  1.9045  0.7487
  339TMC3    H1 5090   2.408   1.425   1.109  1.2066 -1.0493  1.4653
  339TMC3    H2 5091   2.013   1.371   1.271  0.3420  0.2687 -0.5401
  339TMC3    C7 5092   2.159   1.359   1.041 -0.5054  0.2089 -0.1102
  339TMC3    C8 5093   2.070   1.350   1.503  0.0087  0.6376 -0.3434
  339TMC3    O1 5094   2.231   1.272   0.990 -0.2401 -0.2022  0.2380
  339TMC3    O2 5095   1.953   1.363   1.473  0.1105  0.6805 -0.2654
  340MPD2     C 5096   2.996   2.996   9.926  0.1400 -0.7333  0.1928
  340MPD2    C1 5097   3.112   2.980   9.862 -0.1079  0.7454 -0.3344
  340MPD2    C2 5098   3.181   3.083   9.805 -0.0770 -0.2604 -0.7353
  340MPD2    C3 5099   3.139   3.211   9.829 -0.2673  0.2124 -0.3191
  340MPD2    C4 5100   3.023   3.236   9.903 -0.3832  0.8141 -0.0834
  340MPD2    C5 5101   2.954   3.126   9.945 -0.4059 -0.2469 -0.4985
  340MPD2     H 5102   3.273   3.062   9.751  0.7115  3.8615 -0.9989
  340MPD2    H1 5103   2.978   3.332   9.922  0.3631  1.1019  0.2246
  340MPD2    H2 5104   2.948   2.909   9.970 -1.8190 -1.3519 -3.2159
  340MPD2    H3 5105   2.877   3.137  10.020  0.5317  3.6972 -0.1134
  340MPD2     N 5106   3.221   3.322   9.798  0.3523 -0.0039 -0.4999
  340MPD2    H5 5107   3.198   3.410   9.844  0.9810 -0.3391  0.4578
  340MPD2    N1 5108   3.156   2.849   9.863  0.3946  0.7195 -0.1924
  340MPD2    H7 5109   3.088   2.787   9.906 -0.5916  0.8874 -1.5222
  341TMC3    C1 5110   3.295   2.668   9.846 -1.0367 -0.4145  0.2958
  341TMC3    C2 5111   3.225   2.606   9.946 -1.1068 -0.6354 -0.4185
  341TMC3    C3 5112   3.226   2.472   9.959  0.5897  0.0371  0.2637
  341TMC3    C4 5113   3.368   2.602   9.763  0.3655 -0.0563  0.6221
  341TMC3    C5 5114   3.370   2.464   9.772 -0.5780 -0.4243  0.6796
  341TMC3    C6 5115   3.302   2.396   9.874 -0.5402 -0.0221 -0.0071
  341TMC3     C 5116   3.283   2.806   9.829  0.2766  0.1114 -0.1675
  341TMC3     O 5117   3.375   2.860   9.768 -0.1625 -0.0215  0.3449
  341TMC3     H 5118   3.189   2.651  10.038  0.4376  1.0021 -0.6123
  341TMC3    H1 5119   3.425   2.658   9.689 -2.9199  0.7215 -1.2960
  341TMC3    H2 5120   3.313   2.290   9.893 -0.3397 -0.3160 -1.7899
  341TMC3    C7 5121   3.490   2.399   9.730 -0.1655 -0.1807 -0.1102
  341TMC3    C8 5122   3.202   2.418  10.090  0.8413  0.3828  0.4815
  341TMC3    O1 5123   3.549   2.327   9.808  0.4168 -0.4065 -0.1594
  341TMC3    O2 5124   3.245   2.480  10.186  0.2299 -0.3076 -0.0271
  342MPD2     C 5125   1.058   2.516   0.417 -0.0193 -0.7964 -0.1988
  342MPD2    C1 5126   1.115   2.550   0.294 -0.9865 -0.3946 -0.0880
  342MPD2    C2 5127   1.144   2.679   0.262  0.2078 -0.1926  0.1851
  342MPD2    C3 5128   1.118   2.777   0.357  0.2856  0.3027 -0.1787
  342MPD2    C4 5129   1.048   2.743   0.472  0.0723  0.3272  0.2105
  342MPD2    C5 5130   1.014   2.616   0.496  0.8005 -0.3008 -0.6155
  342MPD2     H 5131   1.181   2.699   0.162 -0.6927  0.4771 -0.0189
  342MPD2    H1 5132   1.016   2.812   0.550  2.2636 -0.5377  1.8752
  342MPD2    H2 5133   1.035   2.421   0.466  2.9680 -1.2421  0.3834
  342MPD2    H3 5134   0.956   2.603   0.587  0.3710  0.8954 -0.7200
  342MPD2     N 5135   1.147   2.913   0.342 -0.2739 -0.6099 -0.2279
  342MPD2    H5 5136   1.096   2.975   0.403  0.5933 -0.5684  0.4458
  342MPD2    N1 5137   1.137   2.453   0.195 -0.7821 -0.5264  0.2768
  342MPD2    H7 5138   1.137   2.494   0.102  2.8526 -0.5500  0.2879
  343TMC3    C1 5139   1.101   2.243   0.085  0.2549  0.0300 -0.3217
  343TMC3    C2 5140   1.192   2.266  17.656  0.2389 -0.3973 -0.1261
  343TMC3    C3 5141   1.200   2.179  17.550  0.1230 -0.5106  0.1019
  343TMC3    C4 5142   1.015   2.133   0.078 -0.0296  0.1054  0.3118
  343TMC3    C5 5143   1.020   2.056  17.646 -0.3380 -0.2779 -0.2945
  343TMC3    C6 5144   1.114   2.071  17.542 -0.3967  0.0355  0.1740
  343TMC3     C 5145   1.101   2.321   0.205 -0.0343 -0.2930 -0.8538
  343TMC3     O 5146   1.063   2.263   0.306  0.3739 -0.3731  0.2805
  343TMC3     H 5147   1.265   2.344   0.001 -3.1543  2.7374  0.1863
  343TMC3    H1 5148   0.944   2.116   0.158 -1.0725  1.6897 -0.2801
  343TMC3    H2 5149   1.094   2.007  17.456 -0.6028 -2.1870  1.8887
  343TMC3    C7 5150   0.952   1.934  17.657  0.6901  0.4178  0.3666
  343TMC3    C8 5151   1.309   2.196  17.454 -0.0111 -0.4027  0.6860
  343TMC3    O1 5152   0.921   1.871  17.560 -0.4223 -0.0269 -0.0323
  343TMC3    O2 5153   1.375   2.298  17.468 -0.0943  0.0197 -0.0711
  344MPD2     C 5154   1.857   1.382  10.293 -0.4198 -0.0317 -0.1410
  344MPD2    C1 5155   1.989   1.356  10.332 -0.3087 -0.3066  0.0216
  344MPD2    C2 5156   2.083   1.453  10.313 -0.4750 -0.3191 -0.5430
  344MPD2    C3 5157   2.046   1.580  10.258 -0.9012  0.8237 -0.3663
  344MPD2    C4 5158   1.923   1.601  10.208  0.5585 -0.0656 -0.2159
  344MPD2    C5 5159   1.827   1.504  10.233  0.3513 -0.2248 -0.3732
  344MPD2     H 5160   2.183   1.433  10.350  0.1747  1.8633 -1.1528
  344MPD2    H1 5161   1.881   1.688  10.160  2.0002  1.5117  1.3703
  344MPD2    H2 5162   1.778   1.309  10.308  0.8143 -1.2548  0.2885
  344MPD2    H3 5163   1.725   1.518  10.200 -0.2937  2.8736  2.9774
  344MPD2     N 5164   2.138   1.693  10.249  0.1991 -0.4678 -0.1367
  344MPD2    H5 5165   2.108   1.785  10.218  2.3202 -0.1331 -1.1820
  344MPD2    N1 5166   2.041   1.239  10.395 -0.1468  0.6110  0.4227
  344MPD2    H7 5167   2.141   1.234  10.412 -0.4521 -0.5183  1.9223
  345TMC3    C1 5168   2.350   1.809  10.280 -0.4130 -0.4384 -0.3860
  345TMC3    C2 5169   2.466   1.816  10.347  0.2601  0.0489  0.0626
  345TMC3    C3 5170   2.541   1.934  10.328  0.5646  0.2239  0.6956
  345TMC3    C4 5171   2.308   1.899  10.183  0.3805  0.7210  0.2048
  345TMC3    C5 5172   2.391   2.000  10.153 -0.1012 -0.1566 -0.0653
  345TMC3    C6 5173   2.499   2.025  10.236 -0.0364  0.2553  0.1149
  345TMC3     C 5174   2.271   1.684  10.287 -0.5531  0.1553  0.0864
  345TMC3     O 5175   2.339   1.592  10.334 -0.5067  0.0588 -0.1269
  345TMC3     H 5176   2.493   1.744  10.423  0.6816  0.9035  0.7376
  345TMC3    H1 5177   2.211   1.881  10.137  1.4958  1.5363 -2.4281
  345TMC3    H2 5178   2.562   2.110  10.211  0.3469  0.6919  2.5195
  345TMC3    C7 5179   2.357   2.118  10.068  0.0627 -0.2330  0.1352
  345TMC3    C8 5180   2.637   1.982  10.423  1.0591  0.3673  0.4102
  345TMC3    O1 5181   2.459   2.176  10.032 -0.4418 -0.1341  0.3491
  345TMC3    O2 5182   2.704   2.082  10.397 -0.4939 -0.0674  0.0656
  346MPD2     C 5183   1.896   3.621  14.423 -0.5788  0.4184 -0.1199
  346MPD2    C1 5184   1.999   3.584  14.339  0.1784  0.1753 -0.5314
  346MPD2    C2 5185   2.129   3.633  14.371  0.4945  0.3849  0.1004
  346MPD2    C3 5186   2.157   3.695  14.493  0.4978 -0.6370 -0.0135
  346MPD2    C4 5187   2.047   3.735  14.569 -0.0820  0.3244 -0.0781
  346MPD2    C5 5188   1.920   3.695  14.537 -0.0102  0.5982  0.3329
  346MPD2     H 5189   2.212   3.607  14.306 -0.6510 -0.9400 -0.8297
  346MPD2    H1 5190   2.062   3.785  14.664  0.1154  0.7400 -0.3295
  346MPD2    H2 5191   1.800   3.571  14.430 -1.4951  2.2685  0.5921
  346MPD2    H3 5192   1.839   3.703  14.609 -0.8010 -1.2415 -0.3564
  346MPD2     N 5193   2.295   3.735  14.515  0.9016 -0.0178 -0.2868
  346MPD2    H5 5194   2.348   3.702  14.435 -0.2393  2.6170 -2.1707
  346MPD2    N1 5195   1.987   3.505  14.221 -0.2739  0.0539 -0.2103
  346MPD2    H7 5196   2.073   3.488  14.171  0.1323  0.8686  0.2099
  347TMC3    C1 5197   2.496   3.812  14.592 -0.0948  0.4068 -0.0214
  347TMC3    C2 5198   2.554   3.724  14.507 -0.2920  0.6162  0.8310
  347TMC3    C3 5199   2.682   3.737  14.486 -0.1474  0.9092 -0.5593
  347TMC3    C4 5200   2.569   3.906  14.650 -0.4724 -0.3427  0.1626
  347TMC3    C5 5201   2.704   3.914  14.636 -0.0382  0.4141  0.2361
  347TMC3    C6 5202   2.767   3.825  14.551  0.9650 -0.7331  0.3816
  347TMC3     C 5203   2.354   3.809  14.614 -0.2776 -0.2215  0.4292
  347TMC3     O 5204   2.302   3.891  14.694 -0.2740  0.4671  0.1915
  347TMC3     H 5205   2.501   3.637  14.468 -1.4826  0.6393  2.4015
  347TMC3    H1 5206   2.514   3.975  14.713  0.1765  1.6421 -1.4244
  347TMC3    H2 5207   2.875   3.816  14.543  1.0537  0.3036  0.4286
  347TMC3    C7 5208   2.781   3.979  14.736  0.6524 -0.2141  0.3955
  347TMC3    C8 5209   2.748   3.635  14.413  0.2352  0.0976 -0.1595
  347TMC3    O1 5210   2.712   4.008  14.834  0.1099 -0.0212 -0.0303
  347TMC3    O2 5211   2.707   3.518  14.416 -0.3200  0.1873 -0.3823
  348MPD2     C 5212   0.608   2.499  12.170  0.3702  0.0417  0.5117
  348MPD2    C1 5213   0.712   2.580  12.185  0.3562  0.4347 -1.3236
  348MPD2    C2 5214   0.720   2.684  12.095  0.0194 -0.7392  0.0036
  348MPD2    C3 5215   0.607   2.723  12.022 -0.0993  0.2256 -0.0512
  348MPD2    C4 5216   0.492   2.635  12.016 -0.0755  0.4473  0.0710
  348MPD2    C5 5217   0.498   2.520  12.092 -0.3473 -0.2000  0.1344
  348MPD2     H 5218   0.801   2.756  12.094 -1.4455  0.9253 -1.0673
  348MPD2    H1 5219   0.401   2.655  11.962 -0.9673 -1.6864  0.7834
  348MPD2    H2 5220   0.589   2.413  12.233  0.1746  1.3031  2.1609
  348MPD2    H3 5221   0.414   2.451  12.093 -1.4082  1.1483  2.4494
  348MPD2     N 5222   0.614   2.838  11.946  0.3026 -0.0514  0.1187
  348MPD2    H5 5223   0.695   2.898  11.956 -1.2946  2.2377 -0.6802
  348MPD2    N1 5224   0.813   2.550  12.276 -0.1798  0.3394  0.1767
  348MPD2    H7 5225   0.893   2.611  12.264  0.3467 -0.2916  0.4310
  349TMC3    C1 5226   0.932   2.413  12.422  0.6377 -0.3893 -0.1038
  349TMC3    C2 5227   0.944   2.277  12.436  0.3562 -0.0824  1.1987
  349TMC3    C3 5228   1.066   2.221  12.423  0.1927  0.1136  0.7028
  349TMC3    C4 5229   1.041   2.495  12.389 -0.1292  0.5720 -0.1054
  349TMC3    C5 5230   1.163   2.431  12.374  0.3236  0.3270 -0.1366
  349TMC3    C6 5231   1.170   2.298  12.383  0.2392  0.2038  0.3638
  349TMC3     C 5232   0.799   2.464  12.385 -0.1276  0.9811 -0.2031
  349TMC3     O 5233   0.706   2.396  12.422  0.5269  0.5829 -0.3694
  349TMC3     H 5234   0.856   2.216  12.448  0.4630 -0.6160 -0.8206
  349TMC3    H1 5235   1.043   2.602  12.372  0.5557  0.3996 -1.1128
  349TMC3    H2 5236   1.268   2.256  12.364  0.1535 -1.1980  2.9718
  349TMC3    C7 5237   1.229   2.480  12.251 -0.2718 -0.1419  0.2397
  349TMC3    C8 5238   1.083   2.083  12.466  0.0501 -0.4861 -0.4402
  349TMC3    O1 5239   1.218   2.407  12.155  0.0540 -0.3495 -0.3853
  349TMC3    O2 5240   0.985   2.031  12.524  0.4998  0.2995 -0.3469
  350MPD2     C 5241   0.185   4.573   9.781 -0.0026  0.6744 -0.2012
  350MPD2    C1 5242   0.120   4.571   9.899  0.2519 -0.2065 -0.2999
  350MPD2    C2 5243   0.129   4.681   9.990  0.4903 -0.3766  0.3474
  350MPD2    C3 5244   0.194   0.080   9.953  0.1127 -0.3294  0.1684
  350MPD2    C4 5245   0.236   0.090   9.821  0.4951 -0.6060 -0.7398
  350MPD2    C5 5246   0.240   4.694   9.743 -0.3123  0.1113  0.3952
  350MPD2     H 5247   0.090   4.662  10.089 -1.1228  0.5469 -0.1210
  350MPD2    H1 5248   0.276   0.185   9.786 -0.6241  0.0128 -0.3351
  350MPD2    H2 5249   0.181   4.490   9.712 -1.8493 -0.1142  0.8606
  350MPD2    H3 5250   0.280   4.714   9.644  1.4950 -1.6717  0.7666
  350MPD2     N 5251   0.207   0.184  10.048 -0.1547  0.5433  0.2199
  350MPD2    H5 5252   0.159   0.172  10.136  2.6660  2.2730  1.9771
  350MPD2    N1 5253   0.054   4.456   9.948  0.0631  0.0030  0.0527
  350MPD2    H7 5254   0.015   4.444  10.041 -0.1424  0.3822  0.0128
  351TMC3    C1 5255   0.022   4.232   9.963 -0.8324 -0.3888 -0.1790
  351TMC3    C2 5256   0.060   4.250  10.093 -0.7686  1.2578  0.4027
  351TMC3    C3 5257   0.106   4.140  10.154 -0.2530  0.2615 -0.0528
  351TMC3    C4 5258   0.007   4.114   9.904 -0.0380 -0.3060 -1.0902
  351TMC3    C5 5259   0.048   4.007   9.979 -0.2619  0.2273  0.1891
  351TMC3    C6 5260   0.101   4.018  10.102 -0.1574  0.1859 -0.1552
  351TMC3     C 5261   0.035   4.346   9.875  0.5620  0.5396 -0.1861
  351TMC3     O 5262   0.050   4.325   9.754  0.5299  0.4262 -0.5700
  351TMC3     H 5263   0.049   4.339  10.154  2.9329  1.4276  0.8335
  351TMC3    H1 5264   4.700   4.102   9.799 -0.5972  0.1239 -1.0078
  351TMC3    H2 5265   0.159   3.933  10.137 -2.7563 -0.2312  3.1543
  351TMC3    C7 5266   0.020   3.873   9.930 -0.0080  0.0531 -0.6378
  351TMC3    C8 5267   0.225   4.174  10.222 -0.6677 -0.6528  0.1348
  351TMC3    O1 5268   0.023   3.844   9.808 -0.0658 -0.1645  0.6577
  351TMC3    O2 5269   0.280   4.281  10.192  0.1624  0.5560 -1.0410
  352MPD2     C 5270   3.386   3.262   1.220 -0.2474 -0.0397  0.0543
  352MPD2    C1 5271   3.284   3.218   1.300  0.0065 -0.7041  0.2196
  352MPD2    C2 5272   3.314   3.113   1.389  0.0671  0.1176 -0.6680
  352MPD2    C3 5273   3.432   3.041   1.379  0.4223  0.5489 -0.5050
  352MPD2    C4 5274   3.530   3.093   1.294  0.1296 -0.6881  0.2760
  352MPD2    C5 5275   3.506   3.210   1.224 -0.6865 -0.1083  0.6023
  352MPD2     H 5276   3.234   3.067   1.447  1.8322 -0.9316  0.9609
  352MPD2    H1 5277   3.629   3.048   1.291  0.1177 -0.6593 -0.5211
  352MPD2    H2 5278   3.366   3.344   1.152 -1.0335 -0.8553 -0.6908
  352MPD2    H3 5279   3.586   3.263   1.175 -0.0122 -1.1595  0.5716
  352MPD2     N 5280   3.467   2.922   1.441 -0.0576  0.0698 -0.6438
  352MPD2    H5 5281   3.554   2.872   1.423  0.0310  0.2218 -0.6354
  352MPD2    N1 5282   3.153   3.274   1.300 -0.4325 -0.2825 -0.1225
  352MPD2    H7 5283   3.091   3.246   1.376 -1.3073  0.3507 -0.5961
  353TMC3    C1 5284   3.432   2.706   1.516 -0.2534 -0.0223 -0.2589
  353TMC3    C2 5285   3.567   2.691   1.485 -1.1960 -0.5394  0.3667
  353TMC3    C3 5286   3.606   2.572   1.440  0.1166  0.7002  0.2178
  353TMC3    C4 5287   3.342   2.602   1.513  0.2035 -0.1721  0.1732
  353TMC3    C5 5288   3.390   2.473   1.480 -0.5218  0.3291 -0.4938
  353TMC3    C6 5289   3.522   2.462   1.439  0.1313  0.7845 -0.6676
  353TMC3     C 5290   3.372   2.836   1.498  0.3755 -0.3569  0.9431
  353TMC3     O 5291   3.248   2.845   1.501  0.4606 -0.4704  0.1929
  353TMC3     H 5292   3.648   2.762   1.496 -1.5169 -0.2299  0.6955
  353TMC3    H1 5293   3.239   2.621   1.543 -0.2881 -1.5189 -0.6916
  353TMC3    H2 5294   3.559   2.374   1.389  0.0183  0.3472  0.0116
  353TMC3    C7 5295   3.301   2.374   1.429 -0.7592  0.6524  0.1221
  353TMC3    C8 5296   3.748   2.547   1.426  0.3453  0.4395  0.4247
  353TMC3    O1 5297   3.346   2.295   1.348  0.0884  0.5449 -0.6878
  353TMC3    O2 5298   3.820   2.640   1.392 -0.0521  0.1596  0.6147
  354TMC3    C1 5299   4.456   4.214  13.544  0.3026  0.0430  0.5443
  354TMC3    C2 5300   4.536   4.327  13.526 -0.3402  0.8189 -0.1065
  354TMC3    C3 5301   4.550   4.370  13.397  0.9670 -0.4665 -0.4456
  354TMC3    C4 5302   4.382   4.152  13.444  0.7687  0.1981  0.8323
  354TMC3    C5 5303   4.427   4.176  13.316 -0.4992 -0.1192  0.0693
  354TMC3    C6 5304   4.500   4.295  13.291 -0.3931  0.6637 -0.1932
  354TMC3     C 5305   4.396   4.191  13.672  0.1805 -0.2202 -0.3763
  354TMC3     O 5306   4.287   4.128  13.664 -0.0333 -0.0240  0.1558
  354TMC3     H 5307   4.574   4.381  13.612  1.3337 -0.2295 -0.1873
  354TMC3    H1 5308   4.341   4.054  13.464  2.0002 -0.7819 -1.4282
  354TMC3    H2 5309   4.515   4.335  13.191  0.8229 -0.8740 -0.6184
  354TMC3    C7 5310   4.407   4.089  13.210  0.7484 -0.0771  0.5826
  354TMC3    C8 5311   4.644   4.465  13.361  0.3644  0.1755 -0.4156
  354TMC3    O1 5312   4.305   4.018  13.221  0.1838 -0.0635  0.4078
  354TMC3    O2 5313   4.632   4.514  13.247 -1.1522 -0.1953 -0.3191
  355MPD2     C 5314   4.535   0.211  11.886 -0.4816 -0.2500  0.1649
  355MPD2    C1 5315   4.583   0.260  11.769 -0.4077  0.4384  0.0009
  355MPD2    C2 5316   0.006   0.277  11.748 -1.0695 -1.1355 -0.2286
  355MPD2    C3 5317   0.095   0.238  11.850 -0.4324 -0.3768 -0.1889
  355MPD2    C4 5318   0.044   0.204  11.970 -0.1168 -0.4745  0.2695
  355MPD2    C5 5319   4.629   0.186  11.987 -0.6350 -0.3884 -0.1212
  355MPD2     H 5320   0.037   0.302  11.648 -3.1772  0.6649 -0.4389
  355MPD2    H1 5321   0.101   0.175  12.058 -0.3885 -3.4119 -0.5306
  355MPD2    H2 5322   4.430   0.197  11.908 -0.0012 -1.2357  1.8390
  355MPD2    H3 5323   4.585   0.149  12.079 -2.1419 -0.5061 -0.8972
  355MPD2     N 5324   0.235   0.240  11.831 -0.8624  0.1041 -0.4671
  355MPD2    H5 5325   0.298   0.214  11.906 -2.4679 -1.3205  0.3678
  355MPD2    N1 5326   4.474   0.294  11.675 -0.5411 -0.6972  0.6968
  355MPD2    H7 5327   4.381   0.261  11.702 -1.1860 -0.4007 -1.1490
  356TMC3    C1 5328   0.455   0.312  11.747  0.6329  0.1780  0.5946
  356TMC3    C2 5329   0.501   0.398  11.640 -0.6292  0.1223 -0.2043
  356TMC3    C3 5330   0.610   0.473  11.662 -0.0234 -0.3909 -0.4069
  356TMC3    C4 5331   0.516   0.309  11.869  0.3195 -0.1455 -0.3702
  356TMC3    C5 5332   0.634   0.379  11.880 -0.1554  0.0687 -0.1577
  356TMC3    C6 5333   0.685   0.457  11.779  0.3114  0.8864  0.7459
  356TMC3     C 5334   0.314   0.267  11.717  0.3750 -0.4393  0.1185
  356TMC3     O 5335   0.266   0.264  11.605  0.0576  0.0503 -0.7508
  356TMC3     H 5336   0.459   0.402  11.540 -0.8187 -0.1788 -0.1357
  356TMC3    H1 5337   0.482   0.248  11.952 -1.4695  1.0653 -0.2209
  356TMC3    H2 5338   0.783   0.502  11.787  0.3440  0.7366  1.1466
  356TMC3    C7 5339   0.689   0.391  12.020 -0.7680 -0.0032 -0.2628
  356TMC3    C8 5340   0.665   0.530  11.540 -0.0064  0.0959 -0.4244
  356TMC3    O1 5341   0.636   0.318  12.103 -0.0643 -0.1479 -0.2246
  356TMC3    O2 5342   0.613   0.512  11.431  0.0596  0.1822  0.1668
  357MPD2     C 5343   0.084   0.340   1.357 -0.3536 -0.6314 -0.4930
  357MPD2    C1 5344   0.200   0.387   1.405 -0.7399  0.6920  0.1573
  357MPD2    C2 5345   0.201   0.491   1.499  0.5585 -0.7479  0.5450
  357MPD2    C3 5346   0.084   0.525   1.569 -0.5993 -0.0338  0.2149
  357MPD2    C4 5347   4.687   0.461   1.524  0.0182 -0.8622 -0.2013
  357MPD2    C5 5348   4.689   0.370   1.426  0.1213  0.5759 -0.1144
  357MPD2     H 5349   0.296   0.531   1.531  0.8687 -1.0439  0.0010
  357MPD2    H1 5350   4.597   0.466   1.585  1.0982  0.0419  1.3006
  357MPD2    H2 5351   0.085   0.260   1.285 -1.8019 -0.8326 -0.2920
  357MPD2    H3 5352   4.593   0.330   1.395  1.4048 -1.6669 -1.1902
  357MPD2     N 5353   0.077   0.607   1.684  0.7704 -0.5844  0.2924
  357MPD2    H5 5354   4.707   0.609   1.734  0.5826 -1.2178 -0.0127
  357MPD2    N1 5355   0.316   0.317   1.366  0.1093  0.0748 -0.5450
  357MPD2    H7 5356   0.290   0.235   1.312  0.0416  1.3411 -2.4381
  358TMC3    C1 5357   0.535   0.247   1.336 -0.3724 -0.1143 -0.3701
  358TMC3    C2 5358   0.501   0.178   1.222 -0.0617  0.0438 -0.0927
  358TMC3    C3 5359   0.574   0.059   1.201 -0.2904  0.2825  0.5577
  358TMC3    C4 5360   0.622   0.196   1.428  0.4280 -0.2594 -0.5328
  358TMC3    C5 5361   0.680   0.079   1.402  0.1487  0.0867  0.1119
  358TMC3    C6 5362   0.674   0.018   1.282  0.6950 -0.1409 -0.2441
  358TMC3     C 5363   0.446   0.349   1.387  0.3133  0.2993 -0.3450
  358TMC3     O 5364   0.490   0.425   1.469 -0.0707  0.6582  0.4019
  358TMC3     H 5365   0.422   0.214   1.157 -1.9744 -1.7534  1.2402
  358TMC3    H1 5366   0.627   0.251   1.521 -0.6345 -1.9295  0.5257
  358TMC3    H2 5367   0.716   4.638   1.264  0.3098 -0.7871  2.3785
  358TMC3    C7 5368   0.798   0.034   1.482  0.1029  0.1257  0.1216
  358TMC3    C8 5369   0.519   4.675   1.111  0.2120 -0.5318 -0.0682
  358TMC3    O1 5370   0.882   4.686   1.423 -0.0705 -0.1266  0.1131
  358TMC3    O2 5371   0.479   4.712   1.004 -0.4462 -0.1282 -0.2798
  359MPD2     C 5372   0.430   2.746  12.356  0.2914  0.8458 -0.4692
  359MPD2    C1 5373   0.373   2.864  12.322 -0.0730 -0.0838 -0.5430
  359MPD2    C2 5374   0.241   2.882  12.321  0.6017 -0.2854  0.4239
  359MPD2    C3 5375   0.158   2.776  12.343 -0.2315  0.7255 -0.1892
  359MPD2    C4 5376   0.218   2.658  12.383 -0.4359  0.2430 -0.1802
  359MPD2    C5 5377   0.353   2.640  12.398  0.8344 -0.0104  0.3802
  359MPD2     H 5378   0.190   2.975  12.296 -0.1983 -1.0740 -0.8881
  359MPD2    H1 5379   0.160   2.570  12.407  0.1495  0.3386  1.5873
  359MPD2    H2 5380   0.538   2.739  12.346 -0.0528 -3.9139 -0.5793
  359MPD2    H3 5381   0.397   2.543  12.418  1.4157  0.5325  1.6673
  359MPD2     N 5382   0.018   2.790  12.320  0.3239  0.1311 -0.0371
  359MPD2    H5 5383   4.684   2.874  12.297  1.3826  0.4615 -1.1649
  359MPD2    N1 5384   0.450   2.986  12.312  0.0651  0.7434  0.4715
  359MPD2    H7 5385   0.395   3.071  12.303 -0.9580 -0.0712 -0.8049
  360TMC3    C1 5386   0.623   3.137  12.305  0.0874 -0.6334  0.5479
  360TMC3    C2 5387   0.759   3.163  12.335 -0.2848 -0.0444  0.2135
  360TMC3    C3 5388   0.811   3.281  12.289  0.3926 -0.0281 -0.1538
  360TMC3    C4 5389   0.554   3.226  12.230  0.4303  0.1176  1.1077
  360TMC3    C5 5390   0.609   3.342  12.190 -0.6708  0.3446 -0.0150
  360TMC3    C6 5391   0.741   3.373  12.215 -0.9022  0.1692 -0.5801
  360TMC3     C 5392   0.585   3.002  12.322  0.0458 -0.4286  0.1429
  360TMC3     O 5393   0.677   2.921  12.342 -0.4214  0.0412 -0.3420
  360TMC3     H 5394   0.807   3.094  12.403 -1.5053 -1.0673  0.0416
  360TMC3    H1 5395   0.459   3.199  12.184  1.3381 -0.5644 -0.3821
  360TMC3    H2 5396   0.796   3.447  12.157  0.8465 -0.2150  0.5751
  360TMC3    C7 5397   0.547   3.413  12.074  0.3254  0.0454 -0.2598
  360TMC3    C8 5398   0.956   3.294  12.287  0.1022  0.3052  0.8252
  360TMC3    O1 5399   0.619   3.496  12.019  0.7102 -0.4259  0.3058
  360TMC3    O2 5400   1.011   3.190  12.306  0.1982  0.3896 -0.4879
  361MPD2     C 5401   1.877   2.558  16.683  0.2887  0.4004  0.6982
  361MPD2    C1 5402   1.878   2.607  16.808  0.1099 -0.3047  0.3157
  361MPD2    C2 5403   1.970   2.557  16.908  0.0479 -0.6328 -0.1744
  361MPD2    C3 5404   2.054   2.456  16.872 -0.0344 -0.2181 -0.4298
  361MPD2    C4 5405   2.041   2.397  16.749 -0.3620 -0.0607  0.0319
  361MPD2    C5 5406   1.957   2.451  16.650  0.4799  0.2948 -0.2974
  361MPD2     H 5407   1.982   2.610  17.001 -1.6992 -2.8928  1.3366
  361MPD2    H1 5408   2.094   2.306  16.721  1.1976  0.8184  0.1210
  361MPD2    H2 5409   1.806   2.595  16.610  2.8727  0.1061 -1.9602
  361MPD2    H3 5410   1.962   2.411  16.550 -2.0635  1.9249 -1.0799
  361MPD2     N 5411   2.131   2.387  16.968  0.4582  0.7086  0.0618
  361MPD2    H5 5412   2.146   2.290  16.942 -2.1773  0.2388  0.2947
  361MPD2    N1 5413   1.786   2.711  16.848  0.1589 -0.1322  0.3541
  361MPD2    H7 5414   1.783   2.726  16.948 -0.1297  0.5809  0.2414
  362TMC3    C1 5415   1.636   2.890  16.825  0.1605  0.1312  0.5527
  362TMC3    C2 5416   1.583   2.878  16.946 -0.4647  0.1603  0.1001
  362TMC3    C3 5417   1.480   2.956  16.986  0.9540 -0.2715 -0.1828
  362TMC3    C4 5418   1.583   2.977  16.739 -0.0781 -0.1531 -0.7151
  362TMC3    C5 5419   1.479   3.057  16.784 -0.0950 -0.2266 -0.1621
  362TMC3    C6 5420   1.429   3.048  16.906  0.0222  0.1318 -0.0146
  362TMC3     C 5421   1.705   2.780  16.759  0.1429  0.6746  0.5104
  362TMC3     O 5422   1.712   2.787  16.634  0.3061  0.1297 -0.2425
  362TMC3     H 5423   1.636   2.804  17.005 -0.5074 -1.3053 -1.6739
  362TMC3    H1 5424   1.631   2.996  16.643  0.2724  0.9760 -0.3168
  362TMC3    H2 5425   1.340   3.099  16.941  0.4128 -0.2978  1.5885
  362TMC3    C7 5426   1.436   3.163  16.693 -0.0801 -0.5048  0.7151
  362TMC3    C8 5427   1.417   2.923  17.117  0.0360 -0.3398  0.0100
  362TMC3    O1 5428   1.504   3.192  16.600  0.3237 -0.4903  0.3327
  362TMC3    O2 5429   1.445   2.812  17.163 -0.1528  0.5207  0.6258
  363TMC3    C1 5430   1.286   0.262   9.855  0.2070  0.1217  0.3572
  363TMC3    C2 5431   1.222   0.148   9.902 -0.4863  0.2652  0.2188
  363TMC3    C3 5432   1.120   0.175   9.991 -0.1306  0.0153  0.2198
  363TMC3    C4 5433   1.260   0.387   9.884 -0.3491 -0.9677  0.3956
  363TMC3    C5 5434   1.157   0.405   9.973 -0.1334  0.1441 -0.3708
  363TMC3    C6 5435   1.085   0.306  10.027  0.6425  0.5258 -0.2002
  363TMC3     C 5436   1.382   0.242   9.747 -0.2461  0.6170 -0.2040
  363TMC3     O 5437   1.452   0.139   9.744 -0.4349 -0.1782  0.1872
  363TMC3     H 5438   1.246   0.045   9.877 -1.5751 -0.4188  2.0135
  363TMC3    H1 5439   1.310   0.474   9.843  2.2871 -0.8633  3.8222
  363TMC3    H2 5440   1.008   0.328  10.100  1.4554  1.8987  0.2398
  363TMC3    C7 5441   1.119   0.544   9.984  0.0800  0.1446  0.2163
  363TMC3    C8 5442   1.082   0.076  10.086 -0.1861 -0.2023 -0.0762
  363TMC3    O1 5443   1.161   0.628   9.907  0.2970  1.0121 -0.3147
  363TMC3    O2 5444   0.979   0.103  10.152 -0.1887  0.0349  0.1316
  364MPD2     C 5445   4.150   4.185  10.907  0.3951 -0.2864  0.4208
  364MPD2    C1 5446   4.239   4.167  10.807  0.5139  0.6433 -0.6187
  364MPD2    C2 5447   4.276   4.036  10.774  0.0269  0.5136 -0.1523
  364MPD2    C3 5448   4.232   3.927  10.845  0.8530 -0.3585  0.0889
  364MPD2    C4 5449   4.143   3.951  10.953  0.1594  0.2621 -0.3714
  364MPD2    C5 5450   4.102   4.078  10.976  0.5393  0.4143  0.0414
  364MPD2     H 5451   4.349   4.025  10.695 -1.4617 -2.5261 -1.1082
  364MPD2    H1 5452   4.105   3.871  11.016  2.1312 -0.7937 -0.5165
  364MPD2    H2 5453   4.122   4.287  10.932 -3.3768 -1.5551  1.4040
  364MPD2    H3 5454   4.027   4.096  11.053 -1.4856 -2.3402 -1.2946
  364MPD2     N 5455   4.273   3.793  10.817  0.2768 -0.3738 -0.0188
  364MPD2    H5 5456   4.228   3.718  10.869 -0.5152 -0.0636 -0.2601
  364MPD2    N1 5457   4.289   4.280  10.741 -0.4094 -0.2908  0.5182
  364MPD2    H7 5458   4.272   4.375  10.769  0.3828 -0.6684  2.2662
  365TMC3    C1 5459   4.398   4.421  10.570  0.2074 -0.7353 -0.1970
  365TMC3    C2 5460   4.475   4.402  10.461  0.1179 -0.3936 -0.2350
  365TMC3    C3 5461   4.485   4.504  10.363 -0.4834 -0.3445  0.2550
  365TMC3    C4 5462   4.331   4.540  10.590 -0.2865  0.9661  0.6308
  365TMC3    C5 5463   4.351   4.639  10.497 -0.2566  0.7461 -0.1304
  365TMC3    C6 5464   4.424   4.625  10.379 -0.7553 -0.2366 -0.0349
  365TMC3     C 5465   4.336   4.293  10.611  0.0542  0.2565 -0.1651
  365TMC3     O 5466   4.345   4.199  10.535 -0.1339 -0.2923 -0.7248
  365TMC3     H 5467   4.523   4.306  10.448  0.5816 -0.6990  3.7674
  365TMC3    H1 5468   4.276   4.556  10.682 -0.6565 -0.4987  0.6660
  365TMC3    H2 5469   4.423   4.698  10.298  0.0195  0.5691  0.6802
  365TMC3    C7 5470   4.278   0.043  10.506 -0.4336 -0.5804  0.8367
  365TMC3    C8 5471   4.492   4.454  10.219  0.5085 -0.2540  0.7936
  365TMC3    O1 5472   4.294   0.138  10.427  0.3838 -0.2100 -0.7839
  365TMC3    O2 5473   4.483   4.534  10.127  0.0507  0.4227 -0.3125
  366MPD2     C 5474   2.004   0.854  15.587  0.0754 -0.3864  0.4283
  366MPD2    C1 5475   2.108   0.947  15.596 -0.1016 -0.6439 -0.2891
  366MPD2    C2 5476   2.239   0.899  15.599  0.3058 -0.3883 -0.3678
  366MPD2    C3 5477   2.268   0.764  15.595  0.1861 -0.8313  0.1100
  366MPD2    C4 5478   2.163   0.671  15.592  0.0769  0.2837 -0.0289
  366MPD2    C5 5479   2.037   0.723  15.588  0.8124  0.1560  0.3950
  366MPD2     H 5480   2.323   0.967  15.601 -1.3489  1.6291  0.1879
  366MPD2    H1 5481   2.171   0.564  15.603  1.9750  0.3595 -0.5618
  366MPD2    H2 5482   1.902   0.884  15.569 -0.0159 -0.1977  1.2989
  366MPD2    H3 5483   1.958   0.649  15.580  1.7757 -0.6625 -1.4990
  366MPD2     N 5484   2.409   0.729  15.590  0.2758 -0.1354  0.3564
  366MPD2    H5 5485   2.476   0.805  15.582  0.4142 -0.1401  1.4234
  366MPD2    N1 5486   2.089   1.084  15.584  0.5209 -0.0849 -0.1365
  366MPD2    H7 5487   2.173   1.141  15.581  0.3538  0.1156 -1.3443
  367TMC3    C1 5488   1.980   1.285  15.586 -0.6250 -0.1996 -0.3563
  367TMC3    C2 5489   2.089   1.326  15.655  0.3510  0.3601  0.6835
  367TMC3    C3 5490   2.140   1.448  15.625  0.7031  1.0475  0.2879
  367TMC3    C4 5491   1.916   1.359  15.493  0.4671  0.9616  0.0051
  367TMC3    C5 5492   1.970   1.482  15.468  0.5378  0.0530 -0.0444
  367TMC3    C6 5493   2.089   1.524  15.526 -0.3475  0.5584  0.0060
  367TMC3     C 5494   1.964   1.143  15.566 -0.0830  0.4549  0.6200
  367TMC3     O 5495   1.849   1.097  15.547 -0.0008  0.0430  0.3868
  367TMC3     H 5496   2.132   1.265  15.734 -0.9561 -1.7954 -0.2625
  367TMC3    H1 5497   1.845   1.313  15.425  0.1381  0.8643  0.4190
  367TMC3    H2 5498   2.122   1.627  15.518 -0.8550  0.8213  1.3738
  367TMC3    C7 5499   1.902   1.580  15.389  0.2993  0.9822  0.4511
  367TMC3    C8 5500   2.252   1.490  15.706  0.1325  0.1507  0.1230
  367TMC3    O1 5501   1.959   1.687  15.378  0.6057  0.0880 -0.0853
  367TMC3    O2 5502   2.297   1.408  15.788  0.2946  0.3874 -0.1510
  368MPD2     C 5503   3.574   2.752  13.488  0.4378 -0.5040 -0.2420
  368MPD2    C1 5504   3.548   2.850  13.397 -0.4729 -0.1019 -0.4808
  368MPD2    C2 5505   3.644   2.932  13.360  0.5015  0.4198  0.5956
  368MPD2    C3 5506   3.771   2.913  13.403  0.2863 -0.5027  0.7108
  368MPD2    C4 5507   3.805   2.819  13.496  0.5778  0.4939  1.2618
  368MPD2    C5 5508   3.700   2.736  13.535  0.5069 -0.3811  0.1059
  368MPD2     H 5509   3.626   2.999  13.277  0.6196  1.5825  1.5110
  368MPD2    H1 5510   3.905   2.802  13.532  0.0342 -1.3744  1.8622
  368MPD2    H2 5511   3.495   2.681  13.507  1.4623 -1.6200 -0.1720
  368MPD2    H3 5512   3.725   2.660  13.608  0.5533  1.4498  2.0178
  368MPD2     N 5513   3.884   2.989  13.349  0.2480  0.7270 -0.3963
  368MPD2    H5 5514   3.974   2.966  13.389 -0.8521  1.1079  2.2834
  368MPD2    N1 5515   3.418   2.868  13.356 -0.5933 -0.4729 -0.5936
  368MPD2    H7 5516   3.367   2.780  13.366 -2.1771  0.5659  0.5323
  369TMC3    C1 5517   3.225   2.957  13.244 -0.3269  0.7398  0.0884
  369TMC3    C2 5518   3.183   3.055  13.156 -0.0996 -0.3034  0.4988
  369TMC3    C3 5519   3.052   3.054  13.113  0.3274 -0.3689  0.5302
  369TMC3    C4 5520   3.141   2.864  13.296 -0.0280 -0.4220  0.5138
  369TMC3    C5 5521   3.012   2.874  13.257 -0.6728  0.1805  0.4344
  369TMC3    C6 5522   2.963   2.960  13.154  0.0714  0.3141 -0.3349
  369TMC3     C 5523   3.363   2.974  13.295  0.3043  1.7781 -0.3918
  369TMC3     O 5524   3.417   3.080  13.257  0.2670 -0.1981 -0.4481
  369TMC3     H 5525   3.250   3.131  13.119 -2.7565  2.2604  0.9113
  369TMC3    H1 5526   3.184   2.790  13.362 -0.9021 -0.1879  1.3385
  369TMC3    H2 5527   2.862   2.956  13.116 -0.5502  0.9437  1.2729
  369TMC3    C7 5528   2.916   2.789  13.326 -0.1238  0.2502 -0.1119
  369TMC3    C8 5529   3.019   3.149  13.009  0.3246  0.1972 -0.6524
  369TMC3    O1 5530   2.945   2.678  13.376  0.1674 -0.3302  0.0578
  369TMC3    O2 5531   3.109   3.201  12.947  0.3093  0.1844 -0.5620
  370TMC3    C1 5532   2.712   3.587  16.265  0.2919 -0.1486 -0.7017
  370TMC3    C2 5533   2.636   3.540  16.368  0.0266 -0.3484  0.9861
  370TMC3    C3 5534   2.638   3.404  16.389  0.5213 -0.0724 -0.0954
  370TMC3    C4 5535   2.773   3.503  16.171  0.1179 -0.1227  0.0862
  370TMC3    C5 5536   2.759   3.367  16.193  0.4078 -0.0841  0.2394
  370TMC3    C6 5537   2.704   3.314  16.305 -0.1448 -0.4456  0.0264
  370TMC3     C 5538   2.711   3.727  16.241 -0.6314 -0.4988  0.5456
  370TMC3     O 5539   2.609   3.787  16.282  0.3952  0.7148  0.0063
  370TMC3     H 5540   2.604   3.613  16.441  1.5868 -0.7565  2.0988
  370TMC3    H1 5541   2.806   3.533  16.072 -2.1620 -1.0183 -0.9515
  370TMC3    H2 5542   2.700   3.208  16.331 -2.1233 -0.5085 -0.4863
  370TMC3    C7 5543   2.814   3.281  16.092 -0.1884 -0.0420  0.4473
  370TMC3    C8 5544   2.614   3.356  16.528 -0.3399 -0.5594  1.0219
  370TMC3    O1 5545   2.802   3.312  15.976  0.1537  0.1446 -0.1188
  370TMC3    O2 5546   2.628   3.235  16.553  0.3215 -0.1659 -0.6159
  371TMC3    C1 5547   4.159   1.677  15.898  0.4465  0.5523  0.5036
  371TMC3    C2 5548   4.034   1.678  15.949 -0.6643  0.6036 -0.5972
  371TMC3    C3 5549   3.981   1.802  15.964  0.1807 -0.6155  0.4214
  371TMC3    C4 5550   4.214   1.782  15.821  0.4287  0.0815  0.2789
  371TMC3    C5 5551   4.155   1.904  15.848 -0.3931 -0.3783  0.1917
  371TMC3    C6 5552   4.045   1.914  15.929 -0.1259 -0.8474  0.3682
  371TMC3     C 5553   4.223   1.549  15.873  0.5185  0.5174  0.1297
  371TMC3     O 5554   4.308   1.546  15.787  0.1967 -1.3468 -0.1420
  371TMC3     H 5555   3.992   1.594  16.002  0.6218  1.2093  1.3846
  371TMC3    H1 5556   4.302   1.772  15.757 -2.2928 -0.0308 -3.4305
  371TMC3    H2 5557   4.000   2.012  15.941  1.4914 -0.0086 -0.5717
  371TMC3    C7 5558   4.223   2.029  15.814  0.2544  0.1444  0.2293
  371TMC3    C8 5559   3.902   1.823  16.092  0.5320 -0.7950  0.8283
  371TMC3    O1 5560   4.181   2.132  15.865 -0.1160 -0.3595  0.6334
  371TMC3    O2 5561   3.933   1.747  16.183  0.3893 -0.4355  0.6915
  372MPD2     C 5562   3.152   2.902  13.687  0.1920 -0.1898 -0.4734
  372MPD2    C1 5563   3.288   2.864  13.683  0.1818 -0.0936 -0.0119
  372MPD2    C2 5564   3.314   2.726  13.710  0.3125 -0.3223  0.1547
  372MPD2    C3 5565   3.210   2.633  13.724  0.1181  0.2289  0.2755
  372MPD2    C4 5566   3.080   2.681  13.716 -0.0560  0.1239 -0.2071
  372MPD2    C5 5567   3.053   2.816  13.706 -0.4377 -0.4784 -0.2704
  372MPD2     H 5568   3.418   2.697  13.720  0.8146  2.1151  2.1841
  372MPD2    H1 5569   2.996   2.614  13.706 -0.2984  0.9296 -3.3606
  372MPD2    H2 5570   3.113   3.003  13.689 -1.2697 -0.7783  0.6853
  372MPD2    H3 5571   2.954   2.857  13.692 -0.1512  0.2920 -0.0845
  372MPD2     N 5572   3.241   2.497  13.746  0.1039 -0.0503  0.4078
  372MPD2    H5 5573   3.340   2.476  13.740  0.4693  1.8589 -0.3547
  372MPD2    N1 5574   3.395   2.957  13.669 -0.4188  0.2575 -0.6508
  372MPD2    H7 5575   3.490   2.924  13.663 -1.5011 -2.7530 -0.9340
  373TMC3    C1 5576   3.238   2.263  13.783 -0.0939 -0.9493 -0.7729
  373TMC3    C2 5577   3.215   2.179  13.889  0.1344  1.4342  0.4907
  373TMC3    C3 5578   3.299   2.076  13.908  0.1984 -0.0709  0.2478
  373TMC3    C4 5579   3.335   2.234  13.686  0.8213 -0.4472  0.1443
  373TMC3    C5 5580   3.415   2.126  13.708  0.6926  0.3457 -0.4907
  373TMC3    C6 5581   3.405   2.050  13.821  0.1214  0.4200  0.0180
  373TMC3     C 5582   3.161   2.384  13.770 -0.5761 -0.1895 -0.7050
  373TMC3     O 5583   3.038   2.379  13.772  0.0848 -0.0156 -0.2471
  373TMC3     H 5584   3.143   2.210  13.963 -2.1393 -1.1234 -0.6337
  373TMC3    H1 5585   3.350   2.292  13.595  0.5009 -0.8290 -0.1458
  373TMC3    H2 5586   3.473   1.967  13.836  1.2271  1.1584 -0.8761
  373TMC3    C7 5587   3.487   2.076  13.594 -0.2309 -0.5455 -0.5172
  373TMC3    C8 5588   3.335   2.066  14.053 -0.1012  0.3974 -0.4059
  373TMC3    O1 5589   3.544   2.159  13.524 -0.1195  0.0183  0.2319
  373TMC3    O2 5590   3.303   2.161  14.121  0.2387 -0.5237 -0.1015
  374TMC3    C1 5591   4.660   2.769   9.848 -0.0122  0.8685  0.6806
  374TMC3    C2 5592   0.054   2.841   9.893 -0.7589  0.1715  0.1250
  374TMC3    C3 5593   0.179   2.782   9.885 -0.0412 -0.2042  0.3514
  374TMC3    C4 5594   4.659   2.648   9.780 -0.0575  0.9183 -0.6644
  374TMC3    C5 5595   0.070   2.609   9.762  0.1520  0.2633 -0.3145
  374TMC3    C6 5596   0.187   2.666   9.808 -0.7501  0.3133  0.1343
  374TMC3     C 5597   4.533   2.819   9.882  0.2564  1.1431  0.5702
  374TMC3     O 5598   4.444   2.806   9.802 -0.3702  0.4180  0.1812
  374TMC3     H 5599   0.045   2.937   9.942  1.1415  1.2559 -1.6666
  374TMC3    H1 5600   4.569   2.600   9.743  0.9882  0.2291 -2.3118
  374TMC3    H2 5601   0.286   2.625   9.792  0.6518  3.3943  1.0428
  374TMC3    C7 5602   0.095   2.503   9.662 -0.0883  0.0646 -0.0285
  374TMC3    C8 5603   0.300   2.863   9.908 -0.4916 -0.3102  0.1152
  374TMC3    O1 5604   0.212   2.489   9.629  0.2863  0.1158 -0.0529
  374TMC3    O2 5605   0.402   2.816   9.858  0.4215 -0.1839 -0.0739
  375MPD2     C 5606   4.373   4.166  17.348 -0.1552 -0.5957 -0.0245
  375MPD2    C1 5607   4.291   4.166  17.238  0.7817  0.2858  0.1321
  375MPD2    C2 5608   4.351   4.139  17.120 -0.5679  0.4619  0.4674
  375MPD2    C3 5609   4.486   4.106  17.102  0.1623  0.2808  0.7399
  375MPD2    C4 5610   4.557   4.090  17.221  0.0493 -0.4998 -0.4451
  375MPD2    C5 5611   4.502   4.119  17.339 -0.5477 -0.6339 -1.1381
  375MPD2     H 5612   4.286   4.147  17.034  2.0974  0.1486 -1.5664
  375MPD2    H1 5613   4.657   4.047  17.218 -0.0854 -0.8594  0.2330
  375MPD2    H2 5614   4.332   4.202  17.442 -0.8895 -0.4156 -0.4114
  375MPD2    H3 5615   4.573   4.115  17.421  1.8374 -0.5828 -3.2209
  375MPD2     N 5616   4.552   4.069  16.975 -0.4330  0.1250 -0.0580
  375MPD2    H5 5617   4.653   4.077  16.971 -0.2840 -1.4225  0.9487
  375MPD2    N1 5618   4.163   4.223  17.244 -0.4351 -0.7410  0.3609
  375MPD2    H7 5619   4.126   4.259  17.157  1.7728 -2.0726 -1.1592
  376TMC3    C1 5620   4.554   4.067  16.737 -0.1052 -0.0687  0.3427
  376TMC3    C2 5621   4.683   4.123  16.736 -0.0974  0.5824  0.5971
  376TMC3    C3 5622   0.023   4.147  16.612  0.9115 -0.3467 -0.2100
  376TMC3    C4 5623   4.486   4.033  16.622 -0.4939  0.2661 -0.1554
  376TMC3    C5 5624   4.555   4.061  16.502  0.1690  0.1421 -0.4007
  376TMC3    C6 5625   4.678   4.119  16.494  0.5163 -0.9438  0.2157
  376TMC3     C 5626   4.482   4.049  16.859  0.0031  0.3148 -0.1253
  376TMC3     O 5627   4.366   4.014  16.853  0.1285 -0.3761  0.1342
  376TMC3     H 5628   0.010   4.170  16.822 -1.6176  2.9037  0.1168
  376TMC3    H1 5629   4.380   4.010  16.623 -0.5172  0.2757 -1.3170
  376TMC3    H2 5630   0.005   4.130  16.396  0.6785  0.9459  0.5124
  376TMC3    C7 5631   4.506   3.970  16.389 -0.7835  0.2903  0.5807
  376TMC3    C8 5632   0.165   4.141  16.614 -0.5370 -0.1289 -0.2918
  376TMC3    O1 5633   4.538   4.004  16.279 -0.0170  0.3175  0.0916
  376TMC3    O2 5634   0.219   4.196  16.516 -0.5362  0.0147 -0.3927
  377MPD2     C 5635   2.716   2.733  12.970 -0.6984 -0.3305 -0.4734
  377MPD2    C1 5636   2.656   2.833  12.899  0.3347  0.2439  0.4402
  377MPD2    C2 5637   2.522   2.865  12.915 -0.0024 -0.1916 -0.0086
  377MPD2    C3 5638   2.445   2.793  13.014  0.5661 -0.2389 -0.4914
  377MPD2    C4 5639   2.507   2.695  13.086  0.4731 -0.8627  0.3197
  377MPD2    C5 5640   2.641   2.672  13.063  0.7183 -0.7051  0.5981
  377MPD2     H 5641   2.469   2.940  12.858  0.7693 -0.6250 -1.2930
  377MPD2    H1 5642   2.449   2.640  13.159 -2.8935  3.1276  0.6405
  377MPD2    H2 5643   2.818   2.704  12.947 -0.1826  0.7084  0.5162
  377MPD2    H3 5644   2.692   2.592  13.116 -0.1692 -1.3739  0.4462
  377MPD2     N 5645   2.307   2.802  13.021  0.8367 -0.0452 -0.0402
  377MPD2    H5 5646   2.262   2.741  13.088  0.2749  1.1176  0.6488
  377MPD2    N1 5647   2.740   2.910  12.808  0.2558  0.3431  0.3528
  377MPD2    H7 5648   2.837   2.895  12.833 -0.2512  1.4678  2.9426
  378TMC3    C1 5649   2.861   3.142  12.409  0.0871 -0.4702  0.7533
  378TMC3    C2 5650   2.769   3.115  12.506  0.3562 -0.1977  0.3289
  378TMC3    C3 5651   2.804   3.029  12.608 -0.3654  0.5497 -0.3954
  378TMC3    C4 5652   2.990   3.089  12.415 -0.1941  0.0159  0.2263
  378TMC3    C5 5653   3.024   3.019  12.522  0.2995  1.1048 -0.3752
  378TMC3    C6 5654   2.936   2.981  12.619  0.5626 -0.2787 -0.1483
  378TMC3     C 5655   2.826   3.246  12.311 -0.2437  0.2990  0.4097
  378TMC3     O 5656   2.731   3.317  12.336 -0.1730  0.1382  0.1002
  378TMC3     H 5657   2.666   3.150  12.499  0.6285  0.6928  0.6724
  378TMC3    H1 5658   3.066   3.117  12.343  1.2394 -0.4232  1.5728
  378TMC3    H2 5659   2.968   2.929  12.708 -0.2366 -0.8995 -0.2247
  378TMC3    C7 5660   3.161   3.003  12.552  0.0084 -0.0884 -0.5183
  378TMC3    C8 5661   2.699   2.986  12.703 -0.0497 -0.0803  0.1831
  378TMC3    O1 5662   3.192   3.031  12.667  0.4364 -0.2506  0.3088
  378TMC3    O2 5663   2.583   3.007  12.674 -0.1160  0.0710  0.3393
  379MPD2     C 5664   3.263   1.805  16.479 -0.1370  0.4782  0.0697
  379MPD2    C1 5665   3.194   1.686  16.514  0.1432  0.1870 -0.4757
  379MPD2    C2 5666   3.250   1.600  16.607  0.6413 -0.1465  0.4522
  379MPD2    C3 5667   3.378   1.618  16.655  0.3125  0.4603 -0.0540
  379MPD2    C4 5668   3.451   1.724  16.609  0.4681 -0.3327 -0.1879
  379MPD2    C5 5669   3.396   1.813  16.519 -0.1749  0.3916  0.2703
  379MPD2     H 5670   3.191   1.516  16.641  1.3872 -1.3037 -1.0959
  379MPD2    H1 5671   3.546   1.749  16.653  0.5862 -0.0513 -0.6056
  379MPD2    H2 5672   3.224   1.880  16.411  0.4849  1.2815  0.5952
  379MPD2    H3 5673   3.464   1.889  16.484  0.3529 -0.3372 -0.2777
  379MPD2     N 5674   3.438   1.536  16.760 -0.1076 -0.1885  0.1446
  379MPD2    H5 5675   3.535   1.549  16.784  0.1672 -2.1441  0.1451
  379MPD2    N1 5676   3.066   1.668  16.452 -1.0362 -0.2417 -0.2702
  379MPD2    H7 5677   3.044   1.730  16.375  3.0872  1.4826 -0.0887
  380TMC3    C1 5678   2.930   1.538  16.326 -0.4417  0.1063 -0.1303
  380TMC3    C2 5679   2.935   1.419  16.263  0.8439  0.2478  0.3859
  380TMC3    C3 5680   2.902   1.420  16.130  1.1239  0.4835 -0.1374
  380TMC3    C4 5681   2.874   1.646  16.275  0.0883  0.1803  0.3529
  380TMC3    C5 5682   2.814   1.631  16.149  0.0272 -0.7493 -0.3436
  380TMC3    C6 5683   2.837   1.518  16.072 -0.1853 -0.0817 -0.4887
  380TMC3     C 5684   2.994   1.550  16.457  0.4528 -0.1491  0.9157
  380TMC3     O 5685   3.013   1.447  16.523 -0.5407  0.6050  0.0806
  380TMC3     H 5686   2.969   1.331  16.315  1.8273  0.0724 -0.5592
  380TMC3    H1 5687   2.842   1.732  16.333  0.4471 -0.2947  1.2462
  380TMC3    H2 5688   2.786   1.491  15.981 -0.5980 -0.2326 -0.2116
  380TMC3    C7 5689   2.718   1.734  16.111  0.1234  0.9714 -0.1961
  380TMC3    C8 5690   2.998   1.349  16.042  0.0280 -0.0796  0.0463
  380TMC3    O1 5691   2.724   1.845  16.172  0.1442  0.5578 -0.1525
  380TMC3    O2 5692   2.995   1.366  15.918 -0.1741  0.0575 -0.0660
  381TMC3    C1 5693   2.751   2.656  16.495 -0.7597  0.5223  0.1320
  381TMC3    C2 5694   2.812   2.769  16.451 -0.2062  0.1178 -0.0849
  381TMC3    C3 5695   2.802   2.886  16.525  0.2232 -0.1872 -0.8143
  381TMC3    C4 5696   2.689   2.658  16.612  0.9549  0.3776  0.5754
  381TMC3    C5 5697   2.692   2.772  16.685  0.1674  0.7458  0.0900
  381TMC3    C6 5698   2.746   2.885  16.648 -0.3994  0.4232 -0.0166
  381TMC3     C 5699   2.830   2.534  16.463 -0.0867 -0.2922  0.5731
  381TMC3     O 5700   2.856   2.468  16.563  0.2364 -0.1608  0.5317
  381TMC3     H 5701   2.882   2.762  16.369 -1.6891  1.1349 -1.4391
  381TMC3    H1 5702   2.653   2.563  16.651  4.1005  0.3086  3.3222
  381TMC3    H2 5703   2.743   2.971  16.714  0.2336  0.5049 -0.0984
  381TMC3    C7 5704   2.661   2.752  16.828  0.2957 -0.2723 -0.4491
  381TMC3    C8 5705   2.920   2.970  16.501 -0.3339 -0.3911 -0.1552
  381TMC3    O1 5706   2.701   2.644  16.870 -0.0330  0.0739  0.0642
  381TMC3    O2 5707   3.021   2.911  16.471 -0.0291 -0.1612 -0.4468
  382MPD2     C 5708   2.107   0.645  17.267  0.0846  0.1274  0.5406
  382MPD2    C1 5709   2.054   0.599  17.386 -0.4826  0.0379 -0.1436
  382MPD2    C2 5710   2.051   0.464  17.407 -0.1466  0.0981 -0.4033
  382MPD2    C3 5711   2.094   0.375  17.311 -1.1729 -0.0646 -0.0546
  382MPD2    C4 5712   2.133   0.421  17.185  0.5302  0.3362 -0.3982
  382MPD2    C5 5713   2.149   0.558  17.164  0.5324 -0.3929 -0.3073
  382MPD2     H 5714   1.997   0.430  17.495  0.0851  1.6361  0.3221
  382MPD2    H1 5715   2.167   0.363  17.100 -0.8077 -0.7642 -0.1892
  382MPD2    H2 5716   2.115   0.750  17.242 -0.1765 -0.1998 -0.9143
  382MPD2    H3 5717   2.190   0.594  17.070  1.1439 -1.9043 -0.6317
  382MPD2     N 5718   2.080   0.239  17.339  0.1850 -0.1112  0.0164
  382MPD2    H5 5719   2.081   0.173  17.262 -2.1992  1.9194 -1.7155
  382MPD2    N1 5720   2.011   0.683  17.491  0.1284  0.8609 -0.8273
  382MPD2    H7 5721   1.997   0.628  17.575  0.5351 -0.1614 -1.4258
  383TMC3    C1 5722   2.018   0.049  17.450  0.6137  0.3949 -1.1034
  383TMC3    C2 5723   1.925   0.009  17.358 -0.9711  0.3639 -0.0797
  383TMC3    C3 5724   1.887   4.595  17.357 -0.0835  0.2648  0.2224
  383TMC3    C4 5725   2.078   4.682  17.537  0.1978 -0.2845  0.2026
  383TMC3    C5 5726   2.029   4.552  17.537  1.6885 -0.2594 -0.4764
  383TMC3    C6 5727   1.940   4.503  17.445  0.1462  0.7846 -0.1465
  383TMC3     C 5728   2.058   0.182  17.464  0.1882  0.1988 -0.4537
  383TMC3     O 5729   2.067   0.234  17.573  0.3517  0.5369  0.4725
  383TMC3     H 5730   1.875   0.078  17.292 -2.5799 -0.0183  0.7443
  383TMC3    H1 5731   2.157   4.716  17.603 -0.2480  0.7703  0.1894
  383TMC3    H2 5732   1.918   4.396  17.446 -1.6454  1.1563  0.3017
  383TMC3    C7 5733   2.101   4.457  17.619  0.3661 -0.4584 -0.5648
  383TMC3    C8 5734   1.781   4.545  17.265 -0.1920 -0.6850  0.2234
  383TMC3    O1 5735   2.047   4.347  17.620 -0.0255  0.7401  0.2977
  383TMC3    O2 5736   1.693   4.625  17.239  0.0934 -0.2646 -0.7643
  384MPD2     C 5737   3.796   1.220  11.724  0.5848  0.7316  0.7292
  384MPD2    C1 5738   3.849   1.177  11.837  0.2265 -0.0290  0.3607
  384MPD2    C2 5739   3.957   1.095  11.834 -0.6152  0.2419 -0.0663
  384MPD2    C3 5740   3.991   1.036  11.718  0.3783 -0.4694  0.1221
  384MPD2    C4 5741   3.933   1.073  11.598 -0.5502 -0.0435  0.3278
  384MPD2    C5 5742   3.842   1.173  11.603 -0.8143 -0.0923 -0.9705
  384MPD2     H 5743   3.999   1.067  11.930 -1.1703 -0.3161  0.0144
  384MPD2    H1 5744   3.957   1.027  11.502  1.5809  2.9606 -0.5613
  384MPD2    H2 5745   3.714   1.291  11.723  0.0329  0.0476 -2.7894
  384MPD2    H3 5746   3.792   1.211  11.514  0.6337  3.0079 -0.4575
  384MPD2     N 5747   4.086   0.931  11.728 -0.7800 -0.0653  0.0950
  384MPD2    H5 5748   4.131   0.915  11.817 -0.9560  2.3126  0.5968
  384MPD2    N1 5749   3.798   1.207  11.967  0.0722 -0.2232  0.3282
  384MPD2    H7 5750   3.847   1.163  12.043  0.1981 -1.7173 -0.6275
  385TMC3    C1 5751   4.219   0.737  11.690 -0.2834 -0.3398 -0.4838
  385TMC3    C2 5752   4.175   0.605  11.688 -0.4440  0.4528  1.0011
  385TMC3    C3 5753   4.194   0.531  11.799  0.1795 -0.1786 -0.2017
  385TMC3    C4 5754   4.290   0.784  11.794  0.4120 -1.1597  0.6784
  385TMC3    C5 5755   4.295   0.715  11.911 -0.6293  0.0384  0.1681
  385TMC3    C6 5756   4.261   0.581  11.909  0.2968  0.3141 -0.3530
  385TMC3     C 5757   4.126   0.837  11.637  0.2613  0.2704  0.4390
  385TMC3     O 5758   4.090   0.826  11.517 -0.3262 -0.3020  0.0893
  385TMC3     H 5759   4.121   0.572  11.600 -1.0508 -0.6338  1.7719
  385TMC3    H1 5760   4.350   0.874  11.788 -2.6165  0.8136 -0.0033
  385TMC3    H2 5761   4.250   0.531  12.005 -3.0486  1.1877 -0.2999
  385TMC3    C7 5762   4.273   0.803  12.022  0.5352 -0.5204 -0.2358
  385TMC3    C8 5763   4.158   0.391  11.792  0.0621 -0.7280  0.3123
  385TMC3    O1 5764   4.217   0.907  11.989  0.4234 -0.5308  0.3114
  385TMC3    O2 5765   4.221   0.316  11.867 -1.2218 -0.2571  0.5553
  386TMC3    C1 5766   4.171   3.245  11.928  0.0549  0.0533  0.1987
  386TMC3    C2 5767   4.135   3.188  11.815  0.1516 -0.2074 -0.5181
  386TMC3    C3 5768   4.005   3.209  11.778 -0.4899 -0.5651 -0.1593
  386TMC3    C4 5769   4.091   3.310  12.022 -0.0746  0.0511  0.3018
  386TMC3    C5 5770   3.961   3.332  11.978  0.3712  0.2877 -0.4524
  386TMC3    C6 5771   3.916   3.274  11.863 -0.1506 -0.0287 -0.8708
  386TMC3     C 5772   4.307   3.203  11.990 -0.5968 -0.0884 -0.0837
  386TMC3     O 5773   4.355   3.283  12.071  0.1609  0.0898  0.1111
  386TMC3     H 5774   4.212   3.149  11.749  1.9605  0.0549  1.4470
  386TMC3    H1 5775   4.125   3.323  12.124 -1.0056 -0.2450  0.6514
  386TMC3    H2 5776   3.813   3.282  11.830 -1.5927 -1.2323  3.4122
  386TMC3    C7 5777   3.858   3.404  12.054  0.5965 -0.2344 -0.2029
  386TMC3    C8 5778   3.949   3.170  11.647 -0.5215  0.1787  0.4160
  386TMC3    O1 5779   3.752   3.434  11.996  0.2637 -0.6850  0.4226
  386TMC3    O2 5780   3.838   3.218  11.625  0.3926 -0.2612 -0.1889
  387MPD2     C 5781   1.980   3.492   9.830  0.2557 -0.4233 -0.2351
  387MPD2    C1 5782   2.084   3.479   9.912 -0.4051  0.6311  1.2028
  387MPD2    C2 5783   2.189   3.402   9.881  0.8824 -0.0893 -0.0442
  387MPD2    C3 5784   2.170   3.307   9.785  0.5105  0.0840  0.0915
  387MPD2    C4 5785   2.060   3.311   9.706 -0.0011  0.5600 -0.1581
  387MPD2    C5 5786   1.969   3.407   9.728  0.5478  0.6527 -0.0392
  387MPD2     H 5787   2.275   3.390   9.947  0.6419 -2.0689 -0.0895
  387MPD2    H1 5788   2.052   3.235   9.630  2.9606  0.5652 -0.4608
  387MPD2    H2 5789   1.892   3.554   9.844  1.1558  0.7413  0.1726
  387MPD2    H3 5790   1.880   3.417   9.668  1.4759 -1.4982 -1.7594
  387MPD2     N 5791   2.264   3.205   9.752 -0.7549 -0.4779  0.5544
  387MPD2    H5 5792   2.230   3.145   9.678 -0.8051 -0.6135  0.6858
  387MPD2    N1 5793   2.107   3.546  10.036 -0.0167  0.5197  0.5782
  387MPD2    H7 5794   2.201   3.539  10.073  0.1010  2.1934  0.6226
  388TMC3    C1 5795   2.049   3.638  10.238 -0.2316  0.0775  0.1514
  388TMC3    C2 5796   2.007   3.749  10.309  0.1088  0.4257 -0.5669
  388TMC3    C3 5797   2.057   3.759  10.439 -0.3478 -0.2135  0.1173
  388TMC3    C4 5798   2.134   3.540  10.286  0.2876 -1.2428  0.4747
  388TMC3    C5 5799   2.172   3.555  10.417 -0.1553 -0.1924  0.9518
  388TMC3    C6 5800   2.140   3.664  10.494 -0.2469 -0.1241  0.0857
  388TMC3     C 5801   2.001   3.608  10.105 -0.2778 -0.1390 -0.8872
  388TMC3     O 5802   1.897   3.655  10.060  0.6596 -0.2137  0.0662
  388TMC3     H 5803   1.920   3.802  10.273  0.2693 -0.4203 -2.2064
  388TMC3    H1 5804   2.157   3.446  10.237  0.1347 -1.1687  0.2605
  388TMC3    H2 5805   2.161   3.667  10.600  0.7519 -1.0154 -0.0907
  388TMC3    C7 5806   2.280   3.476  10.469 -0.0692 -0.6986 -0.5100
  388TMC3    C8 5807   1.988   3.843  10.538  0.0269  0.1088  0.1159
  388TMC3    O1 5808   2.302   3.487  10.591  0.1220  1.0301 -0.7193
  388TMC3    O2 5809   2.004   3.817  10.659  0.4095  0.4647 -0.2983
  389MPD2     C 5810   1.350   1.671  11.364 -0.5442  0.0982 -0.4235
  389MPD2    C1 5811   1.290   1.562  11.309 -0.6064 -0.3719 -0.1962
  389MPD2    C2 5812   1.178   1.497  11.371  0.5326 -0.1201 -0.7085
  389MPD2    C3 5813   1.148   1.528  11.503 -0.1285  0.1025 -0.0225
  389MPD2    C4 5814   1.216   1.633  11.564 -0.9409  0.4465 -0.6338
  389MPD2    C5 5815   1.316   1.700  11.494 -0.3585 -0.0418 -0.4392
  389MPD2     H 5816   1.119   1.417  11.328  1.6080 -1.7058  0.7912
  389MPD2    H1 5817   1.185   1.680  11.656 -0.0287 -0.2430  0.0216
  389MPD2    H2 5818   1.429   1.734  11.325  0.0817  0.7218  1.8480
  389MPD2    H3 5819   1.379   1.778  11.536 -0.4554  0.8859 -2.0120
  389MPD2     N 5820   1.044   1.465  11.577  0.1798 -0.0754  0.4744
  389MPD2    H5 5821   1.022   1.501  11.669  1.7572 -3.6553  2.2903
  389MPD2    N1 5822   1.330   1.527  11.175  1.0734  0.3058 -0.4276
  389MPD2    H7 5823   1.387   1.597  11.129  0.7204  0.3637 -0.7681
  390TMC3    C1 5824   0.886   1.316  11.641  0.7669  0.3936 -0.2103
  390TMC3    C2 5825   0.813   1.199  11.611  0.4698  0.3074  0.7181
  390TMC3    C3 5826   0.718   1.166  11.706 -0.1011  0.2870  0.7024
  390TMC3    C4 5827   0.866   1.389  11.756  0.2366  0.4436 -0.2438
  390TMC3    C5 5828   0.779   1.339  11.846  0.7118  0.5858  0.6039
  390TMC3    C6 5829   0.702   1.231  11.823  0.3392 -0.0652 -0.1017
  390TMC3     C 5830   0.968   1.352  11.541 -0.3307 -0.6320  0.4517
  390TMC3     O 5831   0.975   1.282  11.442 -0.1061 -0.7233  0.5461
  390TMC3     H 5832   0.810   1.148  11.516 -2.0044 -0.7673  1.3777
  390TMC3    H1 5833   0.913   1.486  11.772  1.6188 -0.4191  0.9071
  390TMC3    H2 5834   0.616   1.189  11.875 -0.5216  1.8980  0.0355
  390TMC3    C7 5835   0.751   1.428  11.959  0.5826 -0.0611 -0.2848
  390TMC3    C8 5836   0.652   1.036  11.691  0.3600 -0.2195 -0.0006
  390TMC3    O1 5837   0.794   1.543  11.956 -1.0047 -0.0631 -0.4216
  390TMC3    O2 5838   0.637   1.002  11.577  0.0415  0.2033 -0.2859
  391MPD2     C 5839   0.124   3.076  11.369 -0.7812 -0.3877 -0.3453
  391MPD2    C1 5840   0.235   3.152  11.378  0.0183  0.2106  0.2471
  391MPD2    C2 5841   0.272   3.232  11.263  0.2670  0.4647 -0.4723
  391MPD2    C3 5842   0.193   3.225  11.148  0.4705  0.2806  0.2033
  391MPD2    C4 5843   0.082   3.138  11.146  0.6317 -0.0740 -0.5229
  391MPD2    C5 5844   0.050   3.073  11.256  0.0266  0.3893  0.4765
  391MPD2     H 5845   0.359   3.296  11.260  1.0353 -0.4967  1.7204
  391MPD2    H1 5846   0.025   3.119  11.055  0.4009 -0.3744 -0.3165
  391MPD2    H2 5847   0.091   3.023  11.458  2.4134  1.1226  1.7288
  391MPD2    H3 5848   4.683   3.005  11.259 -1.0542  1.6869 -0.6879
  391MPD2     N 5849   0.245   3.295  11.036 -0.0355  0.3809 -0.3043
  391MPD2    H5 5850   0.310   3.371  11.052 -0.9650  0.8134  1.3578
  391MPD2    N1 5851   0.315   3.152  11.493  0.0631 -0.5091 -0.2516
  391MPD2    H7 5852   0.280   3.082  11.558  0.6681  2.4423  3.2639
  392TMC3    C1 5853   0.338   3.300  10.819  0.5161  0.2889 -0.2777
  392TMC3    C2 5854   0.318   3.280  10.683 -0.0725 -0.6545 -0.3886
  392TMC3    C3 5855   0.420   3.261  10.599  0.1515 -0.4107  0.8652
  392TMC3    C4 5856   0.462   3.329  10.863 -0.5792  0.4240  0.2398
  392TMC3    C5 5857   0.564   3.330  10.773  0.2118 -0.8226  0.0849
  392TMC3    C6 5858   0.547   3.286  10.638 -0.3307  0.0291  0.3143
  392TMC3     C 5859   0.236   3.250  10.908 -0.5760 -0.0344 -0.0367
  392TMC3     O 5860   0.180   3.149  10.863  0.2722 -0.1338  1.0421
  392TMC3     H 5861   0.220   3.247  10.651 -0.9746 -0.2279  1.8970
  392TMC3    H1 5862   0.476   3.364  10.964  2.2735  0.8420 -0.2940
  392TMC3    H2 5863   0.631   3.252  10.577 -0.4353 -0.5698  0.5069
  392TMC3    C7 5864   0.688   3.383  10.818 -0.7476 -0.4776  0.4580
  392TMC3    C8 5865   0.393   3.194  10.475  0.3110  0.5631 -0.6183
  392TMC3    O1 5866   0.698   3.403  10.937 -0.3386 -0.1318 -0.2297
  392TMC3    O2 5867   0.288   3.132  10.462 -0.0788 -0.0725  0.2711
  393TMC3    C1 5868   4.044   0.376   9.873 -0.4133 -0.3316 -0.4418
  393TMC3    C2 5869   3.946   0.281   9.878  0.4319 -0.2743 -0.1342
  393TMC3    C3 5870   3.873   0.262   9.993 -0.5969 -0.3113  0.4603
  393TMC3    C4 5871   4.069   0.448   9.985 -0.2909  0.1015  0.5458
  393TMC3    C5 5872   3.990   0.434  10.101 -0.0430  0.4512 -0.4288
  393TMC3    C6 5873   3.896   0.337  10.109 -0.2263  0.0165 -0.1297
  393TMC3     C 5874   4.127   0.370   9.754  0.6602  0.2541  0.2223
  393TMC3     O 5875   4.101   0.291   9.668  0.0311 -0.0229  0.4853
  393TMC3     H 5876   3.930   0.205   9.802 -1.1811  0.2636 -0.3489
  393TMC3    H1 5877   4.158   0.510   9.990  1.2897 -2.1994  1.3320
  393TMC3    H2 5878   3.832   0.334  10.196 -0.1197  0.5410 -0.0315
  393TMC3    C7 5879   4.019   0.489  10.229 -1.2136 -0.1578 -0.0279
  393TMC3    C8 5880   3.815   0.126   9.998  0.4320 -0.7255  0.3419
  393TMC3    O1 5881   3.932   0.521  10.313  0.4417  0.7028  0.5216
  393TMC3    O2 5882   3.755   0.088   9.897  0.2526  0.0948  0.1902
  394TMC3    C1 5883   1.326   1.422  10.960 -0.3786  0.5365 -0.5036
  394TMC3    C2 5884   1.285   1.310  10.887 -0.2776  0.1140  0.1945
  394TMC3    C3 5885   1.357   1.275  10.777 -1.0669 -0.3981  0.7694
  394TMC3    C4 5886   1.431   1.496  10.912  0.6032  0.1631  0.2255
  394TMC3    C5 5887   1.505   1.452  10.806 -0.1339  0.2075  0.1083
  394TMC3    C6 5888   1.461   1.349  10.730 -0.2437 -0.0988 -0.7858
  394TMC3     C 5889   1.275   1.433  11.095 -0.1977 -0.8739  0.4439
  394TMC3     O 5890   1.204   1.335  11.126  0.1642  0.4451 -0.0556
  394TMC3     H 5891   1.196   1.254  10.914  0.6082 -1.6796 -0.6175
  394TMC3    H1 5892   1.472   1.585  10.958 -0.1471  0.5419  0.1689
  394TMC3    H2 5893   1.516   1.315  10.642  0.7130  1.2853 -0.7233
  394TMC3    C7 5894   1.594   1.544  10.742 -0.0090  0.3797  0.5301
  394TMC3    C8 5895   1.310   1.156  10.708 -0.0090  0.4505 -0.0718
  394TMC3    O1 5896   1.559   1.665  10.753  0.7445 -0.1592  0.0906
  394TMC3    O2 5897   1.240   1.077  10.770  0.0474  0.8148  0.0216
  395TMC3    C1 5898   0.778   3.847  14.854  0.1900 -0.2207  0.1545
  395TMC3    C2 5899   0.730   3.803  14.728 -0.6324  0.1812  0.3103
  395TMC3    C3 5900   0.822   3.816  14.632 -0.4261 -0.5232 -0.0684
  395TMC3    C4 5901   0.895   3.912  14.874  0.1109  0.1006  0.2568
  395TMC3    C5 5902   0.988   3.902  14.773 -0.2358  0.2255 -0.0885
  395TMC3    C6 5903   0.952   3.842  14.657 -0.0882 -0.0245  0.3049
  395TMC3     C 5904   0.724   3.782  14.973 -0.2212  0.9913 -0.0256
  395TMC3     O 5905   0.707   3.858  15.068  0.2874  0.0520  0.4606
  395TMC3     H 5906   0.633   3.756  14.719 -0.9267  0.5256  1.6690
  395TMC3    H1 5907   0.924   3.951  14.971 -0.0823 -1.6713  1.0431
  395TMC3    H2 5908   1.019   3.847  14.572  0.7963 -0.1518  0.9938
  395TMC3    C7 5909   1.103   3.995  14.776 -0.1023 -0.2745  0.3818
  395TMC3    C8 5910   0.793   3.785  14.498 -0.2185  0.2222  0.2317
  395TMC3    O1 5911   1.097   4.097  14.844 -0.4506 -0.3077 -0.5395
  395TMC3    O2 5912   0.880   3.748  14.423  0.5380 -0.0115  0.1565
  396MPD2     C 5913   0.808   0.181   0.172  0.8575  0.4749  0.1999
  396MPD2    C1 5914   0.806   0.179   0.031 -0.2531  0.2545  0.1295
  396MPD2    C2 5915   0.762   0.300  17.651  0.7533  0.7645  0.1667
  396MPD2    C3 5916   0.752   0.417   0.046  0.0559  0.5053 -0.2919
  396MPD2    C4 5917   0.760   0.413   0.184 -0.0585 -0.7955 -0.2661
  396MPD2    C5 5918   0.779   0.295   0.239 -0.5048 -0.2868 -0.4336
  396MPD2     H 5919   0.751   0.305  17.543  1.6950 -1.3218 -0.0224
  396MPD2    H1 5920   0.742   0.501   0.245  0.0356 -1.1330  0.2555
  396MPD2    H2 5921   0.813   0.093   0.235  3.1040  0.0398 -0.5777
  396MPD2    H3 5922   0.781   0.291   0.348 -0.7365 -0.8948 -0.4499
  396MPD2     N 5923   0.715   0.535  17.643 -0.5514  0.0525 -0.5552
  396MPD2    H5 5924   0.720   0.526  17.542  0.0824 -1.1898 -0.4164
  396MPD2    N1 5925   0.857   0.064  17.646  0.0131  0.0760 -0.1236
  396MPD2    H7 5926   0.892   4.711   0.034 -1.9552  0.1811  1.0845
  397TMC3    C1 5927   0.917   4.624  17.486 -0.0104 -0.1173 -0.6042
  397TMC3    C2 5928   0.894   4.596  17.358  0.6284 -0.4832 -0.3978
  397TMC3    C3 5929   0.804   4.498  17.313 -0.8514  0.8267 -0.0984
  397TMC3    C4 5930   0.859   4.527  17.575 -0.4212  0.5915 -0.1086
  397TMC3    C5 5931   0.790   4.420  17.524 -0.4599 -0.2981  0.6290
  397TMC3    C6 5932   0.754   4.402  17.394  0.0517 -0.2861 -0.4516
  397TMC3     C 5933   0.866   0.040  17.512 -0.6471  0.5100 -0.1002
  397TMC3     O 5934   0.833   0.118  17.423  0.2062 -0.2599 -0.1321
  397TMC3     H 5935   0.959   4.654  17.293 -0.8658  0.5683 -0.9585
  397TMC3    H1 5936   0.867   4.532   0.008 -1.9272  2.1688 -0.0708
  397TMC3    H2 5937   0.691   4.325  17.351 -0.6080 -0.7453  1.3279
  397TMC3    C7 5938   0.736   4.325  17.618  0.1305  0.0985 -0.4000
  397TMC3    C8 5939   0.724   4.529  17.199 -0.3358  0.0984 -0.1261
  397TMC3    O1 5940   0.691   4.224  17.559 -0.2011  0.1312 -0.1961
  397TMC3    O2 5941   0.660   4.437  17.154  0.2115 -0.5776  0.8212
  398MPD2     C 5942   3.026   0.545   0.448 -0.3077  0.6176 -0.4494
  398MPD2    C1 5943   3.124   0.536   0.542  0.6994 -0.0576  0.1039
  398MPD2    C2 5944   3.206   0.648   0.565  0.5138 -0.0385 -0.7507
  398MPD2    C3 5945   3.196   0.763   0.496  0.2119 -0.0873  0.1759
  398MPD2    C4 5946   3.111   0.769   0.385  0.4789  0.5808  0.1973
  398MPD2    C5 5947   3.023   0.663   0.368  0.6511 -0.6642 -0.0519
  398MPD2     H 5948   3.280   0.637   0.643 -2.0608  1.5979  1.9140
  398MPD2    H1 5949   3.111   0.855   0.319  0.6769  0.1353 -0.3870
  398MPD2    H2 5950   2.960   0.462   0.425 -0.3881  0.7484 -0.6991
  398MPD2    H3 5951   2.951   0.668   0.287 -1.6233 -2.2789  1.8356
  398MPD2     N 5952   3.259   0.882   0.541  0.1730 -0.9066 -0.5060
  398MPD2    H5 5953   3.248   0.968   0.488 -1.1670  1.0912  3.0472
  398MPD2    N1 5954   3.144   0.418   0.611 -0.1912 -0.7293  0.3718
  398MPD2    H7 5955   3.225   0.412   0.673 -0.8447 -1.5168  1.1522
  399TMC3    C1 5956   3.127   0.202   0.686  0.5056 -0.0613 -0.0395
  399TMC3    C2 5957   3.264   0.187   0.671  0.3472  0.0311 -0.3103
  399TMC3    C3 5958   3.319   0.073   0.727  0.5717  0.4953 -0.4098
  399TMC3    C4 5959   3.049   0.111   0.745  0.3533  0.2449 -0.0029
  399TMC3    C5 5960   3.110   0.007   0.805 -0.5327  0.6510 -0.0671
  399TMC3    C6 5961   3.240   4.699   0.797 -0.9552  0.4715  0.8386
  399TMC3     C 5962   3.071   0.302   0.601 -0.2160 -0.1561  0.0234
  399TMC3     O 5963   2.962   0.275   0.550  0.0165  0.2146 -0.3936
  399TMC3     H 5964   3.315   0.256   0.605  2.1198  1.3644  2.4705
  399TMC3    H1 5965   2.946   0.139   0.763  0.7013  1.0867  0.6599
  399TMC3    H2 5966   3.273   4.608   0.845  1.4007  1.8377  1.8149
  399TMC3    C7 5967   3.018   4.646   0.885  0.6239  0.1177 -0.0882
  399TMC3    C8 5968   3.460   0.074   0.750 -0.2341  0.1877  0.1707
  399TMC3    O1 5969   3.066   4.599   0.988  0.5715 -0.5631  0.2653
  399TMC3    O2 5970   3.520   0.175   0.708 -0.7366  0.5295  0.0028
  400TMC3    C1 5971   1.913   4.511  16.887 -0.0507  0.2955 -0.3655
  400TMC3    C2 5972   1.791   4.483  16.837 -0.6170  0.1728  0.2364
  400TMC3    C3 5973   1.694   4.576  16.833 -1.0532  0.1913 -0.2508
  400TMC3    C4 5974   1.936   4.641  16.934  0.1688 -0.0454  0.1551
  400TMC3    C5 5975   1.836   0.017  16.930  0.1904 -0.2966  0.4757
  400TMC3    C6 5976   1.714   4.704  16.873  0.5986  0.8004 -0.9881
  400TMC3     C 5977   2.000   4.399  16.939 -0.2955 -0.3103 -0.0301
  400TMC3     O 5978   1.958   4.285  16.913 -0.2059 -0.4158  0.5837
  400TMC3     H 5979   1.767   4.380  16.816 -1.1884  0.1485  0.9531
  400TMC3    H1 5980   2.025   4.670  16.987 -0.1594  0.6348  0.3306
  400TMC3    H2 5981   1.645   0.064  16.842 -0.1050  0.7273  0.4246
  400TMC3    C7 5982   1.852   0.142  16.996  1.0804  0.3776  0.5309
  400TMC3    C8 5983   1.566   4.549  16.774 -0.5941  0.1193 -0.0210
  400TMC3    O1 5984   1.963   0.193  17.000  0.3381 -0.2953  0.1417
  400TMC3    O2 5985   1.479   4.628  16.812 -0.3912  0.2815  0.2178
  401MPD2     C 5986   0.785   3.750   1.772  0.1350 -0.6513  0.3811
  401MPD2    C1 5987   0.904   3.674   1.785  0.0758 -0.5113  0.0043
  401MPD2    C2 5988   0.916   3.554   1.709  0.5321  0.7984  0.1656
  401MPD2    C3 5989   0.814   3.509   1.624  0.0084  0.3167  0.0268
  401MPD2    C4 5990   0.704   3.584   1.623  0.1794 -1.1656 -0.4249
  401MPD2    C5 5991   0.683   3.696   1.695  0.7372  0.4472 -0.9513
  401MPD2     H 5992   0.999   3.485   1.721 -0.6600 -0.7971 -0.7235
  401MPD2    H1 5993   0.625   3.552   1.555 -0.0389  2.3759 -1.8264
  401MPD2    H2 5994   0.774   3.847   1.818  1.4851 -0.4425  0.2735
  401MPD2    H3 5995   0.584   3.739   1.683 -0.0006 -1.2647 -0.9496
  401MPD2     N 5996   0.851   3.401   1.542 -0.0807 -0.3594  0.1753
  401MPD2    H5 5997   0.944   3.362   1.551  0.6815  1.5809  0.7802
  401MPD2    N1 5998   1.018   3.711   1.856 -0.0650  0.2490  0.5422
  401MPD2    H7 5999   1.101   3.658   1.833 -0.2973 -0.0816  0.4650
  402TMC3    C1 6000   0.833   3.238   1.375  0.7504  0.4603 -0.7996
  402TMC3    C2 6001   0.855   3.134   1.459 -0.5544 -0.1073  0.2269
  402TMC3    C3 6002   0.904   3.021   1.410 -0.4790  0.4044  0.0209
  402TMC3    C4 6003   0.865   3.240   1.248  0.1433 -0.1638 -0.3380
  402TMC3    C5 6004   0.922   3.128   1.197  0.6035  0.2929  0.1394
  402TMC3    C6 6005   0.947   3.023   1.280  0.4064  0.1030  0.3806
  402TMC3     C 6006   0.777   3.357   1.435 -0.5229 -0.1896  0.2079
  402TMC3     O 6007   0.671   3.387   1.385  0.3083  0.0696 -0.4181
  402TMC3     H 6008   0.815   3.134   1.560  2.7514 -0.4720  1.5617
  402TMC3    H1 6009   0.840   3.328   1.189 -1.9886  0.5873  1.7182
  402TMC3    H2 6010   1.002   2.936   1.247 -2.0815 -0.9619 -1.0130
  402TMC3    C7 6011   0.993   3.142   1.077 -0.2363 -0.0251 -1.0107
  402TMC3    C8 6012   0.968   2.927   1.493  0.1697  0.7573 -0.2588
  402TMC3    O1 6013   1.019   3.255   1.034  0.7321  0.1423  0.0797
  402TMC3    O2 6014   1.000   2.819   1.444  0.3413  0.8461 -0.3582
  403MPD2     C 6015   3.706   0.883  13.553  0.7487 -0.2438  0.2842
  403MPD2    C1 6016   3.605   0.940  13.631 -1.3520  0.4819  0.4160
  403MPD2    C2 6017   3.631   0.975  13.766  0.3257  0.0870  0.2150
  403MPD2    C3 6018   3.755   0.949  13.823  0.1323 -0.1035 -0.4645
  403MPD2    C4 6019   3.853   0.898  13.747  0.3693  0.2618 -0.0590
  403MPD2    C5 6020   3.831   0.872  13.611  0.9754  0.6901 -0.4080
  403MPD2     H 6021   3.552   1.006  13.833 -0.4981 -0.6779 -0.4085
  403MPD2    H1 6022   3.950   0.874  13.791  0.0141  0.5972  0.9156
  403MPD2    H2 6023   3.700   0.848  13.450 -0.2014  0.6718  0.0378
  403MPD2    H3 6024   3.912   0.837  13.548  0.4825  2.5649 -2.1045
  403MPD2     N 6025   3.766   0.996  13.954  0.2631  0.6178 -0.6356
  403MPD2    H5 6026   3.686   1.040  13.998  1.0891  1.2710  0.2058
  403MPD2    N1 6027   3.476   0.933  13.577  0.3952 -1.0592  0.1322
  403MPD2    H7 6028   3.473   0.883  13.489 -0.2665 -0.1171 -0.3821
  404TMC3    C1 6029   3.251   0.916  13.566  0.3710 -0.3694 -0.3152
  404TMC3    C2 6030   3.203   0.815  13.646  1.7038  0.0704  0.0558
  404TMC3    C3 6031   3.192   0.687  13.595 -0.2858  0.1517  0.2163
  404TMC3    C4 6032   3.283   0.878  13.439  0.0864  0.1837  0.6888
  404TMC3    C5 6033   3.262   0.752  13.388  0.3249  0.3264  1.0003
  404TMC3    C6 6034   3.227   0.652  13.465  0.0223  0.2813 -0.2565
  404TMC3     C 6035   3.362   0.981  13.634  0.6040  0.3998  0.3939
  404TMC3     O 6036   3.345   1.032  13.742  0.2579  0.2272 -0.3838
  404TMC3     H 6037   3.179   0.843  13.748 -1.5728 -1.3653 -0.3164
  404TMC3    H1 6038   3.307   0.958  13.369  0.7845  1.1215  2.0131
  404TMC3    H2 6039   3.226   0.551  13.426 -0.6556  0.5876 -1.0170
  404TMC3    C7 6040   3.315   0.722  13.259 -0.3806  1.0692  0.1136
  404TMC3    C8 6041   3.204   0.582  13.690 -0.5429 -0.9666  0.4073
  404TMC3    O1 6042   3.385   0.811  13.205  0.0076 -0.1030 -0.0459
  404TMC3    O2 6043   3.260   0.480  13.649 -0.0934  0.6840 -0.4059
  405MPD2     C 6044   3.650   1.732  15.127  0.0567 -0.5436 -0.0919
  405MPD2    C1 6045   3.582   1.653  15.035  0.2400  0.3352  0.0818
  405MPD2    C2 6046   3.456   1.683  14.987 -0.0429  0.4434  0.6468
  405MPD2    C3 6047   3.390   1.793  15.039 -0.5207 -0.1577 -0.0698
  405MPD2    C4 6048   3.454   1.872  15.131 -0.8835 -0.1893  0.0320
  405MPD2    C5 6049   3.580   1.847  15.171 -0.9787 -0.6236 -0.3856
  405MPD2     H 6050   3.402   1.615  14.921  0.3419  1.6091 -0.8777
  405MPD2    H1 6051   3.414   1.964  15.173 -1.1323 -0.7793  1.0739
  405MPD2    H2 6052   3.741   1.707  15.180  1.2558 -0.4197 -2.0780
  405MPD2    H3 6053   3.612   1.921  15.243  2.0494  1.2670 -3.6474
  405MPD2     N 6054   3.261   1.820  14.992 -0.4607 -0.0138 -0.1431
  405MPD2    H5 6055   3.226   1.761  14.917 -1.2075  0.5313 -0.2293
  405MPD2    N1 6056   3.635   1.526  15.005  0.5989 -0.3829 -0.8306
  405MPD2    H7 6057   3.698   1.488  15.076 -2.4026 -0.6258  1.7100
  406TMC3    C1 6058   2.811   1.915  14.976 -0.1414  0.6888 -0.2831
  406TMC3    C2 6059   2.795   1.791  14.945  0.7970 -0.8446  0.2410
  406TMC3    C3 6060   2.899   1.703  14.946 -0.4810 -0.1567 -0.0602
  406TMC3    C4 6061   2.935   1.967  15.014  0.7662  0.2636 -0.8518
  406TMC3    C5 6062   3.034   1.871  15.012  0.0883 -0.0951 -0.3490
  406TMC3    C6 6063   3.022   1.736  14.986  1.0995 -0.4739  0.0673
  406TMC3     C 6064   2.698   2.006  14.987  0.4415 -0.0851  0.0578
  406TMC3     O 6065   2.712   2.127  14.975  0.4617  0.2189  0.5323
  406TMC3     H 6066   2.702   1.748  14.909  0.1026  1.1667 -0.3947
  406TMC3    H1 6067   2.948   2.072  15.037 -2.7499 -0.0794  2.5507
  406TMC3    H2 6068   3.105   1.667  14.992  0.9432 -0.6836 -0.2132
  406TMC3    C7 6069   3.169   1.910  15.046  0.0533  0.4733 -0.8025
  406TMC3    C8 6070   2.882   1.589  14.858 -0.2164 -0.1441  0.3561
  406TMC3    O1 6071   3.194   2.016  15.102  0.6959 -0.5787 -0.5109
  406TMC3    O2 6072   2.807   1.610  14.761  0.0604  0.2502  0.2394
  407MPD2     C 6073   1.374   2.903   9.735  0.6087 -0.6135  0.4992
  407MPD2    C1 6074   1.503   2.873   9.765  0.1113  0.4764 -0.2091
  407MPD2    C2 6075   1.553   2.899   9.891 -0.2133  0.0609  0.0403
  407MPD2    C3 6076   1.473   2.952   9.989 -0.9359  0.2109 -0.1447
  407MPD2    C4 6077   1.341   2.982   9.963  0.3483  0.1720  0.2220
  407MPD2    C5 6078   1.297   2.960   9.837 -0.5727  0.2184 -0.0297
  407MPD2     H 6079   1.656   2.869   9.909  0.3768  0.2125 -3.1480
  407MPD2    H1 6080   1.280   3.033  10.036  0.2213 -2.7670  2.1609
  407MPD2    H2 6081   1.323   2.890   9.641  1.5789 -0.9269  0.0206
  407MPD2    H3 6082   1.203   3.004   9.806 -0.3042  0.4964 -0.4463
  407MPD2     N 6083   1.513   2.971  10.121 -0.1665  0.3878 -0.3104
  407MPD2    H5 6084   1.450   3.030  10.175  2.2063  1.4020  1.3691
  407MPD2    N1 6085   1.597   2.812   9.670 -0.3825  0.6361 -0.1723
  407MPD2    H7 6086   1.696   2.823   9.691 -0.0515 -0.3949 -1.1660
  408TMC3    C1 6087   1.693   2.746   9.463 -0.7704  0.4981  0.4655
  408TMC3    C2 6088   1.793   2.678   9.531  0.2146 -0.8271 -0.1115
  408TMC3    C3 6089   1.922   2.691   9.489  0.1133  0.3882 -0.0228
  408TMC3    C4 6090   1.720   2.826   9.357 -0.2697  0.1334  0.0443
  408TMC3    C5 6091   1.853   2.845   9.314  0.1020 -0.1494 -0.1741
  408TMC3    C6 6092   1.953   2.775   9.380 -0.0285 -0.1491  0.9897
  408TMC3     C 6093   1.574   2.782   9.536 -0.5843  0.1969  0.0240
  408TMC3     O 6094   1.472   2.811   9.473  0.0055  0.3220  0.3122
  408TMC3     H 6095   1.765   2.617   9.616 -0.0887  0.9189  1.0372
  408TMC3    H1 6096   1.640   2.882   9.312  0.6902  1.1359 -0.4032
  408TMC3    H2 6097   2.052   2.803   9.346 -0.0814 -1.6827 -0.4481
  408TMC3    C7 6098   1.892   2.984   9.288  0.0979  0.0593  0.0511
  408TMC3    C8 6099   2.033   2.626   9.555 -0.5200 -0.1837 -0.0637
  408TMC3    O1 6100   2.005   3.021   9.320  0.0253  0.1278  0.0386
  408TMC3    O2 6101   2.013   2.522   9.616  0.2542  0.3727  0.0462
  409MPD2     C 6102   0.512   3.852  17.226  0.6847  0.0618 -0.1656
  409MPD2    C1 6103   0.645   3.819  17.237  0.0795 -0.1667 -0.1200
  409MPD2    C2 6104   0.737   3.915  17.194 -0.4436  0.4359  0.0030
  409MPD2    C3 6105   0.700   4.029  17.128  0.1578 -0.7388  0.0141
  409MPD2    C4 6106   0.569   4.054  17.125  0.1021 -0.8366 -0.3491
  409MPD2    C5 6107   0.469   3.969  17.171  0.0939 -0.3969 -0.7313
  409MPD2     H 6108   0.842   3.892  17.206  0.3122  3.7755 -0.2848
  409MPD2    H1 6109   0.534   4.148  17.084  2.1812 -0.9905 -2.4640
  409MPD2    H2 6110   0.432   3.783  17.252  0.9630 -0.1423  0.1492
  409MPD2    H3 6111   0.364   3.994  17.176  0.2304 -0.2051  1.5202
  409MPD2     N 6112   0.776   4.128  17.072 -0.2504  1.0632  0.0773
  409MPD2    H5 6113   0.732   4.210  17.032 -0.1995  0.3630 -1.4261
  409MPD2    N1 6114   0.687   3.693  17.295  0.1271 -0.1827  0.1589
  409MPD2    H7 6115   0.787   3.678  17.284  0.0784 -0.0814 -0.4189
  410TMC3    C1 6116   0.981   4.240  17.023  0.7558  0.4280  0.6207
  410TMC3    C2 6117   1.111   4.269  17.054  0.1598 -0.0701  0.2434
  410TMC3    C3 6118   1.158   4.391  17.016  0.8842 -0.2783 -0.2999
  410TMC3    C4 6119   0.900   4.319  16.946 -0.7572  0.2398 -0.6661
  410TMC3    C5 6120   0.953   4.445  16.915 -0.1305 -0.1200  0.9044
  410TMC3    C6 6121   1.079   4.481  16.957  1.0684  0.2554 -0.4859
  410TMC3     C 6122   0.919   4.121  17.079 -0.1400 -0.1487  0.0136
  410TMC3     O 6123   0.995   4.045  17.142 -0.1466  0.2237 -0.4838
  410TMC3     H 6124   1.169   4.199  17.113 -0.7568 -2.8690 -2.1475
  410TMC3    H1 6125   0.810   4.283  16.897  0.6620 -1.1733 -2.1829
  410TMC3    H2 6126   1.127   4.572  16.921  0.8042  0.7155  0.3185
  410TMC3    C7 6127   0.902   4.498  16.790 -0.0707  0.2784  0.7618
  410TMC3    C8 6128   1.302   4.416  17.028  0.0363 -0.3074  0.0427
  410TMC3    O1 6129   0.865   4.415  16.710  0.0880 -0.7625  0.8908
  410TMC3    O2 6130   1.321   4.519  17.087 -0.0595 -0.1656 -0.6329
  411MPD2     C 6131   1.404   0.205  14.405  0.0299 -0.3761  0.1804
  411MPD2    C1 6132   1.281   0.195  14.466 -0.2646 -0.0592  0.0936
  411MPD2    C2 6133   1.221   0.071  14.486 -0.2556 -0.0192  0.1835
  411MPD2    C3 6134   1.289   4.677  14.440 -0.0533  0.1818  0.2979
  411MPD2    C4 6135   1.415   4.691  14.391  0.5889  0.1053  0.2532
  411MPD2    C5 6136   1.471   0.095  14.364  0.1004  0.5342  0.0301
  411MPD2     H 6137   1.127   0.058  14.539  0.6062 -0.3990  1.6175
  411MPD2    H1 6138   1.469   4.612  14.342  2.2998  0.5322  1.4541
  411MPD2    H2 6139   1.448   0.303  14.391  1.6818 -1.0449  0.7395
  411MPD2    H3 6140   1.552   0.104  14.293  0.8708  1.6442  1.0484
  411MPD2     N 6141   1.229   4.548  14.443  0.0060 -0.7526  0.2807
  411MPD2    H5 6142   1.278   4.478  14.389  0.4318 -0.2491  0.0098
  411MPD2    N1 6143   1.225   0.316  14.518  0.7910  0.0786 -0.1393
  411MPD2    H7 6144   1.267   0.402  14.483  1.0820 -0.7384 -1.7749
  412TMC3    C1 6145   1.079   4.368  14.473  0.1897  0.1423  0.5443
  412TMC3    C2 6146   0.986   4.315  14.554  0.7856  0.7043 -0.0139
  412TMC3    C3 6147   0.937   4.186  14.526 -0.3603 -0.3585  0.4976
  412TMC3    C4 6148   1.125   4.313  14.358  0.5223 -1.4116 -0.7127
  412TMC3    C5 6149   1.054   4.200  14.322  0.0789 -0.1851 -0.3588
  412TMC3    C6 6150   0.978   4.129  14.413 -0.2401  0.0523  0.1775
  412TMC3     C 6151   1.106   4.512  14.497  0.1197 -0.9863 -0.3117
  412TMC3     O 6152   1.031   4.579  14.564  0.6260 -0.2293 -0.3718
  412TMC3     H 6153   0.923   4.366  14.626  1.1931  1.0118  0.1184
  412TMC3    H1 6154   1.196   4.352  14.286  0.7226  0.6704  0.6366
  412TMC3    H2 6155   0.933   4.036  14.382 -0.2443  0.7033 -1.7949
  412TMC3    C7 6156   1.009   4.172  14.180 -0.0412 -0.8923 -0.3700
  412TMC3    C8 6157   0.789   4.179  14.542 -0.3714 -0.1120  0.1997
  412TMC3    O1 6158   0.914   4.091  14.167  0.2817 -0.2788 -0.4674
  412TMC3    O2 6159   0.740   4.193  14.654  0.1672 -0.3235  0.3649
  413MPD2     C 6160   2.541   2.883  15.648  0.0007 -0.5302  0.1577
  413MPD2    C1 6161   2.481   2.812  15.557  0.5667 -0.0853  0.7717
  413MPD2    C2 6162   2.546   2.701  15.504  0.0609 -0.2015 -0.2162
  413MPD2    C3 6163   2.662   2.653  15.559 -0.2115 -0.2596  0.3877
  413MPD2    C4 6164   2.717   2.728  15.656  0.0284 -0.4746 -0.5405
  413MPD2    C5 6165   2.660   2.843  15.698  0.1528  0.5010  0.1746
  413MPD2     H 6166   2.510   2.638  15.423  1.3645 -0.1534 -0.8341
  413MPD2    H1 6167   2.815   2.702  15.696  0.0656  1.7354  0.8554
  413MPD2    H2 6168   2.493   2.969  15.695 -2.1734 -1.2332 -0.7467
  413MPD2    H3 6169   2.707   2.903  15.775 -2.2964  0.6130  1.5703
  413MPD2     N 6170   2.720   2.536  15.506  1.2918  0.6824 -0.6078
  413MPD2    H5 6171   2.683   2.506  15.417 -0.9830  0.0501  0.5484
  413MPD2    N1 6172   2.358   2.858  15.513  0.3032 -0.1563  0.3191
  413MPD2    H7 6173   2.319   2.944  15.550  0.4252 -0.7647  1.8762
  414TMC3    C1 6174   2.858   2.346  15.488 -0.2116  0.0367  0.3065
  414TMC3    C2 6175   2.929   2.244  15.551  0.1289  0.0738  0.9325
  414TMC3    C3 6176   2.995   2.150  15.483  0.8789 -0.2396  0.1009
  414TMC3    C4 6177   2.863   2.357  15.351 -0.0727 -0.2284 -0.1015
  414TMC3    C5 6178   2.949   2.268  15.289 -0.1849  0.0039 -0.5519
  414TMC3    C6 6179   3.014   2.162  15.350 -0.1908 -0.3899  0.2702
  414TMC3     C 6180   2.832   2.469  15.556  0.6561  0.3173 -1.2885
  414TMC3     O 6181   2.874   2.483  15.670  0.4774  0.5989 -0.0054
  414TMC3     H 6182   2.917   2.228  15.658 -1.7729 -2.2527  0.3573
  414TMC3    H1 6183   2.833   2.447  15.298 -0.2599  0.6136  1.4523
  414TMC3    H2 6184   3.070   2.090  15.292 -1.4022 -0.6769 -0.5581
  414TMC3    C7 6185   3.024   2.317  15.173 -0.3621  0.3797  0.4014
  414TMC3    C8 6186   3.094   2.068  15.554 -0.2347 -0.2328  0.3548
  414TMC3    O1 6187   2.959   2.386  15.097 -0.8981  0.1989 -0.3059
  414TMC3    O2 6188   3.099   1.952  15.512  0.4462  0.0145 -0.3609
  415TMC3    C1 6189   4.007   3.907   9.754  0.5468 -0.8179  0.6052
  415TMC3    C2 6190   4.054   4.013   9.683  0.2729  0.6385 -0.0182
  415TMC3    C3 6191   3.986   4.051   9.568  0.4545 -0.2534  0.2059
  415TMC3    C4 6192   3.891   3.840   9.715 -0.5928  0.1210 -0.2070
  415TMC3    C5 6193   3.826   3.879   9.600 -0.3695  0.4595 -0.1677
  415TMC3    C6 6194   3.877   3.984   9.530 -0.0631 -0.3139  0.2036
  415TMC3     C 6195   4.021   3.919   9.898  0.0613  0.3739  0.5680
  415TMC3     O 6196   4.009   3.817   9.962  0.0765  0.2709  0.2954
  415TMC3     H 6197   4.146   4.061   9.715  1.1637 -0.5778 -0.7012
  415TMC3    H1 6198   3.836   3.787   9.791 -0.7184 -1.4863 -1.4037
  415TMC3    H2 6199   3.824   4.015   9.441  0.0101 -2.0473 -0.4423
  415TMC3    C7 6200   3.687   3.842   9.588  0.2654 -0.8299  0.2957
  415TMC3    C8 6201   3.958   4.192   9.571 -0.6740  0.5013 -0.3892
  415TMC3    O1 6202   3.642   3.840   9.470 -0.3943  0.1501  0.1859
  415TMC3    O2 6203   3.837   4.220   9.573  0.1920 -0.3599 -0.0322
  416MPD2     C 6204   0.534   4.517  11.264 -0.5006 -0.1489  0.4293
  416MPD2    C1 6205   0.488   4.456  11.379 -0.4888 -0.1971  0.2979
  416MPD2    C2 6206   0.503   4.314  11.381  0.0221  0.1542 -0.0343
  416MPD2    C3 6207   0.570   4.244  11.277  0.0412  0.3357 -0.0756
  416MPD2    C4 6208   0.620   4.314  11.171 -0.4994  0.7990 -0.9927
  416MPD2    C5 6209   0.597   4.452  11.163 -0.6954 -0.0503  0.1871
  416MPD2     H 6210   0.458   4.266  11.467  0.8906  0.7457  0.7516
  416MPD2    H1 6211   0.673   4.262  11.093 -0.2598 -1.2634  0.5493
  416MPD2    H2 6212   0.502   4.620  11.252 -3.1654 -0.8377  1.6163
  416MPD2    H3 6213   0.618   4.494  11.065  2.6159 -0.0387  0.9004
  416MPD2     N 6214   0.597   4.104  11.268 -0.9633 -0.0175  0.4539
  416MPD2    H5 6215   0.656   4.072  11.192 -1.2805  1.4582 -0.4205
  416MPD2    N1 6216   0.405   4.527  11.466 -0.6105 -0.2113  0.2557
  416MPD2    H7 6217   0.377   4.619  11.435  0.9571  0.5287  1.0767
  417TMC3    C1 6218   0.236   4.557  11.622  0.7666  0.0749 -0.0585
  417TMC3    C2 6219   0.187   4.535  11.752  0.3286  0.6086 -0.2232
  417TMC3    C3 6220   0.071   4.587  11.799 -0.3040 -0.9834  0.2336
  417TMC3    C4 6221   0.155   4.615  11.530 -0.1063 -0.8671  0.3377
  417TMC3    C5 6222   0.032   4.645  11.572 -0.8555 -0.0272 -0.2462
  417TMC3    C6 6223   4.704   4.635  11.701 -0.3759 -0.1323 -0.7402
  417TMC3     C 6224   0.331   4.468  11.566 -0.9409 -0.3966  0.5539
  417TMC3     O 6225   0.338   4.358  11.627 -0.4881  0.2537 -0.3266
  417TMC3     H 6226   0.236   4.461  11.814 -2.0243 -1.3150 -0.6587
  417TMC3    H1 6227   0.182   4.622  11.426  2.1577 -0.1768  0.9674
  417TMC3    H2 6228   4.601   4.661  11.725  0.1025  2.3218 -1.4093
  417TMC3    C7 6229   4.666   4.706  11.472  0.3925 -0.8873 -0.1731
  417TMC3    C8 6230   0.011   4.524  11.908  0.0117  0.7220  0.2291
  417TMC3    O1 6231   4.718   0.028  11.372  0.0305 -0.4499  0.6063
  417TMC3    O2 6232   4.610   4.495  11.898 -0.4797  0.4235  0.6207
  418TMC3    C1 6233   3.607   1.064   0.566  0.2110  0.1048 -0.4413
  418TMC3    C2 6234   3.479   1.033   0.555 -1.1881 -0.2241  0.1956
  418TMC3    C3 6235   3.412   1.011   0.670  0.6391  0.0138  0.1337
  418TMC3    C4 6236   3.685   1.066   0.681 -0.1440 -0.2002 -0.4043
  418TMC3    C5 6237   3.613   1.039   0.796  0.4809  0.1164 -0.1494
  418TMC3    C6 6238   3.479   1.013   0.793  0.9411  0.2956  0.0889
  418TMC3     C 6239   3.675   1.085   0.443 -0.7668  0.1076 -0.0717
  418TMC3     O 6240   3.611   1.119   0.350 -0.7578  0.9091 -0.4112
  418TMC3     H 6241   3.440   1.016   0.456 -0.6794 -2.4507  0.3679
  418TMC3    H1 6242   3.783   1.112   0.670 -0.2413 -0.2867 -1.6595
  418TMC3    H2 6243   3.420   0.992   0.882  0.6654  0.4200 -0.0634
  418TMC3    C7 6244   3.685   0.974   0.902  0.5246 -1.0516 -0.2492
  418TMC3    C8 6245   3.337   0.890   0.657 -0.5207 -0.4850  1.2032
  418TMC3    O1 6246   3.628   0.913   0.991  0.3225  0.1621  0.2354
  418TMC3    O2 6247   3.365   0.813   0.747  0.1917  0.1878 -0.0630
  419MPD2     C 6248   1.850   4.269  12.375  0.7020 -0.0091 -0.1788
  419MPD2    C1 6249   1.974   4.292  12.435  0.9950 -0.1573  0.1541
  419MPD2    C2 6250   1.976   4.360  12.560 -0.2184  0.1071  0.1095
  419MPD2    C3 6251   1.863   4.433  12.604  0.0266  0.4482  0.2081
  419MPD2    C4 6252   1.746   4.422  12.533 -0.2961 -0.0676 -0.1117
  419MPD2    C5 6253   1.739   4.330  12.429  0.1203 -0.1013 -0.6386
  419MPD2     H 6254   2.072   4.359  12.609  0.3562  2.1741 -0.9912
  419MPD2    H1 6255   1.658   4.476  12.565  1.2116  1.8998  0.7592
  419MPD2    H2 6256   1.834   4.192  12.300 -1.4966 -0.3343  0.6389
  419MPD2    H3 6257   1.642   4.298  12.392 -0.5069  1.7917 -0.6366
  419MPD2     N 6258   1.860   4.502  12.725 -0.0017 -0.0921 -0.4568
  419MPD2    H5 6259   1.780   4.557  12.752  0.0733  0.3326 -1.0788
  419MPD2    N1 6260   2.092   4.231  12.396  0.5042 -0.1739  0.3547
  419MPD2    H7 6261   2.180   4.244  12.444  0.7347  0.7474 -0.3190
  420TMC3    C1 6262   1.940   4.589  12.922  0.1162 -0.0127 -0.3205
  420TMC3    C2 6263   1.923   4.713  12.865  0.2126 -0.2489  0.1656
  420TMC3    C3 6264   2.014   0.091  12.901 -0.4798  0.2139 -0.1986
  420TMC3    C4 6265   2.020   4.576  13.032  0.2835  0.1684 -0.1250
  420TMC3    C5 6266   2.097   4.673  13.076  0.6180  0.3328 -0.4473
  420TMC3    C6 6267   2.105   0.075  12.999  0.1478  0.1522 -0.8413
  420TMC3     C 6268   1.958   4.492  12.820 -0.3368 -0.2386  0.1247
  420TMC3     O 6269   2.057   4.419  12.832  0.4136 -0.2367  0.3391
  420TMC3     H 6270   1.876   0.007  12.768  1.1359 -1.2421 -0.4040
  420TMC3    H1 6271   2.042   4.473  13.056 -1.3997  0.4797  2.7933
  420TMC3    H2 6272   2.156   0.163  13.036 -1.7205  1.6237 -1.7586
  420TMC3    C7 6273   2.170   4.645  13.200  0.4572 -0.0591  0.1888
  420TMC3    C8 6274   2.057   0.175  12.797  0.3422 -0.0006 -0.3961
  420TMC3    O1 6275   2.138   4.544  13.259 -0.4931  0.2642  0.5736
  420TMC3    O2 6276   1.971   0.216  12.717 -0.3216  0.1134  0.0081
  421TMC3    C1 6277   3.873   1.025  14.161  0.1992 -0.1562  0.2803
  421TMC3    C2 6278   3.851   1.160  14.171 -0.1011 -0.4516 -0.2589
  421TMC3    C3 6279   3.936   1.237  14.246 -0.0594  0.4418  0.2953
  421TMC3    C4 6280   3.977   0.964  14.230  0.7150 -0.1794 -0.3215
  421TMC3    C5 6281   4.059   1.048  14.307 -0.1544 -0.2337  0.2290
  421TMC3    C6 6282   4.038   1.183  14.313  0.2841  0.2195 -0.3112
  421TMC3     C 6283   3.884   0.978  14.021  0.0656  0.3878  0.0043
  421TMC3     O 6284   3.987   0.917  14.001 -0.0062 -0.5552  0.3317
  421TMC3     H 6285   3.774   1.202  14.108 -0.0528  0.8617  0.5507
  421TMC3    H1 6286   4.001   0.860  14.214 -1.8006 -0.9811  1.1543
  421TMC3    H2 6287   4.107   1.243  14.371  0.2426 -0.4452  0.4190
  421TMC3    C7 6288   4.174   0.999  14.371 -0.0011  0.3904  0.0093
  421TMC3    C8 6289   3.885   1.361  14.290 -0.3559  0.2381 -0.2190
  421TMC3    O1 6290   4.270   1.072  14.366  0.0319  0.4803 -0.4245
  421TMC3    O2 6291   3.765   1.372  14.282  0.4088 -0.6874 -0.2526
  422TMC3    C1 6292   1.333   2.373  12.663 -0.3043 -0.3996  0.1300
  422TMC3    C2 6293   1.300   2.489  12.725 -0.6759  0.3220 -0.0413
  422TMC3    C3 6294   1.210   2.472  12.823 -0.3247  0.1165  0.2357
  422TMC3    C4 6295   1.282   2.251  12.695  0.0373 -0.0880 -0.5141
  422TMC3    C5 6296   1.181   2.248  12.782 -0.7859  0.4028  0.7205
  422TMC3    C6 6297   1.139   2.359  12.853 -0.1755  0.6437 -0.2732
  422TMC3     C 6298   1.467   2.381  12.606  0.3801  0.2956 -0.6539
  422TMC3     O 6299   1.471   2.479  12.529 -0.1346 -0.0851  0.1307
  422TMC3     H 6300   1.359   2.579  12.710 -1.6022  1.0322  0.5707
  422TMC3    H1 6301   1.313   2.156  12.655  1.9373 -0.0715  0.8807
  422TMC3    H2 6302   1.066   2.350  12.934 -3.3573  1.3818 -3.0597
  422TMC3    C7 6303   1.125   2.120  12.814 -0.5159 -0.2546  0.0741
  422TMC3    C8 6304   1.183   2.586  12.908  0.8662  0.4417  0.5876
  422TMC3    O1 6305   1.185   2.016  12.794  0.3781  0.7774  0.1745
  422TMC3    O2 6306   1.258   2.679  12.897 -0.0696 -0.0225 -0.1832
  423MPD2     C 6307   2.443   3.469   0.867  0.1528  0.4203 -0.1449
  423MPD2    C1 6308   2.571   3.417   0.855 -0.2537 -0.3466 -0.1707
  423MPD2    C2 6309   2.601   3.359   0.732  0.9299 -0.3549 -0.1931
  423MPD2    C3 6310   2.507   3.361   0.626 -0.5941 -0.5660 -0.0422
  423MPD2    C4 6311   2.387   3.431   0.640  0.2395 -0.2589  0.7740
  423MPD2    C5 6312   2.353   3.480   0.761 -0.0239 -0.9666 -0.0298
  423MPD2     H 6313   2.697   3.310   0.723  1.8252  1.8576 -2.3858
  423MPD2    H1 6314   2.320   3.459   0.560  1.8688 -2.8929 -1.4938
  423MPD2    H2 6315   2.409   3.515   0.959  0.0311 -0.9681  0.4992
  423MPD2    H3 6316   2.256   3.525   0.775  1.5481  3.0515 -2.0238
  423MPD2     N 6317   2.522   3.308   0.501  0.7375  0.1761 -0.0144
  423MPD2    H5 6318   2.471   3.331   0.417 -0.8977 -0.3160  0.8581
  423MPD2    N1 6319   2.663   3.416   0.963 -0.9903  0.1985  0.4207
  423MPD2    H7 6320   2.753   3.372   0.943 -0.4429  0.7903  1.6488
  424TMC3    C1 6321   2.741   3.428   1.193  0.0352 -0.6395  0.0260
  424TMC3    C2 6322   2.871   3.405   1.140  0.3416  0.1329 -0.2900
  424TMC3    C3 6323   2.976   3.411   1.234 -0.3835  0.2107  0.3423
  424TMC3    C4 6324   2.714   3.448   1.326  0.1496 -0.6331 -0.5905
  424TMC3    C5 6325   2.815   3.424   1.413  0.4346 -0.0210 -0.1642
  424TMC3    C6 6326   2.948   3.412   1.369 -0.4407 -0.2956  0.0529
  424TMC3     C 6327   2.638   3.457   1.093  0.7865 -0.0963  0.1892
  424TMC3     O 6328   2.540   3.517   1.139 -0.0312 -0.3910 -0.4393
  424TMC3     H 6329   2.902   3.399   1.036  0.8705  1.2611 -0.1978
  424TMC3    H1 6330   2.613   3.469   1.359  0.2605 -0.5792 -0.2870
  424TMC3    H2 6331   3.029   3.442   1.434 -0.7212 -1.5024  0.9655
  424TMC3    C7 6332   2.784   3.471   1.550  0.4847  0.5083 -0.5838
  424TMC3    C8 6333   3.107   3.359   1.208 -0.0545  0.4977 -0.3296
  424TMC3    O1 6334   2.675   3.506   1.590  0.6008  0.2113 -0.3724
  424TMC3    O2 6335   3.159   3.392   1.103  0.3960 -0.1185  0.4170
  425MPD2     C 6336   1.602   3.197  17.281  0.1692 -0.0010  0.5130
  425MPD2    C1 6337   1.637   3.119  17.387  0.4596  0.5935  0.1668
  425MPD2    C2 6338   1.601   3.169  17.511  0.1223  0.0168 -0.1280
  425MPD2    C3 6339   1.518   3.276  17.531 -0.2134  0.2923 -0.1459
  425MPD2    C4 6340   1.489   3.354  17.422 -0.7823  0.0818 -0.1472
  425MPD2    C5 6341   1.539   3.319  17.300  0.2546  0.5504 -0.0262
  425MPD2     H 6342   1.629   3.120  17.603 -1.2351 -1.6161 -0.5996
  425MPD2    H1 6343   1.428   3.444  17.426 -3.2555 -1.5864 -0.1788
  425MPD2    H2 6344   1.621   3.168  17.178  2.0716 -0.5026  1.0076
  425MPD2    H3 6345   1.527   3.380  17.211  0.3519  0.6197  0.0094
  425MPD2     N 6346   1.465   3.293  17.660 -0.8050 -0.2837 -0.2170
  425MPD2    H5 6347   1.502   3.228   0.053 -2.0526  1.0879  1.7699
  425MPD2    N1 6348   1.696   2.990  17.373  0.3797  0.3167 -0.4270
  425MPD2    H7 6349   1.713   2.967  17.276  0.2099  0.7591 -0.5629
  426TMC3    C1 6350   1.767   2.765  17.448  0.8818  0.0091  0.0222
  426TMC3    C2 6351   1.722   2.698  17.337 -0.2751 -0.6690  0.0644
  426TMC3    C3 6352   1.747   2.567  17.313  0.6842  0.4275  0.2627
  426TMC3    C4 6353   1.853   2.700  17.534 -0.0800  0.0140  0.3163
  426TMC3    C5 6354   1.878   2.572  17.498  0.4601 -0.7656  0.0585
  426TMC3    C6 6355   1.836   2.500  17.392 -0.3819  0.2412 -0.9357
  426TMC3     C 6356   1.738   2.907  17.479 -0.1051 -0.4318  0.0067
  426TMC3     O 6357   1.771   2.946  17.591 -0.1878  0.3728  0.3592
  426TMC3     H 6358   1.647   2.743  17.272  1.5988  1.8928 -0.3371
  426TMC3    H1 6359   1.890   2.743  17.627 -0.1960 -0.9776  0.8266
  426TMC3    H2 6360   1.842   2.393  17.382 -1.7728  0.0760 -0.0015
  426TMC3    C7 6361   1.926   2.481  17.602 -0.1820 -1.0848  0.0536
  426TMC3    C8 6362   1.730   2.508  17.184  0.6098  0.3019 -1.2877
  426TMC3    O1 6363   1.989   2.385  17.562  0.2491  0.0721 -0.6363
  426TMC3    O2 6364   1.808   2.421  17.152 -0.4007 -0.6397  0.0029
  427MPD2     C 6365   0.103   0.405  15.448  0.3529 -0.6131 -0.2378
  427MPD2    C1 6366   0.095   0.268  15.458  0.2435  0.0172 -0.2786
  427MPD2    C2 6367   4.689   0.212  15.503 -0.0009 -0.1008  1.2487
  427MPD2    C3 6368   4.584   0.299  15.536 -0.0193  0.4396 -0.0223
  427MPD2    C4 6369   4.593   0.434  15.528  0.3116  0.3138 -0.0829
  427MPD2    C5 6370   4.710   0.481  15.481  0.1676 -0.1296 -0.6250
  427MPD2     H 6371   4.680   0.104  15.504 -1.4992  0.0121  0.2420
  427MPD2    H1 6372   4.513   0.506  15.543  1.8106  1.8584  0.5896
  427MPD2    H2 6373   0.186   0.455  15.399 -0.7914 -0.8429 -2.3862
  427MPD2    H3 6374   0.004   0.588  15.474 -2.0931  0.1628  0.0974
  427MPD2     N 6375   4.456   0.249  15.564  0.3104 -0.0285 -0.3617
  427MPD2    H5 6376   4.386   0.322  15.569  0.9850  0.6189 -0.3546
  427MPD2    N1 6377   0.200   0.177  15.428 -0.4357  0.4195 -0.3635
  427MPD2    H7 6378   0.188   0.078  15.443  0.3478  0.3822  0.0554
  428TMC3    C1 6379   0.417   0.107  15.370  0.3922  0.3036  0.0351
  428TMC3    C2 6380   0.404   4.706  15.449 -0.4572 -0.3682 -0.7368
  428TMC3    C3 6381   0.512   4.622  15.436  0.4482  0.2261 -0.3691
  428TMC3    C4 6382   0.525   0.121  15.289  0.4048  0.6002  0.0062
  428TMC3    C5 6383   0.625   0.034  15.275 -0.7180  0.4018 -0.1770
  428TMC3    C6 6384   0.618   4.641  15.354 -0.1234  0.7715 -0.3726
  428TMC3     C 6385   0.326   0.216  15.386 -0.2810  0.5419 -0.2530
  428TMC3     O 6386   0.376   0.326  15.357  0.2175  0.2454 -0.8407
  428TMC3     H 6387   0.323   4.676  15.514  1.1057  0.4648  1.5806
  428TMC3    H1 6388   0.542   0.211  15.231 -4.0695  2.2128  1.2376
  428TMC3    H2 6389   0.693   4.562  15.349 -0.1241  0.6418  1.7679
  428TMC3    C7 6390   0.756   0.093  15.295 -0.0583 -0.6642  0.3135
  428TMC3    C8 6391   0.504   4.494  15.495 -0.0284 -0.1365  0.5006
  428TMC3    O1 6392   0.803   0.078  15.408 -0.1611 -0.2718  0.2302
  428TMC3    O2 6393   0.550   4.395  15.442 -0.5200  0.4621 -0.0082
  429MPD2     C 6394   1.115   4.704   0.475 -0.0359  0.2948 -0.3596
  429MPD2    C1 6395   1.169   4.655   0.363 -0.8280  0.7220 -0.5224
  429MPD2    C2 6396   1.183   0.017   0.249  0.3552  0.2983  0.0841
  429MPD2    C3 6397   1.152   0.149   0.254  0.0066 -0.9328 -0.7029
  429MPD2    C4 6398   1.105   0.202   0.371 -0.2292 -0.1654 -0.1473
  429MPD2    C5 6399   1.074   0.120   0.483  0.8440 -0.2706  0.2997
  429MPD2     H 6400   1.205   4.693   0.151 -0.8832  1.7106 -0.8021
  429MPD2    H1 6401   1.063   0.302   0.377 -0.1549 -0.2047  0.9294
  429MPD2    H2 6402   1.105   4.642   0.564  0.3421  1.1919  0.3149
  429MPD2    H3 6403   1.048   0.167   0.577 -0.5966  2.4198 -1.4794
  429MPD2     N 6404   1.166   0.232   0.136 -0.0685  0.0006 -0.1661
  429MPD2    H5 6405   1.194   0.182   0.053  1.3789  1.4900 -0.5623
  429MPD2    N1 6406   1.206   4.513   0.363  0.2750 -0.4894  0.3712
  429MPD2    H7 6407   1.261   4.479   0.285 -1.2228  1.3542 -1.4868
  430TMC3    C1 6408   1.177   0.427  17.669  0.4133  0.1917  0.5473
  430TMC3    C2 6409   1.128   0.550  17.641  0.0823 -0.1537  0.2532
  430TMC3    C3 6410   1.157   0.611  17.521  0.2662 -0.0013  0.1740
  430TMC3    C4 6411   1.289   0.383  17.607  0.5528  0.2373 -0.3254
  430TMC3    C5 6412   1.324   0.446  17.489 -0.3280  0.0115 -0.1538
  430TMC3    C6 6413   1.252   0.558  17.447  0.9704  0.2668  1.0563
  430TMC3     C 6414   1.155   0.372   0.124  0.6095  0.4546  0.4182
  430TMC3     O 6415   1.128   0.453   0.211  0.4406 -0.3236  0.2708
  430TMC3     H 6416   1.055   0.592   0.034  0.1147 -1.8617  1.3419
  430TMC3    H1 6417   1.362   0.318  17.654 -0.4454 -1.3348 -0.9493
  430TMC3    H2 6418   1.287   0.617  17.363  3.6536 -0.3678  1.7066
  430TMC3    C7 6419   1.423   0.398  17.402  0.0999  0.2553 -0.3407
  430TMC3    C8 6420   1.065   0.708  17.464  0.1956  0.6333 -0.1422
  430TMC3    O1 6421   1.441   0.277  17.408  0.0913 -0.0508  0.4316
  430TMC3    O2 6422   1.008   0.772  17.553  0.7059  0.4941  0.8099
  431MPD2     C 6423   2.612   4.298  12.948  0.3262  0.0072  0.7984
  431MPD2    C1 6424   2.642   4.342  12.823 -0.3836  0.1129 -0.1422
  431MPD2    C2 6425   2.604   4.264  12.709 -0.5002  0.2091  0.7480
  431MPD2    C3 6426   2.527   4.149  12.726 -0.4974  0.0954 -0.2131
  431MPD2    C4 6427   2.500   4.100  12.856  0.0607 -0.4151 -1.0381
  431MPD2    C5 6428   2.542   4.183  12.960 -0.4340 -0.3932  0.4655
  431MPD2     H 6429   2.626   4.308  12.613 -0.8313 -1.1799  0.0340
  431MPD2    H1 6430   2.440   4.012  12.877 -2.1034  0.7592 -2.3034
  431MPD2    H2 6431   2.637   4.361  13.033  2.1769  0.9742 -0.4409
  431MPD2    H3 6432   2.519   4.146  13.059 -1.3190  1.1083  0.8145
  431MPD2     N 6433   2.488   4.076  12.616 -0.2249 -0.1490  0.4045
  431MPD2    H5 6434   2.404   4.021  12.633  0.6651 -1.5047  0.3634
  431MPD2    N1 6435   2.701   4.467  12.797  1.0380  0.2968 -0.4138
  431MPD2    H7 6436   2.746   4.476  12.706 -1.3916  0.6520 -1.5760
  432TMC3    C1 6437   2.437   4.035  12.390  0.6019 -0.1246 -0.0674
  432TMC3    C2 6438   2.491   4.029  12.268  0.1682  0.5304  0.5208
  432TMC3    C3 6439   2.411   4.009  12.164 -0.0012 -0.3463 -0.0445
  432TMC3    C4 6440   2.306   4.073  12.406  0.4457 -0.0246 -0.2000
  432TMC3    C5 6441   2.227   4.073  12.295  0.0525  0.5713 -0.6212
  432TMC3    C6 6442   2.276   4.035  12.172 -0.4489 -0.0024 -0.8770
  432TMC3     C 6443   2.534   4.097  12.489 -0.2732 -0.0316 -0.1148
  432TMC3     O 6444   2.633   4.146  12.437 -0.1039  0.5129  0.4625
  432TMC3     H 6445   2.595   3.999  12.269  0.4084  1.2994 -0.5972
  432TMC3    H1 6446   2.269   4.097  12.504 -2.0013 -1.0914 -0.8560
  432TMC3    H2 6447   2.211   4.041  12.087 -0.9024  0.9417 -0.4609
  432TMC3    C7 6448   2.100   4.135  12.298 -0.5578  0.3716  0.5220
  432TMC3    C8 6449   2.449   3.977  12.029  0.4198 -0.0783  0.1050
  432TMC3    O1 6450   2.030   4.122  12.202  0.7381 -0.4945 -0.3731
  432TMC3    O2 6451   2.368   3.918  11.954 -0.0627 -0.5854  0.3715
  433MPD2     C 6452   1.847   3.233  11.403  0.6756 -0.4345  0.5542
  433MPD2    C1 6453   1.723   3.188  11.453  0.4963 -0.0298  0.3319
  433MPD2    C2 6454   1.703   3.190  11.594 -0.0870 -0.1783 -0.2902
  433MPD2    C3 6455   1.815   3.215  11.680  0.4748  0.8860 -0.3925
  433MPD2    C4 6456   1.937   3.244  11.622 -0.0343  0.3646  0.4879
  433MPD2    C5 6457   1.953   3.255  11.490 -0.0843 -0.3644 -0.1527
  433MPD2     H 6458   1.608   3.161  11.639  0.8335 -2.8849 -0.1010
  433MPD2    H1 6459   2.023   3.278  11.680  1.8060 -1.8650 -0.9326
  433MPD2    H2 6460   1.872   3.230  11.297 -1.8996  0.6371 -0.0687
  433MPD2    H3 6461   2.046   3.302  11.462 -0.3071  0.6934  0.8779
  433MPD2     N 6462   1.789   3.211  11.817 -0.5339  0.4094  0.2574
  433MPD2    H5 6463   1.693   3.207  11.850  0.2043 -0.8788  2.2446
  433MPD2    N1 6464   1.616   3.147  11.363 -0.0598  0.1349  0.4373
  433MPD2    H7 6465   1.635   3.133  11.264  0.1172  0.4981  0.4204
  434TMC3    C1 6466   1.446   3.013  11.297  0.3631 -0.0212  0.0897
  434TMC3    C2 6467   1.434   2.882  11.312  0.2449  0.5923 -0.2341
  434TMC3    C3 6468   1.440   2.801  11.206 -0.5497 -0.7469  0.2834
  434TMC3    C4 6469   1.460   3.072  11.175  0.0594  0.3397 -0.1641
  434TMC3    C5 6470   1.467   2.992  11.066 -0.9579 -0.4900  0.8264
  434TMC3    C6 6471   1.452   2.848  11.077  0.4179  0.1415  0.0530
  434TMC3     C 6472   1.501   3.085  11.405 -0.3338 -0.3673 -0.2584
  434TMC3     O 6473   1.450   3.052  11.511 -0.1414 -0.0664  0.9864
  434TMC3     H 6474   1.429   2.846  11.414  0.1595 -1.2296 -0.8890
  434TMC3    H1 6475   1.472   3.180  11.167  0.2169  0.2331 -1.4067
  434TMC3    H2 6476   1.426   2.782  10.995 -0.5596  1.4241 -0.6595
  434TMC3    C7 6477   1.421   3.063  10.946  0.2060  0.0826  0.0643
  434TMC3    C8 6478   1.506   2.667  11.228 -0.0002  0.3145 -0.5739
  434TMC3    O1 6479   1.398   3.184  10.943  0.2061  0.4712 -1.0177
  434TMC3    O2 6480   1.507   2.630  11.344  0.0038  0.1955 -0.1558
  435MPD2     C 6481   2.865   3.137  15.530 -0.3852  0.0627  0.1447
  435MPD2    C1 6482   2.861   3.227  15.640  0.3011  0.5753  0.1907
  435MPD2    C2 6483   2.975   3.234  15.723  0.1925 -0.0882 -0.0279
  435MPD2    C3 6484   3.088   3.159  15.697 -0.4335  0.5091  0.2008
  435MPD2    C4 6485   3.083   3.076  15.583  0.3559 -0.7283  0.0861
  435MPD2    C5 6486   2.973   3.060  15.500  0.6101  0.4459 -0.9422
  435MPD2     H 6487   2.966   3.303  15.806  0.6556  0.0020 -0.0535
  435MPD2    H1 6488   3.165   3.012  15.552  0.0048 -0.4580 -1.4158
  435MPD2    H2 6489   2.775   3.114  15.474  0.9978 -1.1802 -1.5966
  435MPD2    H3 6490   2.975   3.015  15.402  1.7487  0.0923 -0.7544
  435MPD2     N 6491   3.196   3.162  15.794 -0.7445  0.0110  0.2901
  435MPD2    H5 6492   3.177   3.218  15.876  1.7235  1.1831  0.0736
  435MPD2    N1 6493   2.754   3.313  15.668  0.1716 -0.2927 -0.0310
  435MPD2    H7 6494   2.753   3.364  15.755 -0.5335 -0.8716  0.2983
  436TMC3    C1 6495   2.426   3.427  15.867 -1.1631  0.2967 -0.6332
  436TMC3    C2 6496   2.521   3.354  15.798 -0.8099 -0.3041 -0.5782
  436TMC3    C3 6497   2.528   3.365  15.665  0.2747  0.2267  0.5368
  436TMC3    C4 6498   2.354   3.526  15.808  0.3941  0.0940  0.8133
  436TMC3    C5 6499   2.373   3.542  15.672 -0.6407 -0.3941 -0.0650
  436TMC3    C6 6500   2.458   3.462  15.599 -0.2398  0.3908  0.1665
  436TMC3     C 6501   2.410   3.407  16.014 -0.3650  0.3186  0.6942
  436TMC3     O 6502   2.450   3.304  16.074  0.5905  0.1418  0.2245
  436TMC3     H 6503   2.581   3.278  15.847 -0.4109 -0.1653 -0.8499
  436TMC3    H1 6504   2.280   3.581  15.865 -0.8752  1.9962 -2.6181
  436TMC3    H2 6505   2.493   3.484  15.498 -2.6443  1.2194 -0.4733
  436TMC3    C7 6506   2.335   3.661  15.605 -0.0410  0.4572 -0.0294
  436TMC3    C8 6507   2.642   3.311  15.593  0.0663 -0.3797  0.2686
  436TMC3    O1 6508   2.347   3.670  15.483 -0.2055 -0.4885  0.0756
  436TMC3    O2 6509   2.632   3.296  15.471  0.2676 -0.3283 -1.1687
  437TMC3    C1 6510   1.762   0.904  12.879  0.4207  0.4280  0.3832
  437TMC3    C2 6511   1.704   1.025  12.860 -0.0306  0.6820 -0.3079
  437TMC3    C3 6512   1.759   1.107  12.768 -0.1476 -0.9187 -0.1013
  437TMC3    C4 6513   1.878   0.869  12.812  0.1541 -0.2952 -0.0777
  437TMC3    C5 6514   1.932   0.955  12.722  0.3596  0.0319  0.0184
  437TMC3    C6 6515   1.872   1.072  12.691 -0.3414  0.5287  0.0523
  437TMC3     C 6516   1.674   0.805  12.936 -0.2659 -0.3345 -0.2667
  437TMC3     O 6517   1.568   0.839  12.990 -0.0376 -0.2867  0.1030
  437TMC3     H 6518   1.626   1.065  12.925 -0.0575 -1.7878  1.1857
  437TMC3    H1 6519   1.936   0.780  12.834  0.0771 -1.1342 -3.2649
  437TMC3    H2 6520   1.919   1.144  12.624 -1.2556  1.5293  0.4718
  437TMC3    C7 6521   2.057   0.911  12.663  0.7686 -0.4873  0.8200
  437TMC3    C8 6522   1.710   1.242  12.755  0.5072  0.5209 -0.0896
  437TMC3    O1 6523   2.130   0.840  12.728  0.4072  0.0696 -0.3503
  437TMC3    O2 6524   1.645   1.288  12.847  0.0510 -0.2726 -0.1874
  438MPD2     C 6525   3.645   1.560  17.201  0.0078  0.4732  0.1146
  438MPD2    C1 6526   3.735   1.479  17.267 -0.8398  0.3822  0.0169
  438MPD2    C2 6527   3.703   1.414  17.382 -0.8335 -0.8081 -0.5979
  438MPD2    C3 6528   3.566   1.410  17.426 -0.1118  0.3059  0.2747
  438MPD2    C4 6529   3.480   1.495  17.369 -0.3407  0.1757 -0.0451
  438MPD2    C5 6530   3.523   1.580  17.265  0.4320  0.0090  0.0952
  438MPD2     H 6531   3.771   1.356  17.443  0.1947 -0.4915 -1.4465
  438MPD2    H1 6532   3.383   1.513  17.414  0.9087  1.1582  2.3113
  438MPD2    H2 6533   3.669   1.618  17.113 -2.6446 -1.4880 -1.8981
  438MPD2    H3 6534   3.457   1.658  17.229 -1.6913 -1.8070  0.0276
  438MPD2     N 6535   3.517   1.330  17.527  0.2613  0.4983  0.0968
  438MPD2    H5 6536   3.422   1.340  17.559 -0.4665 -5.4904 -0.0910
  438MPD2    N1 6537   3.864   1.452  17.219 -0.6894 -0.1639  0.5864
  438MPD2    H7 6538   3.929   1.399  17.276  0.0283 -0.1516 -0.2255
  439TMC3    C1 6539   4.058   1.446  17.088 -0.1165  0.0179  0.2625
  439TMC3    C2 6540   4.094   1.393  16.968  0.1032 -0.2589 -0.5339
  439TMC3    C3 6541   4.230   1.366  16.960  0.3751 -0.2235 -0.2739
  439TMC3    C4 6542   4.133   1.464  17.199 -0.0961 -0.6401  0.3880
  439TMC3    C5 6543   4.271   1.442  17.179 -0.7724  0.3917  0.3174
  439TMC3    C6 6544   4.316   1.380  17.067  0.0925 -0.3604  0.3359
  439TMC3     C 6545   3.910   1.475  17.095 -0.5255  0.2315 -0.5174
  439TMC3     O 6546   3.844   1.507  16.994 -0.0271 -0.6134  0.2243
  439TMC3     H 6547   4.026   1.392  16.883 -0.5555  0.1714 -0.0045
  439TMC3    H1 6548   4.091   1.514  17.285 -2.7180  0.6577 -1.6486
  439TMC3    H2 6549   4.422   1.358  17.065  0.1355 -0.1928  0.7494
  439TMC3    C7 6550   4.359   1.439  17.293 -0.4280  0.0756 -0.1039
  439TMC3    C8 6551   4.293   1.291  16.850 -0.4374 -0.3556 -0.2895
  439TMC3    O1 6552   4.448   1.354  17.290 -0.3950 -0.1084  0.1187
  439TMC3    O2 6553   4.397   1.230  16.878 -0.1885  0.3665  0.2404
  440MPD2     C 6554   2.968   1.527  15.225  0.2853  0.2388  0.6229
  440MPD2    C1 6555   3.036   1.623  15.295 -0.1139  0.2835  0.1528
  440MPD2    C2 6556   3.168   1.613  15.327 -0.5970  0.1454  0.3635
  440MPD2    C3 6557   3.246   1.517  15.271 -0.3822 -0.0762  0.3073
  440MPD2    C4 6558   3.177   1.416  15.201 -0.8775 -0.2992 -0.0248
  440MPD2    C5 6559   3.043   1.421  15.174  0.6287  0.2262  0.0039
  440MPD2     H 6560   3.199   1.684  15.403 -0.3564  0.2238  0.1918
  440MPD2    H1 6561   3.227   1.325  15.168 -1.5066  0.3529 -2.7163
  440MPD2    H2 6562   2.861   1.533  15.208  0.1287 -1.0997  1.1674
  440MPD2    H3 6563   2.990   1.343  15.122  1.5544  1.9141 -3.4594
  440MPD2     N 6564   3.378   1.505  15.318 -0.4602  0.3837 -0.3628
  440MPD2    H5 6565   3.429   1.420  15.298 -2.5747 -0.8469 -0.4578
  440MPD2    N1 6566   2.963   1.721  15.369 -0.0170  0.3433  0.1392
  440MPD2    H7 6567   3.021   1.779  15.429  0.2018  0.6209 -0.3395
  441TMC3    C1 6568   3.555   1.555  15.468 -0.1647 -0.1056 -0.3196
  441TMC3    C2 6569   3.628   1.649  15.535  0.9628 -0.2992  0.0200
  441TMC3    C3 6570   3.669   1.635  15.663 -0.1489 -0.0364 -0.8617
  441TMC3    C4 6571   3.525   1.443  15.537  0.0478  0.6695 -0.1179
  441TMC3    C5 6572   3.567   1.426  15.667  0.1884  0.1723  0.0799
  441TMC3    C6 6573   3.644   1.521  15.724  0.3274 -0.0454  0.2287
  441TMC3     C 6574   3.443   1.608  15.394  0.4392 -0.6986 -0.0874
  441TMC3     O 6575   3.412   1.721  15.425  0.2491  0.1794  0.4022
  441TMC3     H 6576   3.651   1.737  15.475 -2.8916 -0.2153 -1.3436
  441TMC3    H1 6577   3.443   1.380  15.505  1.6603 -2.1084  1.2383
  441TMC3    H2 6578   3.672   1.523  15.828 -1.1978 -0.6468  0.6447
  441TMC3    C7 6579   3.454   1.378  15.753  0.2338  0.5671  0.3782
  441TMC3    C8 6580   3.619   1.740  15.748  0.1286 -0.8430  0.1842
  441TMC3    O1 6581   3.340   1.407  15.725  0.0277  0.2470 -0.5289
  441TMC3    O2 6582   3.659   1.751  15.864 -0.3506  0.6288  0.1667
  442MPD2     C 6583   1.170   2.870  16.666  0.1534  0.6299  0.5552
  442MPD2    C1 6584   1.128   2.768  16.749  0.0329 -0.4656  0.3991
  442MPD2    C2 6585   1.120   2.637  16.705 -0.0011  0.1602  0.2043
  442MPD2    C3 6586   1.173   2.606  16.579  0.5128  0.0655 -0.6997
  442MPD2    C4 6587   1.228   2.708  16.503  0.6783  0.5991  0.1117
  442MPD2    C5 6588   1.224   2.838  16.546  0.2523  0.1106 -0.7341
  442MPD2     H 6589   1.080   2.559  16.769  0.1228  0.6661  0.9009
  442MPD2    H1 6590   1.274   2.693  16.406 -0.5249  0.2963 -0.4047
  442MPD2    H2 6591   1.166   2.976  16.687 -1.1401  1.0287 -1.6122
  442MPD2    H3 6592   1.258   2.920  16.484 -0.2422 -1.4399 -3.0119
  442MPD2     N 6593   1.185   2.472  16.529  0.1064 -0.4044 -0.0319
  442MPD2    H5 6594   1.230   2.466  16.438 -2.0156 -0.5088 -1.0819
  442MPD2    N1 6595   1.074   2.798  16.881 -0.2589 -0.2547  0.3192
  442MPD2    H7 6596   1.028   2.723  16.932 -0.2453 -0.4945 -0.0199
  443TMC3    C1 6597   1.019   2.934  17.062 -0.6387  0.1223  0.7014
  443TMC3    C2 6598   0.954   3.056  17.070 -0.3473  0.0854 -0.5846
  443TMC3    C3 6599   0.841   3.061  17.152 -0.4738 -0.5517 -0.6839
  443TMC3    C4 6600   0.995   2.827  17.142 -0.6720  0.1273 -1.1689
  443TMC3    C5 6601   0.897   2.841  17.238 -0.3612  0.2982  0.5908
  443TMC3    C6 6602   0.828   2.960  17.243 -0.6415 -0.1605 -0.3776
  443TMC3     C 6603   1.081   2.923  16.928  1.0633  0.6702  0.0459
  443TMC3     O 6604   1.139   3.026  16.889 -0.3254 -0.1157 -0.1168
  443TMC3     H 6605   0.960   3.128  16.989  2.5079 -0.9434 -1.2759
  443TMC3    H1 6606   1.063   2.742  17.144 -1.6866 -0.6535  0.2020
  443TMC3    H2 6607   0.742   2.972  17.308 -0.5119  0.5543 -0.3434
  443TMC3    C7 6608   0.879   2.739  17.337 -0.0370  0.0693  0.3445
  443TMC3    C8 6609   0.718   3.061  17.076  0.3268 -0.0688 -0.1036
  443TMC3    O1 6610   0.931   2.629  17.324  0.0986  0.0616  0.7062
  443TMC3    O2 6611   0.636   2.973  17.104  0.4927  0.0278  0.0523
  444MPD2     C 6612   1.540   2.176  17.252  0.4547  0.3811 -0.2509
  444MPD2    C1 6613   1.456   2.075  17.283 -0.3357  0.3892  0.4611
  444MPD2    C2 6614   1.482   1.947  17.241 -0.2369 -0.0608 -0.4933
  444MPD2    C3 6615   1.583   1.920  17.154 -0.4599  0.2530 -0.6212
  444MPD2    C4 6616   1.657   2.032  17.105 -0.4037  0.2835  0.4901
  444MPD2    C5 6617   1.632   2.155  17.156 -0.5792 -0.8977  0.1689
  444MPD2     H 6618   1.410   1.873  17.273 -2.5661  2.5527  0.3271
  444MPD2    H1 6619   1.733   2.024  17.028 -1.0584  0.0360 -0.1323
  444MPD2    H2 6620   1.524   2.279  17.280 -0.4170  0.7226 -2.0324
  444MPD2    H3 6621   1.686   2.243  17.121 -0.2865 -1.3133 -0.4409
  444MPD2     N 6622   1.617   1.782  17.128 -0.0321  0.3164  0.0639
  444MPD2    H5 6623   1.569   1.709  17.180  1.1764  0.1241  0.9032
  444MPD2    N1 6624   1.341   2.088  17.375  0.0291  0.1945 -0.0852
  444MPD2    H7 6625   1.270   2.015  17.375 -0.6893  0.8985 -0.2106
  445TMC3    C1 6626   1.750   1.599  17.056  0.3381  0.0961 -0.1829
  445TMC3    C2 6627   1.650   1.517  17.110 -0.1083  0.2972 -0.2007
  445TMC3    C3 6628   1.671   1.377  17.116  0.7768  0.0982  0.6337
  445TMC3    C4 6629   1.860   1.545  17.000  0.4118 -0.1856 -0.1293
  445TMC3    C5 6630   1.875   1.410  17.002  0.8932 -0.0022 -0.0027
  445TMC3    C6 6631   1.789   1.324  17.066  0.3213  0.5985 -0.7062
  445TMC3     C 6632   1.721   1.735  17.052 -0.3910  0.7164 -0.2943
  445TMC3     O 6633   1.800   1.794  16.979 -0.5835  0.2264 -1.0113
  445TMC3     H 6634   1.573   1.550  17.179 -0.8754 -2.1031  0.1269
  445TMC3    H1 6635   1.937   1.601  16.948 -0.0713  1.2375  0.6696
  445TMC3    H2 6636   1.813   1.218  17.055  1.3645  0.7537  0.0396
  445TMC3    C7 6637   1.989   1.349  16.947  0.3057  0.0298  0.7029
  445TMC3    C8 6638   1.578   1.290  17.170 -0.2386  0.3558 -0.1578
  445TMC3    O1 6639   2.029   1.384  16.841  0.6509  0.3626 -0.4514
  445TMC3    O2 6640   1.606   1.170  17.164 -0.2387 -0.2414 -0.6078
  446MPD2     C 6641   1.299   2.434  11.829 -0.1576 -0.3162 -0.0443
  446MPD2    C1 6642   1.275   2.465  11.694  0.1457  0.0178  0.1290
  446MPD2    C2 6643   1.370   2.554  11.637 -0.4411  0.1814  0.4118
  446MPD2    C3 6644   1.476   2.613  11.700 -0.6686  0.1170  0.3681
  446MPD2    C4 6645   1.495   2.576  11.838 -0.2435 -0.2517  0.6527
  446MPD2    C5 6646   1.410   2.487  11.897  0.4049  0.4869 -0.4224
  446MPD2     H 6647   1.366   2.564  11.529  0.6189 -0.2237  0.3314
  446MPD2    H1 6648   1.563   2.633  11.901  1.0291  0.9301 -1.7944
  446MPD2    H2 6649   1.242   2.366  11.891 -2.4752  2.5943  1.0141
  446MPD2    H3 6650   1.407   2.489  12.005  2.1230  1.7113 -0.3936
  446MPD2     N 6651   1.563   2.698  11.626  0.1941  0.7737 -0.5983
  446MPD2    H5 6652   1.559   2.698  11.524  0.4758  2.8371 -0.6094
  446MPD2    N1 6653   1.169   2.414  11.617 -0.2000  0.2963  0.3733
  446MPD2    H7 6654   1.165   2.445  11.521  1.7535 -1.9668 -0.4245
  447TMC3    C1 6655   1.748   2.846  11.602  0.1590  0.6687 -0.2092
  447TMC3    C2 6656   1.744   2.848  11.466 -0.1111  0.2549 -0.3945
  447TMC3    C3 6657   1.858   2.866  11.402 -0.8226  0.0216 -0.0269
  447TMC3    C4 6658   1.859   2.868  11.672  0.2892  0.4435 -0.1059
  447TMC3    C5 6659   1.980   2.875  11.606  0.0428  0.6570 -0.5236
  447TMC3    C6 6660   1.980   2.867  11.470  0.4756 -0.4915 -0.0617
  447TMC3     C 6661   1.641   2.791  11.687 -0.6567 -0.1701 -0.3090
  447TMC3     O 6662   1.624   2.838  11.799 -0.0679 -0.3574 -0.1277
  447TMC3     H 6663   1.657   2.831  11.403 -1.6553  0.0147  1.7971
  447TMC3    H1 6664   1.863   2.865  11.780  0.2841  1.3606 -0.0878
  447TMC3    H2 6665   2.074   2.885  11.418  0.3681 -0.7154 -0.3332
  447TMC3    C7 6666   2.094   2.829  11.681  0.3423 -0.2387  0.3480
  447TMC3    C8 6667   1.852   2.880  11.259 -0.0436 -0.8031  0.1233
  447TMC3    O1 6668   2.149   2.730  11.632 -0.0152  0.5540 -0.2403
  447TMC3    O2 6669   1.748   2.927  11.212  0.8686  0.0464 -0.2377
  448TMC3    C1 6670   0.308   3.141  16.922  0.3580 -0.6926  0.4663
  448TMC3    C2 6671   0.226   3.032  16.930  0.3280 -0.1071  0.2695
  448TMC3    C3 6672   0.183   2.992  17.055  0.0678  0.3428 -0.0400
  448TMC3    C4 6673   0.365   3.184  17.041  0.3915 -0.4379  0.2633
  448TMC3    C5 6674   0.340   3.118  17.160  0.0474 -0.2692  0.2721
  448TMC3    C6 6675   0.241   3.031  17.171 -0.5378  0.1992 -0.0901
  448TMC3     C 6676   0.326   3.210  16.797  0.6080  0.1834 -0.1336
  448TMC3     O 6677   0.281   3.158  16.694 -0.0026 -0.0524  0.1639
  448TMC3     H 6678   0.178   2.999  16.839  0.5406 -0.1340  0.1660
  448TMC3    H1 6679   0.441   3.261  17.052 -0.7923  0.7633 -0.0773
  448TMC3    H2 6680   0.209   3.001  17.270 -3.4809 -1.3427 -1.5233
  448TMC3    C7 6681   0.405   3.171  17.275  0.1065  0.2932 -0.5077
  448TMC3    C8 6682   0.113   2.862  17.066 -0.4881  0.2295  0.0847
  448TMC3    O1 6683   0.450   3.283  17.270  0.4335  0.0982 -0.3276
  448TMC3    O2 6684   0.112   2.810  17.176 -0.3956  0.4471 -0.0828
  449MPD2     C 6685   1.211   1.780  14.192  0.3564  0.0472 -0.2560
  449MPD2    C1 6686   1.119   1.706  14.118  0.0433  0.0110  0.8997
  449MPD2    C2 6687   1.070   1.593  14.183 -0.5060  0.4104 -0.1477
  449MPD2    C3 6688   1.106   1.561  14.309 -0.2947 -0.2298  0.9169
  449MPD2    C4 6689   1.177   1.655  14.387  0.7300 -0.6103  0.4790
  449MPD2    C5 6690   1.235   1.761  14.324 -0.3198 -0.1755 -0.0691
  449MPD2     H 6691   1.011   1.520  14.129 -0.7077 -0.8766  1.8467
  449MPD2    H1 6692   1.208   1.626  14.487 -0.2124  0.7023  1.1451
  449MPD2    H2 6693   1.262   1.864  14.146 -0.9916  0.5751 -0.7873
  449MPD2    H3 6694   1.296   1.832  14.378 -0.9441  1.4948 -1.5245
  449MPD2     N 6695   1.046   1.447  14.361 -0.0187  0.3835 -0.3405
  449MPD2    H5 6696   0.996   1.390  14.294  1.2161  1.2177 -1.9510
  449MPD2    N1 6697   1.089   1.723  13.978 -0.1582 -0.4227 -0.1712
  449MPD2    H7 6698   1.007   1.672  13.948 -0.8613  0.7599 -0.2481
  450TMC3    C1 6699   1.094   1.762  13.749 -0.6072 -0.1474  0.5200
  450TMC3    C2 6700   1.173   1.736  13.647 -0.5050  0.1808  0.5370
  450TMC3    C3 6701   1.142   1.629  13.569  0.3632 -0.5298 -0.5213
  450TMC3    C4 6702   0.975   1.698  13.765  0.1833  0.5416 -0.0022
  450TMC3    C5 6703   0.947   1.591  13.679  0.2018  0.0533 -0.2385
  450TMC3    C6 6704   1.041   1.548  13.595  0.1307 -0.8713  0.3365
  450TMC3     C 6705   1.159   1.781  13.876  0.7506 -0.2154 -0.5721
  450TMC3     O 6706   1.262   1.844  13.888 -0.4630 -0.0556  0.5959
  450TMC3     H 6707   1.272   1.780  13.646 -1.1367  1.5529 -1.1077
  450TMC3    H1 6708   0.898   1.749  13.821  1.0436  1.5431  0.2507
  450TMC3    H2 6709   1.018   1.457  13.542 -1.5638 -1.3132  1.8181
  450TMC3    C7 6710   0.866   1.504  13.762  0.4297 -0.0946 -0.0829
  450TMC3    C8 6711   1.231   1.606  13.455  0.9474  0.4687 -0.5664
  450TMC3    O1 6712   0.873   1.544  13.879 -0.6505 -0.0051  0.3596
  450TMC3    O2 6713   1.326   1.677  13.442  0.2674  1.3316 -0.5563
  451MPD2     C 6714   2.875   0.660   2.104 -0.8238 -0.0441  0.6468
  451MPD2    C1 6715   2.777   0.562   2.097 -0.0150 -0.2462  0.3545
  451MPD2    C2 6716   2.816   0.440   2.137 -0.5191 -0.7307 -0.0685
  451MPD2    C3 6717   2.939   0.408   2.195  0.9468 -0.7579  0.6998
  451MPD2    C4 6718   3.035   0.502   2.182 -0.2557  0.3458 -0.1171
  451MPD2    C5 6719   3.003   0.627   2.148 -0.0401 -0.0568  0.1256
  451MPD2     H 6720   2.741   0.363   2.128 -1.7615  0.6383 -1.3734
  451MPD2    H1 6721   3.133   0.490   2.226 -0.9749 -2.1860  0.7776
  451MPD2    H2 6722   2.857   0.767   2.092  0.5751  0.2331  1.0167
  451MPD2    H3 6723   3.075   0.705   2.166  0.0623 -0.3588  1.0120
  451MPD2     N 6724   2.967   0.272   2.226  0.3879  0.3308  0.6576
  451MPD2    H5 6725   2.900   0.197   2.209 -0.9622  1.9787 -1.3557
  451MPD2    N1 6726   2.645   0.582   2.053 -0.7071 -0.3318  0.4739
  451MPD2    H7 6727   2.582   0.504   2.068  0.3156 -1.8076 -2.9010
  452TMC3    C1 6728   3.087   0.096   2.314 -0.4734 -0.2257 -0.0110
  452TMC3    C2 6729   3.175   0.058   2.408 -0.4478  0.3142 -0.3863
  452TMC3    C3 6730   3.225   4.646   2.404  0.1826 -0.0751  0.0856
  452TMC3    C4 6731   3.050   0.007   2.210  0.5144 -1.0508  0.0974
  452TMC3    C5 6732   3.100   4.595   2.218 -0.4654 -1.0752 -1.1272
  452TMC3    C6 6733   3.188   4.556   2.315  0.0329  0.0156 -0.0934
  452TMC3     C 6734   3.067   0.236   2.305 -0.3786 -0.5490 -0.3902
  452TMC3     O 6735   3.131   0.310   2.376  0.8407  0.1070  0.1946
  452TMC3     H 6736   3.191   0.133   2.484  0.9404 -0.7375  0.3469
  452TMC3    H1 6737   3.005   0.047   2.119 -0.6185 -1.1941  0.5941
  452TMC3    H2 6738   3.236   4.459   2.307  1.8075  0.6583  2.9568
  452TMC3    C7 6739   3.046   4.499   2.118 -0.0731 -1.1259 -0.2138
  452TMC3    C8 6740   3.310   4.616   2.508 -0.3549 -0.0251 -0.3005
  452TMC3    O1 6741   2.975   4.549   2.032  0.8853  0.0295  0.4313
  452TMC3    O2 6742   3.309   4.497   2.539 -0.5787 -0.0074  0.1311
  453TMC3    C1 6743   3.356   1.658  12.071  0.1143  0.9648 -0.0080
  453TMC3    C2 6744   3.251   1.578  12.046  0.4985  0.0779  0.1620
  453TMC3    C3 6745   3.230   1.539  11.920  0.0843  0.6331 -0.3247
  453TMC3    C4 6746   3.443   1.697  11.970  0.8570  0.0697 -0.1970
  453TMC3    C5 6747   3.426   1.636  11.846  0.3902 -0.0977 -0.0944
  453TMC3    C6 6748   3.312   1.563  11.814 -0.2642 -0.7837  0.0013
  453TMC3     C 6749   3.411   1.606  12.194  0.3684  0.2790  0.3710
  453TMC3     O 6750   3.361   1.505  12.239  0.5624 -0.1324  0.2242
  453TMC3     H 6751   3.181   1.551  12.124 -0.8636 -0.5796 -1.2777
  453TMC3    H1 6752   3.524   1.769  11.978 -0.6190  1.7523 -0.3317
  453TMC3    H2 6753   3.292   1.524  11.715  1.1757  2.1526 -1.4287
  453TMC3    C7 6754   3.515   1.676  11.734  1.0938 -0.4093 -0.8518
  453TMC3    C8 6755   3.157   1.416  11.916 -0.2996  0.3103 -0.1576
  453TMC3    O1 6756   3.559   1.791  11.734  0.4210 -0.2487  0.4125
  453TMC3    O2 6757   3.050   1.412  11.974 -0.5459  0.1225 -0.3932
  454MPD2     C 6758   2.250   1.619  16.703  0.5200 -0.1889 -0.1865
  454MPD2    C1 6759   2.210   1.725  16.626 -0.2268 -0.3032 -0.2299
  454MPD2    C2 6760   2.145   1.827  16.691 -0.3759 -0.0580 -0.2674
  454MPD2    C3 6761   2.131   1.832  16.826 -0.8391 -0.0582  0.0220
  454MPD2    C4 6762   2.183   1.729  16.901  0.7200  0.7684 -0.3866
  454MPD2    C5 6763   2.239   1.626  16.837  0.3132 -0.4984  0.0877
  454MPD2     H 6764   2.122   1.909  16.625 -0.3577  0.8677  0.8783
  454MPD2    H1 6765   2.176   1.737  17.009  1.3756 -3.3990 -0.0509
  454MPD2    H2 6766   2.304   1.537  16.658 -1.2507 -1.0338 -0.7303
  454MPD2    H3 6767   2.267   1.538  16.893 -2.4285  0.1218  2.4342
  454MPD2     N 6768   2.057   1.931  16.891  0.2440  0.3226  0.0643
  454MPD2    H5 6769   2.056   1.935  16.993 -0.6984 -0.5226  0.0886
  454MPD2    N1 6770   2.210   1.728  16.482 -0.5509  0.1248 -0.3664
  454MPD2    H7 6771   2.183   1.813  16.434 -0.1770  0.0659 -0.6886
  455TMC3    C1 6772   1.903   1.988  16.716 -0.0127  0.6709  0.1621
  455TMC3    C2 6773   1.840   2.092  16.655  0.6462 -0.1027 -0.5085
  455TMC3    C3 6774   1.714   2.080  16.594 -0.8266  0.6846  0.4012
  455TMC3    C4 6775   1.847   1.864  16.701  0.2805 -0.4446  0.3374
  455TMC3    C5 6776   1.736   1.848  16.622  0.3844  0.2363 -0.0228
  455TMC3    C6 6777   1.673   1.951  16.562 -0.5292 -0.3337 -0.2809
  455TMC3     C 6778   1.962   2.023  16.838 -0.0274  0.0307  0.1747
  455TMC3     O 6779   1.924   2.126  16.893 -0.3373  0.6972 -0.2344
  455TMC3     H 6780   1.881   2.193  16.660 -2.4674  1.2082 -0.9978
  455TMC3    H1 6781   1.895   1.780  16.750  3.4866  0.4270 -1.3310
  455TMC3    H2 6782   1.577   1.936  16.515 -0.9299  0.8756  0.1605
  455TMC3    C7 6783   1.722   1.725  16.556 -0.2245  0.6453 -0.4422
  455TMC3    C8 6784   1.608   2.151  16.650  0.1281  0.2202  0.6828
  455TMC3    O1 6785   1.631   1.718  16.481 -0.2710  0.4312 -0.5201
  455TMC3    O2 6786   1.490   2.124  16.622  0.2881  0.0820  0.9871
  456MPD2     C 6787   4.452   1.627  16.907  0.5675  0.6267  0.0319
  456MPD2    C1 6788   4.582   1.629  16.959 -0.8214  0.0582  0.2028
  456MPD2    C2 6789   4.614   1.711  17.068 -0.6713  0.4837 -0.3642
  456MPD2    C3 6790   4.513   1.780  17.136 -0.0186 -0.0782 -0.6209
  456MPD2    C4 6791   4.388   1.774  17.077 -0.1184  0.8571  0.9358
  456MPD2    C5 6792   4.353   1.695  16.971 -0.8185 -0.2822 -0.3465
  456MPD2     H 6793   4.713   1.721  17.112 -0.3273 -1.1297 -0.7387
  456MPD2    H1 6794   4.303   1.830  17.113 -0.9930  0.9819 -1.3820
  456MPD2    H2 6795   4.438   1.567  16.818  0.4272 -0.1954  0.6063
  456MPD2    H3 6796   4.250   1.691  16.937 -1.0269 -1.1686  0.3788
  456MPD2     N 6797   4.549   1.873  17.245  0.1509 -0.3542 -0.2142
  456MPD2    H5 6798   4.646   1.868  17.275  0.3474 -2.3892 -1.2055
  456MPD2    N1 6799   4.679   1.547  16.901  0.2215  0.8409  0.1967
  456MPD2    H7 6800   4.666   1.484  16.823 -0.2780 -0.7279  1.5374
  457TMC3    C1 6801   4.527   2.072  17.360 -0.1326  0.0819 -0.2384
  457TMC3    C2 6802   4.514   2.193  17.292 -0.8126  0.0775 -0.1656
  457TMC3    C3 6803   4.606   2.288  17.330 -0.6522  0.7810  0.0200
  457TMC3    C4 6804   4.629   2.041  17.443  0.7390  0.4589 -0.1383
  457TMC3    C5 6805   4.705   2.144  17.491  0.5089  0.2607  0.2464
  457TMC3    C6 6806   4.702   2.271  17.431  0.0760 -0.3612  0.7900
  457TMC3     C 6807   4.458   1.965  17.288  0.2539  0.4248  0.1332
  457TMC3     O 6808   4.341   1.982  17.264  0.3133  0.8047 -0.3114
  457TMC3     H 6809   4.429   2.219  17.229 -0.9986  0.7420  0.3582
  457TMC3    H1 6810   4.629   1.945  17.492  1.0005 -0.5346 -2.0889
  457TMC3    H2 6811   0.056   2.351  17.444  1.3040 -1.4661  0.8844
  457TMC3    C7 6812   0.072   2.125  17.607 -0.5079 -0.8585 -0.6496
  457TMC3    C8 6813   4.602   2.414  17.263  0.4307 -0.3142  0.0656
  457TMC3    O1 6814   0.048   2.029  17.673  0.3392 -0.0683 -0.0207
  457TMC3    O2 6815   4.660   2.504  17.320 -0.4006  0.0608 -0.1423
  458MPD2     C 6816   2.399   0.893  12.279 -0.4419 -0.5013 -0.2150
  458MPD2    C1 6817   2.400   0.837  12.406  0.6659 -0.8889  0.0083
  458MPD2    C2 6818   2.299   0.864  12.491 -0.0577  0.1111 -0.7491
  458MPD2    C3 6819   2.187   0.940  12.452  0.3235  0.4384  0.2518
  458MPD2    C4 6820   2.182   0.996  12.325  0.3678  0.4877  0.5881
  458MPD2    C5 6821   2.289   0.963  12.236 -0.2423  0.0416  0.0214
  458MPD2     H 6822   2.297   0.814  12.588 -2.1954  1.2369 -0.2023
  458MPD2    H1 6823   2.098   1.060  12.304 -1.0322 -1.2011  1.0387
  458MPD2    H2 6824   2.478   0.867  12.210  0.4761 -1.0714  1.0595
  458MPD2    H3 6825   2.285   0.983  12.130  0.9839  1.0412  0.1547
  458MPD2     N 6826   2.078   0.963  12.539  0.3012 -0.4675 -0.4091
  458MPD2    H5 6827   2.005   1.028  12.510 -0.2885 -1.2902 -0.8033
  458MPD2    N1 6828   2.510   0.755  12.444  0.0106  0.0464  0.3453
  458MPD2    H7 6829   2.576   0.742  12.368  1.4564 -1.9224  1.9252
  459TMC3    C1 6830   2.676   0.676  12.589  0.0507 -0.7862 -0.1537
  459TMC3    C2 6831   2.770   0.758  12.537  0.4938 -0.0497  0.5177
  459TMC3    C3 6832   2.897   0.764  12.588  0.0832 -0.2915  0.1076
  459TMC3    C4 6833   2.693   0.612  12.707  0.1856  0.8793  0.9923
  459TMC3    C5 6834   2.814   0.640  12.765  0.2763  0.6780  0.0597
  459TMC3    C6 6835   2.913   0.716  12.712  0.8420  0.0861  0.5394
  459TMC3     C 6836   2.538   0.706  12.571 -0.1420 -0.2710  0.0974
  459TMC3     O 6837   2.463   0.675  12.661  0.1274  0.3262  0.5314
  459TMC3     H 6838   2.744   0.809  12.445 -3.2011  0.3488  1.8062
  459TMC3    H1 6839   2.622   0.553  12.763 -1.5042  2.1501  0.1755
  459TMC3    H2 6840   3.013   0.712  12.752  0.2981 -1.0652  1.7599
  459TMC3    C7 6841   2.813   0.618  12.907  0.8337 -0.0687 -0.0753
  459TMC3    C8 6842   2.981   0.869  12.550 -0.5185  0.0274  0.1644
  459TMC3    O1 6843   2.743   0.525  12.945  0.1967  0.3850 -0.2705
  459TMC3    O2 6844   3.098   0.842  12.569  0.3160  0.4385 -0.1281
  460MPD2     C 6845   2.104   2.768  11.015 -1.1099 -0.6383  0.0436
  460MPD2    C1 6846   1.983   2.817  11.051 -0.4310 -0.0869  0.8814
  460MPD2    C2 6847   1.890   2.860  10.958  0.5377 -0.4252  0.1586
  460MPD2    C3 6848   1.916   2.852  10.822 -0.0245  0.1309 -0.0001
  460MPD2    C4 6849   2.035   2.791  10.787  0.3569 -0.5566 -0.5109
  460MPD2    C5 6850   2.122   2.733  10.881  0.3973 -0.5558  0.6768
  460MPD2     H 6851   1.797   2.901  10.995 -0.2151 -0.4815 -1.6553
  460MPD2    H1 6852   2.059   2.776  10.682  2.4472  0.7007 -0.2166
  460MPD2    H2 6853   2.181   2.744  11.087  1.0410  2.2577 -1.3042
  460MPD2    H3 6854   2.213   2.687  10.845  0.7777 -0.4793  1.5440
  460MPD2     N 6855   1.825   2.903  10.728  0.1458  0.1575  0.2156
  460MPD2    H5 6856   1.764   2.976  10.765  0.5845  0.3774  0.5077
  460MPD2    N1 6857   1.966   2.822  11.193 -0.1367 -0.2914  0.0124
  460MPD2    H7 6858   2.050   2.787  11.238 -0.9073 -0.1760  1.5450
  461TMC3    C1 6859   1.753   2.957  10.514 -0.2673  0.2445 -1.0001
  461TMC3    C2 6860   1.742   2.924  10.379 -0.0204 -0.2782 -0.2057
  461TMC3    C3 6861   1.659   3.001  10.300 -0.4486 -0.4456  0.3180
  461TMC3    C4 6862   1.684   3.067  10.558 -0.5689  0.1603 -0.1786
  461TMC3    C5 6863   1.596   3.136  10.470  0.1194  0.2850  0.5921
  461TMC3    C6 6864   1.584   3.104  10.338  0.0476 -0.4382  0.1297
  461TMC3     C 6865   1.831   2.872  10.598 -0.0813  0.2506 -1.4802
  461TMC3     O 6866   1.878   2.774  10.539 -0.2905  0.6140  0.3050
  461TMC3     H 6867   1.793   2.840  10.335  1.1115  0.9047 -1.1459
  461TMC3    H1 6868   1.696   3.103  10.659 -1.3691  1.6356 -0.6116
  461TMC3    H2 6869   1.536   3.176  10.271  0.0645 -1.3217 -0.8292
  461TMC3    C7 6870   1.552   3.273  10.499  0.3233  0.0328  0.6130
  461TMC3    C8 6871   1.636   2.948  10.173 -0.1526 -0.0474 -0.5045
  461TMC3    O1 6872   1.471   3.322  10.424  0.0109  0.3729 -0.2864
  461TMC3    O2 6873   1.729   2.886  10.129 -0.1319 -0.1223  0.5548
  462TMC3    C1 6874   1.542   0.230   0.261 -0.3977 -0.0355 -0.2223
  462TMC3    C2 6875   1.591   0.161   0.151 -0.0467  0.3845 -0.2691
  462TMC3    C3 6876   1.606   0.026   0.157  0.0942  0.3203  0.4679
  462TMC3    C4 6877   1.508   0.167   0.377 -0.7494 -0.4350 -0.0351
  462TMC3    C5 6878   1.529   0.028   0.377  0.0518 -0.1664  0.0519
  462TMC3    C6 6879   1.582   4.672   0.273 -0.3438 -0.3745 -0.4734
  462TMC3     C 6880   1.535   0.376   0.264 -0.1483 -0.6955  0.4166
  462TMC3     O 6881   1.490   0.430   0.360 -0.1890  0.7942  0.4308
  462TMC3     H 6882   1.606   0.211   0.056  1.2387 -3.6246 -2.1398
  462TMC3    H1 6883   1.461   0.211   0.465 -2.0186 -0.6945 -0.5886
  462TMC3    H2 6884   1.561   4.567   0.260 -2.9410  0.2634 -1.5633
  462TMC3    C7 6885   1.516   4.668   0.505  0.3319 -0.4872  0.0564
  462TMC3    C8 6886   1.575   4.680   0.027  0.2009  0.4817  0.1473
  462TMC3    O1 6887   1.557   4.552   0.509  0.9664 -0.0979 -0.3505
  462TMC3    O2 6888   1.492   0.024  17.636 -0.2676  0.2499  0.0149
  463MPD2     C 6889   3.526   2.360   1.799  0.0813 -0.0415  1.1363
  463MPD2    C1 6890   3.400   2.391   1.835 -0.9631  0.1589  0.3561
  463MPD2    C2 6891   3.373   2.520   1.867  0.1057 -0.0154  0.2840
  463MPD2    C3 6892   3.467   2.622   1.861 -0.3770 -0.2466 -0.2650
  463MPD2    C4 6893   3.601   2.584   1.837 -0.5391 -0.2098 -0.2762
  463MPD2    C5 6894   3.629   2.451   1.799 -0.5787  0.5304  0.1180
  463MPD2     H 6895   3.272   2.541   1.898  0.2573  0.6324  0.3319
  463MPD2    H1 6896   3.680   2.659   1.837 -0.1993 -0.5676  0.1809
  463MPD2    H2 6897   3.550   2.267   1.750 -0.0277 -1.5578  3.9891
  463MPD2    H3 6898   3.727   2.421   1.763 -0.3586  0.9791  0.3570
  463MPD2     N 6899   3.438   2.765   1.870  0.3350  0.7102  0.5571
  463MPD2    H5 6900   3.508   2.831   1.838  1.3422  0.5570  2.4988
  463MPD2    N1 6901   3.290   2.308   1.832 -0.0432  0.6258 -0.0550
  463MPD2    H7 6902   3.196   2.344   1.845  0.0049  0.7692 -0.1005
  464TMC3    C1 6903   3.167   2.113   1.771  0.3029  0.4560  0.2325
  464TMC3    C2 6904   3.060   2.174   1.822 -0.1339 -0.3285  1.2388
  464TMC3    C3 6905   2.940   2.150   1.748  0.4910  0.8432  0.1618
  464TMC3    C4 6906   3.164   2.019   1.670  0.9420  0.5290  0.5198
  464TMC3    C5 6907   3.045   2.001   1.605 -0.2376 -0.2775 -0.0569
  464TMC3    C6 6908   2.934   2.073   1.637 -0.2544  0.4172  0.4700
  464TMC3     C 6909   3.295   2.175   1.796 -0.1113  0.2186 -0.4787
  464TMC3     O 6910   3.388   2.115   1.740 -0.4176 -0.0054  0.7052
  464TMC3     H 6911   3.063   2.237   1.910 -0.2190  1.1435  0.1775
  464TMC3    H1 6912   3.249   1.969   1.625  0.0038  0.2694 -0.9628
  464TMC3    H2 6913   2.847   2.071   1.572 -1.4679 -1.2382  2.1381
  464TMC3    C7 6914   3.046   1.899   1.500  0.7250  0.2191  0.5430
  464TMC3    C8 6915   2.827   2.236   1.791 -0.1824  0.0830  0.0845
  464TMC3    O1 6916   3.146   1.866   1.436 -0.2511  0.3362 -0.5891
  464TMC3    O2 6917   2.866   2.325   1.865 -0.3527  0.3693  0.8090
  465MPD2     C 6918   4.021   1.840  17.222  0.2867  0.3983  0.6199
  465MPD2    C1 6919   3.899   1.822  17.287 -0.4947  1.2348 -0.6600
  465MPD2    C2 6920   3.785   1.868  17.226 -0.5163 -0.8223  0.2465
  465MPD2    C3 6921   3.781   1.905  17.091 -0.8624 -0.5857  0.3785
  465MPD2    C4 6922   3.898   1.922  17.026 -0.1954 -0.2487  0.8306
  465MPD2    C5 6923   4.016   1.891  17.092  0.3397 -0.8926  0.0794
  465MPD2     H 6924   3.693   1.838  17.275 -1.8640 -1.6151 -2.7918
  465MPD2    H1 6925   3.902   1.961  16.925  1.2473  0.4348  1.1439
  465MPD2    H2 6926   4.115   1.814  17.268  1.0977 -0.3307 -1.4160
  465MPD2    H3 6927   4.109   1.911  17.039 -0.4651  0.7592 -0.7329
  465MPD2     N 6928   3.654   1.927  17.026  0.5120 -0.5193  0.2666
  465MPD2    H5 6929   3.570   1.923  17.084 -0.1894 -1.9563 -0.8527
  465MPD2    N1 6930   3.884   1.771  17.412  0.0220 -0.2280  0.2551
  465MPD2    H7 6931   3.794   1.795  17.454  0.4223  0.7451  0.5595
  466TMC3    C1 6932   3.280   1.942  16.981 -0.2957  0.1513  0.0443
  466TMC3    C2 6933   3.226   2.042  16.896 -0.1624 -0.8052 -0.1016
  466TMC3    C3 6934   3.321   2.081  16.800  0.3937 -0.0284  0.5691
  466TMC3    C4 6935   3.402   1.878  16.962 -0.1218 -0.5169  0.1321
  466TMC3    C5 6936   3.479   1.933  16.868  1.4605  0.2589 -0.6087
  466TMC3    C6 6937   3.440   2.022  16.779 -0.4135  0.0247 -0.4021
  466TMC3     C 6938   3.218   1.920  17.105  0.0358 -0.3353 -0.2624
  466TMC3     O 6939   3.292   1.900  17.200  0.4495  0.3749  0.3044
  466TMC3     H 6940   3.148   2.115  16.913  0.4449  0.3044 -2.1240
  466TMC3    H1 6941   3.444   1.805  17.031 -0.7830  2.1138  3.3108
  466TMC3    H2 6942   3.516   2.065  16.715 -1.2231 -0.4379 -1.6863
  466TMC3    C7 6943   3.622   1.932  16.891  0.3290 -0.1674 -0.0128
  466TMC3    C8 6944   3.306   2.210  16.743  0.2221 -0.5360 -0.2694
  466TMC3    O1 6945   3.710   1.940  16.807 -0.4461 -0.1504  0.0720
  466TMC3    O2 6946   3.362   2.217  16.630  0.3173 -0.1620 -0.1362
  467TMC3    C1 6947   4.452   0.592  13.911 -0.2424  0.0856  0.4540
  467TMC3    C2 6948   4.427   0.690  14.002  0.0207  0.5323 -0.2312
  467TMC3    C3 6949   4.315   0.771  14.005 -0.9891 -0.1861  0.0019
  467TMC3    C4 6950   4.358   0.553  13.820 -0.0461 -0.0978  0.0544
  467TMC3    C5 6951   4.243   0.629  13.830  0.1919 -0.0904  0.0649
  467TMC3    C6 6952   4.219   0.737  13.916  0.1636 -0.2245 -0.2703
  467TMC3     C 6953   4.587   0.561  13.869  0.2758 -0.3705 -0.4260
  467TMC3     O 6954   4.617   0.449  13.830  0.5542  0.4138  0.2346
  467TMC3     H 6955   4.505   0.700  14.076  1.6754  3.4636 -2.3689
  467TMC3    H1 6956   4.371   0.491  13.732  1.0783  1.4048 -0.8414
  467TMC3    H2 6957   4.129   0.797  13.906  0.1207 -0.2224  0.1189
  467TMC3    C7 6958   4.123   0.591  13.757  0.0730  0.4191 -0.1053
  467TMC3    C8 6959   4.365   0.906  13.999  0.2342  0.6153 -0.5398
  467TMC3    O1 6960   4.140   0.558  13.643  0.6106  0.3278  0.0752
  467TMC3    O2 6961   4.488   0.919  14.000  0.5983 -0.1869  0.0391
  468MPD2     C 6962   3.229   2.541  10.742 -0.2462  0.6710  0.3930
  468MPD2    C1 6963   3.357   2.571  10.798 -0.5780  0.2253  0.0507
  468MPD2    C2 6964   3.441   2.465  10.829  0.3602 -0.2386  0.1830
  468MPD2    C3 6965   3.394   2.335  10.825  0.8275  1.0194 -0.3803
  468MPD2    C4 6966   3.267   2.312  10.776 -0.1802  0.2343  0.0082
  468MPD2    C5 6967   3.198   2.411  10.722  0.1377 -0.3335  1.2344
  468MPD2     H 6968   3.532   2.491  10.883  1.2093 -0.8677 -0.9553
  468MPD2    H1 6969   3.220   2.214  10.777 -0.2188  0.2624  1.3408
  468MPD2    H2 6970   3.154   2.613  10.710 -0.8180 -0.0889  0.0419
  468MPD2    H3 6971   3.109   2.382  10.667  1.2411  0.0657 -0.7754
  468MPD2     N 6972   3.471   2.225  10.867 -0.0583  0.2508 -0.2473
  468MPD2    H5 6973   3.420   2.138  10.856 -2.4046  1.6732 -0.7339
  468MPD2    N1 6974   3.399   2.703  10.808 -0.0529  0.0261 -0.4618
  468MPD2    H7 6975   3.498   2.714  10.825 -0.4283  1.7253  0.5985
  469TMC3    C1 6976   3.404   2.910  10.904  0.1002  0.5005  0.2141
  469TMC3    C2 6977   3.539   2.894  10.924  0.8579  0.0010  0.0310
  469TMC3    C3 6978   3.594   2.986  11.011 -0.1810  0.1834  0.1395
  469TMC3    C4 6979   3.327   3.010  10.955  0.4692  0.0853  0.2624
  469TMC3    C5 6980   3.389   3.101  11.034  0.8891 -0.1414  0.5144
  469TMC3    C6 6981   3.522   3.088  11.068  0.2542 -0.7327  0.0857
  469TMC3     C 6982   3.319   2.811  10.829  0.0580 -0.0233  0.8838
  469TMC3     O 6983   3.195   2.814  10.835  0.5359 -0.0133  0.2852
  469TMC3     H 6984   3.590   2.800  10.905 -1.2176 -1.3809  1.2542
  469TMC3    H1 6985   3.224   3.023  10.925  0.2715 -1.7295  0.1542
  469TMC3    H2 6986   3.579   3.160  11.126 -0.6222  0.0408 -0.0065
  469TMC3    C7 6987   3.283   3.176  11.114 -0.1753 -0.3483 -0.6966
  469TMC3    C8 6988   3.730   2.959  11.049 -0.0921 -0.3910  0.7586
  469TMC3    O1 6989   3.168   3.182  11.071  0.9318 -0.9383  0.7666
  469TMC3    O2 6990   3.792   2.891  10.969  0.1023  0.6371  0.5364
  470TMC3    C1 6991   1.734   0.092   0.819 -0.2358  0.2304  0.0455
  470TMC3    C2 6992   1.648   0.156   0.905  0.2957  0.1390 -0.5638
  470TMC3    C3 6993   1.611   0.095   1.021  0.0230 -0.4141 -0.2179
  470TMC3    C4 6994   1.788   4.688   0.853 -0.0147  0.6989  0.5259
  470TMC3    C5 6995   1.762   4.638   0.982 -0.2929 -0.5082 -0.4471
  470TMC3    C6 6996   1.664   4.697   1.065  0.3063 -0.5852  0.1113
  470TMC3     C 6997   1.745   0.141   0.686 -0.1030 -0.3483 -0.0854
  470TMC3     O 6998   1.702   0.257   0.674 -1.2267  0.0945  0.4741
  470TMC3     H 6999   1.634   0.261   0.886  0.6770  0.0657 -1.2411
  470TMC3    H1 7000   1.859   4.636   0.790  0.8084  1.5101  0.7922
  470TMC3    H2 7001   1.626   4.642   1.150 -0.3912  0.5251  0.5101
  470TMC3    C7 7002   1.801   4.500   0.994 -0.3380  0.7185 -0.0897
  470TMC3    C8 7003   1.509   0.169   1.092 -0.3988 -0.1597 -0.7045
  470TMC3    O1 7004   1.821   4.439   0.891  0.1813  0.0660 -0.3698
  470TMC3    O2 7005   1.500   0.143   1.210  0.3039  0.1959 -0.3474
  471MPD2     C 7006   0.845   0.968  17.075  0.5796 -0.1315 -0.1995
  471MPD2    C1 7007   0.908   0.859  17.026 -0.2192 -0.2696 -0.0466
  471MPD2    C2 7008   0.981   0.782  17.113 -0.3146  0.0330 -0.4336
  471MPD2    C3 7009   0.993   0.813  17.242 -0.3186 -0.3066 -0.1384
  471MPD2    C4 7010   0.921   0.919  17.294 -0.4303 -0.2489 -0.5803
  471MPD2    C5 7011   0.845   0.999  17.210  0.3572  0.2724  0.2674
  471MPD2     H 7012   1.044   0.704  17.072  1.8852  1.6248 -0.0960
  471MPD2    H1 7013   0.917   0.940  17.400  1.4453 -1.3512 -0.3083
  471MPD2    H2 7014   0.806   1.044  17.008  3.2299  0.2686 -1.2936
  471MPD2    H3 7015   0.794   1.081  17.260 -2.7874  1.0841 -4.2806
  471MPD2     N 7016   1.070   0.728  17.326  0.1360  0.0687  0.3776
  471MPD2    H5 7017   1.124   0.655  17.281 -0.0681  0.2360 -0.1382
  471MPD2    N1 7018   0.909   0.812  16.893 -0.1835  0.1160  0.8998
  471MPD2    H7 7019   0.961   0.725  16.882  0.3650  0.6753 -0.8340
  472TMC3    C1 7020   0.840   0.774  16.676 -0.0610 -0.4002  0.8500
  472TMC3    C2 7021   0.752   0.803  16.576 -0.0975 -0.0016 -0.0854
  472TMC3    C3 7022   0.722   0.698  16.499  0.3277 -0.0683  0.3064
  472TMC3    C4 7023   0.904   0.648  16.691 -0.7317 -0.4869 -0.0445
  472TMC3    C5 7024   0.870   0.550  16.598 -0.3635 -0.4869  0.2036
  472TMC3    C6 7025   0.775   0.576  16.511  0.3767 -0.3328 -0.5148
  472TMC3     C 7026   0.839   0.860  16.791  0.4370 -0.8091 -0.3782
  472TMC3     O 7027   0.769   0.961  16.787 -0.2272 -0.4609 -0.3320
  472TMC3     H 7028   0.712   0.903  16.570  0.0617  0.0852  0.3516
  472TMC3    H1 7029   0.958   0.607  16.776 -1.5346 -0.4769  0.4781
  472TMC3    H2 7030   0.728   0.503  16.446 -0.8002 -0.2350  0.2302
  472TMC3    C7 7031   0.878   0.413  16.640  0.1276  0.8547 -0.0670
  472TMC3    C8 7032   0.591   0.699  16.440 -1.0563 -0.0364 -0.3105
  472TMC3    O1 7033   0.896   0.390  16.760  0.4122  0.2379  0.2717
  472TMC3    O2 7034   0.561   0.806  16.386 -0.4188 -0.3888 -0.5102
  473MPD2     C 7035   1.904   2.662  13.889  0.1345  0.0615  0.7191
  473MPD2    C1 7036   1.776   2.713  13.903 -1.0109  0.1133 -0.6550
  473MPD2    C2 7037   1.741   2.795  14.012 -0.3636 -0.2420  0.6342
  473MPD2    C3 7038   1.836   2.826  14.110 -0.4433  0.1633 -0.0838
  473MPD2    C4 7039   1.959   2.762  14.099 -0.2726  0.7411  0.5505
  473MPD2    C5 7040   1.991   2.687  13.990 -0.0445 -0.1983  0.2727
  473MPD2     H 7041   1.640   2.834  14.010 -0.4712 -0.5969 -0.3982
  473MPD2    H1 7042   2.029   2.781  14.180  1.3269  1.4813 -0.9972
  473MPD2    H2 7043   1.939   2.593  13.813  0.1842  0.1088  0.6993
  473MPD2    H3 7044   2.089   2.642  13.991  0.6547  1.3335  0.8642
  473MPD2     N 7045   1.806   2.914  14.216 -0.1184  0.1939 -0.0283
  473MPD2    H5 7046   1.880   2.916  14.285  0.4372 -0.5186 -0.6042
  473MPD2    N1 7047   1.670   2.706  13.802 -0.1070  0.1679  0.1260
  473MPD2    H7 7048   1.575   2.724  13.832  0.6922  0.3078  2.6348
  474TMC3    C1 7049   1.695   3.092  14.338 -0.3606  0.3156 -0.4773
  474TMC3    C2 7050   1.583   3.168  14.342  0.2324  0.4544 -0.2362
  474TMC3    C3 7051   1.599   3.286  14.406 -0.0501  0.1167 -0.3944
  474TMC3    C4 7052   1.811   3.119  14.404  0.4080  0.7060  0.5902
  474TMC3    C5 7053   1.821   3.238  14.483 -0.1848  0.1061  0.2738
  474TMC3    C6 7054   1.706   3.320  14.486 -0.2559  0.1283 -0.0183
  474TMC3     C 7055   1.691   2.992  14.229 -0.4413  0.6256 -0.4644
  474TMC3     O 7056   1.583   2.992  14.170 -0.3702  0.4700  0.7606
  474TMC3     H 7057   1.491   3.150  14.287  0.0369  1.3749 -0.2157
  474TMC3    H1 7058   1.896   3.053  14.393 -0.6317 -0.8071  1.7014
  474TMC3    H2 7059   1.705   3.421  14.526 -0.0238 -0.2989  1.0751
  474TMC3    C7 7060   1.933   3.269  14.561  0.5905  0.5838  0.2784
  474TMC3    C8 7061   1.487   3.372  14.386  0.8560 -0.7773 -0.1785
  474TMC3    O1 7062   2.038   3.224  14.529 -0.7469  0.4159  0.1960
  474TMC3    O2 7063   1.378   3.330  14.415 -0.0102 -0.5557  0.0612
  475MPD2     C 7064   4.402   0.716  10.475 -0.5164 -0.0327  0.6185
  475MPD2    C1 7065   4.454   0.612  10.398  0.7197  0.0194  0.1007
  475MPD2    C2 7066   4.367   0.538  10.322  0.2688  0.9241 -0.1917
  475MPD2    C3 7067   4.231   0.556  10.334  0.0869  0.2755  0.2492
  475MPD2    C4 7068   4.177   0.656  10.411 -0.2134 -0.5315  0.5324
  475MPD2    C5 7069   4.265   0.730  10.483 -0.2930 -0.1933  0.0774
  475MPD2     H 7070   4.398   0.464  10.249 -0.7791  0.5212 -0.2114
  475MPD2    H1 7071   4.072   0.679  10.415  0.0176  0.7593 -0.7476
  475MPD2    H2 7072   4.464   0.780  10.537  0.1216 -0.9453  0.9287
  475MPD2    H3 7073   4.215   0.803  10.546 -2.5090 -3.1258  1.6859
  475MPD2     N 7074   4.156   0.493  10.236  0.3779 -0.5857 -0.0321
  475MPD2    H5 7075   4.210   0.434  10.174  0.1667 -0.6996 -0.1094
  475MPD2    N1 7076   4.593   0.586  10.404  0.0172 -0.5426 -0.1471
  475MPD2    H7 7077   4.655   0.658  10.439 -1.7338  0.9709 -0.1620
  476TMC3    C1 7078   0.070   0.465  10.305  0.1036 -0.7993  0.1235
  476TMC3    C2 7079   0.110   0.384  10.199  0.1292  0.0081  0.6096
  476TMC3    C3 7080   0.230   0.400  10.136  0.0075  0.0857  0.1669
  476TMC3    C4 7081   0.145   0.581  10.326  0.3579 -0.6642  0.1545
  476TMC3    C5 7082   0.266   0.594  10.267 -0.1674 -0.0423  0.0998
  476TMC3    C6 7083   0.315   0.500  10.171 -0.2909 -0.0728 -0.3838
  476TMC3     C 7084   4.652   0.467  10.351 -0.3091  0.0198 -0.0496
  476TMC3     O 7085   4.594   0.365  10.331  0.1632  0.1025 -0.3767
  476TMC3     H 7086   0.045   0.302  10.172  0.0704 -0.1170  1.1383
  476TMC3    H1 7087   0.124   0.635  10.418 -1.2199 -0.8901 -0.0636
  476TMC3    H2 7088   0.412   0.513  10.126  0.2074  1.6342  1.2007
  476TMC3    C7 7089   0.367   0.699  10.311 -0.6579  0.0495 -0.1211
  476TMC3    C8 7090   0.262   0.313  10.026 -0.0675  0.1030  0.2079
  476TMC3    O1 7091   0.474   0.696  10.253 -0.0125 -0.1651 -0.7476
  476TMC3    O2 7092   0.338   0.351   9.937  0.4865  0.1410  0.8693
  477MPD2     C 7093   2.476   2.239  12.032 -0.2273  0.0545 -0.2875
  477MPD2    C1 7094   2.418   2.122  11.986  0.1368  0.4039  0.1137
  477MPD2    C2 7095   2.426   2.010  12.060  0.1018  0.0646 -0.0491
  477MPD2    C3 7096   2.497   1.999  12.181 -0.6941 -0.4570  0.1719
  477MPD2    C4 7097   2.559   2.113  12.219 -0.4931 -0.0251 -0.0900
  477MPD2    C5 7098   2.548   2.231  12.148 -0.3784 -0.0004  0.1064
  477MPD2     H 7099   2.378   1.922  12.019  0.6215  0.2885 -1.1528
  477MPD2    H1 7100   2.613   2.113  12.313  1.9323 -1.5211 -1.4654
  477MPD2    H2 7101   2.448   2.337  11.993  1.8174 -0.0111 -1.9138
  477MPD2    H3 7102   2.575   2.329  12.187 -0.0364 -0.2464  0.4841
  477MPD2     N 7103   2.502   1.878  12.263  0.0268 -0.0612  0.9757
  477MPD2    H5 7104   2.541   1.898  12.355  0.2716 -0.4153  0.9495
  477MPD2    N1 7105   2.325   2.121  11.877 -0.0356  0.1427 -0.0512
  477MPD2    H7 7106   2.260   2.046  11.855 -0.7932  1.2822 -1.7518
  478TMC3    C1 7107   2.178   2.239  11.751  0.7363  0.1465 -0.3693
  478TMC3    C2 7108   2.069   2.215  11.836 -0.3676 -0.7013 -0.0315
  478TMC3    C3 7109   1.942   2.218  11.777  0.2333  0.3437 -0.2892
  478TMC3    C4 7110   2.167   2.260  11.618 -0.0569 -0.5367 -0.2750
  478TMC3    C5 7111   2.035   2.264  11.566 -0.3256 -0.4635  0.0176
  478TMC3    C6 7112   1.923   2.250  11.645  0.3739  0.2875 -0.2039
  478TMC3     C 7113   2.311   2.232  11.799 -0.4444  0.6216 -0.1675
  478TMC3     O 7114   2.401   2.303  11.762  0.0797 -0.2907  0.3044
  478TMC3     H 7115   2.082   2.201  11.942 -4.5017  0.4236  0.6351
  478TMC3    H1 7116   2.256   2.259  11.555  0.8845  0.0970  1.0523
  478TMC3    H2 7117   1.821   2.250  11.609  0.3911 -2.9178 -0.2080
  478TMC3    C7 7118   2.021   2.302  11.423  0.3349 -0.1959 -0.1792
  478TMC3    C8 7119   1.829   2.246  11.865  0.3118  0.0925 -0.2238
  478TMC3    O1 7120   2.124   2.292  11.355  0.0198 -0.4010 -0.5273
  478TMC3    O2 7121   1.727   2.182  11.855 -0.6786  0.3077  0.2167
  479MPD2     C 7122   0.978   0.232  15.038  0.2367 -0.8970  0.2614
  479MPD2    C1 7123   0.952   0.176  15.166 -0.0082  0.9279  0.0880
  479MPD2    C2 7124   1.048   0.190  15.267 -0.4098 -0.4953  0.6710
  479MPD2    C3 7125   1.162   0.250  15.239 -1.3355 -0.5118  0.1428
  479MPD2    C4 7126   1.194   0.295  15.110 -0.0252 -0.4649 -0.2106
  479MPD2    C5 7127   1.103   0.280  15.009  0.2483 -0.2288  0.7018
  479MPD2     H 7128   1.022   0.158  15.367 -0.9035  0.5229  0.8688
  479MPD2    H1 7129   1.293   0.336  15.094 -0.9419  3.0615  3.0047
  479MPD2    H2 7130   0.903   0.240  14.960  0.3294 -0.3402  0.2318
  479MPD2    H3 7131   1.119   0.328  14.912 -2.0760  0.7331  0.7909
  479MPD2     N 7132   1.258   0.266  15.345 -0.4626 -0.2667 -0.0550
  479MPD2    H5 7133   1.354   0.279  15.314  0.7909 -0.0484  3.9898
  479MPD2    N1 7134   0.823   0.122  15.179  0.1038  0.0865  0.0471
  479MPD2    H7 7135   0.773   0.103  15.093 -3.2200  1.4824  1.6576
  480TMC3    C1 7136   0.973   0.221  15.720 -0.3353 -0.0980  0.0756
  480TMC3    C2 7137   0.877   0.307  15.679 -0.0143  0.3272  0.6652
  480TMC3    C3 7138   0.906   0.369  15.562 -0.2011  0.4342 -0.7401
  480TMC3    C4 7139   1.091   0.196  15.653 -0.9247  0.0299 -0.5078
  480TMC3    C5 7140   1.129   0.274  15.545 -0.0240 -0.3609 -0.3537
  480TMC3    C6 7141   1.036   0.364  15.502 -0.0236  0.4307  0.0110
  480TMC3     C 7142   0.925   0.122  15.815  0.4868  0.7527 -0.0692
  480TMC3     O 7143   1.001   0.030  15.828 -0.2826  0.2273  0.5453
  480TMC3     H 7144   0.782   0.318  15.730 -0.0209  2.0769  0.2520
  480TMC3    H1 7145   1.167   0.127  15.689 -3.6436 -1.6436  1.9872
  480TMC3    H2 7146   1.061   0.427  15.418  2.1775 -0.2541  0.1594
  480TMC3    C7 7147   1.245   0.227  15.472 -0.5543  0.1492 -0.3626
  480TMC3    C8 7148   0.799   0.435  15.490 -0.2899  0.2947  0.5552
  480TMC3    O1 7149   1.337   0.186  15.546 -0.0205 -0.2496 -0.1905
  480TMC3    O2 7150   0.695   0.454  15.548 -0.1109  0.2023  0.3516
  481MPD2     C 7151   2.940   4.283  14.278  0.0403  0.7739  0.5063
  481MPD2    C1 7152   2.802   4.279  14.280  0.4507 -0.4030 -0.3816
  481MPD2    C2 7153   2.735   4.273  14.400  0.3856  0.5910 -0.7883
  481MPD2    C3 7154   2.806   4.280  14.518 -0.1735 -0.2093  0.3504
  481MPD2    C4 7155   2.942   4.305  14.512  0.4348 -0.1911 -0.5951
  481MPD2    C5 7156   3.009   4.304  14.396 -0.1409 -0.7419  0.1248
  481MPD2     H 7157   2.631   4.247  14.414  0.1424  1.4872 -0.9524
  481MPD2    H1 7158   3.005   4.302  14.600 -0.0271  3.2678 -0.1752
  481MPD2    H2 7159   2.994   4.280  14.184  1.1986  0.7609  1.1729
  481MPD2    H3 7160   3.114   4.328  14.381 -0.5224  1.1710  0.4724
  481MPD2     N 7161   2.749   4.277  14.647  0.2107 -0.6742  0.1627
  481MPD2    H5 7162   2.810   4.286  14.727 -2.4771  1.2546  2.0189
  481MPD2    N1 7163   2.737   4.267  14.154  1.0832 -0.5154  0.3975
  481MPD2    H7 7164   2.803   4.288  14.080  1.8224  1.1204  1.5057
  482TMC3    C1 7165   2.540   4.260  14.013 -0.1954  1.1325  0.3946
  482TMC3    C2 7166   2.416   4.204  14.002  0.3792  0.7059 -0.3687
  482TMC3    C3 7167   2.329   4.243  13.902  0.5179 -0.5607 -0.4258
  482TMC3    C4 7168   2.573   4.362  13.932 -0.3439 -0.2354  0.3765
  482TMC3    C5 7169   2.487   4.399  13.830 -0.2358 -0.5538  0.5973
  482TMC3    C6 7170   2.360   4.349  13.820 -0.3089 -0.4586 -0.6062
  482TMC3     C 7171   2.600   4.264  14.140  0.9963  0.0480 -0.7178
  482TMC3     O 7172   2.518   4.241  14.225  0.3285 -0.0238 -0.5209
  482TMC3     H 7173   2.394   4.118  14.065 -1.4571 -0.2551 -2.3205
  482TMC3    H1 7174   2.672   4.405  13.924 -1.3095  1.8856 -0.1737
  482TMC3    H2 7175   2.281   4.381  13.752 -1.6795  0.0656  1.2312
  482TMC3    C7 7176   2.532   4.493  13.726 -0.9594 -0.0324 -0.0350
  482TMC3    C8 7177   2.220   4.149  13.873  0.3094 -0.4775  0.7289
  482TMC3    O1 7178   2.634   4.549  13.754 -0.2894 -0.5087 -0.2448
  482TMC3    O2 7179   2.220   4.052  13.945  0.1912  0.2653  0.3291
  483TMC3    C1 7180   1.159   3.797   2.010  0.2641  0.9126 -0.3538
  483TMC3    C2 7181   1.249   3.896   1.972  0.4241  0.2948 -0.4709
  483TMC3    C3 7182   1.384   3.872   1.974 -0.1288  0.7903 -0.0693
  483TMC3    C4 7183   1.201   3.686   2.075  0.9196 -0.1139  0.4815
  483TMC3    C5 7184   1.336   3.665   2.075  0.0025  0.2000 -0.6464
  483TMC3    C6 7185   1.437   3.753   2.035  0.4214 -0.8493  0.0635
  483TMC3     C 7186   1.024   3.794   1.955 -0.7205  0.3527  0.4286
  483TMC3     O 7187   0.944   3.882   1.987  0.0593  0.2905  0.3968
  483TMC3     H 7188   1.214   3.983   1.916 -0.3704  1.1054  1.2897
  483TMC3    H1 7189   1.138   3.604   2.107 -0.3184  0.0262 -1.5861
  483TMC3    H2 7190   1.538   3.720   2.057  0.9894  1.0971  0.3980
  483TMC3    C7 7191   1.382   3.536   2.110  0.9171  0.4643  0.4273
  483TMC3    C8 7192   1.445   3.922   1.858  0.2128  0.1921 -0.7792
  483TMC3    O1 7193   1.489   3.497   2.061  0.0299  0.0956 -0.4048
  483TMC3    O2 7194   1.383   4.009   1.788 -0.1719  0.0399  0.2512
  484MPD2     C 7195   2.918   1.208  12.421 -0.7237  0.4036  0.6900
  484MPD2    C1 7196   2.992   1.096  12.443 -0.9679  0.8221 -0.0001
  484MPD2    C2 7197   3.121   1.091  12.407 -0.0783 -0.1269 -0.0865
  484MPD2    C3 7198   3.175   1.210  12.362  0.3466 -0.0473  0.1329
  484MPD2    C4 7199   3.104   1.325  12.346 -0.1308 -0.2762 -0.0317
  484MPD2    C5 7200   2.974   1.323  12.374 -0.3448  0.6113 -0.4242
  484MPD2     H 7201   3.185   1.004  12.415  1.3301  0.9539  0.2669
  484MPD2    H1 7202   3.153   1.413  12.305  3.4591 -1.7554  1.0362
  484MPD2    H2 7203   2.811   1.210  12.440 -1.2640  1.4595 -2.5084
  484MPD2    H3 7204   2.911   1.406  12.345 -0.6017  0.0136 -1.5837
  484MPD2     N 7205   3.313   1.228  12.343  0.7526 -0.4182  0.0194
  484MPD2    H5 7206   3.333   1.315  12.295  1.5817 -0.5677  0.0920
  484MPD2    N1 7207   2.924   0.986  12.496 -0.1119 -0.1373  0.1696
  484MPD2    H7 7208   2.823   0.993  12.503  0.0018 -1.3071  3.1427
  485TMC3    C1 7209   3.539   1.170  12.286  1.0912  0.2160 -0.5744
  485TMC3    C2 7210   3.653   1.118  12.340  0.0207  0.1757 -0.2450
  485TMC3    C3 7211   3.777   1.162  12.301 -0.1176 -0.0082 -0.4699
  485TMC3    C4 7212   3.539   1.252  12.174 -0.7753 -0.5494  0.2226
  485TMC3    C5 7213   3.661   1.293  12.131 -0.0645 -0.9838 -0.0959
  485TMC3    C6 7214   3.776   1.258  12.201  0.0268 -0.2422 -0.1423
  485TMC3     C 7215   3.417   1.141  12.359  0.0390 -0.5041 -0.3037
  485TMC3     O 7216   3.426   1.035  12.419 -0.6329 -0.2350 -0.3670
  485TMC3     H 7217   3.642   1.053  12.427  0.1094 -0.4261 -0.6812
  485TMC3    H1 7218   3.449   1.284  12.124  1.0457  3.3600 -0.5880
  485TMC3    H2 7219   3.869   1.300  12.162 -0.6269  0.8617 -0.5316
  485TMC3    C7 7220   3.688   1.284  11.991  0.3687 -0.6770  0.1819
  485TMC3    C8 7221   3.888   1.067  12.272  0.2202 -0.1696  0.0017
  485TMC3    O1 7222   3.607   1.341  11.920  0.2195  0.1757 -0.2440
  485TMC3    O2 7223   3.938   1.087  12.160 -0.3503  0.1199 -0.0274
  486MPD2     C 7224   0.631   4.356  12.997  0.5148  0.2657  0.4151
  486MPD2    C1 7225   0.573   4.375  12.871 -0.8195 -0.1532  0.7689
  486MPD2    C2 7226   0.590   4.497  12.808  0.0307 -0.1306  0.2194
  486MPD2    C3 7227   0.660   4.603  12.867  0.1155  0.2918  0.2983
  486MPD2    C4 7228   0.715   4.580  12.987 -0.8277  0.4444 -0.3509
  486MPD2    C5 7229   0.697   4.459  13.053 -0.2668 -0.3179 -0.6747
  486MPD2     H 7230   0.536   4.520  12.718  0.1600  0.8602  0.3885
  486MPD2    H1 7231   0.781   4.649  13.038 -3.0691  0.9051  1.9358
  486MPD2    H2 7232   0.617   4.266  13.056  0.9759  1.2221  1.9893
  486MPD2    H3 7233   0.749   4.454  13.148  0.5407  2.3224 -0.9574
  486MPD2     N 7234   0.662   0.017  12.808  0.2117 -0.3696 -0.4385
  486MPD2    H5 7235   0.615   0.021  12.718  0.4811  0.4166 -0.5425
  486MPD2    N1 7236   0.505   4.262  12.821 -0.2544  0.2690  0.0031
  486MPD2    H7 7237   0.505   4.183  12.884 -1.1377  0.3247  0.0830
  487TMC3    C1 7238   0.409   4.116  12.685  0.3463  1.0637 -0.5474
  487TMC3    C2 7239   0.292   4.112  12.616  0.9265  0.1395 -0.3111
  487TMC3    C3 7240   0.198   4.012  12.641  0.7333  0.0214 -0.1409
  487TMC3    C4 7241   0.438   4.029  12.786 -0.5952 -0.4578  0.1702
  487TMC3    C5 7242   0.348   3.935  12.813 -0.1429 -0.4503 -0.4242
  487TMC3    C6 7243   0.230   3.925  12.745  0.3397  0.2547  0.1632
  487TMC3     C 7244   0.451   4.249  12.698 -0.3016 -0.0550 -0.5058
  487TMC3     O 7245   0.459   4.328  12.604  0.4795  0.4163 -0.1005
  487TMC3     H 7246   0.272   4.191  12.544  0.3783  0.8357  0.6113
  487TMC3    H1 7247   0.535   4.020  12.833 -0.3937 -1.1410 -0.3849
  487TMC3    H2 7248   0.181   3.828  12.748 -0.2331  0.5375  0.0830
  487TMC3    C7 7249   0.329   3.915  12.956  0.4273  0.1038 -0.3598
  487TMC3    C8 7250   0.065   4.073  12.664 -0.2843 -0.1051  0.0879
  487TMC3    O1 7251   0.428   3.943  13.024  0.4022  0.5112  0.1100
  487TMC3    O2 7252   0.068   4.188  12.708 -0.3886 -0.2118 -0.6110
  488MPD2     C 7253   0.541   1.993  16.903 -0.0797  0.1559 -0.0923
  488MPD2    C1 7254   0.558   2.124  16.943 -0.3156  0.0326 -0.5205
  488MPD2    C2 7255   0.546   2.155  17.078  0.6170 -0.4295 -0.9887
  488MPD2    C3 7256   0.493   2.061  17.166 -0.4383  0.3184 -0.2458
  488MPD2    C4 7257   0.459   1.936  17.123  0.4234 -0.6577  0.2172
  488MPD2    C5 7258   0.491   1.905  16.992  0.0073  0.3352  0.0195
  488MPD2     H 7259   0.567   2.251  17.124 -2.1939 -0.0340 -0.5267
  488MPD2    H1 7260   0.405   1.862  17.183  1.2653 -0.5611  1.1005
  488MPD2    H2 7261   0.563   1.966  16.800 -0.4954 -0.3004 -0.0612
  488MPD2    H3 7262   0.470   1.804  16.957  2.4786  0.2913 -1.3443
  488MPD2     N 7263   0.485   2.095  17.305  0.1007 -0.8810 -0.6714
  488MPD2    H5 7264   0.528   2.185  17.325  0.2065 -1.1687  0.3786
  488MPD2    N1 7265   0.597   2.231  16.859  0.2295 -1.1770  0.0643
  488MPD2    H7 7266   0.594   2.324  16.899 -1.6443  0.0802 -3.0344
  489TMC3    C1 7267   0.472   2.072  17.545 -0.0665 -0.4668 -0.6299
  489TMC3    C2 7268   0.549   2.186  17.557  0.4261  0.0880  0.3565
  489TMC3    C3 7269   0.626   2.213  17.666  0.4677 -0.2127  0.1560
  489TMC3    C4 7270   0.475   1.987  17.651 -0.7412  0.4071 -0.1693
  489TMC3    C5 7271   0.572   2.009   0.071  0.9920  0.5370  0.0987
  489TMC3    C6 7272   0.656   2.117   0.078 -0.0114 -0.2612  0.7891
  489TMC3     C 7273   0.434   2.022  17.416 -0.3652  0.4514 -1.0593
  489TMC3     O 7274   0.377   1.912  17.417 -0.4423  0.4099 -0.0086
  489TMC3     H 7275   0.533   2.259  17.479 -0.6271  1.0034  1.4255
  489TMC3    H1 7276   0.411   1.900  17.643 -1.9700  1.3769 -0.8179
  489TMC3    H2 7277   0.731   2.125   0.156 -0.6465  0.5504  1.3166
  489TMC3    C7 7278   0.571   1.926   0.197  0.4064  0.2621  0.2046
  489TMC3    C8 7279   0.734   2.302  17.636  0.0293  0.3742  0.2566
  489TMC3    O1 7280   0.663   1.956   0.272  0.1888 -0.4715  0.0164
  489TMC3    O2 7281   0.775   2.296  17.521  0.1680 -0.2146 -0.8470
  490MPD2     C 7282   1.626   2.000  17.648 -0.0063 -0.1589 -0.1135
  490MPD2    C1 7283   1.564   1.967   0.099 -0.1386 -0.1458  0.8066
  490MPD2    C2 7284   1.636   2.003   0.214  0.5516  0.7712  0.0546
  490MPD2    C3 7285   1.757   2.067   0.206  0.1684  0.0643 -1.0071
  490MPD2    C4 7286   1.810   2.090   0.086 -0.3819 -1.5287 -0.2609
  490MPD2    C5 7287   1.747   2.060  17.637 -0.3909 -0.0607  0.1071
  490MPD2     H 7288   1.580   1.984   0.305  0.9783  0.3625  0.2283
  490MPD2    H1 7289   1.909   2.133   0.075 -1.0811 -0.2318 -1.3812
  490MPD2    H2 7290   1.575   1.972  17.557  0.3488  1.1413 -0.7081
  490MPD2    H3 7291   1.797   2.090  17.545 -0.0335 -2.2761 -0.3997
  490MPD2     N 7292   1.848   2.077   0.314  0.4650  0.0819 -0.1319
  490MPD2    H5 7293   1.943   2.104   0.292  1.0650 -0.6855  1.5429
  490MPD2    N1 7294   1.440   1.900   0.117 -0.6626  0.1138 -0.2364
  490MPD2    H7 7295   1.425   1.870   0.212 -1.0548 -1.0906 -0.6840
  491TMC3    C1 7296   1.300   1.725   0.069  0.0289 -0.2277  0.4238
  491TMC3    C2 7297   1.347   1.660   0.186  0.0332 -0.7462  0.1589
  491TMC3    C3 7298   1.317   1.525   0.193 -0.5899 -0.0015 -0.0028
  491TMC3    C4 7299   1.207   1.673  17.660 -0.4815 -0.3852 -0.7563
  491TMC3    C5 7300   1.165   1.541   0.012 -0.1955 -0.0587  0.7908
  491TMC3    C6 7301   1.223   1.469   0.111  0.4351  0.1118  0.7018
  491TMC3     C 7302   1.367   1.846   0.018  0.6725  0.9645  0.2713
  491TMC3     O 7303   1.369   1.850  17.573  0.0835  0.6048  0.2926
  491TMC3     H 7304   1.429   1.699   0.245  0.5010  0.4711 -1.2834
  491TMC3    H1 7305   1.172   1.713  17.565  0.3581  0.9655 -0.4925
  491TMC3    H2 7306   1.187   1.370   0.136  3.0516 -0.8678  0.5234
  491TMC3    C7 7307   1.062   1.474  17.612 -0.9037 -0.2181 -0.3536
  491TMC3    C8 7308   1.399   1.438   0.286  0.6363  0.1303 -0.2381
  491TMC3    O1 7309   1.062   1.353  17.621 -0.1033  0.5625  0.1852
  491TMC3    O2 7310   1.453   1.481   0.388  0.2992 -0.7192 -0.6945
  492MPD2     C 7311   2.230   1.312  11.022  0.2168 -0.4096  0.7460
  492MPD2    C1 7312   2.160   1.196  10.994  0.7362 -0.1288  0.3990
  492MPD2    C2 7313   2.072   1.145  11.088 -0.9003  0.0901  0.3696
  492MPD2    C3 7314   2.059   1.213  11.210 -0.8241 -0.0303 -0.2204
  492MPD2    C4 7315   2.134   1.326  11.233 -0.0779 -0.3240  0.2437
  492MPD2    C5 7316   2.210   1.379  11.134 -0.2668  0.0945 -0.1933
  492MPD2     H 7317   2.022   1.052  11.064 -0.3868  0.4672 -2.1645
  492MPD2    H1 7318   2.121   1.378  11.327  0.0239  1.3950 -0.6917
  492MPD2    H2 7319   2.302   1.359  10.955 -0.0405 -0.7016  0.2640
  492MPD2    H3 7320   2.266   1.467  11.166 -0.3924  0.0501  0.1458
  492MPD2     N 7321   1.973   1.177  11.315  0.3030 -0.7924  0.1097
  492MPD2    H5 7322   1.964   1.234  11.398 -0.5453  0.4207 -0.8089
  492MPD2    N1 7323   2.181   1.134  10.868 -0.1113 -0.3404 -0.3258
  492MPD2    H7 7324   2.231   1.186  10.797  0.0062 -0.7506 -0.5435
  493TMC3    C1 7325   2.159   0.969  10.699  0.9580 -0.1215  0.6038
  493TMC3    C2 7326   2.121   1.060  10.602 -0.4709 -0.3102  0.0631
  493TMC3    C3 7327   2.035   1.026  10.498  0.4928 -0.1310  0.1199
  493TMC3    C4 7328   2.115   0.844  10.679 -0.3558  0.2014  0.2830
  493TMC3    C5 7329   2.020   0.808  10.584  0.1446  0.6930 -0.0549
  493TMC3    C6 7330   1.977   0.906  10.495  0.2978  0.1033  0.0889
  493TMC3     C 7331   2.139   1.008  10.839 -1.0645  0.7794  0.0364
  493TMC3     O 7332   2.078   0.928  10.908  0.4332  0.3297 -0.0038
  493TMC3     H 7333   2.164   1.159  10.607  2.2849 -1.5067  0.0376
  493TMC3    H1 7334   2.145   0.766  10.748  1.0813 -0.4199 -1.0524
  493TMC3    H2 7335   1.900   0.881  10.424  0.3259  2.5438 -0.7790
  493TMC3    C7 7336   1.912   0.726  10.634  0.5933  0.2246 -0.2167
  493TMC3    C8 7337   1.961   1.133  10.436 -0.0686  0.4510  0.1093
  493TMC3    O1 7338   1.823   0.697  10.550 -0.6125  0.1380 -0.4443
  493TMC3    O2 7339   1.840   1.119  10.414  0.0607  0.6500  0.1895
  494TMC3    C1 7340   2.527   2.936   0.781 -0.4979 -0.3145 -0.6064
  494TMC3    C2 7341   2.617   2.849   0.729  0.1330 -1.0220 -0.7004
  494TMC3    C3 7342   2.592   2.779   0.612 -0.6897  0.3168  0.1426
  494TMC3    C4 7343   2.409   2.966   0.718 -0.6682  0.3499 -0.7787
  494TMC3    C5 7344   2.391   2.903   0.600  1.0495 -0.0363 -1.6895
  494TMC3    C6 7345   2.473   2.799   0.548  0.2957 -0.1658 -0.5167
  494TMC3     C 7346   2.552   2.990   0.911  0.0098 -1.0457 -0.4071
  494TMC3     O 7347   2.463   3.019   0.989 -0.5981 -0.1525 -0.1904
  494TMC3     H 7348   2.712   2.825   0.776 -0.6664 -1.3049  0.7731
  494TMC3    H1 7349   2.333   3.033   0.758 -3.4228 -2.9989 -0.4256
  494TMC3    H2 7350   2.461   2.760   0.447 -0.7783  2.2956 -1.3241
  494TMC3    C7 7351   2.321   2.979   0.491  0.0940 -0.5206  0.3459
  494TMC3    C8 7352   2.653   2.649   0.604  0.1450 -0.1782 -0.2308
  494TMC3    O1 7353   2.334   2.942   0.373  0.6566 -0.0267 -0.9175
  494TMC3    O2 7354   2.669   2.594   0.715  0.1231  0.3658  0.7160
  495TMC3    C1 7355   1.057   0.467  14.589 -0.2168  0.2790 -0.9176
  495TMC3    C2 7356   0.948   0.450  14.512  0.7502  0.8276  0.2139
  495TMC3    C3 7357   0.832   0.515  14.535 -0.2729 -0.5953  0.1540
  495TMC3    C4 7358   1.048   0.543  14.706 -0.4376 -0.3267 -0.9919
  495TMC3    C5 7359   0.929   0.605  14.734  0.2079 -0.0037  0.3810
  495TMC3    C6 7360   0.818   0.585  14.656  0.2836 -0.3603 -0.0394
  495TMC3     C 7361   1.119   0.334  14.599 -0.3001 -0.6174  0.1078
  495TMC3     O 7362   1.064   0.245  14.665  0.0926  0.5116 -0.5572
  495TMC3     H 7363   0.955   0.385  14.425  1.7903 -0.5428  1.3296
  495TMC3    H1 7364   1.135   0.538  14.770 -1.0543 -0.3075 -0.1525
  495TMC3    H2 7365   0.735   0.654  14.671 -0.2314 -0.6597 -1.4285
  495TMC3    C7 7366   0.920   0.627  14.875 -0.1087  0.3988  0.2173
  495TMC3    C8 7367   0.713   0.488  14.448  0.4248  0.2276 -0.1422
  495TMC3    O1 7368   1.023   0.636  14.944 -0.0148 -0.7459  0.0504
  495TMC3    O2 7369   0.608   0.518  14.502  0.3462 -0.0614  0.4089
  496MPD2     C 7370   2.741   0.196  15.202  0.6477 -1.0309  0.1434
  496MPD2    C1 7371   2.793   0.124  15.312  0.2392 -0.5032  0.7587
  496MPD2    C2 7372   2.730   0.129  15.435 -0.0154 -0.1269 -0.5734
  496MPD2    C3 7373   2.623   0.210  15.459 -0.5371 -0.2829 -0.1979
  496MPD2    C4 7374   2.569   0.279  15.354 -0.0646 -0.7518  0.4235
  496MPD2    C5 7375   2.627   0.270  15.225 -0.2640  0.4770  0.3932
  496MPD2     H 7376   2.770   0.069  15.515  0.7008 -0.6714 -1.3425
  496MPD2    H1 7377   2.476   0.334  15.360  1.7776  2.3955 -0.1128
  496MPD2    H2 7378   2.784   0.196  15.103  0.0127  0.2618 -0.1325
  496MPD2    H3 7379   2.579   0.318  15.140  0.6959  0.3856 -0.1941
  496MPD2     N 7380   2.562   0.233  15.584 -0.0325  0.0666 -0.4624
  496MPD2    H5 7381   2.481   0.294  15.590 -0.3582 -0.2498 -1.5840
  496MPD2    N1 7382   2.906   0.044  15.292  0.1141 -0.7298 -0.0174
  496MPD2    H7 7383   2.950   0.062  15.202  2.1046 -0.5483  1.0000
  497TMC3    C1 7384   2.493   0.193  15.794 -0.0303  0.1625 -0.4891
  497TMC3    C2 7385   2.374   0.246  15.759 -0.1668 -0.8307 -0.0300
  497TMC3    C3 7386   2.270   0.230  15.844  0.0716 -0.3866  0.4960
  497TMC3    C4 7387   2.503   0.113  15.905  0.3930  0.2877 -0.3149
  497TMC3    C5 7388   2.392   0.089  15.978  0.4922 -0.7824  0.0265
  497TMC3    C6 7389   2.272   0.141  15.944  0.4760  0.3199  0.4233
  497TMC3     C 7390   2.592   0.163  15.698 -0.2091  0.0762  0.0448
  497TMC3     O 7391   2.677   0.076  15.716  0.2953 -0.3784 -0.1805
  497TMC3     H 7392   2.362   0.308  15.670 -0.3525 -1.3202 -0.3461
  497TMC3    H1 7393   2.597   0.070  15.936 -1.0660 -2.1802  0.7181
  497TMC3    H2 7394   2.194   0.135  16.019 -1.4443 -0.4423 -1.6212
  497TMC3    C7 7395   2.395   0.045  16.118  0.2655  0.1046  0.0583
  497TMC3    C8 7396   2.159   0.323  15.836  0.4128 -0.2917 -0.9248
  497TMC3    O1 7397   2.293   4.709  16.162 -0.2006  0.3319 -0.1821
  497TMC3    O2 7398   2.141   0.368  15.726 -0.2399 -0.3907  0.0817
  498MPD2     C 7399   4.113   4.629   9.796 -0.0648  0.2566  0.7820
  498MPD2    C1 7400   4.225   4.562   9.735  0.1381  0.8515 -0.2814
  498MPD2    C2 7401   4.200   4.435   9.685 -0.0495  0.4161  0.2025
  498MPD2    C3 7402   4.072   4.387   9.665  0.5978  0.2205  0.1569
  498MPD2    C4 7403   3.966   4.453   9.720  0.0947 -0.3643 -0.1699
  498MPD2    C5 7404   3.989   4.569   9.786  0.5393  0.5796  0.5353
  498MPD2     H 7405   4.284   4.387   9.637 -2.4027 -0.0942 -3.4376
  498MPD2    H1 7406   3.868   4.407   9.714 -0.0477 -0.1426  0.5181
  498MPD2    H2 7407   4.115   0.011   9.837 -0.8875  0.2884  0.7523
  498MPD2    H3 7408   3.902   4.623   9.821 -0.7283 -2.1131  1.5361
  498MPD2     N 7409   4.067   4.266   9.599 -0.1179  0.0735 -0.0104
  498MPD2    H5 7410   4.157   4.235   9.564 -0.3106  1.7369 -2.0009
  498MPD2    N1 7411   4.355   4.610   9.739 -0.2322 -0.3033  0.3010
  498MPD2    H7 7412   4.423   4.544   9.702 -2.1427 -2.6855  1.0136
  499TMC3    C1 7413   4.535   0.049   9.750  0.5603 -0.2432  0.1468
  499TMC3    C2 7414   4.576   0.009   9.630  0.4255  0.6329  0.2992
  499TMC3    C3 7415   4.666   0.087   9.564 -0.5545  0.0151 -0.3702
  499TMC3    C4 7416   4.578   0.167   9.805  0.5913 -0.2569  0.0268
  499TMC3    C5 7417   4.672   0.241   9.740  0.6715 -0.5415  0.5189
  499TMC3    C6 7418   4.713   0.201   9.616 -0.6350  0.4806  0.3912
  499TMC3     C 7419   4.397   0.012   9.786 -0.7859  0.2873 -1.0531
  499TMC3     O 7420   4.342   0.104   9.843 -0.5013 -0.4761 -0.6032
  499TMC3     H 7421   4.513   4.659   9.575  0.7170  0.2933  0.3800
  499TMC3    H1 7422   4.555   0.174   9.910  3.1644 -0.2010  0.5906
  499TMC3    H2 7423   0.073   0.257   9.566 -0.2516 -1.3112 -1.0038
  499TMC3    C7 7424   4.695   0.378   9.777  0.3633  0.1086 -0.7940
  499TMC3    C8 7425   0.030   0.024   9.468 -0.6334 -0.1389  0.1945
  499TMC3    O1 7426   0.069   0.438   9.722 -0.2080 -0.2225  0.1496
  499TMC3    O2 7427   0.115   0.099   9.419 -0.1263  0.9127 -0.0589
  500MPD2     C 7428   0.804   2.585  10.567  0.1236  0.6105  0.0789
  500MPD2    C1 7429   0.853   2.499  10.473  0.2043 -0.2299  0.1309
  500MPD2    C2 7430   0.762   2.428  10.398  0.0814 -0.4348 -0.2782
  500MPD2    C3 7431   0.627   2.424  10.422  0.4329  0.5893 -0.1724
  500MPD2    C4 7432   0.585   2.501  10.525 -0.0009 -1.0143  0.7084
  500MPD2    C5 7433   0.671   2.583  10.594  0.2738 -0.6416 -0.0787
  500MPD2     H 7434   0.795   2.373  10.310  0.5492 -0.7463  0.0931
  500MPD2    H1 7435   0.481   2.508  10.553 -0.3223 -0.2504 -0.6692
  500MPD2    H2 7436   0.867   2.654  10.622  2.3088  0.0439 -1.6725
  500MPD2    H3 7437   0.639   2.652  10.671  0.1438  0.9416 -1.5322
  500MPD2     N 7438   0.539   2.344  10.356  0.1245 -0.6661 -0.2948
  500MPD2    H5 7439   0.447   2.334  10.397 -1.1454 -1.5622 -3.4177
  500MPD2    N1 7440   0.990   2.495  10.452  0.4152  0.0963 -0.5132
  500MPD2    H7 7441   1.055   2.555  10.501 -1.1167  1.3343  0.0358
  501TMC3    C1 7442   1.196   2.426  10.371  0.5347  0.4811  0.1680
  501TMC3    C2 7443   1.230   2.553  10.351 -0.1658  0.0417  0.4655
  501TMC3    C3 7444   1.368   2.584  10.340 -0.1595  0.0796 -0.0616
  501TMC3    C4 7445   1.283   2.325  10.393 -0.0850  0.2511 -0.6777
  501TMC3    C5 7446   1.420   2.359  10.408 -0.4685  0.2776 -0.8574
  501TMC3    C6 7447   1.459   2.485  10.372 -0.5723 -0.1555 -0.5510
  501TMC3     C 7448   1.054   2.395  10.381 -0.6563 -0.1778 -0.3451
  501TMC3     O 7449   1.017   2.299  10.316  0.5919 -0.2235  0.5276
  501TMC3     H 7450   1.157   2.634  10.351 -1.1312 -0.8186 -0.2656
  501TMC3    H1 7451   1.243   2.230  10.427  0.4876  0.3756  0.3657
  501TMC3    H2 7452   1.563   2.503  10.347 -1.3341  1.3174 -2.6363
  501TMC3    C7 7453   1.516   2.288  10.489  0.6018  0.4916  0.2379
  501TMC3    C8 7454   1.404   2.712  10.402 -0.3207 -0.0411 -0.5554
  501TMC3    O1 7455   1.527   2.169  10.477  0.2373  0.1051 -0.4556
  501TMC3    O2 7456   1.505   2.711  10.468 -0.1455  0.1189  0.3802
  502TMC3    C1 7457   0.493   1.248  15.727  0.9460  0.3472  0.2972
  502TMC3    C2 7458   0.441   1.364  15.675 -0.0856 -0.7334 -0.0995
  502TMC3    C3 7459   0.318   1.359  15.619 -0.0940  0.0761  0.4673
  502TMC3    C4 7460   0.418   1.135  15.731  0.1957  0.1993  0.5595
  502TMC3    C5 7461   0.293   1.132  15.665 -0.3825 -0.2530 -0.2921
  502TMC3    C6 7462   0.246   1.245  15.601 -0.3869 -0.5508 -0.3518
  502TMC3     C 7463   0.573   1.270  15.843 -0.1611 -0.6909 -0.0802
  502TMC3     O 7464   0.661   1.353  15.848  0.0826 -0.8834 -0.1003
  502TMC3     H 7465   0.495   1.457  15.692 -0.7974 -0.8972  3.0377
  502TMC3    H1 7466   0.461   1.039  15.761  1.4752  0.9913  1.2728
  502TMC3    H2 7467   0.151   1.247  15.549  0.6214 -0.8671 -2.2195
  502TMC3    C7 7468   0.205   1.017  15.705 -0.5872  0.1991  0.1924
  502TMC3    C8 7469   0.279   1.478  15.547 -0.3330 -0.0191 -0.4193
  502TMC3    O1 7470   0.254   0.938  15.784  0.0982  0.6979 -0.0176
  502TMC3    O2 7471   0.372   1.550  15.507 -0.4693  0.3243  0.1493
  503MPD2     C 7472   2.125   1.680  17.253  0.2916 -0.7428 -0.1091
  503MPD2    C1 7473   2.242   1.738  17.304  0.2647  0.4540  0.1084
  503MPD2    C2 7474   2.334   1.658  17.366  0.0930 -0.0234 -0.2386
  503MPD2    C3 7475   2.316   1.525  17.380 -0.2851  0.4982  0.4100
  503MPD2    C4 7476   2.193   1.468  17.339 -0.5806 -0.4788  0.2996
  503MPD2    C5 7477   2.101   1.548  17.274  0.1001 -0.2396 -0.3670
  503MPD2     H 7478   2.421   1.703  17.411  1.4631 -1.7596 -1.1469
  503MPD2    H1 7479   2.162   1.366  17.353 -1.3519 -0.1191  1.1837
  503MPD2    H2 7480   2.043   1.740  17.214  0.3348 -0.6558 -0.0678
  503MPD2    H3 7481   2.014   1.499  17.231 -0.3884 -0.7341  1.1989
  503MPD2     N 7482   2.411   1.455  17.450 -0.0120  0.3449 -0.0290
  503MPD2    H5 7483   2.503   1.496  17.462  0.3004 -0.7190  1.1869
  503MPD2    N1 7484   2.268   1.875  17.290  0.0696  0.5594 -0.1448
  503MPD2    H7 7485   2.362   1.907  17.312  0.0074  0.2474  0.5656
  504TMC3    C1 7486   2.504   1.261  17.570 -0.3995  0.1054  0.6331
  504TMC3    C2 7487   2.476   1.181   0.008 -0.1607  0.2240  0.0805
  504TMC3    C3 7488   2.579   1.113   0.057  0.4075 -0.2438 -0.4905
  504TMC3    C4 7489   2.632   1.281  17.523 -0.3394 -0.0667  0.2264
  504TMC3    C5 7490   2.725   1.204  17.575  0.3242  0.0966  0.7426
  504TMC3    C6 7491   2.706   1.125   0.006  0.1186 -0.0317  0.5063
  504TMC3     C 7492   2.390   1.322  17.495  0.1899 -0.2064 -0.9693
  504TMC3     O 7493   2.286   1.263  17.495 -0.5746 -0.2145 -0.1732
  504TMC3     H 7494   2.374   1.161   0.039 -0.7011  0.4961 -1.5166
  504TMC3    H1 7495   2.635   1.330  17.426  1.1319  2.7065  1.6883
  504TMC3    H2 7496   2.790   1.069   0.045  1.8029  0.6562 -2.1407
  504TMC3    C7 7497   2.851   1.210  17.506  0.1412 -0.0038 -0.2200
  504TMC3    C8 7498   2.546   1.002   0.144 -0.2536  0.5726 -0.0723
  504TMC3    O1 7499   2.877   1.304  17.434  0.7916  0.3748 -0.2227
  504TMC3    O2 7500   2.428   0.971   0.155  0.1027  0.1646 -0.3433
  505MPD2     C 7501   3.354   4.161  10.400 -0.0811  0.6112  0.4762
  505MPD2    C1 7502   3.380   4.032  10.432  0.1062  0.0072  0.6441
  505MPD2    C2 7503   3.489   3.999  10.505 -0.6939 -0.7539  0.2262
  505MPD2    C3 7504   3.576   4.098  10.552 -0.4787  0.2884  0.4097
  505MPD2    C4 7505   3.548   4.228  10.519 -0.8132  0.3161  0.3752
  505MPD2    C5 7506   3.440   4.258  10.440  0.2461 -0.4716 -0.6745
  505MPD2     H 7507   3.511   3.902  10.546 -0.4255 -0.1398  1.5196
  505MPD2    H1 7508   3.606   4.313  10.553  1.4884 -0.5292 -1.3924
  505MPD2    H2 7509   3.272   4.194  10.337  1.4405  1.7076 -0.9078
  505MPD2    H3 7510   3.412   4.355  10.403 -0.1724 -0.1509  0.4840
  505MPD2     N 7511   3.681   4.059  10.640 -0.6034  0.3210  0.0066
  505MPD2    H5 7512   3.686   3.962  10.667 -0.5512  0.7460  1.5668
  505MPD2    N1 7513   3.286   3.935  10.384  0.7126 -0.1228  0.7709
  505MPD2    H7 7514   3.226   3.974  10.313 -0.2433 -3.0427 -0.0178
  506TMC3    C1 7515   3.182   3.728  10.360 -0.3580 -0.1134  0.4721
  506TMC3    C2 7516   3.167   3.738  10.223  0.4567 -0.7497 -0.5028
  506TMC3    C3 7517   3.146   3.620  10.161  0.2698  0.4653  0.5741
  506TMC3    C4 7518   3.162   3.607  10.422  0.1771  0.1062  0.0351
  506TMC3    C5 7519   3.163   3.490  10.343  0.0949 -0.1138  0.4702
  506TMC3    C6 7520   3.144   3.496  10.211 -0.2724 -0.3478  0.4254
  506TMC3     C 7521   3.285   3.803  10.422 -0.6084  0.3221  0.7926
  506TMC3     O 7522   3.341   3.751  10.518 -0.0727  0.1957 -0.1831
  506TMC3     H 7523   3.185   3.829  10.168 -1.1693  0.6477  1.3006
  506TMC3    H1 7524   3.162   3.611  10.530 -1.2548  1.9339 -0.0345
  506TMC3    H2 7525   3.141   3.404  10.153  1.4351  0.6272 -1.2175
  506TMC3    C7 7526   3.281   3.414  10.374  0.7448 -0.2996  0.2683
  506TMC3    C8 7527   3.145   3.626  10.023 -0.4695 -0.2227  0.3609
  506TMC3    O1 7528   3.299   3.323  10.295  0.2383  0.1785 -0.1171
  506TMC3    O2 7529   3.090   3.541   9.960 -0.0020 -0.3471  0.2310
  507TMC3    C1 7530   3.571   1.153  15.085  0.4719  0.4649 -0.5525
  507TMC3    C2 7531   3.518   1.066  14.991  0.4884  0.3164 -0.4604
  507TMC3    C3 7532   3.479   1.117  14.875 -0.0057  0.1543  0.8899
  507TMC3    C4 7533   3.632   1.272  15.042  0.4836 -0.3696 -0.4078
  507TMC3    C5 7534   3.615   1.309  14.911 -0.6613  0.6156 -0.4054
  507TMC3    C6 7535   3.535   1.235  14.831  0.3378 -0.2679  0.0375
  507TMC3     C 7536   3.523   1.163  15.221 -0.0588 -0.6231  0.3109
  507TMC3     O 7537   3.577   1.226  15.307 -0.1444 -0.1346 -0.1323
  507TMC3     H 7538   3.459   0.983  15.029 -1.7744  1.2534 -1.9693
  507TMC3    H1 7539   3.702   1.319  15.111 -0.3619  1.9139 -1.1083
  507TMC3    H2 7540   3.509   1.272  14.733  3.4895  2.7067  0.3131
  507TMC3    C7 7541   3.604   1.452  14.896  0.3187  0.4490  0.2267
  507TMC3    C8 7542   3.341   1.134  14.867  0.3278 -1.2144  0.1337
  507TMC3    O1 7543   3.550   1.486  14.792  0.4979 -0.0903 -0.1277
  507TMC3    O2 7544   3.280   1.126  14.975  0.3983  0.1954 -0.0994
  508MPD2     C 7545   4.468   3.603  16.389  1.3278  0.5341  0.3404
  508MPD2    C1 7546   4.460   3.735  16.344 -0.0998 -0.1418 -0.1941
  508MPD2    C2 7547   4.433   3.749  16.210  0.5513  0.4147  0.0726
  508MPD2    C3 7548   4.418   3.642  16.126 -0.2212  0.1007 -0.3275
  508MPD2    C4 7549   4.456   3.520  16.171 -0.1568 -0.5382 -0.1081
  508MPD2    C5 7550   4.474   3.495  16.302  0.5354  0.6761 -0.1174
  508MPD2     H 7551   4.427   3.846  16.162 -3.2978  0.2175  0.1212
  508MPD2    H1 7552   4.449   3.434  16.105 -0.0482 -0.3625 -0.3493
  508MPD2    H2 7553   4.473   3.598  16.497  4.1051 -0.4643  0.1654
  508MPD2    H3 7554   4.485   3.395  16.343  0.5086 -0.0853 -1.9676
  508MPD2     N 7555   4.365   3.677  15.995 -0.9155 -0.3028  0.1992
  508MPD2    H5 7556   4.345   3.776  15.980  1.2763 -0.0019 -0.7154
  508MPD2    N1 7557   4.474   3.847  16.434 -0.0269  0.7832  0.2505
  508MPD2    H7 7558   4.481   3.825  16.532  0.9417  2.6964  0.6092
  509TMC3    C1 7559   4.158   3.860  15.713 -0.4256 -0.4704 -0.4589
  509TMC3    C2 7560   4.245   3.895  15.615  0.0632 -0.3984 -0.0181
  509TMC3    C3 7561   4.356   3.818  15.595 -0.7098  0.1239 -0.1140
  509TMC3    C4 7562   4.198   3.757  15.799  0.5111 -0.5906 -0.5433
  509TMC3    C5 7563   4.307   3.678  15.769  0.2836  0.3442 -0.0358
  509TMC3    C6 7564   4.397   3.709  15.674 -0.2266  0.4399  0.1050
  509TMC3     C 7565   4.049   3.941  15.758 -0.4363  0.1115  0.2794
  509TMC3     O 7566   3.990   3.894  15.857 -0.8467  0.1114  0.0737
  509TMC3     H 7567   4.221   3.967  15.537  0.1525  0.7780  1.0382
  509TMC3    H1 7568   4.140   3.721  15.883 -1.3456 -1.4032 -2.1904
  509TMC3    H2 7569   4.497   3.668  15.674 -0.9478 -1.3142  1.8009
  509TMC3    C7 7570   4.356   3.602  15.884 -0.5448 -0.4538 -0.4536
  509TMC3    C8 7571   4.465   3.887  15.538 -0.8922  0.0294 -0.4164
  509TMC3    O1 7572   4.414   3.494  15.874  0.6255 -0.0138 -0.5855
  509TMC3    O2 7573   4.551   3.829  15.479 -0.1091 -0.0832 -0.1085
  510MPD2     C 7574   2.180   0.702  14.511  1.3554 -0.3894  0.3620
  510MPD2    C1 7575   2.225   0.665  14.637 -0.7074  0.2704  0.1619
  510MPD2    C2 7576   2.363   0.654  14.658 -0.7873 -0.3832 -0.1073
  510MPD2    C3 7577   2.448   0.688  14.559  0.0434 -0.4766 -0.2350
  510MPD2    C4 7578   2.402   0.728  14.432 -0.1570 -0.4185  0.1442
  510MPD2    C5 7579   2.269   0.736  14.409 -0.1538  0.0644  0.3623
  510MPD2     H 7580   2.398   0.619  14.754 -1.8879 -1.7695 -0.1960
  510MPD2    H1 7581   2.471   0.739  14.348 -0.1905  0.0361  0.1769
  510MPD2    H2 7582   2.074   0.719  14.499  1.0887 -1.2841  1.4389
  510MPD2    H3 7583   2.231   0.764  14.312 -0.0508 -0.1099  0.2727
  510MPD2     N 7584   2.582   0.662  14.588  0.1764  0.2389 -0.4562
  510MPD2    H5 7585   2.596   0.624  14.681 -1.1968 -1.0090 -0.7465
  510MPD2    N1 7586   2.130   0.631  14.729  0.2770 -0.5110  0.3283
  510MPD2    H7 7587   2.037   0.606  14.696 -0.8789  1.7790  1.8312
  511TMC3    C1 7588   2.032   0.578  14.939 -0.3514  0.0908  0.0238
  511TMC3    C2 7589   2.003   0.629  15.069 -0.6479  0.4102  0.0006
  511TMC3    C3 7590   1.895   0.566  15.137  0.0277  0.5894  0.2266
  511TMC3    C4 7591   1.985   0.453  14.899 -0.3184  0.1723  0.3220
  511TMC3    C5 7592   1.898   0.392  14.985  0.2045 -0.3328  0.3900
  511TMC3    C6 7593   1.837   0.446  15.095 -0.6493  0.1947  0.2880
  511TMC3     C 7594   2.152   0.630  14.869 -0.2988  0.4590 -0.4734
  511TMC3     O 7595   2.223   0.710  14.932 -0.7397 -0.2147 -0.3369
  511TMC3     H 7596   2.066   0.709  15.105 -0.3553 -0.2333  0.9027
  511TMC3    H1 7597   2.046   0.411  14.820  1.9287  2.3074  0.9222
  511TMC3    H2 7598   1.744   0.399  15.128 -0.5147 -0.9005 -0.9061
  511TMC3    C7 7599   1.881   0.254  14.951 -0.0232 -0.1022 -0.0431
  511TMC3    C8 7600   1.845   0.634  15.259 -0.6493 -0.0020 -0.1804
  511TMC3    O1 7601   1.913   0.221  14.837 -0.6639 -0.4894  0.0045
  511TMC3    O2 7602   1.856   0.755  15.263  0.2464 -0.3328  0.2304
  512TMC3    C1 7603   1.009   4.482  12.767  0.2088 -0.3966  0.4578
  512TMC3    C2 7604   1.110   4.493  12.851 -0.5850  0.0757 -0.3148
  512TMC3    C3 7605   1.147   4.373  12.914  1.0996  0.1004  0.0768
  512TMC3    C4 7606   0.951   4.367  12.734  0.5356 -0.2908 -0.8433
  512TMC3    C5 7607   0.993   4.244  12.796  0.5524 -0.2090  0.4675
  512TMC3    C6 7608   1.083   4.252  12.899  0.2392  0.5252 -0.3003
  512TMC3     C 7609   0.961   4.596  12.695 -0.5466 -0.4217  0.0942
  512TMC3     O 7610   0.926   4.578  12.582 -0.5629  0.4865 -0.4842
  512TMC3     H 7611   1.171   4.580  12.869 -0.3729 -0.4148  1.3124
  512TMC3    H1 7612   0.868   4.363  12.664 -0.0548  0.7765 -0.2055
  512TMC3    H2 7613   1.122   4.168  12.955 -0.1835  0.1707 -0.5339
  512TMC3    C7 7614   0.921   4.123  12.767  0.0998 -0.3693 -0.3664
  512TMC3    C8 7615   1.272   4.380  12.987 -0.2706 -0.4314  0.6520
  512TMC3    O1 7616   0.819   4.140  12.700  0.2733  0.1888  0.6928
  512TMC3    O2 7617   1.335   4.277  12.977 -0.1632 -0.2814  0.4972
  513MPD2     C 7618   2.907   4.332  13.164 -0.3748 -0.0200 -0.0379
  513MPD2    C1 7619   2.970   4.454  13.148 -0.4742  0.4517  0.2708
  513MPD2    C2 7620   2.989   4.534  13.256 -0.2803  0.6958  0.8070
  513MPD2    C3 7621   2.937   4.510  13.382 -0.5623  0.6344  0.2999
  513MPD2    C4 7622   2.866   4.397  13.396  0.0337 -0.9488 -0.5479
  513MPD2    C5 7623   2.852   4.307  13.292  0.1845  0.2525 -0.3672
  513MPD2     H 7624   3.043   4.625  13.230  2.3522 -0.6198  1.6866
  513MPD2    H1 7625   2.820   4.363  13.489  2.2329  0.1212  0.9363
  513MPD2    H2 7626   2.899   4.258  13.086 -1.2618 -0.8629  0.8414
  513MPD2    H3 7627   2.793   4.217  13.309  3.0554 -2.1395 -2.9066
  513MPD2     N 7628   2.978   4.601  13.478  0.5666  0.3105 -0.0294
  513MPD2    H5 7629   3.016   4.690  13.449 -1.0595  0.7175 -0.8964
  513MPD2    N1 7630   3.030   4.498  13.029 -0.5581  0.2770  0.3305
  513MPD2    H7 7631   3.093   4.577  13.042 -1.2252  0.9186 -0.3674
  514TMC3    C1 7632   3.159   4.478  12.842 -0.0070 -0.4664  0.5412
  514TMC3    C2 7633   3.123   4.524  12.720 -0.2631 -0.1179  0.1914
  514TMC3    C3 7634   3.183   4.637  12.676  0.1302  0.2060 -0.0486
  514TMC3    C4 7635   3.249   4.547  12.920  0.3950  0.2321 -0.5056
  514TMC3    C5 7636   3.300   4.664  12.875 -0.7747 -0.7906 -0.6714
  514TMC3    C6 7637   3.273   4.704  12.751 -0.1883 -0.1333 -0.4447
  514TMC3     C 7638   3.042   4.425  12.914  1.0287 -0.1990 -0.3562
  514TMC3     O 7639   2.979   4.326  12.878 -0.4867  0.5490 -1.1225
  514TMC3     H 7640   3.041   4.482  12.664  0.1530 -1.2730  0.4454
  514TMC3    H1 7641   3.268   4.509  13.019 -0.9918  3.0573  0.8509
  514TMC3    H2 7642   3.298   0.088  12.728 -1.5025  0.2149 -0.3077
  514TMC3    C7 7643   3.263   0.045  12.969  0.7505 -0.2879 -0.4720
  514TMC3    C8 7644   3.212   4.621  12.537 -0.3629 -0.0703  0.2298
  514TMC3    O1 7645   3.166   0.012  13.038 -0.6020  0.3248 -0.2995
  514TMC3    O2 7646   3.136   4.541  12.481 -0.5836  0.2331  0.1048
  515MPD2     C 7647   1.120   1.979  15.423 -0.3899 -0.1080  0.7987
  515MPD2    C1 7648   1.115   2.010  15.288  0.0663  0.1697 -0.1593
  515MPD2    C2 7649   1.214   2.082  15.225 -0.8528  0.6173  0.3711
  515MPD2    C3 7650   1.315   2.133  15.309 -0.3978 -0.4344 -0.7441
  515MPD2    C4 7651   1.309   2.111  15.442 -0.2968 -0.2596 -0.7207
  515MPD2    C5 7652   1.219   2.028  15.500  0.9764  0.4295 -0.3658
  515MPD2     H 7653   1.204   2.117  15.123  3.2349 -2.3692 -1.0739
  515MPD2    H1 7654   1.385   2.161  15.501  1.0476 -2.5724 -0.4920
  515MPD2    H2 7655   1.053   1.907  15.467  1.8943 -2.2534  0.8171
  515MPD2    H3 7656   1.219   2.003  15.606  1.6349 -0.7061 -0.6319
  515MPD2     N 7657   1.422   2.213  15.254 -0.3164  0.4365  0.1871
  515MPD2    H5 7658   1.485   2.243  15.327 -0.8567 -0.0285  0.8501
  515MPD2    N1 7659   0.998   1.974  15.212 -0.5751 -0.1315  0.1601
  515MPD2    H7 7660   1.003   1.997  15.113 -0.7826  3.4297  0.9533
  516TMC3    C1 7661   0.781   1.905  15.150 -0.4968 -0.4316  0.7374
  516TMC3    C2 7662   0.783   1.953  15.023 -0.1569  0.4213 -0.0836
  516TMC3    C3 7663   0.687   1.904  14.939  0.5873  0.4749 -0.0039
  516TMC3    C4 7664   0.674   1.819  15.189 -0.5119 -0.3188 -0.4393
  516TMC3    C5 7665   0.576   1.792  15.105 -0.3818  0.0371 -1.0112
  516TMC3    C6 7666   0.588   1.824  14.973 -0.0304  0.7630  0.8953
  516TMC3     C 7667   0.879   1.934  15.252 -0.1027 -0.2163  0.9669
  516TMC3     O 7668   0.841   1.923  15.368  0.4525  0.1698 -0.0955
  516TMC3     H 7669   0.847   2.037  14.997  0.4762 -0.3501 -0.9941
  516TMC3    H1 7670   0.660   1.792  15.293  2.6243 -1.3592 -0.2977
  516TMC3    H2 7671   0.524   1.777  14.898  0.9494 -0.0026  0.5322
  516TMC3    C7 7672   0.474   1.696  15.137 -0.2512 -0.6877 -0.6034
  516TMC3    C8 7673   0.696   1.931  14.794 -0.4307 -0.0611  0.1008
  516TMC3    O1 7674   0.360   1.710  15.086 -0.0435 -0.0137 -0.3859
  516TMC3    O2 7675   0.598   1.918  14.726  0.0392  0.6808 -0.6052
  517MPD2     C 7676   1.021   3.585   0.632  0.2486 -0.3442 -0.0695
  517MPD2    C1 7677   1.147   3.589   0.581  0.6964  0.0677 -0.2766
  517MPD2    C2 7678   1.237   3.679   0.643  0.0401 -0.4079 -0.6167
  517MPD2    C3 7679   1.204   3.757   0.754 -0.0839 -0.1801  0.2812
  517MPD2    C4 7680   1.073   3.745   0.804  0.5221  0.0063  0.2079
  517MPD2    C5 7681   0.986   3.659   0.744 -0.1927 -0.6023 -0.2338
  517MPD2     H 7682   1.337   3.679   0.600  0.4147  0.8777  0.2704
  517MPD2    H1 7683   1.034   3.805   0.885 -0.1399 -0.0576 -0.0610
  517MPD2    H2 7684   0.940   3.539   0.576 -0.1456  0.6676 -0.3332
  517MPD2    H3 7685   0.885   3.659   0.784 -1.0294  0.8181 -2.3691
  517MPD2     N 7686   1.305   3.832   0.820 -0.3765 -0.5923  0.6553
  517MPD2    H5 7687   1.398   3.820   0.781 -0.6072 -0.1148 -0.0586
  517MPD2    N1 7688   1.185   3.504   0.467  0.4681 -0.2693 -0.7103
  517MPD2    H7 7689   1.275   3.523   0.422  0.1401  0.6416 -0.9895
  518TMC3    C1 7690   1.164   3.324   0.314  0.5631 -0.2466  0.6129
  518TMC3    C2 7691   1.148   3.187   0.326  0.1557 -0.0307 -0.3714
  518TMC3    C3 7692   1.218   3.110   0.231 -0.0709  0.5740 -0.0641
  518TMC3    C4 7693   1.243   3.389   0.227  0.3335  0.4925  0.4484
  518TMC3    C5 7694   1.308   3.310   0.143 -0.5550  0.0794 -0.1659
  518TMC3    C6 7695   1.299   3.170   0.143  0.7297  0.1968 -0.3159
  518TMC3     C 7696   1.114   3.394   0.431 -0.2343 -0.1706  1.1586
  518TMC3     O 7697   1.008   3.347   0.475  0.3190 -0.5549 -0.0943
  518TMC3     H 7698   1.085   3.143   0.402  0.9987 -0.1119  0.2888
  518TMC3    H1 7699   1.266   3.495   0.232  0.9824  0.3953 -0.5826
  518TMC3    H2 7700   1.348   3.111   0.066 -2.7154 -1.7336 -1.0247
  518TMC3    C7 7701   1.361   3.370   0.024  0.0938 -0.6920  0.6502
  518TMC3    C8 7702   1.223   2.964   0.239  0.4205 -0.4819 -0.3261
  518TMC3    O1 7703   1.318   3.471  17.646  0.1027 -0.2881 -0.1409
  518TMC3    O2 7704   1.301   2.908   0.157  0.2736  0.6346  0.4598
  519MPD2     C 7705   2.507   1.584  14.420  0.5068 -0.1866  0.3784
  519MPD2    C1 7706   2.467   1.489  14.334  0.1783 -0.1603 -0.6595
  519MPD2    C2 7707   2.567   1.400  14.279 -0.1481 -0.1879 -0.1039
  519MPD2    C3 7708   2.697   1.424  14.308  0.5292 -0.0452 -0.3937
  519MPD2    C4 7709   2.737   1.512  14.404 -0.1476  0.0456 -0.0357
  519MPD2    C5 7710   2.638   1.594  14.455 -0.3489  0.2869 -0.8620
  519MPD2     H 7711   2.530   1.315  14.222  0.0393  0.7015 -1.5578
  519MPD2    H1 7712   2.843   1.531  14.418 -0.4521  0.6994  1.3169
  519MPD2    H2 7713   2.437   1.647  14.474 -1.2987 -2.9704  1.2544
  519MPD2    H3 7714   2.664   1.665  14.533  0.9120 -1.2537  0.1088
  519MPD2     N 7715   2.799   1.346  14.243  0.0611  0.6471 -0.6837
  519MPD2    H5 7716   2.897   1.371  14.257  0.4008 -1.0934  0.0014
  519MPD2    N1 7717   2.335   1.492  14.289 -0.3730  0.4240  0.0712
  519MPD2    H7 7718   2.282   1.575  14.309  1.3638  1.8037 -1.0338
  520TMC3    C1 7719   2.890   1.204  14.071 -0.5589 -0.2675 -0.4619
  520TMC3    C2 7720   2.870   1.204  13.939  0.5318  0.1919 -0.2066
  520TMC3    C3 7721   2.955   1.130  13.861  0.4454 -0.8557 -0.2252
  520TMC3    C4 7722   2.975   1.118  14.135  0.8026 -0.2312  0.2345
  520TMC3    C5 7723   3.070   1.052  14.054 -0.8160  0.3489 -0.1130
  520TMC3    C6 7724   3.053   1.055  13.922 -0.1271 -0.2410 -0.8906
  520TMC3     C 7725   2.773   1.261  14.138 -0.2833 -0.7965 -0.2119
  520TMC3     O 7726   2.665   1.236  14.078 -0.0369 -0.0931 -0.2789
  520TMC3     H 7727   2.802   1.277  13.896  0.4964 -0.8194 -1.8488
  520TMC3    H1 7728   2.985   1.134  14.242  1.9644  0.6747 -0.0093
  520TMC3    H2 7729   3.119   0.994  13.861  0.3018 -1.2741  0.6105
  520TMC3    C7 7730   3.181   0.978  14.123  0.6111 -0.6131  0.0004
  520TMC3    C8 7731   2.898   1.087  13.736 -0.1416 -0.3079  0.4575
  520TMC3    O1 7732   3.174   0.963  14.245 -0.3599  0.4433 -0.0566
  520TMC3    O2 7733   2.972   1.036  13.655  0.1678 -0.2172 -0.4478
  521MPD2     C 7734   3.125   4.125  17.620 -0.7070  0.2198  0.5275
  521MPD2    C1 7735   3.133   4.204  17.506  0.0611 -0.3767 -0.1194
  521MPD2    C2 7736   3.255   4.236  17.461  0.2185 -0.1175  0.0132
  521MPD2    C3 7737   3.373   4.189  17.511 -0.3908 -0.9493  0.5373
  521MPD2    C4 7738   3.363   4.103  17.619  0.3983  0.2033 -0.2882
  521MPD2    C5 7739   3.241   4.073  17.674 -0.6892  0.3173  0.1724
  521MPD2     H 7740   3.261   4.301  17.374 -1.6576 -0.3255 -0.2867
  521MPD2    H1 7741   3.450   4.053  17.660  0.1107 -0.3385 -0.3518
  521MPD2    H2 7742   3.027   4.099  17.660 -1.7438  1.6930 -1.0733
  521MPD2    H3 7743   3.245   4.007   0.085  0.7871 -0.9897 -0.8792
  521MPD2     N 7744   3.490   4.229  17.448 -0.8366 -0.6488  0.1207
  521MPD2    H5 7745   3.481   4.297  17.373 -0.7837  0.0532  0.7483
  521MPD2    N1 7746   3.011   4.251  17.447 -0.3590 -0.0122  0.1460
  521MPD2    H7 7747   2.925   4.231  17.496 -0.4749  0.3656  0.0933
  522TMC3    C1 7748   3.717   4.261  17.404  0.9509  0.6888 -0.3822
  522TMC3    C2 7749   3.845   4.232  17.430  0.0355 -0.1878 -0.0207
  522TMC3    C3 7750   3.951   4.279  17.345  0.8426 -0.1634 -0.0173
  522TMC3    C4 7751   3.687   4.336  17.299 -0.1306  0.2787 -0.1108
  522TMC3    C5 7752   3.793   4.391  17.227  0.0427 -0.2676  0.2954
  522TMC3    C6 7753   3.927   4.369  17.247  0.2749 -0.0394 -1.0342
  522TMC3     C 7754   3.616   4.196  17.489  0.4971  0.1228  0.4556
  522TMC3     O 7755   3.648   4.118  17.577 -0.0557 -0.1510 -0.0146
  522TMC3     H 7756   3.860   4.159  17.509  2.2680 -0.7796 -0.9861
  522TMC3    H1 7757   3.583   4.352  17.273  0.1753  1.6101 -0.5119
  522TMC3    H2 7758   4.002   4.404  17.177  3.3621  1.5784  3.1082
  522TMC3    C7 7759   3.758   4.483  17.124  0.5365  0.3161  0.2023
  522TMC3    C8 7760   4.079   4.207  17.355 -0.1525 -0.1961 -0.2933
  522TMC3    O1 7761   3.853   4.556  17.086  0.2764  0.0663  0.2112
  522TMC3    O2 7762   4.096   4.140  17.458  0.1951 -0.5678 -0.3224
  523MPD2     C 7763   1.585   3.474  10.801 -0.3885 -0.1348  0.2071
  523MPD2    C1 7764   1.577   3.440  10.667  0.7260  0.1017  0.5183
  523MPD2    C2 7765   1.577   3.544  10.575  0.2749  0.9695 -0.2081
  523MPD2    C3 7766   1.605   3.677  10.614  0.5330  0.1427 -0.0603
  523MPD2    C4 7767   1.624   3.703  10.748  0.3634 -0.4723 -0.4153
  523MPD2    C5 7768   1.615   3.600  10.834 -0.0443 -0.2799  0.0538
  523MPD2     H 7769   1.565   3.526  10.468 -3.6946  0.5197  0.3449
  523MPD2    H1 7770   1.652   3.801  10.787 -3.1286  0.1312  0.5911
  523MPD2    H2 7771   1.585   3.399  10.879  0.7133 -0.8616 -0.4924
  523MPD2    H3 7772   1.628   3.622  10.939 -0.5454 -2.5291  0.6030
  523MPD2     N 7773   1.607   3.789  10.525  0.5287 -0.0272  0.0217
  523MPD2    H5 7774   1.610   3.883  10.562 -1.2611 -0.4775  1.3276
  523MPD2    N1 7775   1.575   3.309  10.627  0.1607  0.2935 -0.1711
  523MPD2    H7 7776   1.615   3.244  10.693  0.2072 -0.5895 -1.0594
  524TMC3    C1 7777   1.611   3.888  10.315 -0.3069 -0.3294  0.0877
  524TMC3    C2 7778   1.663   3.890  10.189 -0.0091  0.1737 -0.5176
  524TMC3    C3 7779   1.603   3.976  10.105 -0.9642  0.3683  0.2598
  524TMC3    C4 7780   1.520   3.977  10.362 -0.0262 -0.3422  0.4488
  524TMC3    C5 7781   1.473   4.072  10.267  0.1228  0.0943  0.3190
  524TMC3    C6 7782   1.511   4.073  10.136  0.3692 -0.2739  0.1309
  524TMC3     C 7783   1.639   3.775  10.387 -0.5189 -0.6892 -0.9772
  524TMC3     O 7784   1.684   3.685  10.323 -0.5307  0.3519  0.1044
  524TMC3     H 7785   1.707   3.801  10.147 -0.0169 -0.6320  1.1701
  524TMC3    H1 7786   1.492   4.000  10.464 -1.5966  0.0733 -0.0713
  524TMC3    H2 7787   1.465   4.142  10.066  1.7326  0.5368  0.0355
  524TMC3    C7 7788   1.363   4.155  10.312  0.3425 -0.1455 -0.2441
  524TMC3    C8 7789   1.639   3.971   9.967 -0.1527  0.0517  0.9045
  524TMC3    O1 7790   1.298   4.121  10.410 -0.3517 -0.4489 -0.2779
  524TMC3    O2 7791   1.569   4.044   9.895 -0.3679 -0.8709  0.7778
  525MPD2     C 7792   3.862   0.797  14.641 -0.1661 -0.8128  0.8642
  525MPD2    C1 7793   3.961   0.841  14.725 -0.6796 -0.0139  1.1472
  525MPD2    C2 7794   4.018   0.968  14.713 -0.3432 -0.0023  0.5794
  525MPD2    C3 7795   3.947   1.060  14.635 -0.0337  0.2074  0.2729
  525MPD2    C4 7796   3.841   1.017  14.562  0.2863  0.4887  0.6492
  525MPD2    C5 7797   3.809   0.886  14.553  0.4511  0.3105 -0.1783
  525MPD2     H 7798   4.097   0.994  14.783  1.0414 -1.3365 -0.5188
  525MPD2    H1 7799   3.796   1.080  14.485 -2.0533 -1.7305  0.1775
  525MPD2    H2 7800   3.828   0.694  14.638  1.0108 -1.1661 -0.4561
  525MPD2    H3 7801   3.733   0.844  14.488 -0.8496  1.6909  0.4605
  525MPD2     N 7802   3.981   1.200  14.623 -0.0379  0.1474 -0.3999
  525MPD2    H5 7803   3.908   1.257  14.582 -0.5280 -0.0588  0.1787
  525MPD2    N1 7804   4.012   0.754  14.826  0.4113 -0.3162  0.1749
  525MPD2    H7 7805   4.104   0.771  14.865  0.7826  1.2687 -1.4005
  526TMC3    C1 7806   3.994   0.576  14.993 -0.4961  0.2144  0.2993
  526TMC3    C2 7807   3.916   0.545  15.106 -0.2962 -0.1680  0.6797
  526TMC3    C3 7808   3.991   0.494  15.209 -0.5438  0.7571  0.1744
  526TMC3    C4 7809   4.129   0.562  14.976  0.1532 -0.7143 -0.1696
  526TMC3    C5 7810   4.189   0.503  15.090 -0.1232  0.6166 -0.4824
  526TMC3    C6 7811   4.123   0.469  15.203  0.3193 -0.1001 -0.2644
  526TMC3     C 7812   3.932   0.659  14.894 -0.3956 -0.2082 -0.3746
  526TMC3     O 7813   3.806   0.656  14.903  0.1029  0.2557 -0.6183
  526TMC3     H 7814   3.812   0.575  15.119 -0.6084  0.1394 -2.5115
  526TMC3    H1 7815   4.189   0.579  14.888  1.8345 -2.5053  0.6269
  526TMC3    H2 7816   4.180   0.431  15.288 -1.9671 -2.8363  0.0229
  526TMC3    C7 7817   4.327   0.500  15.099 -0.5740 -0.4820 -0.6025
  526TMC3    C8 7818   3.939   0.472  15.347 -0.0914  0.6575 -0.7589
  526TMC3    O1 7819   4.388   0.521  15.207  0.5118 -0.5332 -0.4878
  526TMC3    O2 7820   4.014   0.440  15.439 -0.0632 -0.5493  0.2181
  527MPD2     C 7821   2.952   3.589   2.015 -0.0420 -0.3421  0.0874
  527MPD2    C1 7822   3.034   3.498   1.956  1.1337  0.0939 -0.3643
  527MPD2    C2 7823   3.009   3.456   1.825 -0.7034 -0.1850 -0.1390
  527MPD2    C3 7824   2.899   3.504   1.758 -0.2420 -0.1201 -0.3182
  527MPD2    C4 7825   2.826   3.613   1.812  0.1071 -0.1969 -0.5543
  527MPD2    C5 7826   2.850   3.641   1.946  0.1644  0.1988 -0.2266
  527MPD2     H 7827   3.071   3.386   1.770  1.3860  2.0924 -0.6688
  527MPD2    H1 7828   2.749   3.669   1.761  1.0150  0.9349 -0.6812
  527MPD2    H2 7829   2.963   3.626   2.117 -2.6030 -0.4700  0.4306
  527MPD2    H3 7830   2.783   3.718   1.983  1.0684  1.1188 -0.5247
  527MPD2     N 7831   2.888   3.452   1.629 -0.1340 -0.7623 -0.2388
  527MPD2    H5 7832   2.952   3.378   1.602  1.0130 -0.5402  1.8103
  527MPD2    N1 7833   3.151   3.448   2.020  0.4317 -0.5011 -0.1136
  527MPD2    H7 7834   3.208   3.376   1.977 -0.3470 -2.1608  1.6557
  528TMC3    C1 7835   3.326   3.438   2.170 -0.6339  0.1227 -0.0362
  528TMC3    C2 7836   3.419   3.519   2.231  0.1258 -0.0794  0.3353
  528TMC3    C3 7837   3.504   3.452   2.314  0.1546  0.1600  0.2331
  528TMC3    C4 7838   3.310   3.310   2.184 -0.4244  0.0537  0.2569
  528TMC3    C5 7839   3.398   3.244   2.273 -0.2376 -0.5712 -0.4710
  528TMC3    C6 7840   3.490   3.315   2.340 -0.1723 -0.6779 -0.1263
  528TMC3     C 7841   3.216   3.516   2.122 -0.4257  0.1138 -0.9377
  528TMC3     O 7842   3.203   3.634   2.165  0.8670  0.1631 -0.7543
  528TMC3     H 7843   3.427   3.623   2.204 -1.2744 -0.4223 -1.3615
  528TMC3    H1 7844   3.232   3.251   2.136 -0.1160  1.7002 -2.2699
  528TMC3    H2 7845   3.553   3.257   2.406  2.3801 -0.2357 -2.1912
  528TMC3    C7 7846   3.424   3.105   2.248 -0.1130 -0.0981  0.5330
  528TMC3    C8 7847   3.571   3.539   2.403  0.2434  0.0886 -0.3906
  528TMC3    O1 7848   3.338   3.049   2.181  0.0199  0.9002 -0.4396
  528TMC3    O2 7849   3.553   3.661   2.395 -0.1140 -0.5286  0.1471
  529MPD2     C 7850   0.586   3.025   1.163 -0.1491 -0.2845  0.7525
  529MPD2    C1 7851   0.539   2.893   1.140  0.0534 -0.6897 -0.0403
  529MPD2    C2 7852   0.494   2.853   1.015 -0.0892  0.0563 -0.4570
  529MPD2    C3 7853   0.503   2.937   0.905  0.0504 -0.2606 -0.2244
  529MPD2    C4 7854   0.536   3.072   0.929 -0.2210  0.1145 -0.0928
  529MPD2    C5 7855   0.577   3.112   1.056 -0.3372 -0.3331 -0.8987
  529MPD2     H 7856   0.463   2.751   0.996  0.0814 -0.7400  3.6214
  529MPD2    H1 7857   0.533   3.139   0.844  0.0382  1.2192  0.7799
  529MPD2    H2 7858   0.630   3.056   1.258  1.4268 -2.2757  0.6776
  529MPD2    H3 7859   0.599   3.218   1.066  1.9594 -0.9528  0.5535
  529MPD2     N 7860   0.463   2.894   0.774 -0.6479  0.4059 -0.3119
  529MPD2    H5 7861   0.459   2.965   0.703  0.4125  0.3037 -0.4761
  529MPD2    N1 7862   0.542   2.798   1.240  0.8436  0.4177 -0.0590
  529MPD2    H7 7863   0.502   2.708   1.216 -2.8661  1.2060  3.2890
  530TMC3    C1 7864   0.571   2.707   1.466 -0.2867  0.0911  0.5848
  530TMC3    C2 7865   0.669   2.677   1.555  0.0190 -0.0175  0.1071
  530TMC3    C3 7866   0.653   2.559   1.625  0.0099 -0.5026 -0.5462
  530TMC3    C4 7867   0.455   2.634   1.458 -1.4469 -0.4605  0.6062
  530TMC3    C5 7868   0.443   2.522   1.531 -0.3738  0.2007  1.2640
  530TMC3    C6 7869   0.544   2.476   1.613 -0.1781  0.1851  0.3591
  530TMC3     C 7870   0.587   2.818   1.375  0.0624  0.3071 -0.1346
  530TMC3     O 7871   0.642   2.916   1.426  0.5323 -0.5112  0.2119
  530TMC3     H 7872   0.762   2.733   1.545 -0.2654  0.6958  1.4165
  530TMC3    H1 7873   0.379   2.663   1.386 -1.8621 -1.1014  0.7798
  530TMC3    H2 7874   0.531   2.398   1.686  1.0395  0.6745  1.0995
  530TMC3    C7 7875   0.313   2.447   1.510  0.0430 -0.1279 -0.0705
  530TMC3    C8 7876   0.764   2.519   1.714  0.3350  0.2225 -0.5351
  530TMC3    O1 7877   0.222   2.521   1.472 -0.5852  0.1793  0.5912
  530TMC3    O2 7878   0.850   2.600   1.737  1.0391 -0.0263 -0.3335
  531MPD2     C 7879   3.427   0.390  13.302  0.0152 -0.1336  0.0334
  531MPD2    C1 7880   3.322   0.300  13.318  0.3779 -0.2189 -0.0994
  531MPD2    C2 7881   3.300   0.218  13.207 -0.8068 -1.2192 -0.4572
  531MPD2    C3 7882   3.378   0.226  13.089 -0.3626 -0.4872 -0.0064
  531MPD2    C4 7883   3.482   0.315  13.086 -0.0044  0.1647 -0.1299
  531MPD2    C5 7884   3.504   0.400  13.192 -0.3059  0.2819 -0.0489
  531MPD2     H 7885   3.216   0.151  13.219  0.0361 -1.9418  1.3157
  531MPD2    H1 7886   3.554   0.310  13.004 -0.1067 -0.4944 -0.1762
  531MPD2    H2 7887   3.451   0.460  13.382  0.4540 -0.0759 -0.1510
  531MPD2    H3 7888   3.579   0.478  13.196  0.4636 -0.3412 -2.4011
  531MPD2     N 7889   3.356   0.140  12.980  0.3267  0.5607 -0.2274
  531MPD2    H5 7890   3.426   0.136  12.907 -0.4279  0.0889 -0.9212
  531MPD2    N1 7891   3.257   0.281  13.444  0.0655  0.6509  0.1705
  531MPD2    H7 7892   3.276   0.332  13.530 -0.9314 -1.2257  1.5156
  532TMC3    C1 7893   3.124   0.176  13.603  0.3825  0.2155 -0.2354
  532TMC3    C2 7894   3.020   0.082  13.610  0.0794 -0.0140 -0.5450
  532TMC3    C3 7895   3.027   4.687  13.685 -0.0178  0.5169  0.3319
  532TMC3    C4 7896   3.228   0.160  13.684 -0.1267 -0.1519 -0.2354
  532TMC3    C5 7897   3.242   0.034  13.749  0.0909 -0.7992  0.1579
  532TMC3    C6 7898   3.142   4.656  13.749  0.2786  0.3772 -0.2797
  532TMC3     C 7899   3.151   0.197  13.460 -0.4282  0.1197  0.4314
  532TMC3     O 7900   3.077   0.142  13.383  0.1231  0.1484  0.0456
  532TMC3     H 7901   2.925   0.112  13.569 -0.3333  0.0699  0.4592
  532TMC3    H1 7902   3.314   0.226  13.683 -0.7242  0.5945 -1.9108
  532TMC3    H2 7903   3.164   4.560  13.794  1.2749  0.9893  0.5444
  532TMC3    C7 7904   3.373   0.001  13.800  0.0750 -0.0330  0.4413
  532TMC3    C8 7905   2.974   4.571  13.613 -0.1597 -0.4101 -0.3823
  532TMC3    O1 7906   3.440   0.079  13.864 -0.3895 -0.7129  0.0449
  532TMC3    O2 7907   2.978   4.463  13.670  0.2237  0.2480  0.2975
  533TMC3    C1 7908   4.090   1.395  14.694  0.3490 -0.1908 -0.1161
  533TMC3    C2 7909   4.210   1.445  14.694  0.4390  0.0926  0.5929
  533TMC3    C3 7910   4.235   1.540  14.785  0.5118  0.1413  0.2569
  533TMC3    C4 7911   3.992   1.439  14.778  0.0021 -0.2086  0.3495
  533TMC3    C5 7912   4.024   1.527  14.879  0.6018 -1.4198 -0.9940
  533TMC3    C6 7913   4.149   1.574  14.885 -0.2718  0.0181 -0.4618
  533TMC3     C 7914   4.095   1.252  14.683  0.0431  0.0579 -0.3251
  533TMC3     O 7915   4.198   1.197  14.713  0.5640 -0.0568  0.2206
  533TMC3     H 7916   4.286   1.399  14.631 -0.2563 -0.9400  0.5096
  533TMC3    H1 7917   3.894   1.394  14.769 -0.5262  0.7584  1.2804
  533TMC3    H2 7918   4.168   1.654  14.956 -1.0919 -0.0805 -0.1193
  533TMC3    C7 7919   3.959   1.495  15.002 -0.1946  0.2524 -0.5242
  533TMC3    C8 7920   4.352   1.622  14.767 -0.1697  0.3966 -0.3207
  533TMC3    O1 7921   3.901   1.389  15.002 -0.0071  0.0222 -0.9362
  533TMC3    O2 7922   4.390   1.674  14.873  0.3721  0.0121 -0.2964
  534MPD2     C 7923   2.955   1.714   1.273 -0.1849  0.0066 -0.0883
  534MPD2    C1 7924   2.879   1.799   1.343  0.1825  0.0866 -0.4071
  534MPD2    C2 7925   2.743   1.802   1.307  0.2037  0.1966  0.1934
  534MPD2    C3 7926   2.700   1.728   1.193  0.0354 -0.4350  1.4831
  534MPD2    C4 7927   2.789   1.654   1.124 -0.3156 -0.4812  0.9470
  534MPD2    C5 7928   2.918   1.645   1.166 -0.0743  0.3368 -0.2228
  534MPD2     H 7929   2.680   1.873   1.359 -1.8572 -0.6877 -1.1371
  534MPD2    H1 7930   2.744   1.593   1.046  0.9632 -0.8648  0.5154
  534MPD2    H2 7931   3.061   1.711   1.293 -0.3026 -2.3654  0.1977
  534MPD2    H3 7932   2.989   1.593   1.102  0.3780  0.8051 -0.1025
  534MPD2     N 7933   2.577   1.750   1.134  0.0394  0.2270  0.2641
  534MPD2    H5 7934   2.561   1.707   1.044 -0.2841 -0.3852  0.6112
  534MPD2    N1 7935   2.919   1.867   1.460  0.1795 -1.0627  0.8241
  534MPD2    H7 7936   2.845   1.912   1.514  0.7221  1.8787 -0.8721
  535TMC3    C1 7937   2.362   1.822   1.093  0.2773  0.0806 -0.4327
  535TMC3    C2 7938   2.254   1.842   1.173  0.0484 -0.5917  0.1779
  535TMC3    C3 7939   2.150   1.925   1.126  0.3641 -0.2526  0.2820
  535TMC3    C4 7940   2.370   1.894   0.977  0.9783  0.1284  0.3287
  535TMC3    C5 7941   2.265   1.971   0.937  0.3106 -0.8142  1.3825
  535TMC3    C6 7942   2.151   1.992   1.010 -0.0770  0.0529 -0.4104
  535TMC3     C 7943   2.471   1.824   1.185 -0.2327 -0.2448  0.3068
  535TMC3     O 7944   2.458   1.868   1.295 -0.2913 -0.2407  0.2464
  535TMC3     H 7945   2.241   1.778   1.260 -0.4191 -1.7138 -0.7118
  535TMC3    H1 7946   2.468   1.893   0.933 -0.0190  1.2397 -1.8902
  535TMC3    H2 7947   2.071   2.054   0.971 -0.1491  1.5467  2.1256
  535TMC3    C7 7948   2.287   2.050   0.816  0.0707  0.1098  0.2645
  535TMC3    C8 7949   2.066   1.986   1.223  0.4123 -0.2529 -0.3187
  535TMC3    O1 7950   2.350   1.988   0.727 -0.2340  0.4453  0.1097
  535TMC3    O2 7951   1.960   2.030   1.184  0.0432 -0.2141  0.6494
  536MPD2     C 7952   0.204   0.539  17.221 -0.6313  0.2175 -0.6017
  536MPD2    C1 7953   0.281   0.645  17.188 -0.1123 -0.0972 -0.4264
  536MPD2    C2 7954   0.262   0.715  17.065 -0.1590  0.0179 -0.2080
  536MPD2    C3 7955   0.172   0.667  16.974  0.2292  0.5413  0.1950
  536MPD2    C4 7956   0.091   0.559  17.012 -0.8099  0.2089 -0.2268
  536MPD2    C5 7957   0.110   0.497  17.128 -0.2415 -0.3345 -0.4611
  536MPD2     H 7958   0.306   0.811  17.044 -0.8204  0.5323  0.7551
  536MPD2    H1 7959   0.011   0.528  16.945 -1.5354 -1.0815  1.2548
  536MPD2    H2 7960   0.225   0.491  17.315 -0.3118 -1.1082 -1.3525
  536MPD2    H3 7961   0.049   0.411  17.154  0.3600 -1.0073 -1.2658
  536MPD2     N 7962   0.154   0.720  16.844 -0.2777 -0.2010 -0.6878
  536MPD2    H5 7963   0.077   0.682  16.790 -2.3128  0.2222  1.9466
  536MPD2    N1 7964   0.382   0.684  17.283  0.2582 -0.4003 -0.5295
  536MPD2    H7 7965   0.392   0.623  17.364  1.4754  0.0478 -0.3503
  537TMC3    C1 7966   0.547   0.818  17.389  0.0018 -0.1023  0.8247
  537TMC3    C2 7967   0.572   0.950  17.405  0.0719 -0.0183  0.1737
  537TMC3    C3 7968   0.633   0.985  17.522  0.8102 -0.3728  0.2149
  537TMC3    C4 7969   0.590   0.718  17.475  0.4158  0.1247 -0.3082
  537TMC3    C5 7970   0.659   0.759  17.584  0.1016  0.1689  0.0882
  537TMC3    C6 7971   0.685   0.894  17.611  0.3104  0.1846 -0.1792
  537TMC3     C 7972   0.471   0.786  17.270 -0.0039  0.1578 -0.4564
  537TMC3     O 7973   0.478   0.867  17.180  0.0667  0.1389  0.3547
  537TMC3     H 7974   0.523   1.020  17.338 -0.7658 -1.0862 -0.3175
  537TMC3    H1 7975   0.557   0.615  17.469 -1.1281  0.7411 -2.3150
  537TMC3    H2 7976   0.718   0.936   0.029  1.8270 -0.5365 -0.3951
  537TMC3    C7 7977   0.691   0.661   0.015 -0.0029 -0.7082  0.3414
  537TMC3    C8 7978   0.704   1.116  17.528  0.2765  0.1402  0.4058
  537TMC3    O1 7979   0.720   0.714   0.122  0.0093 -0.1051  0.1810
  537TMC3    O2 7980   0.801   1.121  17.602  0.4188  0.2349 -0.5618
  538TMC3    C1 7981   2.395   3.057  10.939 -0.7183  0.2648  0.2055
  538TMC3    C2 7982   2.493   3.149  10.911 -0.0753 -0.1384 -0.5053
  538TMC3    C3 7983   2.467   3.270  10.855 -0.0763  0.2489 -0.7131
  538TMC3    C4 7984   2.265   3.096  10.923 -0.0160 -0.6321  0.2078
  538TMC3    C5 7985   2.238   3.221  10.873  0.2649 -0.0302 -0.8858
  538TMC3    C6 7986   2.339   3.306  10.838  0.3309  0.2229  0.6044
  538TMC3     C 7987   2.391   3.001  11.073  0.2554 -0.7006  0.0579
  538TMC3     O 7988   2.388   2.881  11.077 -0.3107 -0.2397 -0.2968
  538TMC3     H 7989   2.592   3.130  10.952 -0.5559  1.4735  1.3452
  538TMC3    H1 7990   2.187   3.049  10.982 -0.2210 -1.3907 -0.6754
  538TMC3    H2 7991   2.316   3.406  10.805  0.6597  0.8951  2.4339
  538TMC3    C7 7992   2.123   3.280  10.940  0.1050  0.7797  0.4028
  538TMC3    C8 7993   2.579   3.361  10.827 -0.0699 -0.4387  0.2098
  538TMC3    O1 7994   2.009   3.238  10.920 -0.7632  0.0557 -0.0029
  538TMC3    O2 7995   2.683   3.320  10.884 -0.3668  0.0363  0.0990
  539MPD2     C 7996   1.634   2.353  12.083 -0.6625  0.3878 -0.0087
  539MPD2    C1 7997   1.747   2.420  12.028  0.3821  0.1477 -0.3073
  539MPD2    C2 7998   1.765   2.543  12.082  0.0253  0.0243  0.3937
  539MPD2    C3 7999   1.683   2.612  12.167 -0.5307  0.5572  0.1159
  539MPD2    C4 8000   1.581   2.541  12.223 -0.3108 -0.3212 -0.1720
  539MPD2    C5 8001   1.556   2.412  12.180 -0.4578 -0.6503  0.7707
  539MPD2     H 8002   1.839   2.594  12.021 -1.0147  0.8808 -0.1433
  539MPD2    H1 8003   1.516   2.585  12.298 -1.1140 -0.8437 -0.5585
  539MPD2    H2 8004   1.604   2.250  12.066  0.0569  0.1200  0.3479
  539MPD2    H3 8005   1.471   2.362  12.224  0.5088 -1.9957  1.1096
  539MPD2     N 8006   1.685   2.745  12.183 -0.2580 -0.4986 -0.5642
  539MPD2    H5 8007   1.609   2.784  12.238  0.5072  0.1902  0.0192
  539MPD2    N1 8008   1.841   2.363  11.937 -0.2064 -0.4744 -0.2590
  539MPD2    H7 8009   1.927   2.417  11.927 -0.5740  0.0881 -0.3705
  540TMC3    C1 8010   1.766   2.965  12.149  0.0815 -0.0512  0.5035
  540TMC3    C2 8011   1.851   3.044  12.078  0.4391 -1.1024 -0.0920
  540TMC3    C3 8012   1.815   3.166  12.040  0.5873 -0.5758  0.5496
  540TMC3    C4 8013   1.650   3.019  12.201  0.7656 -0.0635 -0.2994
  540TMC3    C5 8014   1.625   3.154  12.172  0.2271 -0.2333  0.1066
  540TMC3    C6 8015   1.695   3.221  12.077  0.3818 -0.1792  0.4825
  540TMC3     C 8016   1.792   2.823  12.137  0.6305 -1.0404  0.0496
  540TMC3     O 8017   1.904   2.786  12.100 -0.4472  0.3873 -0.1513
  540TMC3     H 8018   1.943   3.008  12.034  0.0289  0.4547 -2.1826
  540TMC3    H1 8019   1.591   2.972  12.279  0.1565 -0.8638 -1.2511
  540TMC3    H2 8020   1.675   3.325  12.051  0.2721 -0.4708 -0.6272
  540TMC3    C7 8021   1.496   3.207  12.220  0.1142  0.8496 -0.0057
  540TMC3    C8 8022   1.882   3.206  11.920 -0.7562  0.4372  0.6531
  540TMC3    O1 8023   1.432   3.138  12.294 -0.0154  0.0090 -0.4480
  540TMC3    O2 8024   2.004   3.181  11.919  0.2831  0.0495  0.0423
  541MPD2     C 8025   0.281   4.460  13.466 -0.0107  0.8074  0.0501
  541MPD2    C1 8026   0.170   4.483  13.380 -0.0207 -0.2267 -0.1803
  541MPD2    C2 8027   0.207   4.514  13.248  0.4548  0.0916  0.7723
  541MPD2    C3 8028   0.343   4.542  13.213  0.3011  0.4948 -0.3726
  541MPD2    C4 8029   0.443   4.542  13.305  0.2534 -0.0412  0.2684
  541MPD2    C5 8030   0.410   4.494  13.432  0.5260 -0.0522  0.2186
  541MPD2     H 8031   0.130   4.519  13.172 -0.9188  2.7224  2.3488
  541MPD2    H1 8032   0.547   4.564  13.289  0.0833  0.4516 -0.1630
  541MPD2    H2 8033   0.261   4.438  13.570  1.1763  2.2369  0.5740
  541MPD2    H3 8034   0.489   4.475  13.503  0.2265 -0.2644  0.4940
  541MPD2     N 8035   0.362   4.593  13.087 -0.1795  0.0707 -0.7947
  541MPD2    H5 8036   0.449   4.644  13.072  0.5264 -0.5181  1.3139
  541MPD2    N1 8037   0.046   4.440  13.428 -0.9153 -0.5876  0.3320
  541MPD2    H7 8038   0.051   4.401  13.521  0.5863  2.2505  1.4392
  542TMC3    C1 8039   0.322   4.643  12.857  0.5501  0.0228 -0.3006
  542TMC3    C2 8040   0.278   4.586  12.738 -0.3525 -0.4689 -0.0722
  542TMC3    C3 8041   0.289   4.668  12.625 -0.1609 -0.3222 -0.2779
  542TMC3    C4 8042   0.330   0.062  12.867  0.4077  0.5981  0.1616
  542TMC3    C5 8043   0.322   0.135  12.751  0.0130  0.2319  0.6993
  542TMC3    C6 8044   0.312   0.081  12.629  0.4099  0.1082 -0.2825
  542TMC3     C 8045   0.281   4.568  12.975 -0.5926  0.5449  0.6537
  542TMC3     O 8046   0.191   4.490  12.951  0.2847  0.4900 -0.3115
  542TMC3     H 8047   0.252   4.481  12.738 -0.7496 -0.3748  1.3349
  542TMC3    H1 8048   0.340   0.106  12.965  2.8073 -1.6318  0.9182
  542TMC3    H2 8049   0.308   0.139  12.537 -1.6378 -1.5006 -1.2052
  542TMC3    C7 8050   0.299   0.274  12.774  0.2473 -0.4056  0.0861
  542TMC3    C8 8051   0.244   4.623  12.493 -0.1918  0.4893 -0.2139
  542TMC3    O1 8052   0.337   0.326  12.882 -0.0653 -0.5261  0.5072
  542TMC3    O2 8053   0.274   4.698  12.398  0.4569  0.1758 -0.1518
  543TMC3    C1 8054   3.517   1.137   0.006 -0.3649 -0.0422 -0.4060
  543TMC3    C2 8055   3.563   1.009   0.029 -0.3748 -0.0961  0.5904
  543TMC3    C3 8056   3.503   0.933   0.130  0.0095  0.2767  0.0502
  543TMC3    C4 8057   3.407   1.183   0.067  0.1009 -0.1278  0.2671
  543TMC3    C5 8058   3.345   1.104   0.156  0.5502  0.3967 -0.2308
  543TMC3    C6 8059   3.393   0.976   0.193  0.2414  0.0023  0.0268
  543TMC3     C 8060   3.592   1.224  17.589 -0.3701  0.8150  0.6239
  543TMC3     O 8061   3.706   1.183  17.563  0.0770  0.2303 -0.2820
  543TMC3     H 8062   3.650   0.969  17.653  0.3388 -0.4837  2.1031
  543TMC3    H1 8063   3.392   1.290   0.075  1.7461  0.2400 -1.3343
  543TMC3    H2 8064   3.349   0.921   0.276  2.3149  0.5607  1.4970
  543TMC3    C7 8065   3.230   1.155   0.229  0.0408 -0.2742 -0.1350
  543TMC3    C8 8066   3.559   0.797   0.154  0.2736  0.2885  0.3787
  543TMC3    O1 8067   3.220   1.127   0.345  0.0953  0.3278 -0.4654
  543TMC3    O2 8068   3.628   0.758   0.064 -0.2018 -0.4354 -0.0758
  544MPD2     C 8069   3.668   0.360   0.407  0.6103  0.4419 -0.6038
  544MPD2    C1 8070   3.741   0.417   0.305  0.2657 -0.1053  0.8234
  544MPD2    C2 8071   3.703   0.542   0.255 -0.7506  0.6670  0.2515
  544MPD2    C3 8072   3.584   0.603   0.304  0.3943  0.1617  0.6462
  544MPD2    C4 8073   3.515   0.547   0.402  0.3595  0.5029 -0.4532
  544MPD2    C5 8074   3.554   0.424   0.456  0.1118  0.0083 -0.2388
  544MPD2     H 8075   3.762   0.598   0.183 -0.8624  0.3218 -0.1069
  544MPD2    H1 8076   3.421   0.585   0.440  0.8074  0.5633  0.5827
  544MPD2    H2 8077   3.704   0.261   0.433  1.6092  0.6416 -1.2628
  544MPD2    H3 8078   3.497   0.367   0.529  3.4301 -3.2030 -0.1577
  544MPD2     N 8079   3.522   0.730   0.273 -0.0292  0.0905 -0.1407
  544MPD2    H5 8080   3.447   0.769   0.329  0.8248  2.7219 -0.8551
  544MPD2    N1 8081   3.840   0.339   0.243  0.4716  0.1345  0.0836
  544MPD2    H7 8082   3.866   0.255   0.295 -1.0550 -0.7030 -0.5314
  545TMC3    C1 8083   4.034   0.301   0.117  0.4783  1.0550  0.2067
  545TMC3    C2 8084   4.121   0.349   0.026 -0.0118 -1.1345  0.1636
  545TMC3    C3 8085   4.219   0.264  17.660  0.2652 -0.5494  0.0850
  545TMC3    C4 8086   4.040   0.171   0.164 -0.4176 -0.4473 -0.5949
  545TMC3    C5 8087   4.147   0.095   0.128  0.0787 -0.1210  0.2729
  545TMC3    C6 8088   4.243   0.139   0.039  0.2755  0.1876 -0.7263
  545TMC3     C 8089   3.918   0.384   0.142 -0.1042  0.5976 -0.4316
  545TMC3     O 8090   3.920   0.487   0.072  1.4389  0.1044  0.7969
  545TMC3     H 8091   4.113   0.451  17.665  2.0738 -1.9401 -2.5153
  545TMC3    H1 8092   3.971   0.129   0.235  2.0271 -2.0607  0.8350
  545TMC3    H2 8093   4.318   0.075  17.671  0.7048 -0.4756  1.0100
  545TMC3    C7 8094   4.170   4.693   0.207  0.2112 -0.5682 -0.1937
  545TMC3    C8 8095   4.297   0.309  17.548 -0.3497  0.0151  0.5693
  545TMC3    O1 8096   4.074   4.641   0.261  0.2678 -0.6137  0.1330
  545TMC3    O2 8097   4.254   0.409  17.492  0.1238 -0.6685 -0.2710
  546MPD2     C 8098   0.831   1.542   0.281 -0.2748 -0.2588 -0.1387
  546MPD2    C1 8099   0.763   1.588   0.169 -0.7143 -0.1148 -0.2216
  546MPD2    C2 8100   0.814   1.701   0.112  0.9498 -0.0255 -0.7078
  546MPD2    C3 8101   0.931   1.761   0.159 -0.0212  0.4244 -0.1649
  546MPD2    C4 8102   0.992   1.713   0.273  0.4040  0.9578  0.1614
  546MPD2    C5 8103   0.947   1.597   0.332  0.1145  0.4528 -0.3213
  546MPD2     H 8104   0.765   1.749   0.028  2.6888  0.3770 -1.4731
  546MPD2    H1 8105   1.083   1.759   0.309  1.7543 -1.4612 -0.0960
  546MPD2    H2 8106   0.788   1.455   0.329 -3.8970  1.4025 -0.3571
  546MPD2    H3 8107   1.002   1.551   0.413  2.2490 -0.5725 -2.3617
  546MPD2     N 8108   0.978   1.883   0.110  0.0092  0.6836 -0.7741
  546MPD2    H5 8109   1.035   1.939   0.173  1.0210 -0.7815 -0.3916
  546MPD2    N1 8110   0.660   1.506   0.123 -0.2511  0.2858 -0.0296
  546MPD2    H7 8111   0.640   1.426   0.182 -0.3166 -0.1860 -0.6870
  547TMC3    C1 8112   0.446   1.450   0.023 -0.5904  0.5119 -0.1379
  547TMC3    C2 8113   0.322   1.485  17.645  0.2165 -0.2816 -0.4828
  547TMC3    C3 8114   0.221   1.384  17.637  0.7574 -0.2473  0.3471
  547TMC3    C4 8115   0.476   1.320   0.056 -0.7972  0.1795 -0.2637
  547TMC3    C5 8116   0.374   1.233   0.036 -0.0555  0.3862  0.0646
  547TMC3    C6 8117   0.252   1.255  17.666  0.2456 -0.3320 -0.2327
  547TMC3     C 8118   0.559   1.543   0.027 -0.3030  0.4852  0.4104
  547TMC3     O 8119   0.549   1.651  17.649  0.6082 -0.0790  0.1786
  547TMC3     H 8120   0.295   1.589  17.632  2.8065  0.4644  0.0913
  547TMC3    H1 8121   0.572   1.276   0.082 -1.0779 -0.2287  0.0977
  547TMC3    H2 8122   0.173   1.185   0.015  0.9221 -0.6974  0.9174
  547TMC3    C7 8123   0.393   1.121   0.118  0.1413  0.1465 -0.0141
  547TMC3    C8 8124   0.085   1.413  17.604  0.7101  0.6860 -0.5883
  547TMC3    O1 8125   0.465   1.135   0.216  0.2640  0.3164  0.0367
  547TMC3    O2 8126   0.014   1.322  17.559  0.0056  0.0807 -0.0606
  548MPD2     C 8127   0.714   1.665  12.622 -0.8707  0.4873  0.8140
  548MPD2    C1 8128   0.685   1.532  12.632 -0.2936  0.4034  0.0591
  548MPD2    C2 8129   0.756   1.438  12.554  0.3710  0.6420  0.1456
  548MPD2    C3 8130   0.865   1.486  12.474 -0.1470 -0.0060 -0.1629
  548MPD2    C4 8131   0.891   1.619  12.467 -0.6342  0.4876  0.4521
  548MPD2    C5 8132   0.812   1.706  12.538 -0.9873 -0.0889 -0.1759
  548MPD2     H 8133   0.728   1.335  12.571  1.9674 -0.2443 -2.6727
  548MPD2    H1 8134   0.976   1.652  12.408 -0.5595  0.3232  0.4692
  548MPD2    H2 8135   0.658   1.733  12.685 -1.3581  0.2211  0.6674
  548MPD2    H3 8136   0.824   1.812  12.521 -1.7199  0.3432  1.9665
  548MPD2     N 8137   0.923   1.389  12.391  0.4354 -0.7763 -0.2034
  548MPD2    H5 8138   0.888   1.295  12.407  0.1798 -0.6143  0.2063
  548MPD2    N1 8139   0.579   1.491  12.721 -0.0314 -0.7077 -0.1537
  548MPD2    H7 8140   0.516   1.565  12.750  0.7517 -0.0195 -0.2135
  549TMC3    C1 8141   0.412   1.345  12.797  0.1712 -0.6927 -0.2034
  549TMC3    C2 8142   0.332   1.452  12.808  0.2127  0.5072 -0.6237
  549TMC3    C3 8143   0.216   1.445  12.887 -0.5475  0.7044  0.1624
  549TMC3    C4 8144   0.390   1.236  12.867 -0.7100 -0.0973  0.0240
  549TMC3    C5 8145   0.275   1.221  12.939  0.1296 -0.1748 -0.1259
  549TMC3    C6 8146   0.187   1.326  12.950 -0.4867  0.0161  0.4674
  549TMC3     C 8147   0.548   1.363  12.751  0.0515 -0.2038 -0.4156
  549TMC3     O 8148   0.617   1.260  12.747 -0.7238  0.2666  0.0467
  549TMC3     H 8149   0.335   1.537  12.740  0.2203 -0.7674 -2.2190
  549TMC3    H1 8150   0.453   1.149  12.853 -0.2515  0.0755  0.9794
  549TMC3    H2 8151   0.093   1.317  13.005  0.5114 -2.0095  1.8169
  549TMC3    C7 8152   0.240   1.102  13.012 -0.4945 -0.3453 -0.2485
  549TMC3    C8 8153   0.106   1.543  12.868  0.6650  0.3483 -0.7902
  549TMC3    O1 8154   0.127   1.090  13.056 -0.1573 -0.0804  0.4903
  549TMC3    O2 8155   4.713   1.502  12.834  0.9172  0.2168  0.3383
  550TMC3    C1 8156   4.334   4.022  12.132 -0.7037  0.4322  0.5874
  550TMC3    C2 8157   4.308   4.050  12.268  0.1801  0.7364  0.2838
  550TMC3    C3 8158   4.264   4.173  12.299  0.7244 -0.2109 -0.5824
  550TMC3    C4 8159   4.311   4.103  12.030 -0.7493 -0.0055 -0.0123
  550TMC3    C5 8160   4.262   4.227  12.067  0.3241  0.0092 -0.4400
  550TMC3    C6 8161   4.241   4.262  12.205 -0.2841  1.0111 -0.3092
  550TMC3     C 8162   4.338   3.880  12.089  0.4282  0.3149 -0.6056
  550TMC3     O 8163   4.416   3.803  12.139 -0.5598 -0.1919 -0.3582
  550TMC3     H 8164   4.337   3.970  12.334  0.3862 -0.3712 -1.1354
  550TMC3    H1 8165   4.323   4.075  11.926  1.5123  0.6969  0.0636
  550TMC3    H2 8166   4.187   4.353  12.226 -1.3254 -0.1543  2.0695
  550TMC3    C7 8167   4.162   4.294  11.980 -0.0352  0.8971  0.1878
  550TMC3    C8 8168   4.274   4.231  12.434  0.0066  0.4137 -0.4416
  550TMC3    O1 8169   4.069   4.350  12.038 -0.2535 -0.5363 -0.8871
  550TMC3    O2 8170   4.292   4.350  12.432  0.5274 -0.1257 -0.2055
  551TMC3    C1 8171   1.236   2.014  13.419 -0.9402 -0.4828  0.0967
  551TMC3    C2 8172   1.368   1.994  13.409 -0.0647  0.8196  0.1545
  551TMC3    C3 8173   1.448   2.092  13.456 -0.7284 -0.6322  0.8252
  551TMC3    C4 8174   1.186   2.123  13.479 -0.2352 -0.0796  0.0391
  551TMC3    C5 8175   1.271   2.211  13.540  0.2664  0.3756 -0.2518
  551TMC3    C6 8176   1.404   2.203  13.525 -0.1788 -0.4068  0.2777
  551TMC3     C 8177   1.160   1.924  13.327 -0.6403  0.8025 -0.2489
  551TMC3     O 8178   1.211   1.888  13.222 -1.0351  0.1671 -0.3188
  551TMC3     H 8179   1.405   1.906  13.358  0.0865  0.1979  1.3417
  551TMC3    H1 8180   1.079   2.141  13.470 -0.0525  0.6386 -0.6650
  551TMC3    H2 8181   1.469   2.286  13.549 -1.6286  0.8917 -0.2777
  551TMC3    C7 8182   1.215   2.304  13.627  0.0221 -0.4827  0.0198
  551TMC3    C8 8183   1.583   2.086  13.401  0.0678  0.2373  0.7439
  551TMC3    O1 8184   1.092   2.327  13.616  0.2022 -0.1263 -0.0710
  551TMC3    O2 8185   1.638   1.979  13.378  0.7663 -0.5556 -0.6122
  552MPD2     C 8186   3.214   4.390  14.014 -0.5263  0.5484 -0.3025
  552MPD2    C1 8187   3.244   4.252  14.009 -0.0622  1.0490  0.5697
  552MPD2    C2 8188   3.371   4.206  14.047  0.4183  0.1233  0.9155
  552MPD2    C3 8189   3.477   4.287  14.083 -0.1292 -0.2744 -0.1088
  552MPD2    C4 8190   3.451   4.423  14.071  0.0518 -0.2296 -0.6550
  552MPD2    C5 8191   3.320   4.473  14.053 -0.3193 -0.2410 -1.0721
  552MPD2     H 8192   3.383   4.098  14.040  0.6302  0.1500  0.8641
  552MPD2    H1 8193   3.520   4.506  14.086 -0.7626  0.5686 -1.3074
  552MPD2    H2 8194   3.110   4.419  14.006 -0.9634 -0.5295  1.5028
  552MPD2    H3 8195   3.305   4.579  14.065  0.0596 -0.1216 -1.6919
  552MPD2     N 8196   3.605   4.248  14.116 -0.3870  0.2049  0.4592
  552MPD2    H5 8197   3.674   4.321  14.131  0.9189 -0.4877 -2.3760
  552MPD2    N1 8198   3.142   4.156  13.971  0.0824  0.5838  0.0502
  552MPD2    H7 8199   3.179   4.063  13.955 -1.7887  0.0932 -1.4131
  553TMC3    C1 8200   2.929   4.075  13.890 -0.0972 -0.3821  0.4451
  553TMC3    C2 8201   2.877   4.087  13.764 -0.7608 -0.3432  0.0190
  553TMC3    C3 8202   2.869   3.973  13.690 -0.2976  0.2560  0.1789
  553TMC3    C4 8203   2.975   3.955  13.932  0.2700 -0.3959  0.6064
  553TMC3    C5 8204   2.981   3.844  13.854  0.7480 -0.5909 -0.2872
  553TMC3    C6 8205   2.910   3.850  13.734 -0.2520 -0.2360 -0.7817
  553TMC3     C 8206   3.013   4.191  13.928 -0.0264 -0.9398 -0.0125
  553TMC3     O 8207   2.945   4.289  13.936 -0.1859  0.2939 -0.3593
  553TMC3     H 8208   2.848   4.184  13.728 -1.1637 -0.3785  0.2462
  553TMC3    H1 8209   3.000   3.943  14.037 -3.0031  0.4407  1.4778
  553TMC3    H2 8210   2.902   3.758  13.678 -0.7306 -0.7700  0.1673
  553TMC3    C7 8211   3.112   3.815  13.805  0.1207 -0.6730  0.0100
  553TMC3    C8 8212   2.852   3.982  13.546  0.7432 -1.0786  0.6286
  553TMC3    O1 8213   3.131   3.816  13.684 -0.2211 -0.3750  0.6320
  553TMC3    O2 8214   2.781   4.070  13.495  0.9285 -0.9298 -0.3252
  554TMC3    C1 8215   0.547   3.017  11.805  0.0925 -0.5984  0.3980
  554TMC3    C2 8216   0.478   3.052  11.693  0.6141  0.2455  0.1536
  554TMC3    C3 8217   0.501   3.172  11.636 -0.1271  0.2898  0.4997
  554TMC3    C4 8218   0.648   3.102  11.846  0.0130  0.3473 -0.2328
  554TMC3    C5 8219   0.669   3.226  11.794 -0.5707  0.0035  0.2928
  554TMC3    C6 8220   0.598   3.255  11.681  0.7926 -0.4715 -0.1029
  554TMC3     C 8221   0.521   2.882  11.854 -0.2228 -0.3543 -0.0640
  554TMC3     O 8222   0.421   2.828  11.810 -0.0964 -0.4702  0.4532
  554TMC3     H 8223   0.405   2.982  11.654  0.8369  1.1720 -1.9551
  554TMC3    H1 8224   0.697   3.079  11.940 -0.7376  2.1906  0.6030
  554TMC3    H2 8225   0.611   3.352  11.633 -0.7605  1.0733  2.5850
  554TMC3    C7 8226   0.787   3.308  11.823 -0.6673  0.0834  0.1055
  554TMC3    C8 8227   0.438   3.201  11.506  0.5635  0.2189  0.1338
  554TMC3    O1 8228   0.787   3.420  11.780  0.5830  0.0336  0.2378
  554TMC3    O2 8229   0.508   3.261  11.427  0.2970 -0.1940 -1.0753
  555TMC3    C1 8230   4.561   2.798  15.946 -0.5126  0.3518 -0.1710
  555TMC3    C2 8231   4.636   2.812  16.050 -0.2141 -0.4913 -0.9007
  555TMC3    C3 8232   4.677   2.706  16.125  0.0352 -0.2370  0.2463
  555TMC3    C4 8233   4.514   2.677  15.919 -0.2067 -0.1721  0.4358
  555TMC3    C5 8234   4.558   2.572  15.989  0.0508 -0.5468  0.6928
  555TMC3    C6 8235   4.640   2.580  16.095  0.1028 -0.1585  0.2468
  555TMC3     C 8236   4.554   2.910  15.851  0.0650  0.2867  1.0229
  555TMC3     O 8237   4.579   3.018  15.903  0.6906  0.6932 -0.3652
  555TMC3     H 8238   4.690   2.904  16.069  0.7485 -1.0309 -1.0435
  555TMC3    H1 8239   4.442   2.660  15.840 -1.9765 -0.5653  2.1432
  555TMC3    H2 8240   4.679   2.493  16.146 -0.0136  0.1111  0.7918
  555TMC3    C7 8241   4.531   2.437  15.942 -0.5289 -0.3475 -0.1672
  555TMC3    C8 8242   0.043   2.737  16.242 -0.0935 -0.5648 -0.3847
  555TMC3    O1 8243   4.508   2.353  16.033  0.5677 -0.6109 -0.3067
  555TMC3    O2 8244   0.094   2.850  16.254  1.0958 -0.1398 -0.5619
  556MPD2     C 8245   3.066   4.429  10.538  0.5508 -0.5184 -0.1267
  556MPD2    C1 8246   2.970   4.349  10.599 -0.3467  0.2604 -0.3116
  556MPD2    C2 8247   2.874   4.283  10.527  0.1161  0.1781  0.3695
  556MPD2    C3 8248   2.889   4.276  10.388  0.4641 -0.7958  0.5483
  556MPD2    C4 8249   2.997   4.333  10.326 -0.3811 -0.1857  0.4399
  556MPD2    C5 8250   3.079   4.415  10.404 -0.5159 -0.8403 -0.1944
  556MPD2     H 8251   2.803   4.219  10.577  0.0837  1.0540  1.4337
  556MPD2    H1 8252   3.024   4.321  10.221  0.5869  0.6773  0.5847
  556MPD2    H2 8253   3.129   4.503  10.587 -2.7412  1.2124  1.4815
  556MPD2    H3 8254   3.159   4.461  10.347 -2.0695 -1.2753 -2.7041
  556MPD2     N 8255   2.797   4.203  10.314  0.0511  0.6487  0.1267
  556MPD2    H5 8256   2.722   4.160  10.368  1.5169 -3.2655 -0.9464
  556MPD2    N1 8257   2.956   4.350  10.737  0.2681 -0.2227  0.0144
  556MPD2    H7 8258   2.877   4.296  10.772  0.3911 -0.9406 -0.8156
  557TMC3    C1 8259   2.734   4.060  10.150 -0.0316  0.2564  0.6509
  557TMC3    C2 8260   2.740   4.025  10.009 -0.5317 -0.0213 -0.1554
  557TMC3    C3 8261   2.710   3.898   9.974 -0.5035  0.1573  0.6420
  557TMC3    C4 8262   2.694   3.970  10.242 -0.5631 -0.1460  0.4824
  557TMC3    C5 8263   2.668   3.839  10.202  0.1414 -0.4369  0.3725
  557TMC3    C6 8264   2.686   3.801  10.073 -0.3488 -0.1884  0.8847
  557TMC3     C 8265   2.803   4.184  10.181  0.0550  0.4876 -0.4288
  557TMC3     O 8266   2.849   4.258  10.093 -0.2004 -0.2769  0.0138
  557TMC3     H 8267   2.795   4.087   9.939 -1.3334 -2.0855 -2.5918
  557TMC3    H1 8268   2.665   3.993  10.344  1.1297  2.8028  0.2968
  557TMC3    H2 8269   2.685   3.696  10.046 -1.8215  0.3106 -1.0413
  557TMC3    C7 8270   2.667   3.736  10.300 -0.4418 -0.3208  0.4685
  557TMC3    C8 8271   2.762   3.873   9.836 -0.1938  0.7648  0.3766
  557TMC3    O1 8272   2.601   3.634  10.287  0.1981 -0.1542 -0.0804
  557TMC3    O2 8273   2.777   3.968   9.761 -0.2054  0.5544 -0.1588
  558TMC3    C1 8274   0.446   2.207  10.180  0.1318 -1.0886 -0.0145
  558TMC3    C2 8275   0.333   2.177  10.254 -0.6907  1.0281  0.2428
  558TMC3    C3 8276   0.262   2.069  10.204 -0.0478 -0.5374  0.3864
  558TMC3    C4 8277   0.479   2.140  10.061  0.2211  0.0214  0.5856
  558TMC3    C5 8278   0.396   2.042  10.016  0.7530  0.9061  0.6739
  558TMC3    C6 8279   0.285   2.003  10.084 -0.3673 -0.7418 -0.3010
  558TMC3     C 8280   0.562   2.283  10.233  1.1549 -0.2100 -0.9437
  558TMC3     O 8281   0.671   2.272  10.173 -0.1241 -0.3915  0.2954
  558TMC3     H 8282   0.300   2.213  10.351 -1.4643  0.4995  0.1762
  558TMC3    H1 8283   0.568   2.166  10.004 -0.0243 -0.7881 -0.1643
  558TMC3    H2 8284   0.211   1.928  10.057 -1.1283  0.5829 -1.8659
  558TMC3    C7 8285   0.453   1.945   9.921 -0.7411 -0.3089 -0.0031
  558TMC3    C8 8286   0.134   2.045  10.261 -0.4982 -0.0890 -0.0696
  558TMC3    O1 8287   0.543   1.993   9.851 -0.2946  0.5697 -0.5655
  558TMC3    O2 8288   0.033   2.053  10.193  0.1102 -0.2881 -0.5815
  559MPD2     C 8289   0.516   2.633  10.925  0.1898  0.9492 -0.1784
  559MPD2    C1 8290   0.451   2.515  10.962  0.2819 -0.0958  0.2898
  559MPD2    C2 8291   0.511   2.438  11.064  0.9764  0.6781 -0.1234
  559MPD2    C3 8292   0.620   2.482  11.132  0.6487  0.1387  0.3405
  559MPD2    C4 8293   0.677   2.600  11.088 -0.2312 -0.0510 -0.3064
  559MPD2    C5 8294   0.630   2.677  10.989 -0.2622 -0.0143 -0.3945
  559MPD2     H 8295   0.464   2.347  11.101 -0.8189  2.6971  2.5156
  559MPD2    H1 8296   0.766   2.649  11.126 -0.0214 -1.3796  0.9405
  559MPD2    H2 8297   0.479   2.687  10.839 -0.4243  0.3097 -0.3127
  559MPD2    H3 8298   0.673   2.770  10.956 -1.9753  1.1434  0.6225
  559MPD2     N 8299   0.683   2.402  11.235 -0.4468 -0.1261 -0.0954
  559MPD2    H5 8300   0.629   2.316  11.245  0.4806 -0.3076  3.1744
  559MPD2    N1 8301   0.332   2.475  10.891 -0.2356 -0.0309  0.9495
  559MPD2    H7 8302   0.296   2.549  10.832 -2.2196 -0.3381  1.7875
  560TMC3    C1 8303   0.864   2.333  11.369  0.5192 -0.4375  0.3588
  560TMC3    C2 8304   0.834   2.196  11.349  0.1499  0.2400  0.1584
  560TMC3    C3 8305   0.896   2.098  11.426  0.0134  0.2337  0.6411
  560TMC3    C4 8306   0.947   2.370  11.475  0.0980  0.5646 -0.5052
  560TMC3    C5 8307   0.993   2.270  11.556 -1.0870 -0.0729  0.2720
  560TMC3    C6 8308   0.965   2.137  11.534 -0.5260  1.0950  0.0886
  560TMC3     C 8309   0.785   2.440  11.314 -0.0750  0.1384 -0.0480
  560TMC3     O 8310   0.832   2.554  11.327  0.0313  0.3514 -0.3378
  560TMC3     H 8311   0.779   2.170  11.259  1.9017 -0.7944 -0.6242
  560TMC3    H1 8312   0.972   2.474  11.494  1.1731  0.5875 -1.9569
  560TMC3    H2 8313   1.019   2.068  11.597 -2.1745  1.0670  1.4914
  560TMC3    C7 8314   1.092   2.304  11.654 -0.4936 -0.2861  0.1819
  560TMC3    C8 8315   0.916   1.969  11.372  0.0885 -0.3285  0.2516
  560TMC3    O1 8316   1.094   2.236  11.758 -0.6872  0.4018 -0.1642
  560TMC3    O2 8317   0.997   1.902  11.434 -0.4444 -0.1403 -0.2967
  561TMC3    C1 8318   3.069   1.154  11.365  0.5379 -0.1877 -0.9490
  561TMC3    C2 8319   3.044   1.076  11.479 -0.0112 -0.4870 -0.2778
  561TMC3    C3 8320   3.042   1.134  11.605 -0.3190  0.2589  0.2033
  561TMC3    C4 8321   3.082   1.287  11.381  0.3304  0.3943 -0.4067
  561TMC3    C5 8322   3.090   1.341  11.505  0.1055  0.1095 -0.6844
  561TMC3    C6 8323   3.068   1.266  11.617 -0.2008 -0.2619  0.2794
  561TMC3     C 8324   3.026   1.108  11.236 -0.2234  0.0137 -0.8935
  561TMC3     O 8325   3.005   1.193  11.151  0.4820 -0.3965  0.1182
  561TMC3     H 8326   3.014   0.972  11.473  0.3799 -0.7361  2.0266
  561TMC3    H1 8327   3.086   1.356  11.297 -1.4286  1.2315  0.1997
  561TMC3    H2 8328   3.063   1.313  11.715  0.3987  2.9460 -1.2385
  561TMC3    C7 8329   3.102   1.485  11.524  0.2820  0.1010  0.4289
  561TMC3    C8 8330   2.984   1.064  11.710  0.2061 -0.7907  0.4200
  561TMC3    O1 8331   3.053   1.526  11.627 -0.0315  0.4225 -0.7644
  561TMC3    O2 8332   2.983   0.938  11.710  0.0295  0.4139  0.1633
  562TMC3    C1 8333   3.924   3.150  16.225  0.4935 -0.3018 -0.0464
  562TMC3    C2 8334   3.814   3.213  16.174  0.0545  0.1123 -0.4206
  562TMC3    C3 8335   3.797   3.210  16.040 -0.5460  0.0605  1.0630
  562TMC3    C4 8336   4.003   3.066  16.143  0.3473  0.4546 -1.1175
  562TMC3    C5 8337   3.960   3.051  16.013 -0.3224 -0.3720  0.1469
  562TMC3    C6 8338   3.866   3.129  15.955 -0.2101  0.2785 -0.0259
  562TMC3     C 8339   3.950   3.146  16.369 -0.7155  0.7116 -0.0632
  562TMC3     O 8340   3.860   3.175  16.440  0.4857  0.2437  0.0954
  562TMC3     H 8341   3.754   3.282  16.231  1.5654 -0.7555  2.2435
  562TMC3    H1 8342   4.072   2.995  16.187  1.4947 -0.0141 -3.6496
  562TMC3    H2 8343   3.829   3.107  15.856 -1.5035  1.4046  0.2077
  562TMC3    C7 8344   4.021   2.960  15.922  0.3454 -0.1146 -0.6250
  562TMC3    C8 8345   3.693   3.294  15.985  0.8266 -0.6403  0.2117
  562TMC3    O1 8346   4.009   2.982  15.803  0.0163 -0.0545 -0.3073
  562TMC3    O2 8347   3.616   3.343  16.069  0.2774  0.9303 -0.4602
  563MPD2     C 8348   1.476   0.009  15.877  0.7126 -1.2393 -0.0688
  563MPD2    C1 8349   1.527   0.092  15.972 -0.6819 -0.4882 -0.0387
  563MPD2    C2 8350   1.657   0.077  16.014  0.1236  0.0959  0.0392
  563MPD2    C3 8351   1.744   4.708  15.951  0.3227  0.1389 -0.0927
  563MPD2    C4 8352   1.696   4.629  15.848  0.5874 -0.9557  0.1365
  563MPD2    C5 8353   1.565   4.638  15.813 -0.7707 -0.5207  0.0022
  563MPD2     H 8354   1.696   0.135  16.097 -0.0463 -0.8888  0.8030
  563MPD2    H1 8355   1.753   4.553  15.796 -0.3297 -0.9173 -0.9355
  563MPD2    H2 8356   1.368   0.008  15.862  0.7146 -2.6907  0.0875
  563MPD2    H3 8357   1.540   4.575  15.729  0.5382  1.5261 -1.9319
  563MPD2     N 8358   1.866   4.670  16.008 -0.3615 -0.1180  0.5330
  563MPD2    H5 8359   1.885   0.014  16.086 -0.3890  3.1070 -2.0680
  563MPD2    N1 8360   1.450   0.174  16.056 -0.3149  0.4043  0.2390
  563MPD2    H7 8361   1.494   0.215  16.138  2.8041  2.1899 -2.3388
  564TMC3    C1 8362   1.249   0.142  16.183 -0.4165  0.0339 -0.8822
  564TMC3    C2 8363   1.125   0.082  16.168  0.1099 -0.3546  0.0199
  564TMC3    C3 8364   1.090   4.702  16.261  0.1729  0.2117 -0.9809
  564TMC3    C4 8365   1.335   0.103  16.276 -0.1384 -0.1518 -0.6384
  564TMC3    C5 8366   1.303   0.008  16.367  0.5084 -0.0106  0.5562
  564TMC3    C6 8367   1.186   4.667  16.357  0.2656 -0.2729 -0.1967
  564TMC3     C 8368   1.312   0.179  16.057 -0.4706  0.5462  0.4762
  564TMC3     O 8369   1.235   0.193  15.963  0.4718  0.1839  0.1942
  564TMC3     H 8370   1.058   0.111  16.088 -1.3816 -1.3043  0.9241
  564TMC3    H1 8371   1.434   0.147  16.284 -0.4557  0.4119  0.2210
  564TMC3    H2 8372   1.178   4.571  16.408 -2.2012 -0.6210 -1.2494
  564TMC3    C7 8373   1.407   4.626  16.377  0.0785 -0.4558 -0.3890
  564TMC3    C8 8374   1.061   4.573  16.201  0.0015 -0.2356  0.9953
  564TMC3    O1 8375   1.497   4.639  16.460  0.1070  0.5118  0.5234
  564TMC3    O2 8376   1.027   4.477  16.273  0.6379 -0.4902 -0.0703
  565TMC3    C1 8377   1.974   1.440   9.621  0.0698 -0.6188 -0.4763
  565TMC3    C2 8378   1.952   1.306   9.617 -0.3229  0.2207 -0.3689
  565TMC3    C3 8379   1.831   1.263   9.578 -0.1393 -0.1201  0.2202
  565TMC3    C4 8380   1.883   1.539   9.594 -0.1011 -0.1353  0.4389
  565TMC3    C5 8381   1.757   1.488   9.557  0.0085  0.4056 -0.1412
  565TMC3    C6 8382   1.733   1.353   9.550 -0.1661  0.0626  0.1276
  565TMC3     C 8383   2.114   1.475   9.628  0.3991  0.4419  0.1933
  565TMC3     O 8384   2.189   1.381   9.664 -0.0168  0.9551 -0.2303
  565TMC3     H 8385   2.018   1.223   9.642 -1.7503 -0.1721  1.9988
  565TMC3    H1 8386   1.907   1.642   9.618  0.0068  0.0943 -0.6525
  565TMC3    H2 8387   1.641   1.317   9.503  0.3359 -0.4372 -0.4795
  565TMC3    C7 8388   1.656   1.591   9.516 -0.3066  0.9347  0.7657
  565TMC3    C8 8389   1.817   1.119   9.581  0.2929 -0.1106  0.5782
  565TMC3    O1 8390   1.552   1.550   9.467  0.4012  0.0900 -0.3749
  565TMC3    O2 8391   1.864   1.055   9.673  0.7505  0.4012  0.2126
  566MPD2     C 8392   3.730   1.974  14.361 -0.2872  0.8605  0.6326
  566MPD2    C1 8393   3.669   2.094  14.318 -0.1096  0.2158  0.2275
  566MPD2    C2 8394   3.560   2.088  14.231  0.6296 -0.3539 -0.3594
  566MPD2    C3 8395   3.516   1.969  14.174 -0.1112  0.3411  0.6359
  566MPD2    C4 8396   3.580   1.854  14.215  0.2231  0.2696 -0.3627
  566MPD2    C5 8397   3.679   1.859  14.309 -0.2302  0.2033  0.3124
  566MPD2     H 8398   3.510   2.182  14.210  1.7805  0.0721 -1.1509
  566MPD2    H1 8399   3.554   1.760  14.169 -1.7078  0.7391 -0.2582
  566MPD2    H2 8400   3.816   1.968  14.426 -0.9203  1.5755  1.5399
  566MPD2    H3 8401   3.719   1.764  14.341 -0.7574 -0.4360 -0.8961
  566MPD2     N 8402   3.422   1.968  14.072  0.1340  0.0368  0.0704
  566MPD2    H5 8403   3.412   1.882  14.019  1.3751  0.3402 -0.6780
  566MPD2    N1 8404   3.727   2.215  14.372 -0.5648 -0.1976  0.0087
  566MPD2    H7 8405   3.810   2.196  14.428 -1.3743 -0.4062  1.1481
  567TMC3    C1 8406   3.759   2.436  14.405  0.0579  0.2133 -0.7750
  567TMC3    C2 8407   3.752   2.549  14.329 -0.0765  0.8671  0.0076
  567TMC3    C3 8408   3.866   2.626  14.313  0.0463  0.5514  0.4370
  567TMC3    C4 8409   3.875   2.407  14.475 -0.4008 -0.2476 -0.8304
  567TMC3    C5 8410   3.987   2.486  14.461 -0.2769  0.4989 -0.4303
  567TMC3    C6 8411   3.990   2.596  14.371  0.1059  0.4154 -0.0229
  567TMC3     C 8412   3.667   2.335  14.378  0.6268 -0.4991 -0.9148
  567TMC3     O 8413   3.553   2.364  14.344  0.4104  1.1477  0.7423
  567TMC3     H 8414   3.654   2.572  14.291  0.9612 -0.3143 -3.3961
  567TMC3    H1 8415   3.881   2.316  14.533 -1.0327 -0.0620 -0.4762
  567TMC3    H2 8416   4.070   2.668  14.362  0.1174  0.4826  0.6129
  567TMC3    C7 8417   4.102   2.483  14.553 -0.0818 -0.4328 -0.4979
  567TMC3    C8 8418   3.851   2.724  14.206  0.0033  0.0837  0.8064
  567TMC3    O1 8419   4.193   2.562  14.524  0.2941  0.0281 -0.7058
  567TMC3    O2 8420   3.743   2.740  14.147  0.1195 -0.6296  0.2239
  568MPD2     C 8421   1.086   3.269  16.651  0.1228  0.5101  0.4921
  568MPD2    C1 8422   1.222   3.264  16.633 -0.1084 -0.3947  0.3389
  568MPD2    C2 8423   1.269   3.363  16.546 -0.5787 -0.0163 -0.3868
  568MPD2    C3 8424   1.184   3.448  16.480  0.1894  0.1628 -0.1726
  568MPD2    C4 8425   1.046   3.436  16.496 -0.0151 -1.1557  0.7944
  568MPD2    C5 8426   0.997   3.347  16.584 -0.4260  0.0370 -0.1555
  568MPD2     H 8427   1.376   3.370  16.529 -0.1546 -2.0563  1.4986
  568MPD2    H1 8428   0.968   3.499  16.454  1.4642 -0.3756 -0.8140
  568MPD2    H2 8429   1.036   3.186  16.701  0.3789 -0.8722 -1.5397
  568MPD2    H3 8430   0.892   3.342  16.610  0.0072 -1.7574  1.2531
  568MPD2     N 8431   1.242   3.542  16.388  0.6055  0.2694  0.4860
  568MPD2    H5 8432   1.344   3.540  16.384  0.5529 -1.6720 -0.0027
  568MPD2    N1 8433   1.301   3.186  16.717 -0.3022  0.1474  0.1060
  568MPD2    H7 8434   1.245   3.125  16.776  1.3408 -1.0402  0.4424
  569TMC3    C1 8435   1.260   3.719  16.240  0.4714  0.5746 -0.7265
  569TMC3    C2 8436   1.348   3.775  16.331 -0.4009 -0.4010 -0.7894
  569TMC3    C3 8437   1.399   3.895  16.297  0.1294 -0.1527 -0.3605
  569TMC3    C4 8438   1.234   3.768  16.114  0.1844  0.2593  0.2884
  569TMC3    C5 8439   1.304   3.880  16.075 -0.6671 -0.0601  0.4443
  569TMC3    C6 8440   1.381   3.946  16.169 -0.1858 -0.0247 -0.3461
  569TMC3     C 8441   1.175   3.613  16.293 -1.0758 -0.8731  0.0050
  569TMC3     O 8442   1.058   3.604  16.259  0.4011 -0.1359 -0.2519
  569TMC3     H 8443   1.369   3.745  16.433 -2.9546 -1.3031 -0.5238
  569TMC3    H1 8444   1.150   3.729  16.059 -2.1833  1.8013  2.7807
  569TMC3    H2 8445   1.439   4.035  16.149  0.7228 -0.3262  0.8767
  569TMC3    C7 8446   1.233   3.966  15.979 -0.0928  0.3663 -0.9099
  569TMC3    C8 8447   1.330   3.992  16.379  0.2014  0.1025  0.1601
  569TMC3    O1 8448   1.198   3.923  15.872  0.0443 -0.1575 -0.6665
  569TMC3    O2 8449   1.219   4.015  16.333 -0.1121  0.1588 -0.1532
  570TMC3    C1 8450   0.659   2.339  16.664  0.6950  0.1555 -0.0421
  570TMC3    C2 8451   0.737   2.342  16.550 -0.5409  0.5120  0.2305
  570TMC3    C3 8452   0.741   2.462  16.481 -0.0543  0.3725  0.7165
  570TMC3    C4 8453   0.577   2.447  16.703  0.3654 -1.0749 -0.5029
  570TMC3    C5 8454   0.589   2.562  16.632 -0.1538 -0.5197 -0.4122
  570TMC3    C6 8455   0.675   2.574  16.519  0.6576 -0.3260  0.0114
  570TMC3     C 8456   0.654   2.215  16.735 -0.4951  0.5396 -0.2627
  570TMC3     O 8457   0.665   2.117  16.666  0.0797  0.0418 -0.1970
  570TMC3     H 8458   0.811   2.265  16.530 -1.2809  0.0745 -0.8631
  570TMC3    H1 8459   0.504   2.436  16.781  0.3039 -0.0202 -0.4208
  570TMC3    H2 8460   0.695   2.667  16.467 -0.1004  0.1319  0.5341
  570TMC3    C7 8461   0.587   2.682  16.712  0.2226  0.3891 -0.1416
  570TMC3    C8 8462   0.848   2.481  16.383 -0.7639  0.2392 -0.1304
  570TMC3    O1 8463   0.581   2.676  16.836 -0.1107 -0.1764  0.2238
  570TMC3    O2 8464   0.879   2.595  16.361  0.1115  0.1473 -0.5539
  571MPD2     C 8465   2.413   3.616   0.251 -0.1426  0.6201  0.0064
  571MPD2    C1 8466   2.530   3.692   0.231  0.0166 -0.8058 -1.1943
  571MPD2    C2 8467   2.557   3.796   0.331 -0.1230  0.7093 -0.1392
  571MPD2    C3 8468   2.467   3.821   0.435 -0.1629 -0.2673 -0.1098
  571MPD2    C4 8469   2.359   3.741   0.451  0.9744 -0.1827 -0.1401
  571MPD2    C5 8470   2.331   3.642   0.357  0.3495  0.4612  0.0635
  571MPD2     H 8471   2.643   3.861   0.321 -0.3709  0.8102 -1.5964
  571MPD2    H1 8472   2.293   3.747   0.537  2.2310  0.1437  0.7918
  571MPD2    H2 8473   2.382   3.545   0.174  1.4534  0.4482 -0.4967
  571MPD2    H3 8474   2.235   3.594   0.373  0.7155 -0.0960  0.5545
  571MPD2     N 8475   2.500   3.912   0.535  0.1636 -0.1003  0.3784
  571MPD2    H5 8476   2.451   3.897   0.623 -0.9398 -2.1852 -0.5682
  571MPD2    N1 8477   2.610   3.662   0.120 -0.9950  0.1338  0.6709
  571MPD2    H7 8478   2.583   3.579   0.067 -0.2517  0.5889 -0.4149
  572TMC3    C1 8479   2.648   4.081   0.633  0.2596 -0.0664  0.3827
  572TMC3    C2 8480   2.627   4.031   0.756 -0.2645  0.4076 -0.5709
  572TMC3    C3 8481   2.720   4.059   0.846  0.4022 -0.5882  0.1762
  572TMC3    C4 8482   2.754   4.163   0.604 -0.1215 -0.5145 -0.1761
  572TMC3    C5 8483   2.840   4.195   0.707  0.2979  0.8142  0.0281
  572TMC3    C6 8484   2.829   4.141   0.825  0.2413 -0.2924  0.5736
  572TMC3     C 8485   2.587   4.018   0.513  0.1666 -0.1741  0.1255
  572TMC3     O 8486   2.615   4.062   0.405  0.3437  0.6398 -0.5611
  572TMC3     H 8487   2.571   3.939   0.771  1.3101 -0.1903  1.5718
  572TMC3    H1 8488   2.758   4.204   0.504  0.6539 -0.0133  0.0666
  572TMC3    H2 8489   2.897   4.176   0.902 -0.4274  3.9906 -0.7603
  572TMC3    C7 8490   2.944   4.285   0.664 -0.3432  0.1330  0.3775
  572TMC3    C8 8491   2.708   3.991   0.975  0.4259 -0.5785 -0.1068
  572TMC3    O1 8492   2.926   4.353   0.563  0.3597 -0.3243  0.5240
  572TMC3    O2 8493   2.604   3.933   0.990  0.0879  0.1940  0.3085
  573MPD2     C 8494   0.414   4.333   1.206 -0.2854 -0.4292 -0.9154
  573MPD2    C1 8495   0.441   4.435   1.118 -0.4460  0.4999 -0.2770
  573MPD2    C2 8496   0.420   4.426   0.984 -0.6039  0.2447 -0.3465
  573MPD2    C3 8497   0.379   4.312   0.928  0.0976 -0.4092  0.6200
  573MPD2    C4 8498   0.352   4.208   1.013  0.6173  0.4759  0.0818
  573MPD2    C5 8499   0.362   4.223   1.148 -0.5561 -0.5137 -0.6929
  573MPD2     H 8500   0.448   4.508   0.919  0.7758 -2.6267 -3.3143
  573MPD2    H1 8501   0.333   4.110   0.971 -0.5158  0.6124  0.2553
  573MPD2    H2 8502   0.441   4.338   1.311 -0.8696 -0.2164 -0.7754
  573MPD2    H3 8503   0.330   4.138   1.206 -0.9044  1.7190  2.3420
  573MPD2     N 8504   0.346   4.298   0.789 -0.2220  0.2112 -0.5062
  573MPD2    H5 8505   0.297   4.214   0.760  1.3713 -0.8568 -0.0865
  573MPD2    N1 8506   0.510   4.552   1.173 -0.1907 -0.0677  0.7354
  573MPD2    H7 8507   0.528   4.556   1.272  1.3435 -0.8921  0.4955
  574TMC3    C1 8508   0.334   4.337   0.565 -0.4897 -0.4902  0.7418
  574TMC3    C2 8509   0.206   4.294   0.544 -0.1635  0.0959  0.2918
  574TMC3    C3 8510   0.147   4.320   0.424  0.5135  0.4223 -0.9638
  574TMC3    C4 8511   0.400   4.400   0.460 -0.4915 -0.3544  0.1184
  574TMC3    C5 8512   0.348   4.402   0.333  0.4073  0.7050 -0.1389
  574TMC3    C6 8513   0.212   4.370   0.318  0.1477 -0.0956  0.8660
  574TMC3     C 8514   0.392   4.379   0.695 -0.1006 -0.5561 -0.1499
  574TMC3     O 8515   0.468   4.473   0.701 -0.3261 -0.3657  1.0375
  574TMC3     H 8516   0.140   4.266   0.626  0.2103  0.4864  0.7286
  574TMC3    H1 8517   0.495   4.448   0.482 -0.7882  2.0152 -3.6410
  574TMC3    H2 8518   0.162   4.375   0.223 -0.4696 -0.2986  1.1839
  574TMC3    C7 8519   0.413   4.488   0.242  0.3300 -0.3719  0.0102
  574TMC3    C8 8520   0.005   4.286   0.414 -0.3484  0.2138  0.2853
  574TMC3    O1 8521   0.475   4.585   0.281  0.5116  0.0428  0.6406
  574TMC3    O2 8522   4.695   4.179   0.463 -0.3768 -0.2923 -0.1375
  575TMC3    C1 8523   1.816   0.197   9.673  0.0689 -0.0799  0.4353
  575TMC3    C2 8524   1.832   0.170   9.804 -0.4251 -0.0114  0.4774
  575TMC3    C3 8525   1.797   0.275   9.886  0.0924  0.0475  0.6774
  575TMC3    C4 8526   1.797   0.322   9.625 -0.1773 -0.2485 -0.2952
  575TMC3    C5 8527   1.761   0.424   9.711 -0.2062 -0.0588 -0.1476
  575TMC3    C6 8528   1.753   0.402   9.847 -0.6272 -0.0015  0.0067
  575TMC3     C 8529   1.836   0.082   9.583 -0.1587 -0.4253 -0.7453
  575TMC3     O 8530   1.810   4.690   9.628 -0.7620 -0.6508 -0.6418
  575TMC3     H 8531   1.852   0.070   9.841 -0.9782 -0.7201 -1.1264
  575TMC3    H1 8532   1.794   0.337   9.518  0.0376  0.7738 -0.1526
  575TMC3    H2 8533   1.716   0.474   9.919 -0.6643  1.6041 -1.6111
  575TMC3    C7 8534   1.764   0.564   9.667  0.4255  0.7501 -0.1953
  575TMC3    C8 8535   1.800   0.256  10.029  0.2934 -0.1884 -0.3626
  575TMC3    O1 8536   1.728   0.652   9.744  0.2295  0.1704  0.5752
  575TMC3    O2 8537   1.717   0.314  10.102  0.4519  0.4300 -0.2851
  576MPD2     C 8538   2.353   1.610  12.941  0.0959 -0.4026 -0.6911
  576MPD2    C1 8539   2.324   1.693  12.834  0.2944  0.2925 -0.3839
  576MPD2    C2 8540   2.227   1.787  12.856  0.1447  0.2967  0.5082
  576MPD2    C3 8541   2.175   1.808  12.975 -0.0550  0.2976  0.5959
  576MPD2    C4 8542   2.214   1.722  13.084 -0.8733 -0.2455  0.3453
  576MPD2    C5 8543   2.311   1.623  13.061  0.2945  0.0460  0.6836
  576MPD2     H 8544   2.187   1.845  12.774 -2.2403 -1.0896  0.6987
  576MPD2    H1 8545   2.172   1.735  13.183 -0.4801  0.7828  0.3726
  576MPD2    H2 8546   2.439   1.544  12.936  0.6144  0.4166 -2.5055
  576MPD2    H3 8547   2.356   1.554  13.131  0.7435  0.5892  0.9307
  576MPD2     N 8548   2.073   1.904  12.989 -0.1143 -0.0035 -0.3293
  576MPD2    H5 8549   2.043   1.947  12.902 -2.1834 -0.9119 -0.0568
  576MPD2    N1 8550   2.371   1.671  12.699  0.2842 -0.0457 -1.3953
  576MPD2    H7 8551   2.337   1.738  12.630  0.0992  0.0713 -1.1885
  577TMC3    C1 8552   2.483   1.555  12.519  0.9211 -0.0251 -0.1300
  577TMC3    C2 8553   2.536   1.438  12.465 -0.0740 -0.6350  0.3458
  577TMC3    C3 8554   2.565   1.435  12.332  0.5608 -0.5226  0.0761
  577TMC3    C4 8555   2.459   1.663  12.435 -0.6294 -0.7667 -0.0225
  577TMC3    C5 8556   2.497   1.653  12.306 -0.0296  0.0463  0.4346
  577TMC3    C6 8557   2.540   1.538  12.244  0.4261  0.3249  0.2844
  577TMC3     C 8558   2.444   1.554  12.661 -0.1330  0.3705  0.0314
  577TMC3     O 8559   2.463   1.446  12.718 -0.7008 -0.0584 -0.2946
  577TMC3     H 8560   2.537   1.347  12.524  0.1909  0.1505  1.5483
  577TMC3    H1 8561   2.392   1.742  12.466  2.3410  0.9047  2.1493
  577TMC3    H2 8562   2.563   1.532  12.138 -1.5517  1.4208 -0.1970
  577TMC3    C7 8563   2.453   1.759  12.217  0.1527 -0.1303  0.0576
  577TMC3    C8 8564   2.590   1.307  12.269  0.0065 -0.3781 -0.1277
  577TMC3    O1 8565   2.423   1.722  12.107  0.1012 -0.1131 -0.4125
  577TMC3    O2 8566   2.580   1.220  12.354 -0.1745  0.1389 -0.0100
  578MPD2     C 8567   1.090   2.972   1.831  0.4411  0.7495 -0.3039
  578MPD2    C1 8568   1.064   2.898   1.718  0.1684  0.3253 -0.1244
  578MPD2    C2 8569   1.106   2.763   1.707 -0.0570 -0.8699 -0.3027
  578MPD2    C3 8570   1.200   2.717   1.795  0.2466  0.1125 -0.5069
  578MPD2    C4 8571   1.232   2.798   1.908  1.1675 -0.0985  0.7996
  578MPD2    C5 8572   1.169   2.923   1.924  0.6205 -0.0465 -0.4932
  578MPD2     H 8573   1.063   2.705   1.626  1.5904  0.1086 -1.8745
  578MPD2    H1 8574   1.282   2.767   1.999  1.1684 -2.4274 -0.0082
  578MPD2    H2 8575   1.065   3.076   1.842 -0.6208  0.5191 -0.5726
  578MPD2    H3 8576   1.188   2.991   2.007 -0.9081  1.0250 -1.0305
  578MPD2     N 8577   1.262   2.594   1.773  0.1602 -0.9544  0.0223
  578MPD2    H5 8578   1.233   2.545   1.689  0.0224 -0.5966 -0.1405
  578MPD2    N1 8579   0.990   2.974   1.616 -0.1833 -0.2669  0.3984
  578MPD2    H7 8580   0.968   3.071   1.636 -1.3824 -0.5063  0.2401
  579TMC3    C1 8581   1.424   2.417   1.807 -0.1496  0.0096  0.0973
  579TMC3    C2 8582   1.556   2.395   1.809 -0.3367  1.0748 -0.4300
  579TMC3    C3 8583   1.608   2.288   1.742  0.3421  0.8185  0.1444
  579TMC3    C4 8584   1.338   2.330   1.742  0.1065 -0.3912 -0.0301
  579TMC3    C5 8585   1.393   2.222   1.678 -0.2937  0.8303 -0.5146
  579TMC3    C6 8586   1.530   2.197   1.679 -0.0150  0.0155  0.8719
  579TMC3     C 8587   1.374   2.553   1.847  0.6136 -0.0680  0.0706
  579TMC3     O 8588   1.427   2.599   1.951  0.3830  0.0494  0.1853
  579TMC3     H 8589   1.627   2.461   1.859 -0.7688  1.0354  0.2424
  579TMC3    H1 8590   1.231   2.350   1.744  0.1508 -0.2012  0.4076
  579TMC3    H2 8591   1.573   2.109   1.633  1.7134  2.5529 -2.3205
  579TMC3    C7 8592   1.320   2.113   1.625  0.4460  0.5033  0.4063
  579TMC3    C8 8593   1.754   2.273   1.735  0.6130 -0.5243  0.1683
  579TMC3    O1 8594   1.372   2.002   1.611  0.3607 -0.4267 -0.4937
  579TMC3    O2 8595   1.807   2.300   1.843 -0.8579  0.4933 -0.1090
  580TMC3    C1 8596   4.714   1.194  12.282 -0.1178 -0.1201  0.3014
  580TMC3    C2 8597   0.031   1.283  12.380  0.0196 -0.4898 -0.3504
  580TMC3    C3 8598   0.126   1.248  12.469 -0.5702  0.0834 -0.6018
  580TMC3    C4 8599   0.049   1.069  12.278 -0.4041  0.8247 -1.1055
  580TMC3    C5 8600   0.155   1.041  12.363  0.3370 -0.3309 -0.3747
  580TMC3    C6 8601   0.193   1.133  12.454  0.6777 -0.3523 -0.6052
  580TMC3     C 8602   4.656   1.244  12.160  0.2954  0.5285  0.5735
  580TMC3     O 8603   4.704   1.205  12.055  0.1428  0.4590  0.0283
  580TMC3     H 8604   0.005   1.388  12.375 -1.1917 -0.7806 -0.1399
  580TMC3    H1 8605   0.031   1.011  12.188 -2.4867  0.8151 -0.6725
  580TMC3    H2 8606   0.266   1.112  12.530 -0.6630 -1.5980  0.3574
  580TMC3    C7 8607   0.224   0.913  12.371  0.1029 -0.0057 -0.7738
  580TMC3    C8 8608   0.225   1.354  12.478  0.0778  0.2848 -0.0881
  580TMC3    O1 8609   0.330   0.912  12.437 -0.1888  0.0184  0.2727
  580TMC3    O2 8610   0.188   1.468  12.510  0.0242 -0.4576 -0.3028
  581MPD2     C 8611   3.015   0.851  15.019  0.4725 -0.3748  0.2069
  581MPD2    C1 8612   2.881   0.828  15.048 -0.1028  0.4978  0.9744
  581MPD2    C2 8613   2.787   0.863  14.960  0.2324 -0.8234 -0.0257
  581MPD2    C3 8614   2.819   0.919  14.836 -0.0457 -0.2646 -0.7006
  581MPD2    C4 8615   2.956   0.932  14.806  1.1105  0.1000 -0.5703
  581MPD2    C5 8616   3.054   0.906  14.900  0.0328  0.3733  0.6980
  581MPD2     H 8617   2.681   0.860  14.982  0.4535 -1.1095  0.9980
  581MPD2    H1 8618   2.995   0.984  14.720 -0.5298 -0.6048 -1.7281
  581MPD2    H2 8619   3.099   0.830  15.085 -0.5161 -1.3029  1.1606
  581MPD2    H3 8620   3.158   0.932  14.882 -0.0476  1.2080  1.4744
  581MPD2     N 8621   2.715   0.951  14.748  0.0629  0.2294 -0.0920
  581MPD2    H5 8622   2.622   0.944  14.787  0.3213  1.4232  0.7539
  581MPD2    N1 8623   2.858   0.782  15.181  0.6281 -0.1468  0.1120
  581MPD2    H7 8624   2.944   0.782  15.235  1.4385 -2.8161 -1.1768
  582TMC3    C1 8625   2.741   0.695  15.372  0.1601 -0.5708  0.7753
  582TMC3    C2 8626   2.823   0.756  15.460  0.3225  0.1857 -0.5409
  582TMC3    C3 8627   2.775   0.778  15.588  0.7595  0.6418  0.7027
  582TMC3    C4 8628   2.636   0.618  15.417 -0.3215  0.4284  0.4048
  582TMC3    C5 8629   2.603   0.613  15.548 -0.3102  0.5699 -0.8081
  582TMC3    C6 8630   2.662   0.705  15.628 -0.3450  0.1717  0.1191
  582TMC3     C 8631   2.739   0.739  15.229  0.5427 -0.4515  0.4974
  582TMC3     O 8632   2.636   0.710  15.167 -0.1040  0.0129  0.2309
  582TMC3     H 8633   2.911   0.811  15.429 -0.1738  1.8366  0.9503
  582TMC3    H1 8634   2.567   0.568  15.350 -0.1898 -0.6572  1.0657
  582TMC3    H2 8635   2.632   0.698  15.732  0.6649 -1.4809  0.2924
  582TMC3    C7 8636   2.462   0.606  15.564 -0.0872  0.4610  0.5576
  582TMC3    C8 8637   2.869   0.799  15.699  0.4417 -0.2050 -0.1058
  582TMC3    O1 8638   2.412   0.499  15.545  0.3390  0.1253 -0.2024
  582TMC3    O2 8639   2.982   0.756  15.690 -0.4806  0.2500 -0.7230
  583MPD2     C 8640   2.618   2.783  17.108 -0.6885 -0.2342 -0.8824
  583MPD2    C1 8641   2.554   2.862  17.013 -0.3402 -0.1363 -0.5915
  583MPD2    C2 8642   2.475   2.963  17.058  0.0237 -0.2725  0.8654
  583MPD2    C3 8643   2.450   2.981  17.193  0.0462 -0.4394 -0.1342
  583MPD2    C4 8644   2.501   2.888  17.284 -0.2466  0.2761 -0.1095
  583MPD2    C5 8645   2.588   2.798  17.239 -0.1522 -0.3211  0.2338
  583MPD2     H 8646   2.440   3.032  16.982 -3.3003 -0.6414  2.0792
  583MPD2    H1 8647   2.496   2.894  17.392 -3.5601 -2.4943 -0.1234
  583MPD2    H2 8648   2.695   2.711  17.084 -1.1726 -0.8495 -0.5886
  583MPD2    H3 8649   2.645   2.738  17.309 -0.0963  0.5035  0.8995
  583MPD2     N 8650   2.370   3.086  17.247  0.0420  0.4717  0.5878
  583MPD2    H5 8651   2.310   3.134  17.182 -1.9110 -0.9965  1.2977
  583MPD2    N1 8652   2.583   2.854  16.873  0.5087  0.5840  0.3521
  583MPD2    H7 8653   2.541   2.914  16.803 -2.0061 -0.9750  0.5149
  584TMC3    C1 8654   2.273   3.227  17.398  0.0882  0.2376  0.1052
  584TMC3    C2 8655   2.275   3.334  17.309  0.2903  0.2100 -0.4682
  584TMC3    C3 8656   2.244   3.457  17.357  0.1076 -0.5613  0.6430
  584TMC3    C4 8657   2.241   3.251  17.529  0.3568 -0.3992 -0.1953
  584TMC3    C5 8658   2.219   3.377  17.568  0.2544 -0.0644  0.3541
  584TMC3    C6 8659   2.214   3.485  17.485  0.6239  0.0545 -0.4040
  584TMC3     C 8660   2.371   3.125  17.375  0.3834 -0.6220  0.5016
  584TMC3     O 8661   2.439   3.091  17.471  0.6228 -0.2340  0.3062
  584TMC3     H 8662   2.310   3.329  17.207  0.5607 -1.9190 -0.2689
  584TMC3    H1 8663   2.223   3.160  17.585  0.1041 -0.4760 -0.4014
  584TMC3    H2 8664   2.184   3.585  17.514  2.8990  0.6559 -0.1486
  584TMC3    C7 8665   2.155   3.389   0.020  0.5012  0.1581  0.5880
  584TMC3    C8 8666   2.233   3.563  17.257  0.6634 -0.1389  0.4744
  584TMC3    O1 8667   2.077   3.482   0.034 -0.0994 -0.0177  0.1671
  584TMC3    O2 8668   2.180   3.531  17.153 -0.0289 -0.2573 -0.4205
  585MPD2     C 8669   2.777   1.762   0.337  0.2330 -0.7610 -0.3293
  585MPD2    C1 8670   2.713   1.879   0.284  0.3568 -0.2841  0.4256
  585MPD2    C2 8671   2.591   1.904   0.339  1.0114  0.0424 -0.2550
  585MPD2    C3 8672   2.522   1.817   0.423  0.0635 -0.8657  0.0916
  585MPD2    C4 8673   2.584   1.703   0.462 -0.3492  0.6267 -0.1557
  585MPD2    C5 8674   2.717   1.670   0.424 -0.2027  0.3753 -0.2447
  585MPD2     H 8675   2.537   1.998   0.329  1.3283  0.0798 -1.6359
  585MPD2    H1 8676   2.537   1.629   0.526 -0.1844  0.7295  0.0867
  585MPD2    H2 8677   2.880   1.748   0.308  1.1000 -1.2727  3.0065
  585MPD2    H3 8678   2.782   1.594   0.467 -1.2240  0.2762  1.1188
  585MPD2     N 8679   2.388   1.841   0.468  0.4794 -0.4608  0.1150
  585MPD2    H5 8680   2.358   1.769   0.533 -2.1245 -0.4825 -1.1154
  585MPD2    N1 8681   2.785   1.968   0.213  0.2133  0.2057  0.2216
  585MPD2    H7 8682   2.883   1.944   0.197 -0.4913 -0.6365 -2.7913
  586TMC3    C1 8683   2.165   1.899   0.453  1.4119  0.2538  0.1566
  586TMC3    C2 8684   2.130   1.764   0.473 -0.6442 -0.2456  0.4445
  586TMC3    C3 8685   2.007   1.728   0.509 -0.4636  0.0973  0.0068
  586TMC3    C4 8686   2.066   1.994   0.444 -0.1346 -0.1017 -0.3849
  586TMC3    C5 8687   1.942   1.955   0.487  0.5696  0.0097  0.1210
  586TMC3    C6 8688   1.909   1.821   0.522  0.1952  0.0143 -0.2298
  586TMC3     C 8689   2.301   1.933   0.414  0.9315 -0.2422 -0.3451
  586TMC3     O 8690   2.324   2.041   0.358  0.5536 -0.4247 -0.5480
  586TMC3     H 8691   2.205   1.687   0.457  0.4956  1.3138 -1.8007
  586TMC3    H1 8692   2.092   2.096   0.418  0.4682  0.4957  2.4974
  586TMC3    H2 8693   1.807   1.788   0.535 -0.1037  0.9019 -0.3374
  586TMC3    C7 8694   1.828   2.021   0.435 -0.0806 -0.0794  0.5486
  586TMC3    C8 8695   1.956   1.617   0.436 -0.7082  0.4504 -0.0661
  586TMC3    O1 8696   1.720   1.976   0.476 -0.0532 -0.1162 -0.4701
  586TMC3    O2 8697   2.000   1.507   0.471 -0.5667 -0.1864  0.4013
  587TMC3    C1 8698   4.189   0.414  16.716  0.1220  0.2607  0.2322
  587TMC3    C2 8699   4.145   0.545  16.676 -0.4767  0.1823  0.1709
  587TMC3    C3 8700   4.233   0.638  16.641  0.3594  0.0565  0.1698
  587TMC3    C4 8701   4.319   0.382  16.708 -0.3351  0.2403 -0.1758
  587TMC3    C5 8702   4.401   0.472  16.651  0.6219 -0.4598  0.0391
  587TMC3    C6 8703   4.358   0.597  16.612  0.3692 -0.0212  0.2292
  587TMC3     C 8704   4.103   0.336  16.802  0.3004  0.6005 -0.0400
  587TMC3     O 8705   4.153   0.272  16.893  0.3678  0.4493  0.6055
  587TMC3     H 8706   4.038   0.559  16.662 -0.4119  0.2969 -0.2086
  587TMC3    H1 8707   4.345   0.283  16.743  0.8288  1.3790  2.1901
  587TMC3    H2 8708   4.415   0.670  16.556  3.2470  1.0449  4.6032
  587TMC3    C7 8709   4.541   0.463  16.654  0.5044  0.0283  0.5317
  587TMC3    C8 8710   4.187   0.745  16.552  0.0085  0.3519 -0.3420
  587TMC3    O1 8711   4.607   0.555  16.609  0.2795 -0.2618  0.3307
  587TMC3    O2 8712   4.217   0.753  16.430 -0.4402 -0.3832  0.4731
  588TMC3    C1 8713   2.417   3.039   9.818 -0.0179  0.4818 -0.0211
  588TMC3    C2 8714   2.318   2.946   9.832  0.4821 -0.2368  0.2561
  588TMC3    C3 8715   2.336   2.837   9.917 -0.1999 -0.1676 -0.6510
  588TMC3    C4 8716   2.535   3.035   9.888  0.2859 -0.6629 -0.2825
  588TMC3    C5 8717   2.551   2.923   9.971  0.6958  0.2415  0.1480
  588TMC3    C6 8718   2.462   2.825   9.982 -0.0518 -0.6106  0.2155
  588TMC3     C 8719   2.377   3.178   9.819  0.3908  0.0198 -0.1517
  588TMC3     O 8720   2.447   3.249   9.895  0.9030  0.3782 -0.0671
  588TMC3     H 8721   2.219   2.961   9.790 -0.5943 -1.1109  2.5231
  588TMC3    H1 8722   2.625   3.090   9.868 -1.3018  2.3849  1.0049
  588TMC3    H2 8723   2.480   2.755  10.063  0.7214  1.1643  1.5739
  588TMC3    C7 8724   2.612   2.957  10.101 -0.5978 -0.0887 -0.3680
  588TMC3    C8 8725   2.222   2.754   9.942  0.1668  0.5582 -0.0255
  588TMC3    O1 8726   2.646   2.869  10.183 -0.6917 -0.1203  0.5492
  588TMC3    O2 8727   2.111   2.801   9.924 -0.2110  0.3886 -0.0448
  589TMC3    C1 8728   1.140   0.765   1.700  0.4096  0.6927 -0.1714
  589TMC3    C2 8729   1.215   0.760   1.815  0.4500  0.2823  0.0069
  589TMC3    C3 8730   1.334   0.680   1.808 -0.2125 -0.0965 -0.3099
  589TMC3    C4 8731   1.175   0.689   1.589 -0.9027 -0.1063  0.4113
  589TMC3    C5 8732   1.284   0.609   1.593 -0.1331  0.0437 -0.3510
  589TMC3    C6 8733   1.368   0.597   1.701 -0.2685  0.2373 -0.0018
  589TMC3     C 8734   1.048   0.873   1.672  0.9321  0.0720  0.1481
  589TMC3     O 8735   1.016   0.892   1.558 -0.2120 -0.1182  0.2715
  589TMC3     H 8736   1.193   0.828   1.897 -1.6729 -1.4747  0.9048
  589TMC3    H1 8737   1.098   0.691   1.513 -0.3994  2.6347 -0.0239
  589TMC3    H2 8738   1.453   0.530   1.693 -0.2068 -0.2859  4.5498
  589TMC3    C7 8739   1.329   0.533   1.471 -0.1251  0.2422  0.2183
  589TMC3    C8 8740   1.418   0.670   1.925 -0.0423 -0.0816  0.2782
  589TMC3    O1 8741   1.426   0.463   1.484  0.4203 -0.3949 -0.1948
  589TMC3    O2 8742   1.369   0.696   2.031 -0.3324 -0.2498 -0.8648
  590MPD2     C 8743   0.398   3.952  16.825 -0.2033  0.1380 -0.0933
  590MPD2    C1 8744   0.355   4.044  16.733  0.3977 -1.1505  0.0686
  590MPD2    C2 8745   0.446   4.094  16.643  0.8004 -0.2450  0.2796
  590MPD2    C3 8746   0.578   4.051  16.649  0.5609  0.5970  0.3882
  590MPD2    C4 8747   0.615   3.951  16.736  0.2332 -0.6813 -0.4990
  590MPD2    C5 8748   0.527   3.906  16.830  0.9447  0.2223 -0.5028
  590MPD2     H 8749   0.423   4.176  16.575 -0.2511  0.4224  1.4566
  590MPD2    H1 8750   0.714   3.908  16.748  1.3423  1.8368 -0.7962
  590MPD2    H2 8751   0.325   3.915  16.897 -0.8251 -0.6002 -1.0978
  590MPD2    H3 8752   0.554   3.832  16.904  2.7678  0.1574 -1.2382
  590MPD2     N 8753   0.665   4.099  16.549  0.2754  0.4122 -0.5835
  590MPD2    H5 8754   0.633   4.184  16.504  0.5718  0.2201 -1.1548
  590MPD2    N1 8755   0.218   4.070  16.718  0.1094  0.0719  0.0861
  590MPD2    H7 8756   0.157   4.034  16.791  0.6017 -0.2019  0.3568
  591TMC3    C1 8757   0.849   4.135  16.419  0.3886 -0.2034  0.2216
  591TMC3    C2 8758   0.893   4.048  16.321  0.3391 -0.1614 -0.8491
  591TMC3    C3 8759   0.865   4.080  16.189 -0.5551 -0.6520 -1.0670
  591TMC3    C4 8760   0.790   4.246  16.386  0.2161  0.9182  0.2921
  591TMC3    C5 8761   0.774   4.277  16.254  0.0225  0.0531 -0.5522
  591TMC3    C6 8762   0.804   4.198  16.153 -0.4469  0.2877  0.8749
  591TMC3     C 8763   0.794   4.058  16.532 -0.0144 -0.1888 -0.0604
  591TMC3     O 8764   0.848   3.960  16.579 -0.2014 -0.3801 -0.2606
  591TMC3     H 8765   0.949   3.957  16.341 -0.1045 -0.1854  0.2735
  591TMC3    H1 8766   0.743   4.308  16.461  0.9289 -0.0838  1.5500
  591TMC3    H2 8767   0.763   4.218  16.055  3.4146  1.3096 -0.5157
  591TMC3    C7 8768   0.703   4.401  16.231 -0.7400  0.5088 -0.8297
  591TMC3    C8 8769   0.887   3.967  16.090  0.9089 -0.0719  0.2105
  591TMC3    O1 8770   0.626   4.432  16.320 -1.5352  0.3684 -0.2064
  591TMC3    O2 8771   0.921   3.856  16.131  0.0973  0.7776  0.0691
  592MPD2     C 8772   0.936   0.884  11.287 -0.9153 -0.0659 -0.3120
  592MPD2    C1 8773   0.963   0.891  11.416  0.3530  0.3625 -0.5780
  592MPD2    C2 8774   0.909   0.798  11.505  0.0906  0.1798 -0.8933
  592MPD2    C3 8775   0.826   0.700  11.466  0.1211  0.5697 -0.1060
  592MPD2    C4 8776   0.801   0.697  11.331  1.0522  0.1582 -0.0150
  592MPD2    C5 8777   0.842   0.796  11.242  0.3042  0.4082 -0.1278
  592MPD2     H 8778   0.946   0.799  11.607 -0.0051 -4.6535 -0.8109
  592MPD2    H1 8779   0.738   0.625  11.280  0.6522  2.2142 -2.4366
  592MPD2    H2 8780   0.995   0.941  11.216  0.2222 -1.1449 -0.2312
  592MPD2    H3 8781   0.838   0.766  11.138  0.0170 -2.5641  0.7529
  592MPD2     N 8782   0.763   0.621  11.566 -0.2737  0.0723 -0.1326
  592MPD2    H5 8783   0.784   0.655  11.660  4.3082 -0.0652 -1.1040
  592MPD2    N1 8784   1.064   0.983  11.450  0.3737  1.1760  0.0363
  592MPD2    H7 8785   1.110   1.050  11.390 -1.2827  0.9612 -1.4494
  593TMC3    C1 8786   1.224   1.093  11.581 -1.1001  0.1181  0.2442
  593TMC3    C2 8787   1.227   1.168  11.693  0.1040 -0.2467  0.0505
  593TMC3    C3 8788   1.307   1.280  11.695 -0.7669  0.1560 -0.6353
  593TMC3    C4 8789   1.299   1.111  11.468 -0.1376  0.3213 -0.5249
  593TMC3    C5 8790   1.385   1.219  11.473  0.3377 -0.1138 -0.5682
  593TMC3    C6 8791   1.392   1.301  11.582 -0.6594  0.4856  0.7264
  593TMC3     C 8792   1.108   1.004  11.578 -0.2476 -0.1454 -0.3295
  593TMC3     O 8793   1.059   0.968  11.679 -0.6619  0.2009  0.0520
  593TMC3     H 8794   1.170   1.129  11.776 -1.3118  1.5316 -0.0836
  593TMC3    H1 8795   1.294   1.042  11.385 -0.2877  0.4218 -0.5991
  593TMC3    H2 8796   1.440   1.398  11.585 -1.4720  0.9080 -0.3479
  593TMC3    C7 8797   1.480   1.255  11.375 -0.0130 -0.0357  0.7498
  593TMC3    C8 8798   1.291   1.369  11.811 -0.1315 -0.4296  0.0929
  593TMC3    O1 8799   1.563   1.341  11.410  0.0827  0.8070 -0.1256
  593TMC3    O2 8800   1.202   1.345  11.889  0.3891 -0.4478 -0.1098
  594MPD2     C 8801   4.187   4.452  13.948 -0.1178  0.1730  0.2450
  594MPD2    C1 8802   4.194   4.416  14.081 -0.2245 -0.4212  0.0704
  594MPD2    C2 8803   4.298   4.464  14.154  0.1273  0.4289  0.2088
  594MPD2    C3 8804   4.385   4.560  14.101  0.0283  0.3852  0.7347
  594MPD2    C4 8805   4.370   4.607  13.969  0.2238  0.7755 -0.3995
  594MPD2    C5 8806   4.277   4.537  13.893 -0.0967 -0.0010 -0.4545
  594MPD2     H 8807   4.312   4.434  14.257  2.2279  1.1113  0.1255
  594MPD2    H1 8808   4.440   4.674  13.920  0.9379  1.7716  1.9493
  594MPD2    H2 8809   4.117   4.410  13.876  0.2621 -0.3256  0.1670
  594MPD2    H3 8810   4.272   4.559  13.787  2.0704  1.5838 -0.2207
  594MPD2     N 8811   4.484   4.612  14.187 -0.4167 -0.8043 -0.0335
  594MPD2    H5 8812   4.483   4.573  14.281  0.5204 -1.2732 -0.2248
  594MPD2    N1 8813   4.079   4.348  14.134 -0.4905 -0.2561  0.0046
  594MPD2    H7 8814   4.024   4.302  14.063  0.1639 -0.1323 -0.5792
  595TMC3    C1 8815   0.124   0.163  14.362 -0.0514 -1.0066  0.7168
  595TMC3    C2 8816   0.057   0.102  14.253 -0.1802  0.5266 -0.8014
  595TMC3    C3 8817   4.651   0.047  14.272  0.7220 -0.1520 -0.3581
  595TMC3    C4 8818   0.069   0.171  14.488 -0.0364  0.0373  0.1708
  595TMC3    C5 8819   4.663   0.114  14.498  0.2371 -0.3670 -0.2578
  595TMC3    C6 8820   4.594   0.050  14.396 -0.6649 -0.7732  0.1748
  595TMC3     C 8821   0.250   0.237  14.335 -0.2632  0.1609 -0.4432
  595TMC3     O 8822   0.263   0.332  14.412 -0.8233  0.8633 -0.1218
  595TMC3     H 8823   0.087   0.130  14.153 -0.0521 -0.7188 -1.1125
  595TMC3    H1 8824   0.112   0.218  14.575 -0.1244  1.1336 -0.3776
  595TMC3    H2 8825   4.491   0.019  14.412 -1.0618  0.4810  0.0480
  595TMC3    C7 8826   4.593   0.142  14.624 -0.4924 -0.0741 -0.7129
  595TMC3    C8 8827   4.573   4.714  14.157  0.4136 -0.5497  0.1474
  595TMC3    O1 8828   4.476   0.171  14.612 -0.3823 -0.0814  0.3168
  595TMC3    O2 8829   4.580   0.057  14.054  0.3537  0.5378 -0.5945
  596MPD2     C 8830   3.472   2.766  17.032  0.3774 -0.7120 -0.1367
  596MPD2    C1 8831   3.472   2.864  16.933 -0.1433 -0.0344  0.3669
  596MPD2    C2 8832   3.505   2.832  16.798 -1.2047  0.2934  0.0848
  596MPD2    C3 8833   3.539   2.704  16.760  0.1715 -0.5532 -0.2992
  596MPD2    C4 8834   3.544   2.609  16.858 -0.1312 -0.2747  0.4682
  596MPD2    C5 8835   3.526   2.647  16.992  0.1846 -0.4370  0.5622
  596MPD2     H 8836   3.491   2.911  16.725 -1.7639  0.3761  0.2868
  596MPD2    H1 8837   3.578   2.508  16.839  0.8783 -0.0563  1.0763
  596MPD2    H2 8838   3.448   2.778  17.137 -0.9753  1.1316 -0.6506
  596MPD2    H3 8839   3.538   2.560  17.055 -1.0658  0.7872  2.5106
  596MPD2     N 8840   3.549   2.666  16.623  0.6766 -0.3384  0.1745
  596MPD2    H5 8841   3.541   2.567  16.601 -2.8474  0.3504 -1.6293
  596MPD2    N1 8842   3.431   2.994  16.961 -0.1104  0.0058 -0.1962
  596MPD2    H7 8843   3.445   3.073  16.898 -2.4218 -0.6842 -1.5760
  597TMC3    C1 8844   3.275   3.156  17.041 -0.0045  0.2135 -0.1926
  597TMC3    C2 8845   3.294   3.238  16.936 -0.0400 -0.2786  0.4553
  597TMC3    C3 8846   3.226   3.355  16.928 -0.0623  0.2441 -0.1725
  597TMC3    C4 8847   3.186   3.184  17.141 -0.2602 -0.7230 -0.3713
  597TMC3    C5 8848   3.118   3.304  17.124  0.3623  0.3309  0.6582
  597TMC3    C6 8849   3.148   3.393  17.026  0.2103  0.0856  0.8197
  597TMC3     C 8850   3.354   3.032  17.067  0.5748  0.3553 -0.5477
  597TMC3     O 8851   3.330   2.973  17.172 -0.4361 -0.1604  0.0791
  597TMC3     H 8852   3.347   3.204  16.847 -0.6678 -0.6636  0.2292
  597TMC3    H1 8853   3.156   3.120  17.223  1.0032 -1.1212 -0.2116
  597TMC3    H2 8854   3.094   3.487  17.028  2.6905  1.5926 -1.3701
  597TMC3    C7 8855   3.023   3.335  17.230 -0.4398  0.1432 -0.5545
  597TMC3    C8 8856   3.257   3.452  16.821 -0.5692 -0.2747 -0.5871
  597TMC3    O1 8857   3.049   3.280  17.337 -0.4911  0.8598  0.6160
  597TMC3    O2 8858   3.201   3.564  16.831  0.1345 -0.1993 -0.2624
  598TMC3    C1 8859   1.474   4.232  15.575 -0.1842 -0.2338 -0.7824
  598TMC3    C2 8860   1.391   4.164  15.489  0.0018  0.2097 -0.1148
  598TMC3    C3 8861   1.402   4.192  15.356  0.1187 -0.5007 -0.2300
  598TMC3    C4 8862   1.544   4.346  15.535  0.1656  0.5937  0.5463
  598TMC3    C5 8863   1.539   4.377  15.404  0.0159  0.9853 -0.4080
  598TMC3    C6 8864   1.462   4.310  15.312 -0.0042 -0.2329  0.5205
  598TMC3     C 8865   1.536   4.159  15.678  0.1064  0.2938 -0.1498
  598TMC3     O 8866   1.621   4.219  15.737 -0.1600 -0.0006  0.0138
  598TMC3     H 8867   1.332   4.082  15.530  2.2813 -1.5018 -0.2790
  598TMC3    H1 8868   1.603   4.401  15.608  0.1111 -1.4136  2.1048
  598TMC3    H2 8869   1.467   4.325  15.205  2.8292 -2.2870  0.3560
  598TMC3    C7 8870   1.625   4.485  15.356  0.3089  0.0459  0.3186
  598TMC3    C8 8871   1.307   4.140  15.263  0.6750 -0.2190  0.2857
  598TMC3    O1 8872   1.657   4.579  15.426 -0.3109 -0.1897 -0.2450
  598TMC3    O2 8873   1.334   4.169  15.149 -0.0271 -0.0645  0.2711
  599MPD2     C 8874   1.921   2.209  16.255  0.4840 -0.1879  0.1332
  599MPD2    C1 8875   1.861   2.092  16.226  0.4394  0.4551  0.1309
  599MPD2    C2 8876   1.726   2.085  16.250 -0.2943 -0.1848 -0.2899
  599MPD2    C3 8877   1.654   2.199  16.287  0.2145  0.6578  1.1067
  599MPD2    C4 8878   1.721   2.316  16.310  0.3033  0.2425  0.6579
  599MPD2    C5 8879   1.852   2.319  16.299  0.2463 -0.2163  0.1412
  599MPD2     H 8880   1.678   1.989  16.236 -1.4261  0.2809  0.3762
  599MPD2    H1 8881   1.666   2.402  16.348 -0.7522 -0.1130 -0.0675
  599MPD2    H2 8882   2.029   2.213  16.265  0.6399 -0.2893 -1.5422
  599MPD2    H3 8883   1.905   2.413  16.314  1.4784 -1.4349  3.3149
  599MPD2     N 8884   1.510   2.205  16.308  0.3103 -0.0421 -0.1523
  599MPD2    H5 8885   1.474   2.295  16.337  1.4499  0.2371  0.4134
  599MPD2    N1 8886   1.937   1.981  16.188  0.6900  0.2696 -0.0310
  599MPD2    H7 8887   2.037   1.998  16.189  0.3499  2.2804  0.3679
  600TMC3    C1 8888   1.295   2.113  16.363 -0.1211 -0.2155 -0.1470
  600TMC3    C2 8889   1.235   1.997  16.413  0.5833 -0.5135 -0.2375
  600TMC3    C3 8890   1.128   2.009  16.494 -0.0208 -0.6632  0.1512
  600TMC3    C4 8891   1.254   2.233  16.399 -0.1351  0.1048  0.2909
  600TMC3    C5 8892   1.164   2.238  16.512  0.6042 -0.1490 -0.2669
  600TMC3    C6 8893   1.097   2.123  16.558  0.1556 -0.3090 -0.0690
  600TMC3     C 8894   1.426   2.093  16.308  0.3222  0.0513  0.2668
  600TMC3     O 8895   1.452   1.982  16.265 -0.2611 -0.8271  0.2688
  600TMC3     H 8896   1.267   1.901  16.376  1.5615  0.3075 -1.5105
  600TMC3    H1 8897   1.296   2.325  16.359 -1.2079  0.6773  0.4796
  600TMC3    H2 8898   1.029   2.123  16.642  0.5322 -1.5218  0.2349
  600TMC3    C7 8899   1.132   2.358  16.583 -0.9716  0.6300  1.0912
  600TMC3    C8 8900   1.109   1.897  16.580 -0.0697  0.9276 -0.9635
  600TMC3    O1 8901   1.056   2.349  16.677 -0.6006 -0.4876 -0.0327
  600TMC3    O2 8902   1.198   1.813  16.588 -0.0956 -0.2405  0.2764
  601MPD2     C 8903   3.445   4.411   0.624  0.5233  0.2742 -0.0604
  601MPD2    C1 8904   3.330   4.466   0.570  0.1617 -0.1999  0.6952
  601MPD2    C2 8905   3.205   4.427   0.603 -0.4753 -0.3837  0.4175
  601MPD2    C3 8906   3.193   4.329   0.699  0.1578  0.1364 -0.1464
  601MPD2    C4 8907   3.302   4.280   0.765  0.0782  0.4497  0.7018
  601MPD2    C5 8908   3.430   4.322   0.727 -0.1252  0.5130  0.5138
  601MPD2     H 8909   3.116   4.464   0.553  0.4723  0.3660 -0.7119
  601MPD2    H1 8910   3.300   4.194   0.830  2.8431  1.0745  1.6389
  601MPD2    H2 8911   3.545   4.432   0.589  0.3482  1.6965  0.2928
  601MPD2    H3 8912   3.521   4.287   0.773  0.0969  0.7418  0.2545
  601MPD2     N 8913   3.061   4.276   0.735 -0.1925  0.7431  0.5074
  601MPD2    H5 8914   3.054   4.211   0.814  0.4345 -0.4990 -0.4590
  601MPD2    N1 8915   3.340   4.561   0.460  0.4153  0.4277 -0.4866
  601MPD2    H7 8916   3.257   4.573   0.403  0.3299 -0.4741 -0.5544
  602TMC3    C1 8917   3.436   4.715   0.306  0.2740 -0.5793  0.2370
  602TMC3    C2 8918   3.317   0.056   0.284  0.2962 -0.1859  0.3604
  602TMC3    C3 8919   3.320   0.169   0.216  0.5342  0.2169  0.7862
  602TMC3    C4 8920   3.551   0.025   0.242  0.0485  0.3003  0.0916
  602TMC3    C5 8921   3.547   0.138   0.161  0.4321 -0.1778  0.1519
  602TMC3    C6 8922   3.432   0.211   0.155 -0.0777  0.1285  0.3517
  602TMC3     C 8923   3.451   4.641   0.429 -0.5221  0.2877  0.4928
  602TMC3     O 8924   3.560   4.652   0.480 -0.2508  0.5341 -0.4611
  602TMC3     H 8925   3.232   0.038   0.349  0.8017  0.1820  1.1204
  602TMC3    H1 8926   3.641   4.691   0.272 -0.0627  0.4057  0.6009
  602TMC3    H2 8927   3.434   0.307   0.105  0.4592 -0.3699 -0.5783
  602TMC3    C7 8928   3.653   0.158   0.066  0.5553  0.2962 -0.0254
  602TMC3    C8 8929   3.188   0.204   0.161  1.0962  0.0375  0.3884
  602TMC3    O1 8930   3.754   0.091   0.093 -0.0441  0.1166  0.5982
  602TMC3    O2 8931   3.098   0.134   0.195  0.1796 -0.1559 -0.1762
  603TMC3    C1 8932   2.292   4.563  10.600 -0.1985 -0.0681  0.8731
  603TMC3    C2 8933   2.214   4.591  10.709 -0.8429 -0.3887 -0.0063
  603TMC3    C3 8934   2.176   0.005  10.718 -0.2967  1.3268  0.0409
  603TMC3    C4 8935   2.326   4.653  10.506 -0.6773  0.1521  0.5795
  603TMC3    C5 8936   2.288   0.064  10.524  0.1019  0.0058 -0.1090
  603TMC3    C6 8937   2.196   0.096  10.618 -0.3312 -0.2866  0.3831
  603TMC3     C 8938   2.283   4.426  10.562 -0.3777  0.4425 -0.2185
  603TMC3     O 8939   2.271   4.404  10.444 -0.4409  0.4737  0.4941
  603TMC3     H 8940   2.191   4.516  10.784 -0.6080  1.5440  1.9970
  603TMC3    H1 8941   2.385   4.632  10.417  0.9361  0.4740  1.5745
  603TMC3    H2 8942   2.189   0.204  10.629 -0.3202 -0.2424 -0.0665
  603TMC3    C7 8943   2.309   0.157  10.413  0.1453 -0.6521  0.0433
  603TMC3    C8 8944   2.148   0.049  10.853 -0.3356  0.7562  0.6336
  603TMC3    O1 8945   2.410   0.138  10.351  0.1402  0.6773  0.0872
  603TMC3    O2 8946   2.185   4.694  10.945 -0.2931  0.4091  0.2653
  604MPD2     C 8947   2.263   3.576  16.480 -0.4048  0.2493  0.1492
  604MPD2    C1 8948   2.236   3.667  16.385  0.2762  0.5411  0.4717
  604MPD2    C2 8949   2.268   3.645  16.248  0.4245  0.0662 -0.5970
  604MPD2    C3 8950   2.311   3.525  16.208 -0.8887 -0.0355 -0.1699
  604MPD2    C4 8951   2.331   3.424  16.306 -0.1492 -0.2356  0.6486
  604MPD2    C5 8952   2.307   3.453  16.441  0.3470  0.6210 -0.3285
  604MPD2     H 8953   2.262   3.733  16.185 -0.6212 -0.0475 -0.6663
  604MPD2    H1 8954   2.373   3.325  16.289 -2.7479 -1.0120 -1.3583
  604MPD2    H2 8955   2.241   3.599  16.583 -1.7800 -3.1258  0.5866
  604MPD2    H3 8956   2.316   3.379  16.520  0.5473  0.4687 -0.4916
  604MPD2     N 8957   2.347   3.516  16.070 -0.1507  0.8073 -0.0534
  604MPD2    H5 8958   2.323   3.594  16.010 -0.4411  1.1378  0.5009
  604MPD2    N1 8959   2.188   3.790  16.437  0.8874 -0.5866 -0.5913
  604MPD2    H7 8960   2.187   3.791  16.539  1.2699 -0.0616 -0.5961
  605TMC3    C1 8961   2.089   3.997  16.459  0.4738 -0.3732 -0.1366
  605TMC3    C2 8962   2.163   4.042  16.564  0.2785  0.7150  0.1545
  605TMC3    C3 8963   2.134   4.160  16.623  0.5732  0.3121  0.0061
  605TMC3    C4 8964   1.986   4.072  16.412 -0.4059 -0.6655 -0.0481
  605TMC3    C5 8965   1.965   4.193  16.471  0.6605 -0.1140  0.0541
  605TMC3    C6 8966   2.031   4.235  16.577 -0.3595 -0.1794  0.7561
  605TMC3     C 8967   2.145   3.903  16.366 -0.1492  0.0949 -0.4481
  605TMC3     O 8968   2.139   3.926  16.249 -0.4620 -0.0861 -0.2185
  605TMC3     H 8969   2.240   3.975  16.600  0.4694  1.7989  1.7937
  605TMC3    H1 8970   1.916   4.032  16.340 -0.3347 -0.1331 -0.4176
  605TMC3    H2 8971   2.000   4.327  16.626 -1.6249 -1.5683  2.5759
  605TMC3    C7 8972   1.854   4.281  16.432 -0.2392  0.3696 -0.5324
  605TMC3    C8 8973   2.250   4.207  16.697 -0.5060 -0.2026  0.3786
  605TMC3    O1 8974   1.808   4.364  16.507  0.0360 -0.2737  0.4913
  605TMC3    O2 8975   2.329   4.122  16.728 -0.5247  0.0343  0.5743
  606TMC3    C1 8976   4.256   2.268  17.504 -0.2699 -0.9355 -0.9102
  606TMC3    C2 8977   4.366   2.312  17.578  0.5345 -0.2020 -0.3568
  606TMC3    C3 8978   4.408   2.237   0.009 -0.2761 -0.2208 -0.3048
  606TMC3    C4 8979   4.198   2.150  17.537  0.0703  0.5134 -0.5812
  606TMC3    C5 8980   4.254   2.075  17.637 -0.1947 -0.5080  0.9633
  606TMC3    C6 8981   4.354   2.117   0.038  0.6656  0.7366 -0.3245
  606TMC3     C 8982   4.206   2.358  17.404 -0.1268  0.0996  0.4509
  606TMC3     O 8983   4.251   2.472  17.404  0.3458  0.1150  0.1511
  606TMC3     H 8984   4.419   2.400  17.542  2.4012 -0.9588  0.5761
  606TMC3    H1 8985   4.115   2.104  17.484  1.1811 -0.0867 -1.7873
  606TMC3    H2 8986   4.386   2.048   0.116  0.0043 -0.2409 -0.9146
  606TMC3    C7 8987   4.169   1.976   0.020  0.0286 -0.1652  0.2642
  606TMC3    C8 8988   4.509   2.294   0.099  0.1304  0.0903 -0.5004
  606TMC3    O1 8989   4.232   1.893   0.087 -0.5543 -0.6499  0.2738
  606TMC3    O2 8990   4.565   2.397   0.076 -0.1704  0.4285 -0.1658
  607MPD2     C 8991   1.267   0.679  11.564 -0.2078  0.1043 -0.1813
  607MPD2    C1 8992   1.342   0.756  11.654  0.8032  0.2611 -0.9239
  607MPD2    C2 8993   1.318   0.732  11.789  0.0492  0.8441 -0.4407
  607MPD2    C3 8994   1.221   0.637  11.832 -0.1212 -0.6462  0.8586
  607MPD2    C4 8995   1.135   0.572  11.737 -0.4826  0.2125 -0.1191
  607MPD2    C5 8996   1.161   0.598  11.606  0.9341 -0.2373 -1.1084
  607MPD2     H 8997   1.384   0.787  11.855  0.4146 -0.2270  0.0770
  607MPD2    H1 8998   1.042   0.522  11.762 -0.3678  0.5231  0.9651
  607MPD2    H2 8999   1.287   0.687  11.458 -1.0069  1.2800 -0.2468
  607MPD2    H3 9000   1.096   0.542  11.540  0.9178 -0.0745 -1.2288
  607MPD2     N 9001   1.216   0.625  11.974 -0.0961  0.4576 -0.3109
  607MPD2    H5 9002   1.292   0.670  12.023  1.2026  0.4180 -2.3072
  607MPD2    N1 9003   1.453   0.830  11.623  0.2085  0.0676 -0.0811
  607MPD2    H7 9004   1.503   0.870  11.701 -0.3299 -0.3231  0.4658
  608TMC3    C1 9005   1.647   0.891  11.504 -0.4680  0.4989 -0.1094
  608TMC3    C2 9006   1.702   0.879  11.623 -0.1422 -0.4025  0.2504
  608TMC3    C3 9007   1.818   0.953  11.651  0.5841  0.5927 -0.3272
  608TMC3    C4 9008   1.697   0.964  11.402 -0.8389  0.1590  0.5236
  608TMC3    C5 9009   1.809   1.045  11.427 -0.4700 -1.1345 -0.3347
  608TMC3    C6 9010   1.877   1.035  11.551 -0.5086  0.3991  0.2866
  608TMC3     C 9011   1.505   0.860  11.495  0.1006 -0.3925 -0.2899
  608TMC3     O 9012   1.451   0.848  11.389  0.1926  0.1507  0.3586
  608TMC3     H 9013   1.666   0.799  11.686  0.4699 -0.4838  0.4972
  608TMC3    H1 9014   1.662   0.956  11.300  0.5069 -0.3480  0.1060
  608TMC3    H2 9015   1.978   1.075  11.560  1.0876 -3.4996 -0.2595
  608TMC3    C7 9016   1.899   1.056  11.315  0.2241  0.3758  0.1435
  608TMC3    C8 9017   1.878   0.949  11.786 -0.5080  0.2460 -0.3704
  608TMC3    O1 9018   1.918   0.955  11.250  0.8983 -0.1515  0.1032
  608TMC3    O2 9019   1.991   1.001  11.813 -0.0492  0.1323 -0.0956
  609TMC3    C1 9020   0.602   3.310   9.332 -0.1089 -0.6766  0.2083
  609TMC3    C2 9021   0.556   3.211   9.247  0.4270  0.4058  0.4753
  609TMC3    C3 9022   0.650   3.115   9.218  0.0250  0.0557  0.4004
  609TMC3    C4 9023   0.725   3.312   9.395  0.3266 -0.3277  0.0620
  609TMC3    C5 9024   0.815   3.214   9.354 -0.8498 -0.6867 -0.0054
  609TMC3    C6 9025   0.778   3.114   9.265 -0.0889  0.2051  0.0183
  609TMC3     C 9026   0.512   3.421   9.362  0.6931 -0.3145 -0.4478
  609TMC3     O 9027   0.394   3.391   9.360  0.8291 -0.1821 -1.2976
  609TMC3     H 9028   0.465   3.224   9.189 -0.1173  0.7547  1.4149
  609TMC3    H1 9029   0.753   3.392   9.463 -2.1006  0.9111 -0.3617
  609TMC3    H2 9030   0.842   3.034   9.230  0.8042  0.1329  1.8312
  609TMC3    C7 9031   0.944   3.225   9.403 -0.1947  0.4873 -0.3121
  609TMC3    C8 9032   0.623   3.035   9.107  0.2254  0.0915 -0.1571
  609TMC3    O1 9033   0.954   3.277   9.509  0.1786 -0.0967  0.0872
  609TMC3    O2 9034   0.719   2.995   9.038 -0.0224 -0.1599 -0.3337
  610TMC3    C1 9035   2.055   0.512  12.023  0.8696 -0.7234  0.5152
  610TMC3    C2 9036   2.115   0.595  11.932  0.4008 -0.2908 -0.5287
  610TMC3    C3 9037   2.252   0.611  11.957  0.4977  0.7763 -0.0682
  610TMC3    C4 9038   2.116   0.444  12.122 -0.7127 -0.0827 -0.5134
  610TMC3    C5 9039   2.250   0.475  12.147 -0.3082 -1.0754  0.3787
  610TMC3    C6 9040   2.315   0.544  12.054  0.2469  0.0564  1.0846
  610TMC3     C 9041   1.917   0.479  12.000  0.0297  0.0993 -0.8950
  610TMC3     O 9042   1.859   0.446  12.102 -0.1904  0.6241  0.3750
  610TMC3     H 9043   2.058   0.657  11.864 -0.9813 -0.7768  0.1961
  610TMC3    H1 9044   2.066   0.367  12.179  0.9023 -0.7857 -0.0311
  610TMC3    H2 9045   2.423   0.541  12.065  0.4873  0.7224 -1.1205
  610TMC3    C7 9046   2.332   0.424  12.253 -0.4385  1.1060  0.4422
  610TMC3    C8 9047   2.319   0.731  11.915  0.7852  0.0865  0.0984
  610TMC3    O1 9048   2.452   0.401  12.232 -0.0233  0.1875  0.1580
  610TMC3    O2 9049   2.402   0.771  11.989  0.0410  0.5131 -0.3366
  611MPD2     C 9050   1.285   0.082  10.424  0.5763 -0.0405 -0.0871
  611MPD2    C1 9051   1.213   0.190  10.394 -0.0790 -0.5707  0.4898
  611MPD2    C2 9052   1.268   0.290  10.322 -0.6319  0.1214 -0.3686
  611MPD2    C3 9053   1.403   0.285  10.282 -0.2152  0.2748  0.2987
  611MPD2    C4 9054   1.475   0.170  10.309 -0.4675  0.9498 -1.0344
  611MPD2    C5 9055   1.408   0.067  10.377  0.7856 -0.3886  0.2391
  611MPD2     H 9056   1.204   0.370  10.287 -0.3794  0.6170  0.3167
  611MPD2    H1 9057   1.578   0.157  10.279 -0.5074 -1.4329 -0.1833
  611MPD2    H2 9058   1.237   4.716  10.472  0.3243  0.0207 -0.2313
  611MPD2    H3 9059   1.453   4.687  10.387 -0.4969 -0.9910  0.0053
  611MPD2     N 9060   1.474   0.385  10.216  0.0220  0.1596 -0.7838
  611MPD2    H5 9061   1.571   0.372  10.191  0.4099 -1.0817  1.3480
  611MPD2    N1 9062   1.081   0.187  10.448  0.3934  0.0243 -0.1849
  611MPD2    H7 9063   1.064   0.101  10.499  2.1946 -0.8801 -1.0778
  612TMC3    C1 9064   1.516   0.595  10.129 -0.7990  0.1849 -0.2602
  612TMC3    C2 9065   1.644   0.590  10.168 -0.5229  0.1387 -0.3603
  612TMC3    C3 9066   1.726   0.680  10.107  0.3770  0.1064  0.3158
  612TMC3    C4 9067   1.462   0.683  10.040  0.1946  0.6051 -0.3708
  612TMC3    C5 9068   1.545   0.780   9.986 -0.4260  0.1608 -0.0450
  612TMC3    C6 9069   1.680   0.766  10.010 -0.5112  0.1874 -0.1046
  612TMC3     C 9070   1.423   0.509  10.203 -0.8130  0.2519  0.0864
  612TMC3     O 9071   1.316   0.555  10.223  0.2433  0.1444  0.5893
  612TMC3     H 9072   1.671   0.522  10.249 -1.6734  1.5668  1.2234
  612TMC3    H1 9073   1.354   0.696  10.048  0.4008  2.0352  0.1321
  612TMC3    H2 9074   1.744   0.832   9.953 -1.4151  0.3053 -0.9606
  612TMC3    C7 9075   1.505   0.899   9.919 -0.5255 -1.1164  0.7537
  612TMC3    C8 9076   1.872   0.667  10.112  0.9491  0.6500 -0.7541
  612TMC3    O1 9077   1.395   0.896   9.864 -0.4406 -0.4566 -0.5811
  612TMC3    O2 9078   1.939   0.732  10.031 -0.0904  0.4270 -0.3382
  613MPD2     C 9079   4.326   2.085  16.925  0.4031 -0.2829 -0.8172
  613MPD2    C1 9080   4.407   2.026  16.833 -0.4216 -0.1022  0.7472
  613MPD2    C2 9081   4.352   1.992  16.709 -0.2939 -0.9671 -0.6981
  613MPD2    C3 9082   4.226   2.027  16.678 -0.0634 -0.3022 -0.2174
  613MPD2    C4 9083   4.143   2.082  16.768  0.4089  1.1352  0.3470
  613MPD2    C5 9084   4.192   2.106  16.895 -0.6746  0.0753  0.2551
  613MPD2     H 9085   4.419   1.974  16.626  0.1965  1.0583 -0.7476
  613MPD2    H1 9086   4.037   2.098  16.750  0.4357 -1.8192 -2.6148
  613MPD2    H2 9087   4.365   2.116  17.022 -0.0293  0.4535 -0.8723
  613MPD2    H3 9088   4.133   2.164  16.965 -1.0229  0.6284 -0.4912
  613MPD2     N 9089   4.190   2.014  16.540  0.6679  0.9612 -1.0249
  613MPD2    H5 9090   4.253   1.967  16.475  0.4850  0.4501 -0.8355
  613MPD2    N1 9091   4.543   1.998  16.847  0.1070 -0.1133 -0.3919
  613MPD2    H7 9092   4.589   1.972  16.760 -2.0844 -1.2494 -1.2095
  614TMC3    C1 9093   0.048   2.058  16.922  0.0588 -0.8070  0.1342
  614TMC3    C2 9094   0.093   1.964  16.842  0.2130 -0.1347 -0.3233
  614TMC3    C3 9095   0.174   2.001  16.741 -0.1874 -0.0572  0.5718
  614TMC3    C4 9096   0.117   2.177  16.932  0.0106  0.3929  0.0685
  614TMC3    C5 9097   0.221   2.201  16.850  0.4276 -0.4052 -0.1148
  614TMC3    C6 9098   0.242   2.121  16.740  0.1658  0.2468 -0.0666
  614TMC3     C 9099   4.623   2.063  16.942  0.0405 -0.3928  0.2707
  614TMC3     O 9100   4.594   2.162  17.007  0.2019 -0.2575 -0.1615
  614TMC3     H 9101   0.043   1.868  16.834  0.6650 -0.5157  1.5155
  614TMC3    H1 9102   0.086   2.260  16.995 -0.0284  1.3152 -1.1767
  614TMC3    H2 9103   0.311   2.147  16.661  1.1535 -0.6476  0.5099
  614TMC3    C7 9104   0.237   2.343  16.824  0.1006 -0.2624 -0.3805
  614TMC3    C8 9105   0.111   1.977  16.613 -0.4583  0.1382 -0.6618
  614TMC3    O1 9106   0.311   2.411  16.899 -0.2913  0.0105  0.5276
  614TMC3    O2 9107   0.004   1.917  16.627  0.0168  0.6359  0.5639
  615MPD2     C 9108   4.091   3.726  16.397 -0.5765  0.3027 -0.5342
  615MPD2    C1 9109   3.972   3.798  16.390 -0.3961 -0.3033 -0.0970
  615MPD2    C2 9110   3.881   3.776  16.292  0.2604  0.2673  0.5610
  615MPD2    C3 9111   3.904   3.676  16.198 -0.2054 -0.2523 -0.0132
  615MPD2    C4 9112   4.019   3.600  16.211  0.2564 -0.2251  0.2402
  615MPD2    C5 9113   4.111   3.620  16.310  0.2939 -0.5810  0.5397
  615MPD2     H 9114   3.795   3.841  16.286 -0.0629  0.0113  2.4881
  615MPD2    H1 9115   4.045   3.527  16.136  1.3397  2.6628 -2.2021
  615MPD2    H2 9116   4.165   3.739  16.475  1.1033 -0.6112 -1.9861
  615MPD2    H3 9117   4.204   3.566  16.317  0.3181 -0.5862  0.1941
  615MPD2     N 9118   3.827   3.664  16.080  0.1353  0.3205  0.0221
  615MPD2    H5 9119   3.851   3.597  16.008  0.8855  2.2094 -1.4719
  615MPD2    N1 9120   3.940   3.899  16.481  0.4274  0.3871  0.6378
  615MPD2    H7 9121   3.852   3.947  16.470  0.1323 -0.6395 -1.3901
  616TMC3    C1 9122   3.993   4.075  16.644 -0.0856  1.0169 -0.6351
  616TMC3    C2 9123   4.086   4.168  16.682  0.6980 -0.9788  0.8229
  616TMC3    C3 9124   4.050   4.258  16.779 -0.7102  0.0036 -0.1814
  616TMC3    C4 9125   3.864   4.079  16.688  0.0978 -0.4364 -0.4463
  616TMC3    C5 9126   3.837   4.175  16.781 -0.3432 -0.5351 -0.3751
  616TMC3    C6 9127   3.927   4.263  16.831 -0.7803  0.7120  0.4692
  616TMC3     C 9128   4.038   3.961  16.567  0.4009 -0.4084  0.3274
  616TMC3     O 9129   4.153   3.939  16.583  0.0351 -0.0837  0.5080
  616TMC3     H 9130   4.188   4.169  16.644  1.2648 -0.2097  2.3571
  616TMC3    H1 9131   3.788   4.012  16.650 -0.2056  0.3094 -1.1678
  616TMC3    H2 9132   3.899   4.331  16.912 -0.0639  0.2520  1.0992
  616TMC3    C7 9133   3.700   4.187  16.837  0.3680  0.1369  0.5242
  616TMC3    C8 9134   4.151   4.328  16.858  0.7692  0.2901 -0.3394
  616TMC3    O1 9135   3.606   4.185  16.758 -0.2832  0.5564  0.4033
  616TMC3    O2 9136   4.107   4.362  16.970  0.4992 -0.1245 -0.1530
  617MPD2     C 9137   2.076   2.219  14.187 -0.3401  0.4930  0.3030
  617MPD2    C1 9138   2.088   2.087  14.211 -0.3300  0.3232  0.3170
  617MPD2    C2 9139   1.974   2.009  14.236 -0.9337  0.1504  0.6029
  617MPD2    C3 9140   1.846   2.065  14.220  0.1491  0.0607 -0.4457
  617MPD2    C4 9141   1.838   2.196  14.175  0.1200 -0.4846  0.1544
  617MPD2    C5 9142   1.951   2.271  14.171 -0.2396  0.5422 -0.4021
  617MPD2     H 9143   1.985   1.903  14.259 -2.7635 -0.8119 -2.9396
  617MPD2    H1 9144   1.740   2.239  14.161 -0.5388 -1.9699  0.1611
  617MPD2    H2 9145   2.163   2.281  14.169  1.4811 -2.3337 -0.6580
  617MPD2    H3 9146   1.947   2.378  14.152 -1.2752  0.2998 -1.5363
  617MPD2     N 9147   1.726   1.991  14.249 -0.3253 -0.1064 -0.0111
  617MPD2    H5 9148   1.646   2.023  14.197  0.2152  1.6520  0.2183
  617MPD2    N1 9149   2.204   2.025  14.236  0.5459  0.1535 -0.4699
  617MPD2    H7 9150   2.202   1.924  14.244  1.0556  0.0817 -1.1961
  618TMC3    C1 9151   2.437   1.997  14.266  0.5865 -0.0494 -0.3967
  618TMC3    C2 9152   2.432   1.894  14.174  0.2101 -0.3310 -0.3263
  618TMC3    C3 9153   2.544   1.815  14.156 -0.7176 -0.1494 -0.1760
  618TMC3    C4 9154   2.554   2.036  14.321 -0.1560  0.1270  0.1185
  618TMC3    C5 9155   2.659   1.948  14.309 -0.4516  0.9729 -0.2758
  618TMC3    C6 9156   2.650   1.830  14.233 -0.1151 -0.7464  0.3247
  618TMC3     C 9157   2.323   2.088  14.264  0.5482 -0.5872 -0.1224
  618TMC3     O 9158   2.339   2.203  14.299  0.3064  0.2884 -0.2231
  618TMC3     H 9159   2.344   1.883  14.112  0.0393 -1.1061  0.0444
  618TMC3    H1 9160   2.561   2.117  14.392  1.0380 -0.7631  1.0091
  618TMC3    H2 9161   2.723   1.752  14.252 -1.4345 -1.6659  1.6494
  618TMC3    C7 9162   2.785   2.004  14.361 -0.4111 -0.4944 -0.4422
  618TMC3    C8 9163   2.539   1.734  14.034  0.9650  0.3271 -0.3095
  618TMC3    O1 9164   2.776   2.077  14.462  0.1856 -0.8781  0.0362
  618TMC3    O2 9165   2.436   1.736  13.967 -0.0326  0.0530  0.5237
  619MPD2     C 9166   3.755   3.518  13.795  0.1211  0.1453 -0.4772
  619MPD2    C1 9167   3.644   3.593  13.746 -0.1498 -0.0257 -0.8608
  619MPD2    C2 9168   3.521   3.546  13.779  0.0677 -0.5714 -0.2441
  619MPD2    C3 9169   3.496   3.436  13.854 -0.3610  0.6256  0.6596
  619MPD2    C4 9170   3.603   3.372  13.902  0.1071 -0.3567 -0.1176
  619MPD2    C5 9171   3.732   3.415  13.876 -0.1067 -0.0123 -0.3191
  619MPD2     H 9172   3.445   3.615  13.745 -0.2748 -1.2473 -0.8529
  619MPD2    H1 9173   3.596   3.280  13.960  1.3133 -0.4945 -0.1916
  619MPD2    H2 9174   3.856   3.551  13.773  0.4308 -0.3927  0.1605
  619MPD2    H3 9175   3.828   3.373  13.906  0.1296 -0.5157 -1.7638
  619MPD2     N 9176   3.366   3.387  13.884 -0.7548 -0.0458 -0.0039
  619MPD2    H5 9177   3.356   3.302  13.937  1.0816  0.1778  0.6818
  619MPD2    N1 9178   3.659   3.699  13.658  0.0838 -0.3463  0.3801
  619MPD2    H7 9179   3.573   3.727  13.612  0.6087  0.1384 -0.3149
  620TMC3    C1 9180   3.736   3.859  13.512 -0.0555  0.0000 -0.7030
  620TMC3    C2 9181   3.653   3.811  13.414  0.1232  0.6833 -0.4131
  620TMC3    C3 9182   3.589   3.896  13.334 -0.9840 -0.9218  0.4134
  620TMC3    C4 9183   3.757   3.991  13.542 -0.4021  0.0808  0.5216
  620TMC3    C5 9184   3.694   4.077  13.450  0.6769  0.4884 -0.5381
  620TMC3    C6 9185   3.622   4.024  13.345 -0.4125 -0.1257 -0.0436
  620TMC3     C 9186   3.775   3.764  13.621 -0.4007 -0.3741  0.0798
  620TMC3     O 9187   3.881   3.779  13.681  0.4356  0.1875 -0.0310
  620TMC3     H 9188   3.628   3.705  13.414 -1.6828  1.1018 -0.9493
  620TMC3    H1 9189   3.803   4.028  13.632 -1.2054  2.8686 -0.2206
  620TMC3    H2 9190   3.548   4.092  13.304 -1.9460 -3.3820 -2.6750
  620TMC3    C7 9191   3.664   4.215  13.493 -0.3281 -0.0952  0.0991
  620TMC3    C8 9192   3.447   3.869  13.338 -0.3945  0.1242  0.4647
  620TMC3    O1 9193   3.593   4.286  13.422  0.1298 -0.3572  0.8032
  620TMC3    O2 9194   3.419   3.795  13.431  0.1718  0.4384  0.2963
  621MPD2     C 9195   4.247   3.107  10.598  0.0043 -0.1980  0.2717
  621MPD2    C1 9196   4.126   3.099  10.533  0.1086  0.0022  0.5918
  621MPD2    C2 9197   4.086   3.215  10.454 -0.2342  0.5424 -0.5349
  621MPD2    C3 9198   4.169   3.319  10.442 -0.1764  0.7785 -0.0639
  621MPD2    C4 9199   4.302   3.312  10.503  0.2851 -0.1235  0.4340
  621MPD2    C5 9200   4.332   3.204  10.578 -0.2387  0.1558  0.1482
  621MPD2     H 9201   3.989   3.222  10.406 -1.1973 -2.4839  0.9851
  621MPD2    H1 9202   4.374   3.393  10.498  1.1392 -0.9498 -0.7928
  621MPD2    H2 9203   4.279   3.036  10.673 -1.5101  0.0664  1.1753
  621MPD2    H3 9204   4.429   3.200  10.626  0.0732 -0.9140 -0.5785
  621MPD2     N 9205   4.135   3.415  10.346 -0.1926 -0.2497  0.2775
  621MPD2    H5 9206   4.055   3.397  10.286  0.9529  1.8124 -1.8729
  621MPD2    N1 9207   4.055   2.977  10.532 -0.0805  0.2180 -0.2277
  621MPD2    H7 9208   3.989   2.980  10.456  0.5621  0.1454 -0.7868
  622TMC3    C1 9209   3.972   2.759  10.573 -0.6810  0.4816  0.3542
  622TMC3    C2 9210   3.868   2.799  10.498 -0.9552 -0.5495 -0.1791
  622TMC3    C3 9211   3.813   2.697  10.422  0.2784  0.0620 -0.2766
  622TMC3    C4 9212   4.015   2.630  10.581 -0.4179  0.2873 -0.2033
  622TMC3    C5 9213   3.958   2.539  10.503  0.5565  0.0061 -0.6547
  622TMC3    C6 9214   3.858   2.571  10.419 -0.0864 -0.3098 -0.4430
  622TMC3     C 9215   4.071   2.859  10.603  0.6420 -0.6106  0.3844
  622TMC3     O 9216   4.157   2.839  10.687 -0.4892  0.2171 -0.2135
  622TMC3     H 9217   3.821   2.897  10.494  2.6823  1.1965 -0.4475
  622TMC3    H1 9218   4.110   2.603  10.627 -0.8501 -1.2555 -0.2231
  622TMC3    H2 9219   3.809   2.497  10.355 -1.6315 -0.1014  0.4922
  622TMC3    C7 9220   4.009   2.408  10.503 -0.1734 -0.8287 -0.2548
  622TMC3    C8 9221   3.687   2.727  10.345  0.2878 -0.1516  0.6475
  622TMC3    O1 9222   4.068   2.368  10.603  0.5831 -0.3424  0.0827
  622TMC3    O2 9223   3.602   2.636  10.326  0.1244 -0.1167 -0.5925
  623MPD2     C 9224   2.632   4.486  16.010 -0.6393  0.1157 -0.3902
  623MPD2    C1 9225   2.551   4.430  16.109 -0.4607 -0.6177 -0.9473
  623MPD2    C2 9226   2.616   4.404  16.226  0.0052 -0.2633 -0.7385
  623MPD2    C3 9227   2.753   4.426  16.241  0.1223  0.3907  0.4768
  623MPD2    C4 9228   2.823   4.483  16.135 -0.4481 -1.0541 -0.3814
  623MPD2    C5 9229   2.763   4.522  16.020 -0.0087  0.4269 -0.1398
  623MPD2     H 9230   2.559   4.369  16.311 -2.7025 -0.7164 -2.7549
  623MPD2    H1 9231   2.931   4.484  16.137 -0.4879 -0.3782  1.3505
  623MPD2    H2 9232   2.581   4.512  15.918 -0.2570  0.1514 -0.5906
  623MPD2    H3 9233   2.826   4.559  15.940  1.4294  0.4734  1.0162
  623MPD2     N 9234   2.809   4.390  16.364  0.5194  0.2520  0.0605
  623MPD2    H5 9235   2.742   4.361  16.435  0.4532 -0.1769 -0.1758
  623MPD2    N1 9236   2.410   4.423  16.096 -0.8250 -0.6213  0.1856
  623MPD2    H7 9237   2.362   4.485  16.031  1.4973  2.4415  1.4005
  624TMC3    C1 9238   3.076   4.424  16.728  0.0895 -0.2634 -0.2963
  624TMC3    C2 9239   2.966   4.398  16.805 -0.1953  0.2108 -0.4190
  624TMC3    C3 9240   2.869   4.330  16.750  0.5568  0.3952  0.8195
  624TMC3    C4 9241   3.070   4.405  16.597  0.2293  0.2603 -0.5304
  624TMC3    C5 9242   2.958   4.354  16.540  0.5270 -0.5481  0.5576
  624TMC3    C6 9243   2.862   4.305  16.615 -0.2470 -0.4871 -0.4391
  624TMC3     C 9244   3.202   4.457  16.796 -0.0771  0.2409  0.4170
  624TMC3     O 9245   3.190   4.460  16.919 -0.0146  0.0052  0.4965
  624TMC3     H 9246   2.971   4.411  16.913 -0.2613 -1.0112 -0.2693
  624TMC3    H1 9247   3.162   4.418  16.541  0.9276 -0.8057  0.3536
  624TMC3    H2 9248   2.766   4.274  16.574 -0.0291 -0.9978 -0.5693
  624TMC3    C7 9249   2.944   4.374  16.400 -0.4665  0.0651  0.2867
  624TMC3    C8 9250   2.753   4.307  16.832  0.2298  0.1683  0.0758
  624TMC3    O1 9251   3.042   4.405  16.330 -0.6420 -0.6995 -0.7756
  624TMC3    O2 9252   2.693   4.205  16.817 -0.0163 -0.4110 -0.3648
  625MPD2     C 9253   3.213   0.269   1.094 -0.8735  0.1035 -0.1879
  625MPD2    C1 9254   3.284   0.396   1.095 -0.1894  0.2990  0.3889
  625MPD2    C2 9255   3.422   0.386   1.119  1.1709 -0.1057  0.2268
  625MPD2    C3 9256   3.489   0.263   1.130  0.2535 -0.2864  0.4847
  625MPD2    C4 9257   3.413   0.145   1.131  0.7791 -0.4301 -0.0032
  625MPD2    C5 9258   3.279   0.148   1.113 -0.2058 -0.0571 -0.1665
  625MPD2     H 9259   3.477   0.479   1.109  0.0865  0.4417 -0.5616
  625MPD2    H1 9260   3.459   0.047   1.138 -0.8437 -1.0560  1.9410
  625MPD2    H2 9261   3.109   0.258   1.064 -0.4920 -0.7759 -1.1661
  625MPD2    H3 9262   3.239   0.047   1.114 -1.2544  0.3450 -4.0907
  625MPD2     N 9263   3.632   0.256   1.140  0.1231  0.6036 -0.3574
  625MPD2    H5 9264   3.676   0.346   1.127 -0.1301  0.1257 -4.3930
  625MPD2    N1 9265   3.228   0.525   1.055 -0.1486 -0.0335 -0.3804
  625MPD2    H7 9266   3.290   0.604   1.064  0.8076 -0.7312 -0.8435
  626TMC3    C1 9267   3.072   0.671   0.947  0.2432 -0.2552  0.0095
  626TMC3    C2 9268   3.006   0.689   0.826  0.4479  1.3547  0.8537
  626TMC3    C3 9269   2.986   0.827   0.798 -0.1514 -0.7650 -0.4502
  626TMC3    C4 9270   3.115   0.778   1.014  0.1480 -0.6671 -0.0963
  626TMC3    C5 9271   3.097   0.905   0.985  0.1350  0.3209  1.4338
  626TMC3    C6 9272   3.040   0.932   0.869  0.5989  0.2806  0.8508
  626TMC3     C 9273   3.110   0.532   0.986 -0.5125  0.3839  0.3794
  626TMC3     O 9274   3.049   0.439   0.938 -0.0172  0.5058 -0.0935
  626TMC3     H 9275   2.983   0.611   0.755  1.6369  0.6787  1.2126
  626TMC3    H1 9276   3.155   0.769   1.114  2.4117  1.1009 -0.8301
  626TMC3    H2 9277   3.008   1.032   0.841  1.2826 -0.3845 -2.2143
  626TMC3    C7 9278   3.084   0.995   1.097  0.4673 -0.3910 -0.3443
  626TMC3    C8 9279   2.915   0.857   0.679 -0.4906  0.6152  0.1254
  626TMC3    O1 9280   3.170   0.996   1.183 -0.0465  0.1482  0.4759
  626TMC3    O2 9281   2.944   0.959   0.619 -0.2897 -0.0728 -0.2050
  627MPD2     C 9282   2.315   0.933  13.989 -0.2407 -0.4204 -0.1777
  627MPD2    C1 9283   2.239   0.944  14.111 -0.8522 -0.0092  0.5778
  627MPD2    C2 9284   2.106   0.921  14.110 -0.5234 -0.5766  0.2685
  627MPD2    C3 9285   2.054   0.857  13.999 -0.1739 -0.2570  0.0272
  627MPD2    C4 9286   2.134   0.824  13.887  0.2498  0.4374 -0.1589
  627MPD2    C5 9287   2.268   0.866  13.880  0.1902 -0.7168  0.0190
  627MPD2     H 9288   2.045   0.940  14.197 -0.8494  2.6229 -0.6409
  627MPD2    H1 9289   2.085   0.762  13.813 -0.4711  1.3135 -0.4130
  627MPD2    H2 9290   2.422   0.954  13.988 -0.2236 -0.4480  1.1014
  627MPD2    H3 9291   2.328   0.842  13.793 -1.9436 -1.7715 -1.1428
  627MPD2     N 9292   1.917   0.831  14.001 -0.6462 -0.6016 -0.0711
  627MPD2    H5 9293   1.866   0.879  14.074  0.3265  0.5898 -0.1620
  627MPD2    N1 9294   2.299   1.008  14.223  0.6020 -0.4263 -0.7034
  627MPD2    H7 9295   2.244   1.037  14.303  0.0560 -0.0541 -1.2142
  628TMC3    C1 9296   2.471   1.067  14.379  0.2886  0.0083  0.1531
  628TMC3    C2 9297   2.587   1.014  14.430  0.2854 -0.0185 -0.0932
  628TMC3    C3 9298   2.608   1.033  14.563 -0.0822  0.1029 -0.3115
  628TMC3    C4 9299   2.384   1.140  14.451 -0.1992  0.9152 -0.6669
  628TMC3    C5 9300   2.417   1.165  14.586 -0.2329 -0.1609 -0.4760
  628TMC3    C6 9301   2.526   1.108  14.645  0.1886 -0.1114 -0.4025
  628TMC3     C 9302   2.435   1.006  14.248 -0.3141 -0.7583  0.2582
  628TMC3     O 9303   2.513   0.934  14.189  0.2252 -0.0840 -0.1200
  628TMC3     H 9304   2.647   0.949  14.367  1.2562 -2.0383  2.9168
  628TMC3    H1 9305   2.306   1.196  14.402 -0.9528  1.2823  0.9505
  628TMC3    H2 9306   2.553   1.129  14.748  0.4606 -0.4857 -0.3954
  628TMC3    C7 9307   2.358   1.286  14.650  0.0742  0.2294 -0.9258
  628TMC3    C8 9308   2.731   0.990  14.614 -0.3870  0.3580 -0.2068
  628TMC3    O1 9309   2.409   1.327  14.752  0.2801 -0.4726 -0.1981
  628TMC3    O2 9310   2.830   0.986  14.541  0.4569  0.0329 -0.7792
  629MPD2     C 9311   4.611   4.530  16.955 -0.0887 -0.0071 -0.2518
  629MPD2    C1 9312   4.605   4.503  16.822 -0.3673 -0.5669  0.6547
  629MPD2    C2 9313   4.503   4.419  16.770  1.0554 -0.0458  0.5991
  629MPD2    C3 9314   4.389   4.400  16.849  1.0799 -0.5530 -1.3638
  629MPD2    C4 9315   4.391   4.443  16.981 -0.1450 -0.1001 -0.8482
  629MPD2    C5 9316   4.499   4.503  17.029 -0.8761 -0.3332 -0.0649
  629MPD2     H 9317   4.501   4.390  16.665 -1.1736 -0.3771  0.7298
  629MPD2    H1 9318   4.307   4.423  17.047  2.5182  1.2026  2.9368
  629MPD2    H2 9319   4.695   4.574  17.007  0.4047 -3.1052  1.5761
  629MPD2    H3 9320   4.501   4.526  17.135  0.5431  1.6832 -0.5080
  629MPD2     N 9321   4.267   4.349  16.792  0.2108  0.6656 -0.7688
  629MPD2    H5 9322   4.271   4.313  16.697  0.6089 -1.7540  0.1543
  629MPD2    N1 9323   4.712   4.544  16.744 -0.4294  0.7519  0.2421
  629MPD2    H7 9324   0.061   4.607  16.787  0.6263  0.8727 -1.5961
  630TMC3    C1 9325   0.143   4.560  16.567 -0.3760  0.3516  0.4359
  630TMC3    C2 9326   0.166   4.665  16.487 -0.4786  0.2810  0.1339
  630TMC3    C3 9327   0.296   4.691  16.448 -0.3062 -0.1366 -0.2929
  630TMC3    C4 9328   0.246   4.494  16.636 -0.2577 -0.7383  0.1826
  630TMC3    C5 9329   0.371   4.534  16.599  0.4605 -0.1614  0.2896
  630TMC3    C6 9330   0.393   4.624  16.507 -0.3742  0.0826 -0.8571
  630TMC3     C 9331   0.010   4.522  16.607 -0.1902 -0.0730 -0.0188
  630TMC3     O 9332   4.645   4.483  16.525  0.0778 -0.7944  0.4416
  630TMC3     H 9333   0.090   0.005  16.438  1.1770  1.6873 -0.7842
  630TMC3    H1 9334   0.220   4.422  16.712  0.9586  0.9647  2.2075
  630TMC3    H2 9335   0.494   4.636  16.468  0.5264 -2.0513  0.7997
  630TMC3    C7 9336   0.453   4.548  16.720  1.0869 -0.4835 -0.6284
  630TMC3    C8 9337   0.332   0.111  16.443  0.0531  0.2594 -0.2028
  630TMC3    O1 9338   0.418   4.479  16.818  0.0507 -0.4467 -0.0713
  630TMC3    O2 9339   0.432   0.138  16.509 -0.2812 -0.3031 -0.3994
  631MPD2     C 9340   3.028   4.066  15.527 -0.4539  0.0336  0.1921
  631MPD2    C1 9341   3.155   4.108  15.484 -0.2102  0.1557  0.0693
  631MPD2    C2 9342   3.262   4.025  15.511  0.5956 -0.1784  0.3824
  631MPD2    C3 9343   3.243   3.907  15.581  0.5020 -0.6704 -0.4013
  631MPD2    C4 9344   3.115   3.867  15.619  0.4166  0.2481 -0.2769
  631MPD2    C5 9345   3.014   3.953  15.592 -0.3362  0.6585  0.9437
  631MPD2     H 9346   3.359   4.048  15.469 -0.3813  0.0287 -1.7717
  631MPD2    H1 9347   3.096   3.780  15.681 -0.3019  2.7137  2.9777
  631MPD2    H2 9348   2.942   4.132  15.515  0.1587  0.5974 -1.1783
  631MPD2    H3 9349   2.915   3.929  15.628 -0.2248 -1.5302 -0.2389
  631MPD2     N 9350   3.355   3.834  15.622 -0.1003 -0.7212  0.1078
  631MPD2    H5 9351   3.448   3.855  15.586 -0.1897  1.6444  1.2584
  631MPD2    N1 9352   3.155   4.239  15.437 -0.2806 -0.7943  0.0123
  631MPD2    H7 9353   3.062   4.278  15.420  0.1320  0.4578  0.6244
  632TMC3    C1 9354   3.225   4.438  15.345 -0.2803  0.1693 -0.0944
  632TMC3    C2 9355   3.110   4.500  15.396 -0.1779 -0.9707  0.8636
  632TMC3    C3 9356   3.094   4.626  15.353 -0.1442  0.3003 -0.3827
  632TMC3    C4 9357   3.324   4.507  15.278  0.6640  0.2845 -0.1141
  632TMC3    C5 9358   3.294   4.630  15.237 -0.9040 -0.0195  0.7736
  632TMC3    C6 9359   3.179   4.693  15.268  0.8256  0.1390 -0.2086
  632TMC3     C 9360   3.263   4.309  15.389  0.4367 -0.3033  0.4346
  632TMC3     O 9361   3.377   4.274  15.390 -0.1990  0.0734  0.5435
  632TMC3     H 9362   3.036   4.454  15.460 -0.6177  1.1944  1.9112
  632TMC3    H1 9363   3.419   4.459  15.259  2.1423  3.5440 -0.8265
  632TMC3    H2 9364   3.170   0.083  15.262  0.1997  0.0615 -0.5454
  632TMC3    C7 9365   3.382   4.685  15.131  0.1768 -0.2298 -0.3708
  632TMC3    C8 9366   2.966   4.683  15.385  0.0626 -0.2006 -0.3279
  632TMC3    O1 9367   3.321   0.034  15.046  0.0529  0.2839  0.4169
  632TMC3    O2 9368   2.914   4.630  15.484  0.5711 -0.0443 -0.2941
  633MPD2     C 9369   2.992   2.925   0.035 -0.2922  0.5366  0.2040
  633MPD2    C1 9370   3.022   2.839  17.611  0.3278  0.9577  0.4460
  633MPD2    C2 9371   3.080   2.715  17.635 -0.5681  0.2983 -0.5087
  633MPD2    C3 9372   3.120   2.680   0.085  0.3419  0.4885  0.6174
  633MPD2    C4 9373   3.106   2.780   0.179  0.4001 -0.1829  0.3362
  633MPD2    C5 9374   3.048   2.904   0.156  0.0347 -0.6914 -0.3635
  633MPD2     H 9375   3.094   2.638  17.560 -1.0599  0.6977 -1.0045
  633MPD2    H1 9376   3.145   2.769   0.280 -1.0165 -3.2984  0.5459
  633MPD2    H2 9377   2.933   3.013   0.014 -1.4291 -0.7242 -1.8777
  633MPD2    H3 9378   3.027   2.972   0.237 -0.0700  0.5736 -1.4470
  633MPD2     N 9379   3.189   2.558   0.126 -0.4029 -0.1103 -0.1551
  633MPD2    H5 9380   3.192   2.537   0.225 -0.0740 -1.2301 -0.4007
  633MPD2    N1 9381   2.978   2.856  17.477 -0.2148  0.3224 -0.1294
  633MPD2    H7 9382   2.999   2.772  17.424 -1.2519  0.1865 -0.3224
  634TMC3    C1 9383   2.929   2.950  17.277  0.7311  0.1801  0.6195
  634TMC3    C2 9384   3.023   2.861  17.221 -0.7839  0.5910  0.7010
  634TMC3    C3 9385   3.027   2.862  17.085 -0.0015 -0.4372 -0.9264
  634TMC3    C4 9386   2.856   3.039  17.197  0.0214  0.1152 -0.0802
  634TMC3    C5 9387   2.871   3.028  17.061  0.5149  0.2156  0.1567
  634TMC3    C6 9388   2.950   2.932  17.003  0.0795 -0.0529 -0.7931
  634TMC3     C 9389   2.913   2.964  17.418  0.3006  0.1325  0.2555
  634TMC3     O 9390   2.843   3.052  17.463  0.1591  0.0988  0.1813
  634TMC3     H 9391   3.101   2.814  17.280 -0.4936  0.2186  0.0205
  634TMC3    H1 9392   2.794   3.115  17.243 -2.0219 -0.3435 -2.0824
  634TMC3    H2 9393   2.963   2.911  16.897 -1.8340 -1.9356 -0.6705
  634TMC3    C7 9394   2.810   3.119  16.968  0.8763 -0.0287 -0.5297
  634TMC3    C8 9395   3.117   2.758  17.028 -0.0300  0.0684 -0.7302
  634TMC3    O1 9396   2.855   3.114  16.855  0.3079 -0.0557 -0.0031
  634TMC3    O2 9397   3.147   2.662  17.098 -0.4464 -0.7086 -0.2952
  635TMC3    C1 9398   2.807   3.662   0.008  0.6602 -0.7285  0.1215
  635TMC3    C2 9399   2.856   3.733  17.573 -0.3328  0.0969  0.0395
  635TMC3    C3 9400   2.963   3.668  17.508 -0.7152  0.3614 -0.2439
  635TMC3    C4 9401   2.840   3.534   0.035 -0.1081 -0.8665 -0.5499
  635TMC3    C5 9402   2.947   3.480  17.635 -1.1824 -0.2695 -0.3343
  635TMC3    C6 9403   3.007   3.544  17.531 -0.1352 -0.1815  0.4977
  635TMC3     C 9404   2.727   3.736   0.099 -0.3235 -0.2713  0.1209
  635TMC3     O 9405   2.760   3.853   0.122 -0.1365 -0.5203  0.0360
  635TMC3     H 9406   2.824   3.835  17.555 -0.4334  0.0091 -0.2806
  635TMC3    H1 9407   2.803   3.481   0.122  1.4446 -0.8656  0.1047
  635TMC3    H2 9408   3.094   3.512  17.475 -0.7430  2.3239 -1.8851
  635TMC3    C7 9409   3.026   3.381   0.025  0.2054 -0.6744  0.0026
  635TMC3    C8 9410   3.024   3.724  17.392 -0.0403 -0.4141  0.2670
  635TMC3    O1 9411   3.006   3.367   0.145 -0.3361  0.2150  0.5551
  635TMC3    O2 9412   3.129   3.674  17.348  0.3866  0.4503  0.0525
  636MPD2     C 9413   4.156   2.726  15.784  0.0028 -0.2095 -0.5778
  636MPD2    C1 9414   4.115   2.723  15.917 -0.1579  0.4191  0.1395
  636MPD2    C2 9415   4.128   2.607  15.993 -0.4632  0.2836  0.8832
  636MPD2    C3 9416   4.165   2.488  15.937 -1.3376 -0.3196  0.2411
  636MPD2    C4 9417   4.207   2.491  15.808 -0.7335  0.0066 -0.7715
  636MPD2    C5 9418   4.212   2.607  15.736  0.3325 -0.5831  0.7522
  636MPD2     H 9419   4.080   2.608  16.091 -2.8341  0.2365 -0.2673
  636MPD2    H1 9420   4.233   2.402  15.752 -1.1302 -0.4618 -0.2094
  636MPD2    H2 9421   4.157   2.822  15.733 -1.3857  0.6120  0.9261
  636MPD2    H3 9422   4.255   2.603  15.637 -3.2724  1.3176 -0.8993
  636MPD2     N 9423   4.161   2.367  16.008 -0.3277 -0.8200  0.0684
  636MPD2    H5 9424   4.177   2.281  15.957 -0.0628  1.1004 -3.0640
  636MPD2    N1 9425   4.059   2.838  15.980 -0.0249 -0.9869  0.2569
  636MPD2    H7 9426   4.034   2.832  16.078  1.0157 -0.0442  0.5826
  637TMC3    C1 9427   4.140   2.207  16.180  0.0767  0.7515 -0.2671
  637TMC3    C2 9428   4.054   2.147  16.274  0.1462 -0.8455 -0.4670
  637TMC3    C3 9429   4.079   2.027  16.332  0.5481 -0.3246  0.0727
  637TMC3    C4 9430   4.258   2.142  16.155  0.2943  0.2036  0.5379
  637TMC3    C5 9431   4.276   2.017  16.209 -0.0389 -0.7432 -0.1020
  637TMC3    C6 9432   4.190   1.960  16.299 -0.2381  0.7001 -0.2777
  637TMC3     C 9433   4.127   2.339  16.140 -0.0538 -0.7570 -0.2514
  637TMC3     O 9434   4.067   2.420  16.215 -0.1178  0.1326  0.3028
  637TMC3     H 9435   3.962   2.195  16.302  1.7392  2.0752 -0.3032
  637TMC3    H1 9436   4.329   2.195  16.092 -0.2575  0.1076 -0.1656
  637TMC3    H2 9437   4.209   1.862  16.341  0.2141  1.9649  2.5271
  637TMC3    C7 9438   4.413   1.997  16.252 -0.8015  0.6643 -0.6286
  637TMC3    C8 9439   4.076   2.047  16.478  0.4907  0.4798  0.3579
  637TMC3    O1 9440   4.417   1.952  16.367 -0.6200 -0.0016 -0.2194
  637TMC3    O2 9441   3.978   2.105  16.523 -0.0831  0.1093  0.5720
  638MPD2     C 9442   4.008   1.657  15.327  0.9448 -0.9838 -0.6793
  638MPD2    C1 9443   3.967   1.560  15.245 -0.2845 -0.7536  0.8451
  638MPD2    C2 9444   3.921   1.442  15.295  0.1300  0.7202  0.6973
  638MPD2    C3 9445   3.933   1.414  15.429 -0.0317  0.1890  0.4218
  638MPD2    C4 9446   3.969   1.515  15.513 -0.2660  0.6173 -0.3833
  638MPD2    C5 9447   4.004   1.636  15.464 -0.3653 -0.5584  0.2332
  638MPD2     H 9448   3.883   1.365  15.229  0.7279 -1.6087  3.0709
  638MPD2    H1 9449   3.977   1.507  15.621 -2.3253  0.4324 -0.2591
  638MPD2    H2 9450   4.061   1.742  15.286  0.3581 -0.8652 -1.1988
  638MPD2    H3 9451   4.039   1.717  15.526  2.2358 -0.1531 -1.7576
  638MPD2     N 9452   3.918   1.280  15.477  0.0861 -0.2796  0.4171
  638MPD2    H5 9453   3.892   1.219  15.400 -1.0854  1.6660 -0.7474
  638MPD2    N1 9454   3.987   1.580  15.103 -0.1132 -0.2307  0.0922
  638MPD2    H7 9455   4.013   1.676  15.081  1.9709 -0.4996  1.3379
  639TMC3    C1 9456   3.940   1.086  15.600 -0.2888 -0.4902  0.2599
  639TMC3    C2 9457   3.850   1.030  15.514 -0.1794  0.4356 -0.1162
  639TMC3    C3 9458   3.874   0.901  15.464  0.1203  0.0385  0.1084
  639TMC3    C4 9459   4.062   1.033  15.629  0.1414 -0.3102  0.1933
  639TMC3    C5 9460   4.086   0.909  15.584 -0.9989  0.1261  0.4589
  639TMC3    C6 9461   3.998   0.852  15.491  0.7877  0.4810  0.2392
  639TMC3     C 9462   3.943   1.229  15.602  0.3989  0.1704 -0.1138
  639TMC3     O 9463   3.983   1.287  15.705  0.2443  0.5310 -0.3147
  639TMC3     H 9464   3.759   1.084  15.490  0.3755  0.5084 -2.0766
  639TMC3    H1 9465   4.136   1.097  15.676 -0.1895 -1.7302  2.6378
  639TMC3    H2 9466   4.022   0.757  15.445 -0.2117  0.6265 -0.5983
  639TMC3    C7 9467   4.215   0.848  15.588  0.6987  0.3891 -0.3762
  639TMC3    C8 9468   3.797   0.842  15.350 -0.0922  0.4955  0.3635
  639TMC3    O1 9469   4.207   0.727  15.575 -0.2191  0.4926 -0.1629
  639TMC3    O2 9470   3.857   0.796  15.254  0.0387  0.4289 -0.3751
  640MPD2     C 9471   0.639   4.037  10.480 -0.4755 -0.0384  0.2260
  640MPD2    C1 9472   0.619   4.136  10.387  0.4458 -0.7564  0.3360
  640MPD2    C2 9473   0.493   4.160  10.341  0.3052 -0.5208 -0.4970
  640MPD2    C3 9474   0.390   4.078  10.378 -0.1642  0.0710  0.1455
  640MPD2    C4 9475   0.406   3.988  10.474 -0.9269  0.1437 -0.2247
  640MPD2    C5 9476   0.527   3.973  10.535 -0.2330 -0.0514 -0.3224
  640MPD2     H 9477   0.486   4.215  10.248  0.1863 -1.5544 -1.0936
  640MPD2    H1 9478   0.322   3.926  10.503 -0.6602 -0.7239 -1.2803
  640MPD2    H2 9479   0.733   4.004  10.523 -0.3538  0.0788  0.0549
  640MPD2    H3 9480   0.543   3.903  10.616  0.2258  0.2964 -0.1132
  640MPD2     N 9481   0.264   4.083  10.312 -1.2428  0.3089  0.2233
  640MPD2    H5 9482   0.206   4.002  10.330 -0.4339 -0.1034  0.9951
  640MPD2    N1 9483   0.732   4.185  10.314  0.3090 -0.1218  0.5901
  640MPD2    H7 9484   0.819   4.143  10.344 -0.2142 -0.7836  1.2078
  641TMC3    C1 9485   0.851   4.281  10.127 -0.1099  0.1150 -0.1726
  641TMC3    C2 9486   0.932   4.172  10.129 -0.3809  0.2733  0.6692
  641TMC3    C3 9487   1.034   4.168  10.043 -0.2758 -0.3468  0.1407
  641TMC3    C4 9488   0.858   4.375  10.022  0.2391  0.3379  0.1038
  641TMC3    C5 9489   0.967   4.364   9.935  0.4202 -0.7761  0.3635
  641TMC3    C6 9490   1.054   4.260   9.950 -0.3477 -0.0914  1.0302
  641TMC3     C 9491   0.737   4.288  10.215 -0.0186 -0.3185 -0.3772
  641TMC3     O 9492   0.654   4.365  10.185  0.0219  0.1394 -0.0124
  641TMC3     H 9493   0.919   4.097  10.206 -0.6195  0.1886  0.5462
  641TMC3    H1 9494   0.774   4.443  10.014 -0.0128  0.1363  0.9849
  641TMC3    H2 9495   1.131   4.243   9.875 -0.8121 -0.2701  0.5973
  641TMC3    C7 9496   1.012   4.466   9.841 -0.3047 -0.0641  0.0281
  641TMC3    C8 9497   1.120   4.051  10.046  0.1449 -0.7437  0.2778
  641TMC3    O1 9498   1.133   4.469   9.822  0.3720  0.3154 -0.5719
  641TMC3    O2 9499   1.194   4.029   9.950  0.6961  0.0733 -0.3459
  642TMC3    C1 9500   1.078   1.289  12.246 -0.0455  0.6710  0.0684
  642TMC3    C2 9501   1.207   1.291  12.218 -0.1353 -0.0804 -0.2914
  642TMC3    C3 9502   1.270   1.178  12.170 -0.0919 -0.2833  0.3986
  642TMC3    C4 9503   1.006   1.169  12.231 -0.1687 -0.4918 -0.8464
  642TMC3    C5 9504   1.066   1.066  12.173 -0.3201  0.4782 -0.1904
  642TMC3    C6 9505   1.203   1.065  12.135  0.6896 -0.4115 -0.1380
  642TMC3     C 9506   1.028   1.413  12.299 -0.0757 -0.5031 -0.2379
  642TMC3     O 9507   1.080   1.521  12.273  0.1527 -0.2929  0.4814
  642TMC3     H 9508   1.268   1.376  12.248  1.3421 -0.5346 -2.0776
  642TMC3    H1 9509   0.907   1.162  12.274 -0.7207 -2.3711 -2.4074
  642TMC3    H2 9510   1.239   0.973  12.090  0.7516  0.1992 -1.3574
  642TMC3    C7 9511   0.992   0.949  12.153 -0.2611 -0.9048  0.8242
  642TMC3    C8 9512   1.406   1.178  12.133 -0.9176  0.6829 -0.2344
  642TMC3    O1 9513   0.901   0.959  12.069 -0.4179  0.4909  0.0706
  642TMC3    O2 9514   1.459   1.066  12.127 -0.3964  0.1376  0.0366
  643TMC3    C1 9515   0.342   0.989   0.899  0.4830  0.0287  0.6383
  643TMC3    C2 9516   0.207   1.000   0.908  0.1141 -0.3607 -0.5147
  643TMC3    C3 9517   0.123   0.944   0.815  0.5774 -0.3937  0.4879
  643TMC3    C4 9518   0.400   0.929   0.789  0.0669 -0.5266 -0.1580
  643TMC3    C5 9519   0.322   0.853   0.702 -0.4550 -0.0485  0.2084
  643TMC3    C6 9520   0.181   0.860   0.717  0.2435 -0.7715  0.0649
  643TMC3     C 9521   0.417   1.080   0.976  0.2971 -0.3722  0.5776
  643TMC3     O 9522   0.354   1.182   1.001 -0.3971 -0.5374 -0.0541
  643TMC3     H 9523   0.154   1.047   0.990 -0.8440 -0.9729 -0.7839
  643TMC3    H1 9524   0.507   0.917   0.776  0.2642  1.9740 -0.8013
  643TMC3    H2 9525   0.123   0.820   0.635 -1.2292 -0.8584  1.1553
  643TMC3    C7 9526   0.371   0.850   0.567  0.0890  0.7950 -0.4713
  643TMC3    C8 9527   0.034   1.041   0.756  0.9741 -0.0609 -0.0686
  643TMC3    O1 9528   0.453   0.937   0.533 -0.7972 -0.8025 -0.3611
  643TMC3    O2 9529   4.690   0.995   0.658 -0.8594  0.7353  0.3725
  644MPD2     C 9530   0.890   0.663  10.249  0.2222 -0.4731 -0.3035
  644MPD2    C1 9531   0.966   0.677  10.135 -0.3810 -0.5013 -0.6330
  644MPD2    C2 9532   0.974   0.804  10.073  0.7874  0.2388 -0.0534
  644MPD2    C3 9533   0.902   0.915  10.113 -0.2115 -0.1027 -0.2023
  644MPD2    C4 9534   0.817   0.901  10.219 -0.3371  1.2285  0.2828
  644MPD2    C5 9535   0.821   0.774  10.287 -0.0903 -0.3286 -0.2486
  644MPD2     H 9536   1.034   0.802   9.983  1.6844  3.7247  0.4823
  644MPD2    H1 9537   0.749   0.979  10.251 -1.9841 -0.7743  1.6687
  644MPD2    H2 9538   0.882   0.566  10.296 -3.5276 -0.3350 -0.6538
  644MPD2    H3 9539   0.757   0.766  10.374 -0.0633 -1.4028 -0.3213
  644MPD2     N 9540   0.914   1.031  10.034  0.6676 -0.0497  0.5545
  644MPD2    H5 9541   0.993   1.030   9.970 -0.4208  0.9395 -0.8084
  644MPD2    N1 9542   1.038   0.560  10.092  0.6693  0.4827  0.4458
  644MPD2    H7 9543   1.022   0.480  10.151 -1.3919  0.4140 -0.2176
  645TMC3    C1 9544   0.885   1.256   9.966 -0.7802 -0.5157  0.7358
  645TMC3    C2 9545   0.836   1.377  10.009  0.3193  1.0335  0.6585
  645TMC3    C3 9546   0.863   1.481   9.921  0.3335  0.2299  0.1888
  645TMC3    C4 9547   0.947   1.231   9.848 -1.4267  0.1410  0.2292
  645TMC3    C5 9548   0.966   1.337   9.766 -0.0340 -0.9076 -0.5040
  645TMC3    C6 9549   0.928   1.467   9.798  1.2525 -0.3227 -0.1546
  645TMC3     C 9550   0.840   1.146  10.049 -0.2172  0.6067 -0.5419
  645TMC3     O 9551   0.746   1.168  10.125 -0.3673 -0.3793 -0.3641
  645TMC3     H 9552   0.793   1.388  10.108  0.2499 -0.2455  0.7661
  645TMC3    H1 9553   0.935   1.131   9.809 -1.5364 -0.0397  0.7195
  645TMC3    H2 9554   0.945   1.559   9.743 -1.2734 -0.4881 -1.1674
  645TMC3    C7 9555   1.048   1.315   9.645 -0.0109  0.9504  0.0955
  645TMC3    C8 9556   0.825   1.618   9.961  0.5513  0.5671 -0.7223
  645TMC3    O1 9557   1.045   1.409   9.565 -0.7367  0.2227  0.3929
  645TMC3    O2 9558   0.884   1.712   9.912  0.2522 -0.6697 -0.8254
  646MPD2     C 9559   4.198   0.094  15.013  0.1376 -0.4732  0.1098
  646MPD2    C1 9560   4.091   0.138  15.100 -0.1107 -0.3663 -0.4933
  646MPD2    C2 9561   3.985   0.215  15.048  0.2443 -0.9231 -0.0954
  646MPD2    C3 9562   3.983   0.241  14.911 -0.4475  0.1700  0.6118
  646MPD2    C4 9563   4.084   0.190  14.831 -0.0024  0.4854  0.1312
  646MPD2    C5 9564   4.189   0.113  14.878 -0.3389  0.6811 -0.3641
  646MPD2     H 9565   3.902   0.240  15.113 -0.7118 -0.8296 -1.3462
  646MPD2    H1 9566   4.079   0.201  14.723 -0.0684  1.2668  0.2103
  646MPD2    H2 9567   4.282   0.034  15.046 -0.4329 -0.2240  2.0029
  646MPD2    H3 9568   4.256   0.062  14.810 -0.5437  0.0828 -0.1124
  646MPD2     N 9569   3.874   0.317  14.854 -0.5700 -0.3231  0.4067
  646MPD2    H5 9570   3.802   0.343  14.920 -0.8672  0.3697 -0.2015
  646MPD2    N1 9571   4.105   0.112  15.238 -0.3895  0.8324 -0.5120
  646MPD2    H7 9572   4.190   0.062  15.261 -1.3100  0.1793  1.4208
  647TMC3    C1 9573   4.085   0.109  15.464 -0.0043  0.4565  0.1294
  647TMC3    C2 9574   4.023   0.027  15.555 -0.2236 -0.1499  0.0128
  647TMC3    C3 9575   4.089   0.001  15.670 -0.0875  0.6280  0.6649
  647TMC3    C4 9576   4.215   0.155  15.482 -0.1319  0.5063  0.5795
  647TMC3    C5 9577   4.278   0.107  15.582 -0.0015 -0.2793  0.2008
  647TMC3    C6 9578   4.225   0.029  15.676 -0.8192  0.3026 -0.2530
  647TMC3     C 9579   4.018   0.131  15.341  0.5415  0.0999  0.9330
  647TMC3     O 9580   3.904   0.163  15.333  0.6507 -0.4393 -0.4667
  647TMC3     H 9581   3.928   4.697  15.536  1.0150 -2.4584 -0.2169
  647TMC3    H1 9582   4.268   0.212  15.407  0.6910 -1.6126 -0.4267
  647TMC3    H2 9583   4.283   0.009  15.765 -0.1380  4.1731  0.1467
  647TMC3    C7 9584   4.420   0.120  15.584 -0.4970  0.4568  0.0426
  647TMC3    C8 9585   4.078   4.579  15.713  0.1694  0.2207  0.2852
  647TMC3    O1 9586   4.484   0.018  15.575  0.6744  0.5494 -0.4769
  647TMC3    O2 9587   4.186   4.521  15.727 -0.0143 -0.1986  0.0343
  648TMC3    C1 9588   3.492   2.671  16.395 -0.5280  0.9436  0.0121
  648TMC3    C2 9589   3.548   2.552  16.361  0.7230 -0.9852  0.2280
  648TMC3    C3 9590   3.500   2.483  16.252 -0.4997  0.5512  0.4607
  648TMC3    C4 9591   3.393   2.727  16.319 -0.1838 -0.3577 -0.1879
  648TMC3    C5 9592   3.351   2.659  16.208  0.0947  0.1125  0.1896
  648TMC3    C6 9593   3.396   2.535  16.176 -0.3623 -0.4948 -0.2831
  648TMC3     C 9594   3.530   2.751  16.514  0.5974  0.3795 -0.4091
  648TMC3     O 9595   3.514   2.873  16.510  0.0002  0.3620 -0.0749
  648TMC3     H 9596   3.628   2.512  16.422  1.2163 -2.0072 -1.0764
  648TMC3    H1 9597   3.358   2.827  16.344  3.0646  1.2125 -1.9120
  648TMC3    H2 9598   3.368   2.486  16.083 -1.1862  0.3676 -0.4849
  648TMC3    C7 9599   3.273   2.726  16.101  0.3241 -0.9943  0.8944
  648TMC3    C8 9600   3.532   2.354  16.217 -0.2106 -0.2447 -0.4217
  648TMC3    O1 9601   3.267   2.665  15.994 -0.0022 -0.5220  0.1798
  648TMC3    O2 9602   3.521   2.316  16.099  0.3977 -0.0194  0.5201
  649TMC3    C1 9603   2.614   3.680  12.997 -0.1976  0.7003  0.1054
  649TMC3    C2 9604   2.744   3.645  12.964 -0.3033 -0.0077 -0.3690
  649TMC3    C3 9605   2.813   3.593  13.072  0.3009  0.1191 -0.0547
  649TMC3    C4 9606   2.560   3.668  13.124  0.9592  0.2861  0.3524
  649TMC3    C5 9607   2.632   3.610  13.223  0.3561 -0.8542  0.0461
  649TMC3    C6 9608   2.762   3.575  13.202 -0.1058 -0.1579 -0.4566
  649TMC3     C 9609   2.521   3.718  12.890 -0.2256  0.1278  0.1534
  649TMC3     O 9610   2.401   3.718  12.914 -0.0103 -0.3198  0.0887
  649TMC3     H 9611   2.775   3.630  12.861  1.6090  2.4956 -0.1715
  649TMC3    H1 9612   2.453   3.680  13.137  0.8951 -1.4201  1.2344
  649TMC3    H2 9613   2.829   3.552  13.284  1.1612  1.9381 -0.9082
  649TMC3    C7 9614   2.559   3.560  13.338 -0.1780 -0.3290  0.2968
  649TMC3    C8 9615   2.957   3.576  13.061  0.4716 -0.2931 -0.6236
  649TMC3    O1 9616   2.491   3.641  13.399  0.4697  0.2899  0.2800
  649TMC3    O2 9617   2.998   3.506  13.154 -0.1992 -0.2318  0.6871
  650TMC3    C1 9618   0.668   0.244  12.794 -0.1405  0.2632  0.4935
  650TMC3    C2 9619   0.672   0.361  12.863 -0.3405  0.5801  0.3736
  650TMC3    C3 9620   0.657   0.479  12.787  0.1984 -0.5623  0.1368
  650TMC3    C4 9621   0.661   0.241  12.658  0.0073 -0.4041  0.8415
  650TMC3    C5 9622   0.646   0.356  12.586 -0.2759  0.4487 -0.5046
  650TMC3    C6 9623   0.645   0.478  12.650  0.1993  0.1492  0.2978
  650TMC3     C 9624   0.705   0.126  12.872  0.2574  0.5969  0.3786
  650TMC3     O 9625   0.738   0.139  12.985 -0.0963 -0.9808  0.8833
  650TMC3     H 9626   0.683   0.356  12.970 -0.4265 -1.6878  0.2702
  650TMC3    H1 9627   0.657   0.146  12.607 -1.2746 -0.4742  1.0746
  650TMC3    H2 9628   0.630   0.569  12.593  0.1095  0.2904  0.5444
  650TMC3    C7 9629   0.541   0.344  12.478 -0.3260 -0.0783  0.0453
  650TMC3    C8 9630   0.589   0.591  12.845 -0.8234  0.9632  0.1801
  650TMC3    O1 9631   0.538   0.247  12.408 -0.4272  0.3361  0.4011
  650TMC3    O2 9632   0.600   0.691  12.772 -0.2395  0.1693 -0.1131
  651MPD2     C 9633   4.193   1.784  10.758 -0.3742 -0.2605 -0.2322
  651MPD2    C1 9634   4.146   1.912  10.776 -0.0143 -0.0429  0.6190
  651MPD2    C2 9635   4.237   2.016  10.773 -0.2073  0.7648 -0.4407
  651MPD2    C3 9636   4.364   1.989  10.768  0.0546 -0.1339  0.6345
  651MPD2    C4 9637   4.412   1.865  10.738  0.1769  0.1427 -1.2406
  651MPD2    C5 9638   4.321   1.761  10.731  0.5968  0.3029 -0.1128
  651MPD2     H 9639   4.202   2.114  10.802  0.0424  0.9203 -0.6604
  651MPD2    H1 9640   4.518   1.845  10.727  0.5210  0.3310  1.6511
  651MPD2    H2 9641   4.136   1.692  10.759 -0.5058 -0.1557  1.3050
  651MPD2    H3 9642   4.354   1.659  10.718  0.9125  0.3335  0.4388
  651MPD2     N 9643   4.449   2.100  10.783 -0.0037  0.3547 -0.3057
  651MPD2    H5 9644   4.408   2.193  10.791 -1.0930  0.0797 -2.6538
  651MPD2    N1 9645   4.015   1.947  10.812  0.3034 -0.2202  0.2405
  651MPD2    H7 9646   3.999   2.047  10.818  1.6352  0.0541 -0.9096
  652TMC3    C1 9647   0.121   2.356  10.863 -0.3804 -0.0254  0.0477
  652TMC3    C2 9648   0.056   2.234  10.869 -0.0342 -0.0831  0.3516
  652TMC3    C3 9649   4.649   2.226  10.820  0.0672 -0.3495 -0.1137
  652TMC3    C4 9650   0.079   2.464  10.789  0.4108  1.0136 -0.2941
  652TMC3    C5 9651   4.671   2.448  10.738  0.8663 -0.3410  0.0143
  652TMC3    C6 9652   4.592   2.333  10.754  0.6262 -0.1361 -0.6026
  652TMC3     C 9653   0.264   2.355  10.907  0.0716  0.2376  0.2081
  652TMC3     O 9654   0.299   2.255  10.964  0.0192 -0.0903  0.4594
  652TMC3     H 9655   0.096   2.153  10.927  1.8674  0.2223 -0.5411
  652TMC3    H1 9656   0.129   2.561  10.789  1.5103  0.4391 -2.3767
  652TMC3    H2 9657   4.498   2.328  10.700 -0.5670 -0.7224  1.5232
  652TMC3    C7 9658   4.618   2.560  10.666 -0.1038 -0.4032  0.6370
  652TMC3    C8 9659   4.582   2.091  10.814  0.0761 -0.5438 -0.4990
  652TMC3    O1 9660   4.672   2.670  10.690  0.3535 -0.2820 -0.4678
  652TMC3    O2 9661   4.652   1.997  10.853  0.4832  0.5311  0.4981
  653MPD2     C 9662   2.766   2.615   0.027 -0.0796  0.5539 -0.2564
  653MPD2    C1 9663   2.654   2.683  17.655 -0.2494  0.5486 -0.4193
  653MPD2    C2 9664   2.564   2.616  17.574  0.0711  0.5418 -0.6020
  653MPD2    C3 9665   2.585   2.483  17.531 -0.1632 -0.2651  0.1071
  653MPD2    C4 9666   2.701   2.425  17.579 -0.0704 -0.2013  0.2952
  653MPD2    C5 9667   2.789   2.487  17.662  0.0436  0.2996 -0.0242
  653MPD2     H 9668   2.460   2.647  17.576  0.0346  0.4697 -1.3865
  653MPD2    H1 9669   2.732   2.322  17.566  1.3889  0.1383  1.0550
  653MPD2    H2 9670   2.842   2.655   0.092  1.5847 -1.3326 -1.0499
  653MPD2    H3 9671   2.863   2.424   0.035  0.6763 -0.1546 -1.5995
  653MPD2     N 9672   2.480   2.423  17.460  0.2922 -0.0808 -0.2038
  653MPD2    H5 9673   2.402   2.486  17.446  0.7294  0.2825 -1.0229
  653MPD2    N1 9674   2.619   2.809   0.031  0.0808  0.1056  0.8584
  653MPD2    H7 9675   2.557   2.868  17.652  0.3011  1.1066  1.6822
  654TMC3    C1 9676   2.366   2.269  17.338 -0.0925  0.3497  0.5039
  654TMC3    C2 9677   2.318   2.363  17.253 -0.3722 -0.2290  0.2161
  654TMC3    C3 9678   2.223   2.324  17.166  0.1170  0.6380 -0.5449
  654TMC3    C4 9679   2.321   2.144  17.337 -0.1865 -0.4507 -0.3622
  654TMC3    C5 9680   2.252   2.104  17.225 -0.0218  0.0331  0.1118
  654TMC3    C6 9681   2.186   2.198  17.146  0.1697  0.5832 -0.3517
  654TMC3     C 9682   2.483   2.294  17.420  0.0110 -0.1027  0.3825
  654TMC3     O 9683   2.555   2.198  17.453 -0.0037 -0.0948  0.0108
  654TMC3     H 9684   2.363   2.459  17.235  0.4961 -0.6957 -0.0886
  654TMC3    H1 9685   2.360   2.071  17.407  0.6476  1.3994  1.0911
  654TMC3    H2 9686   2.107   2.169  17.078 -0.8091  1.3014  0.4918
  654TMC3    C7 9687   2.190   1.970  17.231  0.3512 -0.7243 -0.0171
  654TMC3    C8 9688   2.147   2.424  17.096  0.6925  0.5299  0.6703
  654TMC3    O1 9689   2.094   1.951  17.160 -0.0652 -0.5342  0.0781
  654TMC3    O2 9690   2.160   2.540  17.143 -0.3030 -0.1761  0.9509
  655MPD2     C 9691   3.740   2.580  16.025  0.0245 -0.5186 -0.0104
  655MPD2    C1 9692   3.741   2.669  15.926  0.2822  0.5013 -0.8126
  655MPD2    C2 9693   3.808   2.633  15.807  0.0523  0.1322  0.3650
  655MPD2    C3 9694   3.857   2.507  15.782  0.1446  0.3569  0.0181
  655MPD2    C4 9695   3.845   2.408  15.878 -0.2695  0.3352 -0.1479
  655MPD2    C5 9696   3.786   2.451  15.996 -0.3784 -0.1884  0.0346
  655MPD2     H 9697   3.835   2.717  15.743  0.6178 -0.3115  0.0210
  655MPD2    H1 9698   3.894   2.312  15.870  1.3118  0.9702  2.0368
  655MPD2    H2 9699   3.686   2.600  16.117  0.3928  1.1285 -0.1532
  655MPD2    H3 9700   3.778   2.370  16.068 -0.0252 -0.5099 -0.2833
  655MPD2     N 9701   3.903   2.473  15.653  0.2606  0.1935  0.1676
  655MPD2    H5 9702   3.957   2.388  15.642 -0.5219  0.0351 -2.4146
  655MPD2    N1 9703   3.673   2.793  15.925 -0.4957  0.4163  0.0008
  655MPD2    H7 9704   3.658   2.835  15.834 -1.8076  0.0660  0.0470
  656TMC3    C1 9705   3.546   2.972  16.022 -0.0470  0.5554  0.2064
  656TMC3    C2 9706   3.500   3.021  16.134 -0.2975 -0.5140 -0.3156
  656TMC3    C3 9707   3.401   3.113  16.126  0.3820 -0.1022  0.2951
  656TMC3    C4 9708   3.496   3.006  15.904 -0.7837 -0.0493  0.1411
  656TMC3    C5 9709   3.394   3.090  15.899  0.5299 -0.9440  0.5434
  656TMC3    C6 9710   3.342   3.152  16.011 -0.0717  0.1083  0.7902
  656TMC3     C 9711   3.639   2.854  16.044 -0.0549  1.2106  0.2752
  656TMC3     O 9712   3.673   2.834  16.161  0.0892  0.2665 -0.0025
  656TMC3     H 9713   3.542   3.001  16.232  0.6613 -0.1316 -0.6444
  656TMC3    H1 9714   3.539   2.963  15.814  1.8872  2.7844  0.0363
  656TMC3    H2 9715   3.256   3.218  16.014  0.2549  0.5974 -0.4636
  656TMC3    C7 9716   3.307   3.076  15.783  0.9522 -0.4810  0.1495
  656TMC3    C8 9717   3.334   3.140  16.257 -0.4398 -0.0706  0.7066
  656TMC3    O1 9718   3.356   3.013  15.687 -0.4168 -0.2115 -0.5784
  656TMC3    O2 9719   3.356   3.053  16.344  0.4162 -0.3628 -0.0211
  657TMC3    C1 9720   2.782   1.820  15.469 -0.3211 -0.8398 -0.9674
  657TMC3    C2 9721   2.842   1.827  15.596  0.3506  0.3400 -0.4172
  657TMC3    C3 9722   2.797   1.921  15.687  0.3360  0.1094 -0.0878
  657TMC3    C4 9723   2.659   1.884  15.445  0.8924 -0.6710 -0.3071
  657TMC3    C5 9724   2.617   1.969  15.543 -0.3053 -0.2881 -0.7675
  657TMC3    C6 9725   2.693   1.997  15.655  0.0916 -0.1003 -0.6215
  657TMC3     C 9726   2.830   1.746  15.365 -0.0284  0.8668 -0.0491
  657TMC3     O 9727   2.746   1.708  15.279  0.8956 -0.2057  0.9089
  657TMC3     H 9728   2.923   1.757  15.615  0.1121  0.2350  0.2001
  657TMC3    H1 9729   2.603   1.862  15.354  0.6052 -1.8425  0.1461
  657TMC3    H2 9730   2.653   2.062  15.732 -0.4415 -3.1720  1.7074
  657TMC3    C7 9731   2.503   2.049  15.500 -0.0768 -0.5795 -0.4646
  657TMC3    C8 9732   2.874   1.943  15.806 -0.2696  0.0915  0.2668
  657TMC3    O1 9733   2.437   1.994  15.412  0.1605  0.2183 -0.3982
  657TMC3    O2 9734   2.867   2.056  15.859 -0.2687  0.1174  0.8759
  658MPD2     C 9735   4.298   2.452  15.023 -0.1382  0.6193 -0.3312
  658MPD2    C1 9736   4.201   2.354  15.014  0.6918 -0.6978  0.1120
  658MPD2    C2 9737   4.145   2.334  14.891  0.1943  0.3957  0.2037
  658MPD2    C3 9738   4.188   2.403  14.776  1.1259 -1.3846 -0.5131
  658MPD2    C4 9739   4.291   2.493  14.784 -1.1391  0.9805 -1.0613
  658MPD2    C5 9740   4.337   2.521  14.909 -0.1736  0.3416 -0.4382
  658MPD2     H 9741   4.056   2.275  14.877 -1.0963  2.5627 -0.8063
  658MPD2    H1 9742   4.327   2.566  14.713 -2.3301  1.9075 -0.7108
  658MPD2    H2 9743   4.335   2.474  15.122 -0.8635  1.6820 -0.2895
  658MPD2    H3 9744   4.406   2.602  14.932 -1.1407  1.6769 -2.1841
  658MPD2     N 9745   4.094   2.403  14.667 -0.2362 -0.1810  0.4894
  658MPD2    H5 9746   4.013   2.343  14.681 -0.5618  0.1692  0.0997
  658MPD2    N1 9747   4.135   2.295  15.122  0.0140  0.0440  0.2185
  658MPD2    H7 9748   4.041   2.266  15.096 -0.0465  0.7696 -0.3731
  659TMC3    C1 9749   4.022   2.306  15.318 -0.2049  0.4864  1.1262
  659TMC3    C2 9750   4.007   2.388  15.425  0.6071  0.0056  0.0721
  659TMC3    C3 9751   3.906   2.476  15.417  0.5034  0.9039  0.9666
  659TMC3    C4 9752   3.909   2.282  15.236  0.4312 -0.3457  0.3400
  659TMC3    C5 9753   3.806   2.371  15.239 -0.0670 -0.2822  0.1121
  659TMC3    C6 9754   3.807   2.481  15.317  0.0666 -0.9344 -0.5742
  659TMC3     C 9755   4.148   2.325  15.256  0.2848 -0.2754 -0.3575
  659TMC3     O 9756   4.240   2.376  15.322 -0.0748 -0.6022  0.5857
  659TMC3     H 9757   4.084   2.405  15.500  0.0050 -0.6878  0.8532
  659TMC3    H1 9758   3.907   2.201  15.164 -1.2162 -0.6712  0.7430
  659TMC3    H2 9759   3.715   2.532  15.341  0.3832 -0.2723 -0.7642
  659TMC3    C7 9760   3.678   2.333  15.181 -0.1351  0.1811  0.2477
  659TMC3    C8 9761   3.884   2.550  15.539  0.2904 -0.6034  0.2352
  659TMC3    O1 9762   3.627   2.225  15.213 -0.2375  0.1644 -0.3827
  659TMC3    O2 9763   3.816   2.649  15.522  0.1892 -0.1772 -0.6761
  660MPD2     C 9764   2.229   1.435  12.306  1.2619  0.6025  0.3716
  660MPD2    C1 9765   2.153   1.540  12.340 -0.0969 -0.3002 -0.9338
  660MPD2    C2 9766   2.102   1.547  12.472 -0.0481  0.2638 -0.2097
  660MPD2    C3 9767   2.124   1.445  12.565  0.6180 -0.2157  0.1039
  660MPD2    C4 9768   2.210   1.340  12.528 -0.1210 -0.1824 -0.8283
  660MPD2    C5 9769   2.257   1.339  12.399 -0.0642 -0.2821  0.4570
  660MPD2     H 9770   2.051   1.635  12.508  0.7744  0.3214  0.8019
  660MPD2    H1 9771   2.235   1.257  12.593 -1.6218  0.0426  0.0366
  660MPD2    H2 9772   2.267   1.419  12.206 -0.2144  0.6423 -0.1959
  660MPD2    H3 9773   2.318   1.255  12.371 -1.9028 -1.3486 -0.3707
  660MPD2     N 9774   2.073   1.446  12.703 -0.1324 -0.2962 -0.3710
  660MPD2    H5 9775   2.103   1.369  12.762 -0.4558  1.2758  1.8424
  660MPD2    N1 9776   2.117   1.634  12.238 -0.1595  0.1517  0.2582
  660MPD2    H7 9777   2.139   1.602  12.144 -0.3611  2.4057 -0.5827
  661TMC3    C1 9778   2.020   1.825  12.149  0.3274  0.1846  0.1718
  661TMC3    C2 9779   2.075   1.816  12.027  0.0082  1.0340 -0.2967
  661TMC3    C3 9780   2.007   1.864  11.914  0.0875  0.7225  0.8855
  661TMC3    C4 9781   1.900   1.883  12.164  0.1416  0.0140 -0.1824
  661TMC3    C5 9782   1.838   1.927  12.054 -0.4107 -0.4913  0.8116
  661TMC3    C6 9783   1.880   1.922  11.928 -0.4009  0.5398 -0.1396
  661TMC3     C 9784   2.054   1.755  12.270  0.1206  0.1659 -0.4236
  661TMC3     O 9785   2.027   1.810  12.377 -0.0737 -0.2127  0.5671
  661TMC3     H 9786   2.174   1.777  12.003  0.0911 -0.5877  2.7010
  661TMC3    H1 9787   1.846   1.885  12.259  0.0164 -1.2956 -0.2249
  661TMC3    H2 9788   1.828   1.973  11.847  0.2529  2.8956  0.9460
  661TMC3    C7 9789   1.692   1.913  12.058 -0.4005 -0.5439  0.5389
  661TMC3    C8 9790   2.084   1.860  11.792  0.3251 -0.5507  0.1264
  661TMC3    O1 9791   1.632   1.977  12.142  0.2062  0.4206 -0.7781
  661TMC3    O2 9792   2.205   1.864  11.800  0.1037 -0.1677  0.4610
  662MPD2     C 9793   1.665   1.446   0.042 -0.1112 -0.2603  0.2052
  662MPD2    C1 9794   1.743   1.377   0.134  0.4819 -0.1331 -0.3145
  662MPD2    C2 9795   1.811   1.437   0.238  0.4510  0.7543  0.1768
  662MPD2    C3 9796   1.801   1.576   0.243 -0.5580 -0.4739  0.5388
  662MPD2    C4 9797   1.721   1.639   0.150  0.4886  0.3068 -0.2195
  662MPD2    C5 9798   1.657   1.581   0.048 -0.5437 -0.6340 -0.3014
  662MPD2     H 9799   1.859   1.371   0.309 -0.2115 -2.0154 -1.9349
  662MPD2    H1 9800   1.714   1.747   0.151 -0.8549  0.2822 -3.7562
  662MPD2    H2 9801   1.614   1.392  17.639  1.1601 -3.2616  1.4263
  662MPD2    H3 9802   1.623   1.645  17.643 -1.7836 -0.9751 -0.0397
  662MPD2     N 9803   1.863   1.659   0.342  0.1833 -0.0592 -0.2975
  662MPD2    H5 9804   1.832   1.755   0.342 -1.5810 -0.6260 -0.5269
  662MPD2    N1 9805   1.758   1.232   0.138  0.1807  0.7545 -0.4621
  662MPD2    H7 9806   1.810   1.195   0.217  0.5407  1.4382 -0.3781
  663TMC3    C1 9807   1.784   1.021   0.036  0.5931 -0.1312  0.1054
  663TMC3    C2 9808   1.817   0.971   0.159  0.3688 -0.3096  0.9987
  663TMC3    C3 9809   1.910   0.866   0.162  0.0184  0.4528  0.7817
  663TMC3    C4 9810   1.843   0.977  17.596 -0.6445 -0.2622  0.0988
  663TMC3    C5 9811   1.926   0.869  17.607 -0.0870 -0.6469 -0.3281
  663TMC3    C6 9812   1.945   0.801   0.045  0.2154  0.0184 -0.5590
  663TMC3     C 9813   1.722   1.146   0.035  0.2533  0.3035 -0.9168
  663TMC3     O 9814   1.657   1.171  17.606 -0.2907 -0.0740 -0.2489
  663TMC3     H 9815   1.766   1.003   0.249  0.1645 -0.5482  0.9674
  663TMC3    H1 9816   1.819   1.029  17.503 -1.9404 -2.2546 -0.6827
  663TMC3    H2 9817   2.021   0.723   0.053  1.5654  1.2387 -1.4596
  663TMC3    C7 9818   1.987   0.819  17.484  0.1140  0.0677  0.0332
  663TMC3    C8 9819   1.879   0.761   0.261 -0.0130 -0.2802 -0.7644
  663TMC3    O1 9820   1.976   0.890  17.385 -0.7298  0.2105  0.2267
  663TMC3    O2 9821   1.885   0.643   0.232  0.2993 -0.2573 -0.6124
  664MPD2     C 9822   0.644   4.148   0.166 -0.5879  0.2251 -0.1210
  664MPD2    C1 9823   0.726   4.259   0.181  0.9200  0.0132 -0.1664
  664MPD2    C2 9824   0.774   4.288   0.307 -0.0752  0.1613  0.6719
  664MPD2    C3 9825   0.732   4.218   0.415  0.3563  0.1841 -0.5141
  664MPD2    C4 9826   0.649   4.110   0.402  0.0042  0.4187 -0.1143
  664MPD2    C5 9827   0.598   4.078   0.281  0.0274  0.5151 -0.4506
  664MPD2     H 9828   0.845   4.368   0.322  1.2372 -1.0321  0.8831
  664MPD2    H1 9829   0.619   4.048   0.487  1.4906  0.2025  0.2497
  664MPD2    H2 9830   0.607   4.119   0.068  3.3338 -1.8524 -0.9861
  664MPD2    H3 9831   0.540   3.987   0.266 -0.7168  0.7653  0.9354
  664MPD2     N 9832   0.772   4.264   0.538 -0.0990  0.1453  0.5279
  664MPD2    H5 9833   0.832   4.346   0.543 -1.0161  0.8563 -0.0251
  664MPD2    N1 9834   0.766   4.342   0.075  0.1666  0.1896  0.8433
  664MPD2    H7 9835   0.805   4.425   0.118  1.9960  0.9025 -2.1874
  665TMC3    C1 9836   0.780   4.293   0.768 -0.3564  0.2758 -0.6430
  665TMC3    C2 9837   0.762   4.230   0.886 -0.2399  0.4683  0.2675
  665TMC3    C3 9838   0.780   4.292   1.005 -0.6758  0.1600  0.0113
  665TMC3    C4 9839   0.803   4.423   0.766  0.2269  0.5823 -0.0149
  665TMC3    C5 9840   0.820   4.489   0.891 -0.3390 -0.3107 -0.1506
  665TMC3    C6 9841   0.819   4.424   1.011 -0.0447 -1.1476  0.5588
  665TMC3     C 9842   0.720   4.222   0.659 -0.5290 -0.1277 -0.0917
  665TMC3     O 9843   0.649   4.126   0.690  0.5246 -0.3347 -0.1212
  665TMC3     H 9844   0.754   4.122   0.892 -0.9908  0.6187  1.9458
  665TMC3    H1 9845   0.777   4.476   0.674 -0.2211  1.7286  0.7653
  665TMC3    H2 9846   0.839   4.476   1.104 -0.8629  2.8441 -1.5046
  665TMC3    C7 9847   0.832   4.639   0.884 -0.3372  0.3867 -0.5183
  665TMC3    C8 9848   0.817   4.198   1.116  0.9103 -0.1109 -0.3400
  665TMC3    O1 9849   0.800   4.688   0.777  0.1354 -0.0260  0.0039
  665TMC3    O2 9850   0.862   4.089   1.090  0.3325  0.2290  0.2749
  666TMC3    C1 9851   4.176   3.556  10.159 -0.3623 -0.0661  0.5283
  666TMC3    C2 9852   4.144   3.448  10.079 -0.0100 -0.0043 -0.4676
  666TMC3    C3 9853   4.179   3.464   9.946  0.5155 -0.2019  0.2292
  666TMC3    C4 9854   4.239   3.668  10.113 -0.1025 -0.0375  0.3585
  666TMC3    C5 9855   4.281   3.672   9.984  0.3188  0.0087  0.5668
  666TMC3    C6 9856   4.258   3.565   9.899  0.0075 -0.2814  0.5186
  666TMC3     C 9857   4.207   3.523  10.297  0.5471  0.6142  0.1197
  666TMC3     O 9858   4.315   3.564  10.339 -0.1889 -0.1666 -0.3167
  666TMC3     H 9859   4.097   3.357  10.114  0.3404 -0.3008 -0.7626
  666TMC3    H1 9860   4.253   3.743  10.189 -1.9902 -0.0052  0.6863
  666TMC3    H2 9861   4.285   3.575   9.794  1.0502  0.3133  0.8441
  666TMC3    C7 9862   4.339   3.792   9.928 -0.0905 -0.3512  0.6001
  666TMC3    C8 9863   4.131   3.365   9.856  0.3529 -0.2816 -0.5126
  666TMC3    O1 9864   4.333   3.799   9.805 -1.0324  0.3695 -0.0294
  666TMC3    O2 9865   4.046   3.292   9.901 -0.4953  0.2006  0.1654
  667MPD2     C 9866   1.543   4.182  14.576  0.6224 -0.4903  0.8015
  667MPD2    C1 9867   1.435   4.242  14.643 -0.0929 -0.3571 -0.4000
  667MPD2    C2 9868   1.335   4.166  14.695  0.0636 -0.0813 -0.3728
  667MPD2    C3 9869   1.320   4.036  14.663 -0.3191  0.5419  0.3376
  667MPD2    C4 9870   1.416   3.984  14.583 -0.4242 -0.1309 -1.2461
  667MPD2    C5 9871   1.534   4.048  14.552 -0.8070 -0.4044  0.2160
  667MPD2     H 9872   1.252   4.211  14.749 -0.4477  0.8290 -1.9345
  667MPD2    H1 9873   1.395   3.885  14.544  1.6688 -1.1490  0.1881
  667MPD2    H2 9874   1.625   4.242  14.538 -0.5995  1.2365  0.8710
  667MPD2    H3 9875   1.607   3.981  14.507  0.0333  1.2400 -0.9001
  667MPD2     N 9876   1.212   3.956  14.697  0.2644  0.4992 -0.1030
  667MPD2    H5 9877   1.204   3.858  14.669  1.4364  0.8594 -1.7134
  667MPD2    N1 9878   1.434   4.379  14.685  0.4903  0.4147  0.3378
  667MPD2    H7 9879   1.354   4.409  14.739 -1.0468 -1.2245 -1.0311
  668TMC3    C1 9880   1.519   4.582  14.729 -0.4095  0.4484 -0.0335
  668TMC3    C2 9881   1.574   4.693  14.675 -0.4594  0.1252  0.7762
  668TMC3    C3 9882   1.574   0.094  14.743  0.3053  0.2527 -0.7294
  668TMC3    C4 9883   1.465   4.583  14.857  0.0249  0.5118 -0.1398
  668TMC3    C5 9884   1.445   4.706  14.910 -0.1172  0.7158 -0.0930
  668TMC3    C6 9885   1.506   0.101  14.856  0.2356 -0.5484 -0.3983
  668TMC3     C 9886   1.539   4.460  14.662 -0.3238  0.0311  0.8970
  668TMC3     O 9887   1.636   4.460  14.582  0.1025 -0.1422 -0.1862
  668TMC3     H 9888   1.623   4.687  14.578  1.5593  1.2526  1.7115
  668TMC3    H1 9889   1.435   4.496  14.915  3.1906 -0.8336 -0.5509
  668TMC3    H2 9890   1.492   0.190  14.916  1.1388 -0.0062 -0.9841
  668TMC3    C7 9891   1.395   4.718  15.041 -0.0115  0.1388 -0.4168
  668TMC3    C8 9892   1.619   0.220  14.688 -0.2148  0.2535  0.4643
  668TMC3    O1 9893   1.448   0.089  15.104  0.2885 -0.2337  0.9643
  668TMC3    O2 9894   1.593   0.322  14.753 -0.0542 -0.2534  0.6017
  669TMC3    C1 9895   3.884   4.026  14.403  0.4233 -0.4774 -0.3511
  669TMC3    C2 9896   3.771   4.018  14.332 -1.0667 -0.1957  0.2579
  669TMC3    C3 9897   3.761   4.118  14.233  0.5884 -0.2520 -0.2628
  669TMC3    C4 9898   3.980   4.116  14.372 -0.2394  0.1003  0.0333
  669TMC3    C5 9899   3.968   4.205  14.268 -0.3249  0.2044  0.3877
  669TMC3    C6 9900   3.853   4.211  14.195  0.2295 -0.2444 -0.0786
  669TMC3     C 9901   3.886   3.934  14.518  0.1990 -0.6175 -0.4441
  669TMC3     O 9902   3.806   3.839  14.519  0.4674 -0.3724  0.4050
  669TMC3     H 9903   3.699   3.938  14.328 -0.6127 -0.6411  1.2209
  669TMC3    H1 9904   4.071   4.120  14.430 -0.4992 -1.4712  0.5467
  669TMC3    H2 9905   3.837   4.278  14.112 -0.9157  1.9409  1.9139
  669TMC3    C7 9906   4.067   4.306  14.264 -0.0501  0.0695 -1.1124
  669TMC3    C8 9907   3.623   4.126  14.175  0.8972 -0.2567  0.2292
  669TMC3    O1 9908   4.134   4.326  14.366 -0.4676  0.2319 -0.2333
  669TMC3    O2 9909   3.542   4.043  14.208 -0.2530 -0.5000 -0.2964
  670MPD2     C 9910   2.051   2.030  13.656 -0.3584  0.0940 -0.1712
  670MPD2    C1 9911   2.173   1.992  13.720 -0.0480  0.2244 -0.4900
  670MPD2    C2 9912   2.164   1.892  13.812  0.5510  0.0949 -0.0359
  670MPD2    C3 9913   2.052   1.832  13.851  0.3055 -0.3693  1.0681
  670MPD2    C4 9914   1.931   1.870  13.788  0.4842 -0.0025 -0.4694
  670MPD2    C5 9915   1.933   1.967  13.689  0.2209  0.1438  0.6430
  670MPD2     H 9916   2.259   1.857  13.852  1.9744  2.8027 -1.0625
  670MPD2    H1 9917   1.834   1.826  13.811  0.1523  0.6515 -0.6186
  670MPD2    H2 9918   2.041   2.102  13.575 -2.6597  1.0470  0.9548
  670MPD2    H3 9919   1.840   1.994  13.640  1.3404  1.5269 -0.7156
  670MPD2     N 9920   2.048   1.732  13.946  0.3202 -0.9025  0.3320
  670MPD2    H5 9921   2.140   1.696  13.965  0.7714  0.0858  0.0325
  670MPD2    N1 9922   2.297   2.035  13.679 -0.0007  0.9445  0.2356
  670MPD2    H7 9923   2.376   1.995  13.730  1.0854  0.9803 -1.4101
  671TMC3    C1 9924   1.972   1.596  14.107  0.2536 -0.1347  0.0237
  671TMC3    C2 9925   2.096   1.575  14.165 -0.6047  0.2605  0.7391
  671TMC3    C3 9926   2.135   1.446  14.176 -0.0544  0.7598  0.1067
  671TMC3    C4 9927   1.883   1.492  14.092 -0.0051  0.0799 -0.1909
  671TMC3    C5 9928   1.925   1.365  14.109 -0.1446 -0.1699  0.5909
  671TMC3    C6 9929   2.057   1.341  14.140 -0.2523 -0.2538  0.0011
  671TMC3     C 9930   1.942   1.710  14.032  0.0100  0.3222 -0.5198
  671TMC3     O 9931   1.834   1.763  14.052 -0.3811 -0.0023 -0.1230
  671TMC3     H 9932   2.171   1.651  14.147  0.9437 -1.9907 -2.1280
  671TMC3    H1 9933   1.792   1.507  14.035  0.0670 -1.0566 -0.5944
  671TMC3    H2 9934   2.093   1.239  14.147  0.1118 -0.2994 -2.7460
  671TMC3    C7 9935   1.870   1.282  14.002  0.2102 -0.6049  0.0829
  671TMC3    C8 9936   2.274   1.406  14.203 -0.0099  0.2876 -0.0930
  671TMC3    O1 9937   1.945   1.257  13.912 -0.4666  0.3197  0.0894
  671TMC3    O2 9938   2.309   1.294  14.169  0.3909 -0.2771  0.0450
  672MPD2     C 9939   2.837   2.215   1.321  0.2797 -0.4326 -0.3220
  672MPD2    C1 9940   2.952   2.175   1.269 -0.5710  0.6031 -0.4550
  672MPD2    C2 9941   3.064   2.225   1.328  0.2803 -0.3829  0.2326
  672MPD2    C3 9942   3.064   2.324   1.423 -0.2100  0.3412 -0.0476
  672MPD2    C4 9943   2.940   2.368   1.469 -0.3468  0.8447 -0.2170
  672MPD2    C5 9944   2.834   2.307   1.416 -0.1968 -0.3012  0.5475
  672MPD2     H 9945   3.159   2.186   1.294 -0.7741 -1.2593 -1.6647
  672MPD2    H1 9946   2.921   2.446   1.541  2.4248  0.9159  0.4534
  672MPD2    H2 9947   2.741   2.185   1.282  0.7111 -0.8058 -1.0912
  672MPD2    H3 9948   2.739   2.350   1.444 -1.2209 -0.5140 -2.6036
  672MPD2     N 9949   3.175   2.390   1.471  0.0389 -0.0812  0.2091
  672MPD2    H5 9950   3.164   2.453   1.550  1.0816  0.7071 -0.2906
  672MPD2    N1 9951   2.956   2.086   1.158 -0.1303 -0.4484  0.4913
  672MPD2    H7 9952   3.049   2.054   1.133  0.3416  0.9152  0.5103
  673TMC3    C1 9953   2.904   1.981   0.968 -0.0333 -0.3235  1.0260
  673TMC3    C2 9954   3.015   1.905   0.975  0.7861 -0.2337 -0.8579
  673TMC3    C3 9955   3.071   1.858   0.863  0.3595 -0.1080 -0.5470
  673TMC3    C4 9956   2.856   2.035   0.847  0.3608  0.4224  0.2750
  673TMC3    C5 9957   2.918   1.979   0.735  0.0164  0.2392 -0.2453
  673TMC3    C6 9958   3.022   1.888   0.741 -0.2212 -0.1415 -0.0305
  673TMC3     C 9959   2.848   2.040   1.085 -0.6484 -0.0508  0.1586
  673TMC3     O 9960   2.729   2.070   1.084  0.5878  0.3650  0.3141
  673TMC3     H 9961   3.045   1.859   1.068  0.0695 -0.2970 -0.6574
  673TMC3    H1 9962   2.765   2.091   0.833  1.6812  3.0697  2.2117
  673TMC3    H2 9963   3.055   1.835   0.652 -0.1629 -0.3047  0.0883
  673TMC3    C7 9964   2.915   2.052   0.614 -0.3178  0.1000 -0.3788
  673TMC3    C8 9965   3.157   1.742   0.867  0.4418  0.7304 -0.0394
  673TMC3    O1 9966   2.949   1.993   0.517 -0.4622 -0.0691 -0.4442
  673TMC3    O2 9967   3.115   1.647   0.800  0.3719  0.6526 -0.8147
  674MPD2     C 9968   2.053   1.637   0.012  0.6033 -0.9571 -0.2968
  674MPD2    C1 9969   2.164   1.614   0.081  0.3335  0.0649  0.2472
  674MPD2    C2 9970   2.242   1.725   0.114 -0.1492  0.7462  0.1237
  674MPD2    C3 9971   2.212   1.849   0.059  0.0051  0.4269  0.3132
  674MPD2    C4 9972   2.098   1.869  17.664 -0.2170  0.0424 -0.1412
  674MPD2    C5 9973   2.015   1.764  17.639  0.5582 -0.0372  0.4897
  674MPD2     H 9974   2.332   1.709   0.173  0.0551 -0.4709 -0.5305
  674MPD2    H1 9975   2.071   1.961  17.613 -0.5179  0.3137  0.5016
  674MPD2    H2 9976   1.990   1.555  17.657  0.6416 -0.7642 -0.8864
  674MPD2    H3 9977   1.927   1.767  17.576  0.2981  2.2540  0.9624
  674MPD2     N 9978   2.302   1.955   0.073  0.6011 -0.2742  0.0148
  674MPD2    H5 9979   2.383   1.928   0.127  2.2146  2.4283 -1.0191
  674MPD2    N1 9980   2.176   1.488   0.145 -0.4785  0.2680  0.1488
  674MPD2    H7 9981   2.102   1.420   0.135 -0.4760 -0.1198  2.5993
  675TMC3    C1 9982   2.272   1.314   0.264  0.1871  0.6204  0.1588
  675TMC3    C2 9983   2.136   1.262   0.282 -0.2573 -0.4922  0.3528
  675TMC3    C3 9984   2.127   1.157   0.371 -0.0958  0.3758 -0.6157
  675TMC3    C4 9985   2.381   1.273   0.338  0.1535 -0.0891  0.2131
  675TMC3    C5 9986   2.356   1.171   0.427 -0.5118  0.1263 -0.2045
  675TMC3    C6 9987   2.234   1.110   0.444  0.2532  0.3856 -0.9691
  675TMC3     C 9988   2.278   1.454   0.232  0.9243  0.1867  0.4432
  675TMC3     O 9989   2.378   1.519   0.262 -0.1062  0.0465 -0.7066
  675TMC3     H 9990   2.046   1.300   0.236  1.1429  0.4038 -1.6971
  675TMC3    H1 9991   2.482   1.303   0.317  0.1122  1.1218  1.7770
  675TMC3    H2 9992   2.228   1.034   0.521 -0.0254  1.6182  0.2289
  675TMC3    C7 9993   2.456   1.149   0.534  0.5544 -0.3018  0.0535
  675TMC3    C8 9994   2.008   1.159   0.441  0.1275 -0.1708 -0.6076
  675TMC3    O1 9995   2.470   1.034   0.574  0.3999 -0.3961  0.1877
  675TMC3    O2 9996   1.895   1.149   0.392 -0.0928 -0.2062 -0.2515
  676MPD2     C 9997   0.206   0.210  11.007  0.1627 -0.7631 -0.1503
  676MPD2    C1 9998   0.184   0.147  11.126  0.2293  0.2038 -0.1808
  676MPD2    C2 9999   0.193   0.011  11.130 -0.0737  0.7965 -0.4976
  676MPD2    C310000   0.228   4.650  11.019  0.1442  0.9621  0.3628
  676MPD2    C410001   0.258   0.001  10.897 -0.0832 -0.0719 -0.5657
  676MPD2    C510002   0.246   0.139  10.894  0.5404  0.3847  0.1979
  676MPD2     H10003   0.170   4.679  11.223  1.2032 -0.8796 -1.0642
  676MPD2    H110004   0.286   4.664  10.808  1.3348  0.3389 -0.3653
  676MPD2    H210005   0.203   0.318  10.997  0.8043 -0.6291  1.2099
  676MPD2    H310006   0.266   0.202  10.808 -1.8659  1.5302  0.4871
  676MPD2     N10007   0.231   4.512  11.019  0.7818 -0.2244 -0.3046
  676MPD2    H510008   0.252   4.470  10.929  3.0553 -1.4249  0.7951
  676MPD2    N110009   0.143   0.220  11.241  0.8325 -0.5351 -0.0006
  676MPD2    H710010   0.093   0.161  11.307  0.1999 -1.3288 -1.1902
  677TMC3    C110011   0.079   0.413  11.362  0.1887 -0.2880  0.0001
  677TMC3    C210012   4.674   0.362  11.397  0.5394  0.5369 -0.2846
  677TMC3    C310013   4.612   0.415  11.506 -0.0428 -0.2319 -0.9103
  677TMC3    C410014   0.128   0.520  11.435  0.9038  0.2390 -0.3150
  677TMC3    C510015   0.063   0.579  11.536 -0.3853  0.8516 -0.0852
  677TMC3    C610016   4.656   0.528  11.570  0.9454  0.2964  0.0448
  677TMC3     C10017   0.164   0.351  11.261 -0.6870 -0.0522 -0.0993
  677TMC3     O10018   0.266   0.409  11.224 -0.0254  0.5142 -0.6510
  677TMC3     H10019   4.635   0.276  11.344  0.5998  0.0813  0.4077
  677TMC3    H110020   0.232   0.549  11.417  0.4450  2.0827 -0.0479
  677TMC3    H210021   4.606   0.564  11.659  0.3207 -0.7266  0.1107
  677TMC3    C710022   0.146   0.619  11.648  0.8249  0.0286  0.1854
  677TMC3    C810023   4.484   0.350  11.551 -0.1803 -0.1012 -0.7042
  677TMC3    O110024   0.094   0.586  11.755  0.3329  0.1052  0.2226
  677TMC3    O210025   4.393   0.360  11.468  0.1358 -0.1081 -0.4240
  678MPD2     C10026   1.847   0.550   2.164 -0.2730 -0.3458 -0.2078
  678MPD2    C110027   1.880   0.585   2.033  0.3278 -0.2859 -0.3429
  678MPD2    C210028   1.781   0.614   1.941  0.1000  1.1068 -0.2553
  678MPD2    C310029   1.647   0.621   1.987  0.0514  0.2733 -0.0476
  678MPD2    C410030   1.612   0.569   2.111 -0.4349  0.3839 -0.4393
  678MPD2    C510031   1.713   0.535   2.198  0.0026  0.0366 -0.0922
  678MPD2     H10032   1.802   0.638   1.838  2.4969 -0.4808 -0.1292
  678MPD2    H110033   1.512   0.564   2.151  0.0722  0.0729  0.8225
  678MPD2    H210034   1.927   0.528   2.234  0.6433 -0.4337 -1.2812
  678MPD2    H310035   1.684   0.493   2.294  1.7884  0.3169  0.5575
  678MPD2     N10036   1.550   0.656   1.893  0.0045 -0.4967  0.0089
  678MPD2    H510037   1.582   0.673   1.798 -0.4365  1.2869  0.1760
  678MPD2    N110038   2.014   0.592   1.980  0.2142 -0.0938 -0.0867
  678MPD2    H710039   2.026   0.597   1.879  2.6195 -0.1651  0.1915
  679TMC3    C110040   2.464   0.708   1.954 -0.0299  0.3341 -0.2536
  679TMC3    C210041   2.373   0.623   2.007 -0.1673  0.3097 -0.7139
  679TMC3    C310042   2.237   0.643   1.973  0.0411 -0.6228  0.6244
  679TMC3    C410043   2.435   0.813   1.864 -0.0634  0.7537  1.0923
  679TMC3    C510044   2.305   0.815   1.826  0.1115  0.0031  0.1242
  679TMC3    C610045   2.202   0.740   1.881 -0.2376 -0.5746  0.7612
  679TMC3     C10046   2.597   0.703   2.003 -0.0121 -0.2207 -0.2882
  679TMC3     O10047   2.667   0.795   1.968  0.0933  0.3956  0.1803
  679TMC3     H10048   2.402   0.566   2.094 -1.2562 -0.6459 -0.9659
  679TMC3    H110049   2.503   0.890   1.830  1.0863 -0.7147  0.0305
  679TMC3    H210050   2.101   0.762   1.851  0.2865 -0.6055 -1.0757
  679TMC3    C710051   2.284   0.867   1.692 -0.3287 -0.1188 -0.3564
  679TMC3    C810052   2.130   0.581   2.049 -0.3811 -0.1183 -0.5260
  679TMC3    O110053   2.168   0.857   1.654 -0.0473  0.0872  0.1511
  679TMC3    O210054   2.144   0.529   2.161  0.1349  0.2042  0.4243
  680MPD2     C10055   1.840   3.912  13.614 -0.3995  0.2493 -1.0222
  680MPD2    C110056   1.948   3.861  13.689  0.1183  0.2369 -0.0371
  680MPD2    C210057   2.035   3.953  13.747 -0.3402  0.0518  0.2911
  680MPD2    C310058   2.039   4.086  13.721  0.0697 -0.2373 -0.2617
  680MPD2    C410059   1.942   4.131  13.636 -0.0541  0.3773  0.2726
  680MPD2    C510060   1.840   4.045  13.590 -0.0579  0.3950  0.1105
  680MPD2     H10061   2.116   3.901  13.796 -1.6040  0.2709  2.6016
  680MPD2    H110062   1.927   4.232  13.601  1.3182  0.4764 -0.0354
  680MPD2    H210063   1.770   3.848  13.561 -0.4080  0.8943 -1.7864
  680MPD2    H310064   1.756   4.083  13.532  0.5804 -0.1445 -1.1741
  680MPD2     N10065   2.139   4.181  13.768 -0.1009 -0.1207  0.5486
  680MPD2    H510066   2.134   4.275  13.731  0.3050 -0.6969 -0.9410
  680MPD2    N110067   1.964   3.727  13.728  0.4738  0.1917  0.3403
  680MPD2    H710068   2.054   3.702  13.767 -0.3795 -2.3194  0.7083
  681TMC3    C110069   1.889   3.522  13.803 -0.1129 -0.0997  0.0518
  681TMC3    C210070   1.828   3.494  13.924  0.0089 -0.1653 -0.0024
  681TMC3    C310071   1.900   3.425  14.022  0.4739 -0.0852 -0.3199
  681TMC3    C410072   2.007   3.473  13.776 -0.4339  0.3960 -0.6428
  681TMC3    C510073   2.079   3.400  13.864  0.3708 -0.3383 -0.2255
  681TMC3    C610074   2.024   3.379  13.987 -0.4816 -0.2504 -0.3288
  681TMC3     C10075   1.855   3.644  13.742 -0.2488 -0.3358  0.4731
  681TMC3     O10076   1.740   3.678  13.721  0.0211 -0.3643 -0.4163
  681TMC3     H10077   1.725   3.521  13.942 -0.2792 -2.5237  1.7771
  681TMC3    H110078   2.032   3.483  13.671  0.3335  1.6526 -0.3358
  681TMC3    H210079   2.069   3.307  14.055 -0.0472 -0.4788 -0.8631
  681TMC3    C710080   2.217   3.348  13.844 -0.1962  0.7702 -0.1069
  681TMC3    C810081   1.874   3.464  14.159 -0.3480  0.1860 -0.0443
  681TMC3    O110082   2.271   3.317  13.951  0.1930  0.6041 -0.0554
  681TMC3    O210083   1.756   3.479  14.185 -0.0553 -0.6403  0.4501
  682MPD2     C10084   4.070   0.260  10.565  0.5617  0.1105 -0.6282
  682MPD2    C110085   4.073   0.134  10.611 -0.1934 -0.4248 -0.0684
  682MPD2    C210086   3.969   0.094  10.684 -0.9905 -0.0950  0.7355
  682MPD2    C310087   3.868   0.179  10.718  0.2014 -0.3791 -0.4999
  682MPD2    C410088   3.866   0.305  10.667  0.1501 -0.2009 -0.5946
  682MPD2    C510089   3.972   0.348  10.592  0.1206  1.0700  0.2777
  682MPD2     H10090   3.962   4.711  10.721  2.7581 -0.3536  0.7304
  682MPD2    H110091   3.782   0.368  10.692 -0.9790 -1.3535 -1.4808
  682MPD2    H210092   4.137   0.305  10.493  0.6000 -0.6876 -1.0866
  682MPD2    H310093   3.976   0.448  10.551 -0.5984  0.6396 -0.8367
  682MPD2     N10094   3.769   0.136  10.810  0.0877  0.0059  0.1092
  682MPD2    H510095   3.763   0.039  10.839  0.4372  0.1035  0.5149
  682MPD2    N110096   4.164   0.031  10.579  0.1360  0.0581  0.7490
  682MPD2    H710097   4.146   4.657  10.618 -0.9736  0.4442  1.1354
  683TMC3    C110098   3.646   0.127  11.225  0.4154  0.2269  0.0989
  683TMC3    C210099   3.641   4.711  11.209 -0.2434 -0.0677 -0.1166
  683TMC3    C310100   3.612   4.657  11.090 -0.8866  0.0710 -0.0602
  683TMC3    C410101   3.627   0.210  11.117 -0.5403 -0.3712 -0.3420
  683TMC3    C510102   3.613   0.145  10.993 -0.5420  0.1252 -0.5646
  683TMC3    C610103   3.596   0.010  10.975 -0.2690  0.8792 -0.3145
  683TMC3     C10104   3.720   0.179  11.337  0.0776  0.5595 -0.1601
  683TMC3     O10105   3.726   0.302  11.350 -0.0102 -0.1882  0.1198
  683TMC3     H10106   3.637   4.641  11.292  1.7242 -0.4846 -0.3678
  683TMC3    H110107   3.647   0.316  11.123  1.4470 -0.8435  1.3581
  683TMC3    H210108   3.577   4.683  10.878  0.9422 -1.5410  0.5747
  683TMC3    C710109   3.682   0.213  10.883 -0.5523 -0.1025 -0.0419
  683TMC3    C810110   3.641   4.511  11.080 -0.2712 -0.8825 -0.1189
  683TMC3    O110111   3.678   0.334  10.899 -0.3129 -0.2086  0.0832
  683TMC3    O210112   3.736   4.476  11.152 -0.1801  0.3137  0.0438
  684MPD2     C10113   2.196   0.118  16.601  0.3278  0.1027 -0.8473
  684MPD2    C110114   2.185   0.112  16.464 -0.9258 -0.1043 -0.1619
  684MPD2    C210115   2.249   0.206  16.387  0.4188 -0.7076  0.0641
  684MPD2    C310116   2.343   0.286  16.452 -0.0821 -0.5780 -0.0663
  684MPD2    C410117   2.358   0.286  16.594 -0.4123 -0.1043 -0.2359
  684MPD2    C510118   2.282   0.202  16.668 -0.3499 -0.2447  0.1890
  684MPD2     H10119   2.225   0.209  16.282  0.8856  0.9353  0.0144
  684MPD2    H110120   2.432   0.345  16.647  0.4125 -1.3666  0.0133
  684MPD2    H210121   2.150   0.042  16.664  1.3395  0.3237  0.1473
  684MPD2    H310122   2.294   0.203  16.775 -0.8099  0.2421  0.2324
  684MPD2     N10123   2.414   0.379  16.382  0.1319  1.1988 -0.7296
  684MPD2    H510124   2.484   0.422  16.441 -0.7511 -0.7804  1.7243
  684MPD2    N110125   2.119   0.011  16.395 -0.2262 -0.2414  0.0816
  684MPD2    H710126   2.128   0.015  16.294 -2.3078 -2.6302 -0.1950
  685TMC3    C110127   2.056   4.518  16.328 -0.3612  0.0212 -0.4693
  685TMC3    C210128   1.997   4.584  16.220  0.3858  0.1612  0.3478
  685TMC3    C310129   2.039   4.540  16.093 -0.1318  0.0970  0.3363
  685TMC3    C410130   2.161   4.430  16.314  0.0419  0.2032 -0.0346
  685TMC3    C510131   2.195   4.392  16.191 -0.1646 -0.2209 -0.8734
  685TMC3    C610132   2.136   4.444  16.078 -0.7102 -0.9102 -0.5136
  685TMC3     C10133   2.084   4.606  16.439  0.3759  0.1443 -0.5112
  685TMC3     O10134   2.090   4.554  16.550  0.2364 -0.4294  0.0448
  685TMC3     H10135   1.921   4.657  16.241 -2.4888 -2.2284 -1.6699
  685TMC3    H110136   2.214   4.391  16.400 -1.2572  1.1130  1.1844
  685TMC3    H210137   2.157   4.399  15.982  0.7916 -1.8762  0.2727
  685TMC3    C710138   2.335   4.352  16.183 -0.1294 -0.0062  0.0007
  685TMC3    C810139   1.942   4.557  15.992 -0.7641  0.3601  0.1666
  685TMC3    O110140   2.368   4.259  16.261  0.1288 -0.4720 -0.5946
  685TMC3    O210141   1.945   4.478  15.899 -0.2456  0.4904 -0.3974
  686MPD2     C10142   3.631   4.084  15.343  0.5379 -0.5786  0.5077
  686MPD2    C110143   3.629   4.061  15.481 -0.0720  0.5028 -0.0444
  686MPD2    C210144   3.699   3.953  15.531 -0.1233  0.1187 -0.0271
  686MPD2    C310145   3.750   3.859  15.446 -0.6418  0.0938 -0.3358
  686MPD2    C410146   3.749   3.881  15.316  0.8325  0.9027 -0.6122
  686MPD2    C510147   3.690   3.994  15.261 -0.6355  0.3660 -0.0327
  686MPD2     H10148   3.728   3.949  15.635  0.3456  0.0383 -0.1597
  686MPD2    H110149   3.797   3.818  15.241  1.1611  0.3017  0.1115
  686MPD2    H210150   3.573   4.162  15.297  1.4961 -0.1132  0.1038
  686MPD2    H310151   3.672   4.001  15.154 -2.8307 -0.4915  0.3003
  686MPD2     N10152   3.809   3.728  15.483 -0.2717 -0.1837  0.3306
  686MPD2    H510153   3.851   3.685  15.401  0.4935 -1.9794  1.6752
  686MPD2    N110154   3.571   4.157  15.564  0.1770 -0.1781 -0.9232
  686MPD2    H710155   3.527   4.240  15.524 -1.5106 -0.4583  0.3419
  687TMC3    C110156   3.713   3.707  15.708 -0.2188 -0.3087 -0.2656
  687TMC3    C210157   3.585   3.718  15.668 -0.3727 -0.0612 -0.0849
  687TMC3    C310158   3.492   3.719  15.773  0.4052  0.0860  0.5066
  687TMC3    C410159   3.756   3.699  15.836  0.5864 -0.5106  0.3023
  687TMC3    C510160   3.657   3.715  15.933 -0.6898 -0.1764  0.5894
  687TMC3    C610161   3.529   3.724  15.905 -0.7154 -0.4670 -0.4183
  687TMC3     C10162   3.806   3.661  15.609  0.0122 -0.2277 -0.7147
  687TMC3     O10163   3.890   3.577  15.641 -0.3972 -0.5285  0.8882
  687TMC3     H10164   3.557   3.695  15.566 -1.1403  1.5348 -0.2308
  687TMC3    H110165   3.864   3.699  15.852  0.9142 -0.8868 -1.9865
  687TMC3    H210166   3.450   3.739  15.978  0.7846 -2.1724  1.5501
  687TMC3    C710167   3.699   3.714  16.066  0.3279 -0.4653 -0.8827
  687TMC3    C810168   3.354   3.756  15.737 -0.2040  0.2431  0.2536
  687TMC3    O110169   3.628   3.774  16.149 -0.2262  0.1485  0.0390
  687TMC3    O210170   3.273   3.742  15.829 -0.2132 -0.8169 -0.4691
  688MPD2     C10171   2.589   3.481  17.443 -0.1399  0.6498 -0.3584
  688MPD2    C110172   2.669   3.367  17.460  0.1051 -0.3636  0.5278
  688MPD2    C210173   2.778   3.347  17.383 -0.1595 -0.0934 -0.5378
  688MPD2    C310174   2.806   3.433  17.280  0.0188  0.5151 -0.3198
  688MPD2    C410175   2.725   3.546  17.265 -0.4899  0.3152  0.7598
  688MPD2    C510176   2.613   3.565  17.343 -0.0801 -0.3393 -0.3691
  688MPD2     H10177   2.841   3.260  17.400 -0.2180 -0.0039  0.1268
  688MPD2    H110178   2.745   3.613  17.182  0.5629 -0.1854  0.6024
  688MPD2    H210179   2.507   3.513  17.507 -0.0871  1.3904 -0.6592
  688MPD2    H310180   2.539   3.640  17.321 -0.1020 -0.1779  0.2634
  688MPD2     N10181   2.914   3.408  17.189 -0.1334  0.4419  0.6614
  688MPD2    H510182   2.909   3.459  17.102  1.5059  0.9705  0.8679
  688MPD2    N110183   2.649   3.279  17.565  0.3737  0.2009 -0.1713
  688MPD2    H710184   2.706   3.196  17.573 -0.3866 -0.3766 -0.7174
  689TMC3    C110185   2.590   3.215   0.106 -0.0904 -0.0360  0.2567
  689TMC3    C210186   2.568   3.258   0.238  0.1514 -0.5913 -0.5804
  689TMC3    C310187   2.608   3.174   0.333  0.0586 -0.3680 -0.6865
  689TMC3    C410188   2.614   3.085   0.062 -0.1293 -0.1137 -0.2165
  689TMC3    C510189   2.647   3.008   0.164 -0.2657  0.5038 -0.0357
  689TMC3    C610190   2.645   3.047   0.296 -0.0176  0.6960  0.0123
  689TMC3     C10191   2.579   3.317   0.002 -0.4796  0.0554 -0.3439
  689TMC3     O10192   2.526   3.420   0.040 -0.1812  0.3845 -0.2867
  689TMC3     H10193   2.527   3.353   0.268  1.5097 -0.5423  1.1392
  689TMC3    H110194   2.613   3.046  17.637  0.2833 -1.0420  0.1399
  689TMC3    H210195   2.659   2.975   0.376  0.0310  1.6221  0.8229
  689TMC3    C710196   2.668   2.863   0.151  0.5298 -0.3683  0.1436
  689TMC3    C810197   2.607   3.203   0.473  0.5455  0.6213  0.0239
  689TMC3    O110198   2.737   2.811   0.237 -0.1374 -0.2793  0.2118
  689TMC3    O210199   2.662   3.129   0.558 -0.4302 -0.1066  0.0325
  690MPD2     C10200   0.335   0.387  16.012  0.0068 -0.3979 -0.5811
  690MPD2    C110201   0.270   0.393  15.889 -0.1193 -0.4293  0.4318
  690MPD2    C210202   0.319   0.477  15.795 -0.4493  0.3735  0.3028
  690MPD2    C310203   0.440   0.555  15.823  0.4129  0.5116  0.5333
  690MPD2    C410204   0.497   0.547  15.950  0.2790  0.4378 -0.5516
  690MPD2    C510205   0.449   0.456  16.044  0.4382  0.1789  0.7393
  690MPD2     H10206   0.269   0.483  15.699  1.4206 -0.0638 -0.7019
  690MPD2    H110207   0.587   0.601  15.977  0.1936  1.2725 -1.9616
  690MPD2    H210208   0.303   0.312  16.083  0.9306 -1.0051 -0.8099
  690MPD2    H310209   0.502   0.451  16.139  3.0044  1.8110 -0.6078
  690MPD2     N10210   0.495   0.633  15.719  0.3327 -0.3037 -0.5677
  690MPD2    H510211   0.445   0.654  15.634  1.0222  1.2939 -0.5964
  690MPD2    N110212   0.160   0.315  15.854  0.7540  0.2826 -1.0856
  690MPD2    H710213   0.123   0.322  15.760 -1.8070 -1.0253 -0.1801
  691TMC3    C110214   4.711   0.151  15.862  0.2134  0.9057 -0.1542
  691TMC3    C210215   4.601   0.130  15.936  0.3988  0.0758 -0.1688
  691TMC3    C310216   4.534   0.011  15.930  0.6510  0.0921 -0.5569
  691TMC3    C410217   0.041   0.048  15.782  0.5326 -0.2474  0.2491
  691TMC3    C510218   4.687   4.645  15.780  0.0464 -0.6658  0.3421
  691TMC3    C610219   4.578   4.620  15.865  0.9255 -0.1016  0.7811
  691TMC3     C10220   0.088   0.231  15.936  0.6945 -0.4784  0.2934
  691TMC3     O10221   0.086   0.228  16.054  0.0199 -0.5000  0.3126
  691TMC3     H10222   4.557   0.201  16.005  1.3951  0.5752 -0.0621
  691TMC3    H110223   0.137   0.048  15.732 -0.0423  1.1252 -0.8687
  691TMC3    H210224   4.520   4.529  15.858  1.4362 -0.4641  1.2772
  691TMC3    C710225   0.031   4.534  15.710 -0.5442  0.8674 -0.1461
  691TMC3    C810226   4.406   4.712  16.001  0.0047 -0.4376  0.0996
  691TMC3    O110227   0.122   4.560  15.635  0.0077  0.2288 -0.3803
  691TMC3    O210228   4.373   4.593  16.020  0.4518 -0.2486  0.0882
  692TMC3    C110229   2.005   1.753  16.159  0.5243  0.2861  0.5745
  692TMC3    C210230   2.117   1.774  16.240 -0.1389  1.0285  0.9096
  692TMC3    C310231   2.196   1.659  16.264  0.1624  0.0738 -0.7479
  692TMC3    C410232   1.972   1.639  16.093 -0.2163 -0.8705 -0.5066
  692TMC3    C510233   2.073   1.539  16.103  0.0897 -0.2593 -0.5169
  692TMC3    C610234   2.176   1.543  16.192 -0.4269  0.2501  0.0189
  692TMC3     C10235   1.902   1.851  16.157  0.7750  0.0336  0.1858
  692TMC3     O10236   1.786   1.811  16.132 -0.1008 -0.3399 -0.1290
  692TMC3     H10237   2.093   1.839  16.323 -0.5123  0.4932  1.2145
  692TMC3    H110238   1.882   1.629  16.034 -1.0732 -0.1161  0.6733
  692TMC3    H210239   2.260   1.476  16.170  0.1523  0.4982  1.5234
  692TMC3    C710240   2.032   1.411  16.042 -0.3068 -0.3138  0.6476
  692TMC3    C810241   2.230   1.623  16.399 -0.4287 -0.2357 -0.1168
  692TMC3    O110242   1.938   1.410  15.967 -0.2081  0.1153  0.0153
  692TMC3    O210243   2.261   1.507  16.422 -0.1088 -0.3966  0.2149
  693MPD2     C10244   1.967   3.611  11.296 -0.3630  0.7411 -0.3717
  693MPD2    C110245   1.891   3.524  11.227 -0.0118  0.3972 -0.0713
  693MPD2    C210246   1.955   3.436  11.142 -0.6684 -1.0450  1.1248
  693MPD2    C310247   2.094   3.436  11.129 -0.4202 -0.0092  0.2337
  693MPD2    C410248   2.172   3.525  11.207  0.2794 -0.2931  0.0471
  693MPD2    C510249   2.102   3.610  11.289 -0.1189 -0.0775 -0.3813
  693MPD2     H10250   1.902   3.362  11.083 -0.3327  1.1734 -1.9517
  693MPD2    H110251   2.279   3.532  11.198  0.1564 -1.0353 -2.1466
  693MPD2    H210252   1.926   3.688  11.361  1.8567  0.1194  1.7563
  693MPD2    H310253   2.163   3.686  11.338  1.3797 -1.8851  0.5661
  693MPD2     N10254   2.168   3.363  11.032 -0.4100 -0.1491  0.0374
  693MPD2    H510255   2.268   3.378  11.033 -0.1249 -1.9498 -0.5731
  693MPD2    N110256   1.753   3.547  11.232 -0.0219 -0.0355  0.0042
  693MPD2    H710257   1.715   3.615  11.297  1.0014 -0.7748  1.3720
  694TMC3    C110258   1.526   3.493  11.229  0.0827  0.1875 -0.0191
  694TMC3    C210259   1.428   3.475  11.134 -0.5641  0.2596  0.2169
  694TMC3    C310260   1.302   3.460  11.177  0.3556  0.6131  0.7659
  694TMC3    C410261   1.501   3.480  11.366  0.1393 -0.3471  0.2423
  694TMC3    C510262   1.372   3.447  11.399  0.5735  0.2867  0.8691
  694TMC3    C610263   1.272   3.435  11.310 -0.2507 -0.0239  0.3118
  694TMC3     C10264   1.662   3.468  11.177 -1.1069 -0.4782  0.7134
  694TMC3     O10265   1.669   3.373  11.103 -0.2335 -0.6651 -0.3770
  694TMC3     H10266   1.464   3.487  11.033  2.6859 -0.3880  1.2633
  694TMC3    H110267   1.586   3.486  11.433  2.0543 -2.1424 -2.0469
  694TMC3    H210268   1.173   3.415  11.350 -0.3586 -0.3654 -0.1339
  694TMC3    C710269   1.364   3.410  11.539  0.8079 -0.7282  0.5925
  694TMC3    C810270   1.185   3.454  11.089  0.2095 -0.2358 -0.2656
  694TMC3    O110271   1.470   3.405  11.597 -0.6707  0.1669  0.2213
  694TMC3    O210272   1.070   3.461  11.134  0.7871  0.2572 -0.3055
  695MPD2     C10273   2.732   1.026  13.493  0.4245  0.2705  0.3334
  695MPD2    C110274   2.674   1.075  13.613  0.1026 -0.3480 -0.0591
  695MPD2    C210275   2.537   1.100  13.617  0.9620  0.8680 -0.2636
  695MPD2    C310276   2.459   1.085  13.499 -0.7759  0.2483  0.1639
  695MPD2    C410277   2.517   1.031  13.393  0.2877  0.5468  0.2021
  695MPD2    C510278   2.647   0.999  13.393 -0.1789  0.1216  0.0677
  695MPD2     H10279   2.494   1.131  13.711 -0.4714 -5.4936  1.1879
  695MPD2    H110280   2.468   1.014  13.297 -1.8515  0.4394  1.3126
  695MPD2    H210281   2.838   1.006  13.484  0.3249  0.0652 -0.3991
  695MPD2    H310282   2.686   0.970  13.295 -0.1162  0.5707 -0.0389
  695MPD2     N10283   2.320   1.105  13.504 -0.1777 -0.2638  0.3175
  695MPD2    H510284   2.279   1.113  13.596  0.9896  1.2968  0.7148
  695MPD2    N110285   2.760   1.102  13.724 -0.1850 -0.1763  0.4692
  695MPD2    H710286   2.714   1.138  13.807 -0.2265  0.7158  0.0708
  696TMC3    C110287   2.096   1.118  13.448  0.5472  0.1735  0.3087
  696TMC3    C210288   2.053   1.026  13.543  0.2205 -0.0236  0.4054
  696TMC3    C310289   1.919   1.031  13.589  0.4902  0.4067  0.0048
  696TMC3    C410290   2.021   1.225  13.406  0.1280  0.2706  0.0758
  696TMC3    C510291   1.888   1.234  13.461  0.4305 -0.3550  0.4701
  696TMC3    C610292   1.843   1.143  13.552  0.3033 -0.1568  0.3043
  696TMC3     C10293   2.231   1.112  13.398 -0.0432 -0.2520  0.1665
  696TMC3     O10294   2.249   1.165  13.287 -0.3354 -0.1597  0.2092
  696TMC3     H10295   2.119   0.945  13.571  2.2889  1.5473  0.1504
  696TMC3    H110296   2.060   1.294  13.332 -0.2413  0.9506  0.5210
  696TMC3    H210297   1.736   1.127  13.550  0.2669  0.0935  0.2255
  696TMC3    C710298   1.830   1.370  13.483 -0.6351 -0.8315 -0.0418
  696TMC3    C810299   1.853   0.904  13.604  0.3672 -0.3768 -0.0817
  696TMC3    O110300   1.875   1.458  13.408 -0.3298 -0.6060 -0.1434
  696TMC3    O210301   1.909   0.817  13.542 -0.1970  0.4716 -0.5543
  697MPD2     C10302   1.230   3.403  15.793  0.1897 -0.4567  0.1654
  697MPD2    C110303   1.304   3.318  15.714  0.1223  0.7459  0.1022
  697MPD2    C210304   1.375   3.371  15.610 -0.0440  0.0582  0.4114
  697MPD2    C310305   1.365   3.504  15.578 -1.3130  0.2417  0.4633
  697MPD2    C410306   1.292   3.588  15.659 -0.1747  0.1257 -0.4483
  697MPD2    C510307   1.215   3.532  15.759  0.5632  0.1561 -0.3400
  697MPD2     H10308   1.442   3.310  15.551  1.8508  0.5518  2.0379
  697MPD2    H110309   1.263   3.689  15.633 -2.8363 -0.1303  1.5129
  697MPD2    H210310   1.168   3.357  15.869  0.2410 -0.2004  0.3633
  697MPD2    H310311   1.146   3.597  15.812  0.8403  1.0718 -1.1255
  697MPD2     N10312   1.445   3.549  15.469 -0.2385  0.0278  0.0051
  697MPD2    H510313   1.513   3.485  15.429  1.6237  2.8152 -1.3199
  697MPD2    N110314   1.320   3.182  15.741  0.1342  0.6271  0.4284
  697MPD2    H710315   1.358   3.120  15.670  0.4551 -0.8673  1.9103
  698TMC3    C110316   1.531   3.716  15.321  0.7297  0.1559 -0.4603
  698TMC3    C210317   1.567   3.851  15.300  0.0150  0.2274  0.1766
  698TMC3    C310318   1.676   3.891  15.237  0.3890 -0.3690  0.0414
  698TMC3    C410319   1.611   3.620  15.267 -0.6945  0.3430  0.1393
  698TMC3    C510320   1.727   3.663  15.204 -0.2304  0.3324 -0.2784
  698TMC3    C610321   1.759   3.796  15.192 -0.4787 -0.6864  0.2000
  698TMC3     C10322   1.436   3.683  15.423  0.5332 -0.6527 -0.8527
  698TMC3     O10323   1.358   3.777  15.449  0.2583 -0.1947  0.0171
  698TMC3     H10324   1.511   3.933  15.346 -0.9402 -1.1249  1.4407
  698TMC3    H110325   1.604   3.513  15.279 -0.2995  0.4066  0.9330
  698TMC3    H210326   1.848   3.819  15.135 -0.2773  1.4718  1.3952
  698TMC3    C710327   1.773   3.576  15.102 -0.7418 -0.1266 -0.4672
  698TMC3    C810328   1.738   4.008  15.292 -0.0373  0.3209 -0.0233
  698TMC3    O110329   1.699   3.481  15.080 -0.1869 -0.4258  0.2236
  698TMC3    O210330   1.710   4.029  15.410  0.3649  0.8465  0.2713
  699TMC3    C110331   1.944   1.509  12.899 -0.0213 -0.8258 -0.0358
  699TMC3    C210332   1.975   1.385  12.956  0.4466 -0.0899  0.2207
  699TMC3    C310333   1.911   1.345  13.064 -0.1606  0.0276 -0.2615
  699TMC3    C410334   1.848   1.588  12.959  0.1316 -0.4089 -0.2286
  699TMC3    C510335   1.797   1.542  13.078  0.1715 -0.0457 -0.0367
  699TMC3    C610336   1.817   1.419  13.131 -0.3603  0.3630  0.4489
  699TMC3     C10337   1.996   1.543  12.763 -0.6142 -0.5680  0.3241
  699TMC3     O10338   1.964   1.651  12.726  0.2174  0.0292  0.0202
  699TMC3     H10339   2.037   1.312  12.905 -0.1198  0.3223 -1.0616
  699TMC3    H110340   1.826   1.682  12.908  1.4098 -0.3633 -0.6818
  699TMC3    H210341   1.762   1.377  13.214 -3.4890  1.8441 -0.8827
  699TMC3    C710342   1.659   1.577  13.094  0.3772 -0.6985 -0.6670
  699TMC3    C810343   1.897   1.205  13.102  0.6339  0.1156  0.5255
  699TMC3    O110344   1.631   1.680  13.148  0.0088  0.5097  0.1002
  699TMC3    O210345   1.793   1.170  13.159  0.3372  0.4710 -0.0886
  700TMC3    C110346   0.712   3.535  17.465 -0.1911  0.3071  0.3653
  700TMC3    C210347   0.811   3.458  17.406  0.3755  0.5180 -0.4819
  700TMC3    C310348   0.925   3.434  17.474 -0.1594 -0.3097 -0.3010
  700TMC3    C410349   0.739   3.594  17.581 -1.1573  0.4590  0.1142
  700TMC3    C510350   0.852   3.563  17.654  0.5142 -0.7835  0.6786
  700TMC3    C610351   0.951   3.480  17.601 -0.1040 -0.7177 -0.6248
  700TMC3     C10352   0.622   3.612  17.386 -0.1492  0.1276  0.3450
  700TMC3     O10353   0.511   3.630  17.432  0.1006  0.0821  0.2618
  700TMC3     H10354   0.791   3.416  17.308 -1.6341 -0.0369  0.1687
  700TMC3    H110355   0.678   3.680  17.605 -0.3896  0.7009  1.1939
  700TMC3    H210356   1.041   3.463  17.659 -0.8325 -3.8615 -0.4045
  700TMC3    C710357   0.894   3.648   0.082 -0.5268 -0.9446 -0.2061
  700TMC3    C810358   1.022   3.349  17.412  0.3197  0.1276 -0.1189
  700TMC3    O110359   1.013   3.666   0.084  0.3854 -0.3277 -0.3520
  700TMC3    O210360   1.020   3.356  17.292 -0.2768  0.0192  0.6864
  701TMC3    C110361   0.877   2.218  15.675 -0.2337  0.0640 -0.3112
  701TMC3    C210362   0.890   2.229  15.540  0.2391 -0.7695 -0.1815
  701TMC3    C310363   0.982   2.323  15.500  0.1980 -0.5332 -0.2857
  701TMC3    C410364   0.949   2.294  15.766  0.3414 -0.2033 -0.5815
  701TMC3    C510365   1.037   2.382  15.715  0.4327  0.5187 -0.3730
  701TMC3    C610366   1.070   2.385  15.583  0.0726  0.3841 -0.4700
  701TMC3     C10367   0.764   2.147  15.732 -0.4981 -0.2230 -0.2888
  701TMC3     O10368   0.759   2.145  15.853 -0.9008 -0.1172  0.3068
  701TMC3     H10369   0.854   2.152  15.474 -1.6575 -1.0063  1.1079
  701TMC3    H110370   0.937   2.287  15.873 -2.0831  0.7038 -0.7989
  701TMC3    H210371   1.128   2.463  15.535 -0.2562 -0.3432 -2.0810
  701TMC3    C710372   1.054   2.512  15.779  0.2110 -0.1822 -0.0174
  701TMC3    C810373   0.985   2.355  15.358  0.5812  0.2047 -0.5748
  701TMC3    O110374   1.149   2.578  15.734  0.1889  0.5010 -0.1706
  701TMC3    O210375   1.082   2.427  15.323 -0.5126  0.4507  0.5613
  702MPD2     C10376   0.740   4.197  10.760 -0.2467  0.2391  0.0878
  702MPD2    C110377   0.630   4.281  10.763  0.4992  0.2444 -0.8726
  702MPD2    C210378   0.642   4.412  10.712 -0.7275  0.3258 -0.1454
  702MPD2    C310379   0.768   4.468  10.686 -0.6924 -0.2729 -0.1706
  702MPD2    C410380   0.877   4.383  10.699  0.3204  0.2871 -0.9654
  702MPD2    C510381   0.856   4.248  10.720 -0.5435  0.2578 -0.4215
  702MPD2     H10382   0.553   4.473  10.706 -1.7303 -1.0877  0.4623
  702MPD2    H110383   0.979   4.420  10.688  0.4741  0.5660  1.3500
  702MPD2    H210384   0.736   4.093  10.788 -0.2225  0.2850  0.2625
  702MPD2    H310385   0.939   4.179  10.732 -0.6145  0.1818 -0.3717
  702MPD2     N10386   0.788   4.599  10.652 -0.1194 -0.5054 -0.3869
  702MPD2    H510387   0.884   4.632  10.665 -1.0604  2.0293  0.0732
  702MPD2    N110388   0.498   4.241  10.796  0.0882  0.6985 -0.1500
  702MPD2    H710389   0.435   4.320  10.808 -0.7775 -0.2842  1.7870
  703TMC3    C110390   0.721   0.107  10.594  0.1425 -1.0766 -0.0137
  703TMC3    C210391   0.638   0.211  10.641 -0.1252  0.1672  0.2316
  703TMC3    C310392   0.672   0.339  10.601 -0.2195  0.0201  0.3102
  703TMC3    C410393   0.832   0.123  10.523 -0.0073 -0.1222  0.6681
  703TMC3    C510394   0.863   0.257  10.497 -0.4156 -0.1307  0.6379
  703TMC3    C610395   0.787   0.362  10.533 -0.3708  0.1206 -0.0863
  703TMC3     C10396   0.683   4.690  10.631  0.0817 -0.9133  0.6946
  703TMC3     O10397   0.567   4.685  10.669 -0.4086  0.1367 -1.1488
  703TMC3     H10398   0.563   0.197  10.718 -1.3609  1.2788 -0.7726
  703TMC3    H110399   0.889   0.036  10.492  1.2723  1.6714 -2.0857
  703TMC3    H210400   0.804   0.462  10.494 -2.0948  0.3852 -0.1535
  703TMC3    C710401   0.979   0.279  10.418 -0.7639  0.0447  0.6023
  703TMC3    C810402   0.583   0.449  10.614  0.7474  0.5021 -0.3041
  703TMC3    O110403   0.989   0.384  10.356 -0.2689  0.0668 -0.1069
  703TMC3    O210404   0.621   0.565  10.606  0.1275 -0.2836  0.6795
  704TMC3    C110405   2.717   2.735  12.425 -0.7039  0.3318  0.1533
  704TMC3    C210406   2.856   2.724  12.432 -0.2337  0.0007  0.0710
  704TMC3    C310407   2.908   2.639  12.521 -0.4302  0.4759 -0.2154
  704TMC3    C410408   2.635   2.686  12.523  0.4237 -0.0509 -0.6101
  704TMC3    C510409   2.697   2.604  12.617  0.4739 -0.3344 -0.3600
  704TMC3    C610410   2.825   2.585  12.622  0.5412  0.3128  0.4471
  704TMC3     C10411   2.665   2.840  12.343 -0.2230  0.0808 -0.0929
  704TMC3     O10412   2.566   2.893  12.390 -0.0811 -0.1274  0.0845
  704TMC3     H10413   2.924   2.767  12.360 -0.9582  0.9215 -0.0731
  704TMC3    H110414   2.532   2.716  12.540  1.3340  3.1036 -0.6313
  704TMC3    H210415   2.864   2.543  12.714  2.1010  0.8511  0.0249
  704TMC3    C710416   2.616   2.488  12.652 -0.3795  0.6114  1.1924
  704TMC3    C810417   3.053   2.641  12.562 -0.0839  0.3220 -0.0667
  704TMC3    O110418   2.497   2.504  12.679  0.3776  0.1766  0.5842
  704TMC3    O210419   3.075   2.643  12.680  1.3218  0.5862  0.2966
  705MPD2     C10420   2.442   1.110  17.016 -0.4344 -0.5544  0.0133
  705MPD2    C110421   2.383   1.159  16.901 -0.4983  0.6839 -0.6694
  705MPD2    C210422   2.252   1.207  16.901  0.1790  0.4085 -0.4193
  705MPD2    C310423   2.179   1.206  17.020 -0.5100  0.5318 -0.3447
  705MPD2    C410424   2.229   1.137  17.128  0.3641 -0.6885  0.2062
  705MPD2    C510425   2.358   1.083  17.124  0.2856  0.5697  0.3345
  705MPD2     H10426   2.231   1.257  16.807  0.5308  0.2909 -0.5636
  705MPD2    H110427   2.165   1.135  17.216  2.6706  0.2619  1.9301
  705MPD2    H210428   2.543   1.073  17.022 -0.5195 -0.8129 -0.1738
  705MPD2    H310429   2.398   1.044  17.217  0.9696 -0.9007 -0.5792
  705MPD2     N10430   2.049   1.264  17.038  0.3704  0.5098  0.0591
  705MPD2    H510431   2.010   1.267  17.132  0.3874 -0.1988  0.0905
  705MPD2    N110432   2.459   1.182  16.788 -0.0622  0.2962 -0.0403
  705MPD2    H710433   2.423   1.237  16.710 -0.3856  0.4979  0.2531
  706TMC3    C110434   2.722   1.147  16.444 -0.1877  0.4969  0.4176
  706TMC3    C210435   2.685   1.269  16.400  0.2222 -0.1910  0.2935
  706TMC3    C310436   2.641   1.358  16.499 -0.2846 -0.4371 -0.9517
  706TMC3    C410437   2.714   1.105  16.572  0.9884  0.2701 -0.1285
  706TMC3    C510438   2.660   1.191  16.659  0.2177 -0.2891  0.0835
  706TMC3    C610439   2.636   1.324  16.630 -0.0818  0.9034  0.8871
  706TMC3     C10440   2.826   1.085  16.371 -0.0534  0.3014 -0.3871
  706TMC3     O10441   2.930   1.079  16.430 -0.0800  0.5593  0.4044
  706TMC3     H10442   2.706   1.307  16.301 -2.5548  0.6738  0.0356
  706TMC3    H110443   2.755   1.008  16.599 -3.3933 -1.5931 -0.1223
  706TMC3    H210444   2.595   1.396  16.699 -1.3283  0.1678  0.9282
  706TMC3    C710445   2.586   1.135  16.767  0.0728  0.6424  0.3100
  706TMC3    C810446   2.597   1.491  16.452  0.6084  0.5650 -0.3278
  706TMC3    O110447   2.635   1.032  16.811 -0.4267 -0.0749  0.0514
  706TMC3    O210448   2.591   1.523  16.336 -0.1954  0.4067  0.0242
  707TMC3    C110449   0.163   0.708   1.879  0.0688  0.3660 -0.7319
  707TMC3    C210450   0.270   0.684   1.959 -0.4551 -0.7123 -0.2067
  707TMC3    C310451   0.249   0.682   2.094  0.3907  0.4016  0.7387
  707TMC3    C410452   0.037   0.720   1.926  0.6974 -0.3285 -0.3572
  707TMC3    C510453   0.018   0.715   2.062 -0.2537 -0.5732  0.0839
  707TMC3    C610454   0.127   0.695   2.148  0.7917 -0.0204 -0.3866
  707TMC3     C10455   0.191   0.669   1.741 -0.6095  0.3400  0.5143
  707TMC3     O10456   0.307   0.656   1.707 -0.5051  0.5032  0.1963
  707TMC3     H10457   0.369   0.695   1.918 -0.2721  0.7732  0.6314
  707TMC3    H110458   4.675   0.735   1.855  0.9526  2.0912 -0.1290
  707TMC3    H210459   0.103   0.702   2.254  0.2743  1.5471 -0.6019
  707TMC3    C710460   4.615   0.780   2.117 -0.5082 -0.1113  1.4126
  707TMC3    C810461   0.348   0.626   2.174  0.2798 -0.1044  0.3649
  707TMC3    O110462   4.591   0.768   2.238 -0.0440  0.2099  0.1292
  707TMC3    O210463   0.363   0.658   2.293  0.0948 -0.1841 -0.1969
  708MPD2     C10464   0.918   4.309  13.700  0.2406 -0.8344 -0.1686
  708MPD2    C110465   0.831   4.259  13.799 -0.5247 -0.0545  0.1444
  708MPD2    C210466   0.888   4.234  13.928  0.3201  0.3502 -0.1943
  708MPD2    C310467   1.013   4.270  13.953  0.5991 -0.3619  0.6133
  708MPD2    C410468   1.084   4.340  13.861  0.1070  0.0401 -0.3946
  708MPD2    C510469   1.040   4.348  13.731  0.8319  0.3761  0.1680
  708MPD2     H10470   0.820   4.187  13.999  1.1600 -0.9257 -0.2333
  708MPD2    H110471   1.179   4.383  13.889 -0.9371  0.3108  2.8004
  708MPD2    H210472   0.880   4.327  13.600  0.2695  1.8554  0.3035
  708MPD2    H310473   1.100   4.395  13.654  0.5642  3.6886  1.9952
  708MPD2     N10474   1.076   4.250  14.083  0.0222 -0.5681  0.2845
  708MPD2    H510475   1.158   4.305  14.106 -0.6956  0.4542  0.3667
  708MPD2    N110476   0.702   4.218  13.775 -0.5973 -0.5408 -0.4224
  708MPD2    H710477   0.666   4.149  13.841 -2.2472  1.5397  0.8592
  709TMC3    C110478   0.488   4.205  13.710  0.7553 -0.3860  0.3279
  709TMC3    C210479   0.410   4.150  13.611 -0.1164 -0.2423 -0.0107
  709TMC3    C310480   0.284   4.118  13.655 -0.5055 -0.5594  1.0304
  709TMC3    C410481   0.450   4.230  13.839 -0.0163  0.5950  0.4671
  709TMC3    C510482   0.320   4.193  13.870  0.0731 -0.9341  0.4148
  709TMC3    C610483   0.240   4.136  13.785  0.2699  0.0364  0.1740
  709TMC3     C10484   0.620   4.252  13.672  0.9665 -0.6498 -0.6541
  709TMC3     O10485   0.646   4.310  13.566  0.3318  0.2640  1.0717
  709TMC3     H10486   0.448   4.151  13.510 -0.1770  0.8392 -0.0225
  709TMC3    H110487   0.512   4.288  13.906 -0.5025  1.5422  0.1051
  709TMC3    H210488   0.147   4.088  13.815  0.0672  0.6324  0.4882
  709TMC3    C710489   0.293   4.184  14.006  0.7305  0.1562  0.3764
  709TMC3    C810490   0.179   4.085  13.562 -0.7001  0.2094 -1.1841
  709TMC3    O110491   0.175   4.200  14.043 -0.0163 -0.0244  0.4130
  709TMC3    O210492   0.061   4.116  13.592 -0.1708 -0.1973  0.1286
  710TMC3    C110493   1.697   1.149   1.154  0.8096 -0.0174 -0.5765
  710TMC3    C210494   1.710   1.110   1.021  0.0944 -0.2742  0.2267
  710TMC3    C310495   1.827   1.059   0.978 -0.1904 -0.5733 -0.4626
  710TMC3    C410496   1.815   1.157   1.226 -0.4808  0.3305  0.1602
  710TMC3    C510497   1.928   1.110   1.172  0.6527 -0.0989 -0.1589
  710TMC3    C610498   1.938   1.063   1.045  0.3844 -0.2098  0.1341
  710TMC3     C10499   1.575   1.224   1.192 -0.5283 -0.1937  0.0068
  710TMC3     O10500   1.501   1.264   1.102 -0.3322  0.2766 -0.0334
  710TMC3     H10501   1.621   1.088   0.962  1.1909  0.2784 -1.6090
  710TMC3    H110502   1.819   1.194   1.327 -0.9542  1.1219 -0.1071
  710TMC3    H210503   2.033   1.028   1.006 -0.5868 -2.6163 -0.0695
  710TMC3    C710504   2.031   1.066   1.269  0.0696 -0.5141 -0.3556
  710TMC3    C810505   1.829   0.979   0.860  0.4615  0.3481 -0.0063
  710TMC3    O110506   1.981   1.041   1.376  0.4015 -0.6851 -0.4160
  710TMC3    O210507   1.943   0.969   0.810 -0.3655 -0.2834 -0.2417
  711TMC3    C110508   1.576   2.293  15.106  0.2021 -0.2400 -0.3595
  711TMC3    C210509   1.629   2.348  15.220  0.0783 -0.0707 -1.0116
  711TMC3    C310510   1.747   2.309  15.275  1.0287 -0.0569  0.0244
  711TMC3    C410511   1.639   2.189  15.038 -0.3539 -0.2431 -0.7477
  711TMC3    C510512   1.760   2.148  15.097 -1.2063  0.2608  0.0434
  711TMC3    C610513   1.821   2.215  15.207  0.2621 -0.0586 -0.0350
  711TMC3     C10514   1.434   2.253  15.125 -0.1531 -0.7269 -0.0866
  711TMC3     O10515   1.386   2.204  15.022 -0.0812  0.8436  0.0408
  711TMC3     H10516   1.573   2.426  15.271  0.5277 -0.3903 -0.0217
  711TMC3    H110517   1.586   2.149  14.952 -1.7105 -1.5089  0.6671
  711TMC3    H210518   1.907   2.168  15.253  0.0130  0.3353  0.8313
  711TMC3    C710519   1.771   2.004  15.118  0.0946  0.2462 -0.6449
  711TMC3    C810520   1.736   2.275  15.418  0.1541  0.0792  0.2203
  711TMC3    O110521   1.884   1.967  15.140  0.1308  0.0149  0.2547
  711TMC3    O210522   1.630   2.291  15.471  0.0800  0.5812  0.2179
  712MPD2     C10523   3.188   2.556  14.076  0.1053 -0.6757  0.8167
  712MPD2    C110524   3.063   2.616  14.054 -0.8808 -0.3013 -0.0597
  712MPD2    C210525   3.056   2.748  14.045  0.2980  0.6396 -0.4686
  712MPD2    C310526   3.171   2.831  14.040 -0.5731  0.5742 -0.4305
  712MPD2    C410527   3.289   2.766  14.064 -0.8555 -0.2153 -0.6995
  712MPD2    C510528   3.294   2.632  14.076  0.3343  0.2582 -0.6578
  712MPD2     H10529   2.958   2.794  14.035  0.4246  0.5246 -2.2480
  712MPD2    H110530   3.380   2.824  14.055 -1.8930  1.6079  0.6460
  712MPD2    H210531   3.199   2.449  14.089 -0.7837 -1.1115 -1.8370
  712MPD2    H310532   3.386   2.574  14.072  1.7419  2.4838 -0.7231
  712MPD2     N10533   3.169   2.976  14.012  0.8300  0.2819 -0.3019
  712MPD2    H510534   3.253   3.009  13.965  1.9422 -0.8227  0.8842
  712MPD2    N110535   2.938   2.552  14.048  0.2258  0.4175 -0.6593
  712MPD2    H710536   2.859   2.613  14.029 -1.6374 -2.4559 -2.2197
  713TMC3    C110537   3.036   3.174  13.967  0.2924 -0.3444 -0.2283
  713TMC3    C210538   3.153   3.227  13.905  0.0254  0.0706 -0.5504
  713TMC3    C310539   3.137   3.351  13.849  0.9289 -0.0985  0.4875
  713TMC3    C410540   2.911   3.237  13.967 -0.2874  1.0383  0.8703
  713TMC3    C510541   2.904   3.355  13.898 -0.3595  0.6196  0.0275
  713TMC3    C610542   3.015   3.418  13.853 -0.2013  0.1838  0.4060
  713TMC3     C10543   3.050   3.046  14.033  0.3980 -0.3047 -0.4089
  713TMC3     O10544   2.953   3.014  14.100  0.2991 -0.5152 -0.3261
  713TMC3     H10545   3.235   3.160  13.884  0.7349  0.8799 -0.3446
  713TMC3    H110546   2.826   3.202  14.023  0.3777  2.0798  2.5498
  713TMC3    H210547   3.006   3.518  13.813  0.2894  0.1853  0.3060
  713TMC3    C710548   2.791   3.439  13.921  0.7654  0.4278 -0.1251
  713TMC3    C810549   3.246   3.440  13.830 -0.1571  0.0824  0.0454
  713TMC3    O110550   2.741   3.434  14.031 -0.2650  0.8102 -0.2537
  713TMC3    O210551   3.228   3.540  13.766  0.1009 -0.7325  0.2483
  714MPD2     C10552   1.061   2.173   1.947  0.2031  0.0216  0.6000
  714MPD2    C110553   0.965   2.100   1.875 -0.2004 -0.0417 -0.6255
  714MPD2    C210554   0.874   2.180   1.808 -0.0367 -0.5810 -0.4448
  714MPD2    C310555   0.878   2.316   1.812 -0.2892 -0.2809  0.0219
  714MPD2    C410556   0.973   2.377   1.891 -0.8872 -0.6895 -0.4736
  714MPD2    C510557   1.061   2.307   1.957  0.1070  0.0815  0.1155
  714MPD2     H10558   0.797   2.135   1.747  0.5324 -1.4525 -0.5172
  714MPD2    H110559   0.974   2.484   1.904  0.6886 -0.7138 -0.4242
  714MPD2    H210560   1.130   2.123   2.013  1.1608 -0.8031 -1.0100
  714MPD2    H310561   1.133   2.362   2.015  0.2916 -0.6335  0.5721
  714MPD2     N10562   0.768   2.381   1.750  0.0909  0.2515 -0.1147
  714MPD2    H510563   0.697   2.319   1.713  1.0903 -1.9533  1.7391
  714MPD2    N110564   0.942   1.961   1.883  0.2474 -0.0055  0.4110
  714MPD2    H710565   1.009   1.912   1.941  2.1988 -0.2172 -1.9886
  715TMC3    C110566   0.820   1.768   1.909 -0.2223 -0.0322  0.2093
  715TMC3    C210567   0.916   1.691   1.848 -0.7099 -0.4838 -0.0739
  715TMC3    C310568   0.939   1.569   1.904  0.1325  0.4908 -0.2934
  715TMC3    C410569   0.740   1.719   2.016 -0.5286  0.1890  0.2374
  715TMC3    C510570   0.778   1.598   2.071  0.7045  0.1510  0.6564
  715TMC3    C610571   0.874   1.515   2.012  0.6695 -0.3264 -0.2577
  715TMC3     C10572   0.817   1.909   1.879  0.4856  0.5111 -0.4674
  715TMC3     O10573   0.711   1.971   1.884  0.9834 -0.2259  0.4974
  715TMC3     H10574   0.975   1.733   1.767 -0.7804 -1.2788 -0.5384
  715TMC3    H110575   0.674   1.781   2.074 -1.1742 -0.4323  0.1614
  715TMC3    H210576   0.898   1.418   2.053  0.6541 -0.3682 -0.3469
  715TMC3    C710577   0.732   1.547   2.204  0.1174 -0.4599 -0.1518
  715TMC3    C810578   1.041   1.493   1.836 -0.0090 -0.1020 -0.3011
  715TMC3    O110579   0.815   1.476   2.260  0.2398  0.8178  0.3634
  715TMC3    O210580   1.053   1.511   1.716 -0.1592 -0.6203 -0.8737
  716MPD2     C10581   1.194   3.818  10.326 -0.5149 -1.2690  0.8850
  716MPD2    C110582   1.195   3.862  10.195  0.2487 -0.3744  0.5443
  716MPD2    C210583   1.275   3.797  10.110 -0.6697 -0.1456  0.3344
  716MPD2    C310584   1.346   3.683  10.152  0.1391 -0.1010 -0.3870
  716MPD2    C410585   1.344   3.639  10.286 -0.4535  0.3331  0.1356
  716MPD2    C510586   1.260   3.705  10.373 -0.2578 -0.5406  0.0422
  716MPD2     H10587   1.270   3.825  10.005 -0.4646  2.5523  1.0361
  716MPD2    H110588   1.406   3.559  10.324  0.0372  1.4763  1.7137
  716MPD2    H210589   1.127   3.865  10.397  1.8889  3.2746  0.1678
  716MPD2    H310590   1.262   3.686  10.480 -1.4320 -3.3411 -0.4498
  716MPD2     N10591   1.414   3.617  10.052  0.2714  0.0565 -0.6040
  716MPD2    H510592   1.403   3.648   9.956  0.4819 -1.1802 -1.0267
  716MPD2    N110593   1.118   3.977  10.163 -0.3565 -0.7323 -0.5142
  716MPD2    H710594   1.054   4.003  10.237  0.2699 -2.4208  0.6101
  717TMC3    C110595   1.546   3.463   9.946  0.5811  0.3523 -0.4577
  717TMC3    C210596   1.447   3.405   9.874 -0.2330 -0.0994 -0.2896
  717TMC3    C310597   1.461   3.282   9.818 -0.0533  0.0047 -0.5647
  717TMC3    C410598   1.659   3.395   9.970 -0.1490  0.7176 -0.3473
  717TMC3    C510599   1.676   3.272   9.913 -0.0386  0.2754 -0.6303
  717TMC3    C610600   1.583   3.212   9.825  0.7033 -0.2654  0.0591
  717TMC3     C10601   1.491   3.505  10.069 -0.3471  0.1725 -0.2437
  717TMC3     O10602   1.508   3.428  10.160  0.2453  0.0509  0.0922
  717TMC3     H10603   1.346   3.444   9.872  0.8512  2.7033  0.2684
  717TMC3    H110604   1.733   3.431  10.041 -0.1337  3.7031 -1.8743
  717TMC3    H210605   1.597   3.114   9.782  1.4440  0.5555 -1.5567
  717TMC3    C710606   1.787   3.188   9.954 -0.1356  0.0527  0.2813
  717TMC3    C810607   1.368   3.258   9.707 -0.6674  0.0459 -0.4407
  717TMC3    O110608   1.816   3.096   9.881 -0.0689  0.1603  0.2842
  717TMC3    O210609   1.251   3.293   9.723 -0.3671 -0.1654 -0.5460
  718MPD2     C10610   4.447   2.532  12.746 -0.0212  0.6696  0.0298
  718MPD2    C110611   4.350   2.593  12.679 -0.7548  0.0918  0.0569
  718MPD2    C210612   4.281   2.696  12.741 -0.0752 -0.0205  0.2174
  718MPD2    C310613   4.301   2.729  12.872 -0.1514 -0.8502 -0.3461
  718MPD2    C410614   4.396   2.651  12.945 -0.4063  0.4736  0.3290
  718MPD2    C510615   4.470   2.561  12.877 -0.7167 -0.1851 -0.0647
  718MPD2     H10616   4.203   2.752  12.691 -1.0913  0.2167  2.0473
  718MPD2    H110617   4.430   2.672  13.045 -0.0685 -0.9433  0.5093
  718MPD2    H210618   4.501   2.452  12.696 -0.7137 -0.0760  0.4609
  718MPD2    H310619   4.553   2.520  12.934 -0.3073  0.1600 -0.4133
  718MPD2     N10620   4.242   2.844  12.921 -0.2186 -0.3571 -0.0573
  718MPD2    H510621   4.167   2.890  12.869 -1.7212 -0.3948  2.0794
  718MPD2    N110622   4.334   2.557  12.543 -0.0453  0.7753  0.5969
  718MPD2    H710623   4.399   2.492  12.499  1.0360  0.9827  1.8791
  719TMC3    C110624   4.288   2.643  12.336 -0.2105  0.0382 -0.3219
  719TMC3    C210625   4.241   2.762  12.303  0.0598  0.7426  0.0741
  719TMC3    C310626   4.330   2.863  12.265 -0.7249 -0.4021  0.2068
  719TMC3    C410627   4.419   2.611  12.316  0.1161  0.3530  0.3069
  719TMC3    C510628   4.510   2.712  12.295 -0.4900 -0.1973  0.2232
  719TMC3    C610629   4.466   2.837  12.263  0.2907  0.0221 -0.1041
  719TMC3     C10630   4.236   2.601  12.464 -0.4087  0.8563 -0.0108
  719TMC3     O10631   4.129   2.646  12.501 -0.2471  0.4068  0.0107
  719TMC3     H10632   4.134   2.778  12.313  0.0222  1.4418 -1.4182
  719TMC3    H110633   4.455   2.511  12.335 -2.5395  0.0905  3.8234
  719TMC3    H210634   4.539   2.912  12.236  2.0621 -1.1277  1.5020
  719TMC3    C710635   4.645   2.688  12.333  0.0143 -0.3194 -0.2951
  719TMC3    C810636   4.292   2.994  12.312  0.0578  0.4179  0.2962
  719TMC3    O110637   4.667   2.574  12.364  0.2584 -0.3571 -0.0610
  719TMC3    O210638   4.367   3.055  12.383  0.1756 -0.3772 -0.0123
  720MPD2     C10639   2.837   4.709  14.175 -0.3571  0.6134  0.8268
  720MPD2    C110640   2.908   0.078  14.090 -0.3539  1.0399 -0.2449
  720MPD2    C210641   3.047   0.101  14.101 -0.0368  0.3875  0.3458
  720MPD2    C310642   3.117   0.026  14.193 -0.2990  0.1376  0.7381
  720MPD2    C410643   3.047   4.655  14.273  0.2285 -0.2612  0.0670
  720MPD2    C510644   2.906   4.637  14.268  1.1443 -0.4743 -0.0871
  720MPD2     H10645   3.097   0.175  14.039  0.3987 -0.6619 -0.5626
  720MPD2    H110646   3.099   4.588  14.341 -3.6230  0.0906  3.3716
  720MPD2    H210647   2.730   4.699  14.178 -0.2824  0.2455  2.1855
  720MPD2    H310648   2.861   4.580  14.348 -1.3936 -0.1663 -1.3197
  720MPD2     N10649   3.254   0.060  14.210  0.0475 -0.2860 -0.0532
  720MPD2    H510650   3.284   0.142  14.158  0.2516 -0.8152 -0.7705
  720MPD2    N110651   2.831   0.161  14.003 -0.3667 -0.8488  0.6823
  720MPD2    H710652   2.731   0.147  14.019 -0.5142  0.6790  1.1377
  721TMC3    C110653   3.469   0.049  14.306 -0.1356 -0.0852  0.3650
  721TMC3    C210654   3.538   0.030  14.432  0.4692 -0.4178  0.8138
  721TMC3    C310655   3.671   0.055  14.443  0.1151 -0.0479 -0.0715
  721TMC3    C410656   3.537   0.100  14.202  0.2076  0.1520 -0.0877
  721TMC3    C510657   3.670   0.128  14.216  0.3225  0.8641  0.4021
  721TMC3    C610658   3.735   0.111  14.339  0.1969  0.1370 -0.4456
  721TMC3     C10659   3.333   4.714  14.304 -0.0170  0.6892 -0.4481
  721TMC3     O10660   3.301   4.630  14.386  0.4987 -0.5503  0.4813
  721TMC3     H10661   3.488   4.709  14.519  0.3649  1.0385  1.4172
  721TMC3    H110662   3.511   0.082  14.099  0.8269  1.6897 -0.5040
  721TMC3    H210663   3.838   0.140  14.357 -0.1794 -0.4188  2.6187
  721TMC3    C710664   3.745   0.215  14.128 -0.0952 -0.2482  0.7905
  721TMC3    C810665   3.738   0.039  14.571  0.6148  0.1513  0.0518
  721TMC3    O110666   3.867   0.235  14.150 -0.4914 -0.5014 -0.6567
  721TMC3    O210667   3.860   0.043  14.562  0.0900 -0.0473 -1.2701
  722MPD2     C10668   1.942   3.371  13.381 -0.0710 -0.3555  0.1157
  722MPD2    C110669   1.889   3.490  13.342 -0.2235  1.0018  0.0685
  722MPD2    C210670   1.760   3.493  13.297 -0.6485  0.0227 -0.3500
  722MPD2    C310671   1.692   3.376  13.274  0.7344 -0.1306 -0.7128
  722MPD2    C410672   1.750   3.256  13.300 -0.5534 -0.5316  0.0904
  722MPD2    C510673   1.874   3.255  13.356 -0.1026 -0.2546  0.0078
  722MPD2     H10674   1.715   3.585  13.261 -0.5124  0.0924 -0.3445
  722MPD2    H110675   1.706   3.160  13.276 -1.0444 -0.5836  1.2030
  722MPD2    H210676   2.047   3.367  13.410  0.0298  1.3049 -0.0211
  722MPD2    H310677   1.923   3.159  13.368 -0.0478 -0.2775 -0.4003
  722MPD2     N10678   1.561   3.391  13.230 -0.3172  0.2586  0.3735
  722MPD2    H510679   1.519   3.483  13.228  0.2224  0.5103  0.5857
  722MPD2    N110680   1.953   3.614  13.367  0.1695  0.1061 -0.0728
  722MPD2    H710681   1.905   3.699  13.341  0.4960  0.5647  0.8593
  723TMC3    C110682   1.330   3.320  13.220 -0.2672  0.8009 -0.7194
  723TMC3    C210683   1.241   3.223  13.254 -0.7227 -0.2569  0.5516
  723TMC3    C310684   1.106   3.254  13.234  0.3752 -0.7827  0.1311
  723TMC3    C410685   1.288   3.440  13.175  0.3173 -0.3916  0.2190
  723TMC3    C510686   1.150   3.464  13.161 -0.2043 -0.8179  0.2512
  723TMC3    C610687   1.056   3.370  13.183  0.4958  0.6383 -0.5705
  723TMC3     C10688   1.471   3.284  13.218 -0.1504 -0.0582 -0.1973
  723TMC3     O10689   1.489   3.164  13.237  0.2353 -0.5742  0.2933
  723TMC3     H10690   1.266   3.131  13.305  0.9511 -0.7119 -1.0733
  723TMC3    H110691   1.351   3.515  13.128 -0.0382 -1.0670 -1.3369
  723TMC3    H210692   0.948   3.379  13.175  0.4485  0.0498 -0.5222
  723TMC3    C710693   1.116   3.574  13.082  0.8033 -0.2455  0.4157
  723TMC3    C810694   1.011   3.145  13.252 -0.1466  0.1119  0.3205
  723TMC3    O110695   1.174   3.676  13.117  0.2189 -0.1197 -0.3516
  723TMC3    O210696   0.897   3.166  13.292 -0.0601  0.1392 -0.4612
  724TMC3    C110697   2.106   2.334   9.378  0.1562 -0.8539 -0.9892
  724TMC3    C210698   2.065   2.244   9.476  0.8791  0.6562  0.0902
  724TMC3    C310699   2.167   2.171   9.537 -0.8937 -0.4942 -0.2912
  724TMC3    C410700   2.236   2.374   9.354 -0.3046 -0.0376  0.6169
  724TMC3    C510701   2.332   2.314   9.435  0.2077  0.2178 -0.2547
  724TMC3    C610702   2.293   2.216   9.530  0.5854  0.5279 -0.2739
  724TMC3     C10703   2.003   2.380   9.284 -0.7597 -0.4235 -0.0035
  724TMC3     O10704   2.045   2.403   9.175 -0.6350  0.3245 -0.3600
  724TMC3     H10705   1.965   2.203   9.475  0.6390  1.1712  2.4805
  724TMC3    H110706   2.258   2.450   9.281  0.5620 -0.2381  0.6653
  724TMC3    H210707   2.376   2.155   9.565 -2.3613 -2.7944  0.9020
  724TMC3    C710708   2.475   2.339   9.410  0.0278 -0.0220  0.5402
  724TMC3    C810709   2.127   2.050   9.611  0.3657  0.8280 -0.2160
  724TMC3    O110710   2.553   2.252   9.438 -0.5204 -0.1415  0.0528
  724TMC3    O210711   2.012   2.019   9.626  0.8088  0.0278 -0.1520
  725TMC3    C110712   4.229   0.214  13.027  1.1947 -0.4719  0.6674
  725TMC3    C210713   4.146   0.261  12.931  0.2836 -0.4196  0.2703
  725TMC3    C310714   4.080   0.169  12.855  0.1690 -0.4038 -0.8822
  725TMC3    C410715   4.251   0.081  13.057 -0.0305  0.7968 -0.4103
  725TMC3    C510716   4.188   4.711  12.968  0.4712 -0.2942  0.2589
  725TMC3    C610717   4.100   0.033  12.871  0.0655 -0.7682  0.1751
  725TMC3     C10718   4.274   0.314  13.121 -0.1009  0.9916  0.1111
  725TMC3     O10719   4.214   0.419  13.114  0.3928 -0.2830  0.3668
  725TMC3     H10720   4.130   0.367  12.913 -3.5603 -1.0524 -0.1235
  725TMC3    H110721   4.320   0.049  13.134 -0.0523  0.3212 -0.5867
  725TMC3    H210722   4.039   4.682  12.815  2.7444 -2.8324 -0.2241
  725TMC3    C710723   4.211   4.567  12.977  0.3106 -0.4854  0.0017
  725TMC3    C810724   3.957   0.219  12.802 -0.3977 -0.4226  0.8303
  725TMC3    O110725   4.225   4.519  13.089  0.1561 -0.8110  0.2007
  725TMC3    O210726   3.853   0.171  12.846 -0.0879 -0.2870  0.1294
  726MPD2     C10727   2.056   1.663  10.589 -0.1919 -0.1584  0.1153
  726MPD2    C110728   1.939   1.742  10.585 -0.4052 -0.6024 -0.4989
  726MPD2    C210729   1.819   1.678  10.619 -0.0932  0.5659 -0.2249
  726MPD2    C310730   1.825   1.544  10.665 -0.6781 -0.8948  0.4397
  726MPD2    C410731   1.935   1.470  10.658  0.2373  0.0575  0.7833
  726MPD2    C510732   2.049   1.534  10.620  0.0633 -0.6272 -0.4336
  726MPD2     H10733   1.727   1.733  10.608  0.2720  1.0903 -0.6428
  726MPD2    H110734   1.942   1.363  10.671  0.6471  0.0411  0.4412
  726MPD2    H210735   2.143   1.710  10.545 -0.3235  0.0612  0.0875
  726MPD2    H310736   2.142   1.478  10.614 -1.2123 -2.7288 -0.4394
  726MPD2     N10737   1.705   1.482  10.699  0.2940  0.0738  0.0045
  726MPD2    H510738   1.696   1.381  10.703  0.8573 -0.1126 -3.0848
  726MPD2    N110739   1.943   1.871  10.524 -0.0078  0.1515 -0.0505
  726MPD2    H710740   1.851   1.911  10.507  0.6603  1.9598  0.5556
  727TMC3    C110741   2.027   2.080  10.462 -0.4950  0.6416 -0.3252
  727TMC3    C210742   2.134   2.165  10.455  0.4360 -0.5033  0.3268
  727TMC3    C310743   2.134   2.276  10.375  0.0830 -0.3718 -0.0543
  727TMC3    C410744   1.916   2.112  10.390 -0.1273 -0.2208  0.2356
  727TMC3    C510745   1.914   2.219  10.309  0.0452 -0.3161  0.4142
  727TMC3    C610746   2.018   2.309  10.306 -0.9881 -0.0645 -0.5080
  727TMC3     C10747   2.052   1.950  10.511  0.7668  0.7853 -0.2101
  727TMC3     O10748   2.166   1.926  10.555 -0.0878 -0.7095 -0.2663
  727TMC3     H10749   2.226   2.156  10.512 -0.3719 -3.6410  1.1252
  727TMC3    H110750   1.831   2.045  10.392 -0.3529  0.0922  1.4467
  727TMC3    H210751   2.012   2.402  10.251  1.9408  0.4978  0.1046
  727TMC3    C710752   1.795   2.228  10.228  0.0312  0.0284  0.4344
  727TMC3    C810753   2.246   2.374  10.393  0.3106 -0.2497 -0.5337
  727TMC3    O110754   1.728   2.126  10.193  0.2503 -0.4965 -0.3730
  727TMC3    O210755   2.357   2.323  10.408 -1.0965 -0.8242 -0.0889
  728TMC3    C110756   0.645   0.774  15.603 -0.3592 -0.6694  0.3445
  728TMC3    C210757   0.772   0.764  15.557 -0.5812  0.7067 -0.3543
  728TMC3    C310758   0.795   0.842  15.447  0.7195 -0.1637 -0.3122
  728TMC3    C410759   0.547   0.848  15.550  0.2041  0.1838  0.0648
  728TMC3    C510760   0.573   0.927  15.438  0.2492  0.5321 -0.1418
  728TMC3    C610761   0.697   0.923  15.386  0.0021  0.1170 -0.0959
  728TMC3     C10762   0.627   0.687  15.716  0.0121  0.1669 -0.0352
  728TMC3     O10763   0.722   0.672  15.791  0.2722  0.1807 -0.0872
  728TMC3     H10764   0.836   0.689  15.603 -1.9340  0.3297  0.9185
  728TMC3    H110765   0.447   0.853  15.591  0.2281  2.8888 -0.2031
  728TMC3    H210766   0.710   0.989  15.301 -2.9000  3.1557  1.8584
  728TMC3    C710767   0.471   1.006  15.391 -0.0670 -0.0840 -0.3544
  728TMC3    C810768   0.920   0.829  15.380  0.0892  0.3803  0.4481
  728TMC3    O110769   0.356   0.970  15.419 -0.1663 -0.0600  0.3670
  728TMC3    O210770   0.913   0.863  15.265  0.3057 -0.1031  0.7421
  729MPD2     C10771   2.885   2.067  17.194  0.7405  0.4716  0.1856
  729MPD2    C110772   3.006   2.009  17.220 -0.6627 -1.1181 -0.4565
  729MPD2    C210773   3.065   2.010  17.344  0.2776  0.2547  0.1578
  729MPD2    C310774   2.988   2.070  17.445  1.0397  0.7977  0.6815
  729MPD2    C410775   2.865   2.121  17.419 -0.4316  0.3850 -0.4304
  729MPD2    C510776   2.818   2.129  17.295  0.3755  0.9211  0.5457
  729MPD2     H10777   3.169   1.986  17.365 -0.2801 -2.3050 -0.0953
  729MPD2    H110778   2.800   2.160  17.496 -1.9401  1.1440 -2.1098
  729MPD2    H210779   2.841   2.070  17.095 -0.0030 -0.9292  0.4881
  729MPD2    H310780   2.717   2.164  17.275  0.7837  2.6215  1.4615
  729MPD2     N10781   3.035   2.085  17.579  0.7159  0.1250 -0.0811
  729MPD2    H510782   2.974   2.137  17.642  0.3253  0.0510 -0.3949
  729MPD2    N110783   3.083   1.967  17.101 -0.0948 -0.4961  0.2889
  729MPD2    H710784   3.035   1.981  17.012  1.5267  2.9851 -0.0518
  730TMC3    C110785   3.194   2.106   0.066  0.5733 -0.8152 -1.0725
  730TMC3    C210786   3.323   2.069   0.111  0.2930  0.7826 -1.1591
  730TMC3    C310787   3.409   2.172   0.148  0.3056 -0.1218 -0.5501
  730TMC3    C410788   3.154   2.238   0.082 -0.5303 -0.1840 -0.7321
  730TMC3    C510789   3.244   2.333   0.123  0.4693 -0.1575 -0.0980
  730TMC3    C610790   3.378   2.305   0.146 -0.7786  0.7374 -0.2936
  730TMC3     C10791   3.153   2.035  17.625 -0.4175  0.1845  0.2837
  730TMC3     O10792   3.217   1.937  17.590 -0.2777  0.0931 -0.0087
  730TMC3     H10793   3.360   1.971   0.080 -2.7043 -1.0479  1.0126
  730TMC3    H110794   3.058   2.273   0.044 -0.8167 -1.7908 -1.4942
  730TMC3    H210795   3.458   2.371   0.178 -0.4268 -0.5331  1.4091
  730TMC3    C710796   3.230   2.452   0.044  0.5265  0.2021  0.3662
  730TMC3    C810797   3.547   2.135   0.123  0.2868  0.0775  0.0478
  730TMC3    O110798   3.238   2.447  17.599 -0.8942 -0.2294 -0.1568
  730TMC3    O210799   3.616   2.225   0.072 -0.2848  0.3275 -0.1335
  731MPD2     C10800   3.608   4.492  12.213 -0.3323 -0.4955 -0.1257
  731MPD2    C110801   3.476   4.452  12.206  0.7156  0.6824  0.0612
  731MPD2    C210802   3.380   4.508  12.292  0.2415  0.3727 -0.2067
  731MPD2    C310803   3.421   4.606  12.389 -0.4199  1.3266  0.1240
  731MPD2    C410804   3.552   4.643  12.384 -0.0793  0.6205 -0.3963
  731MPD2    C510805   3.642   4.582  12.303  0.1845 -0.3782 -0.1577
  731MPD2     H10806   3.279   4.468  12.291  0.1581  0.5553  0.8824
  731MPD2    H110807   3.593   0.005  12.445 -2.7675  0.0083  2.1966
  731MPD2    H210808   3.685   4.450  12.150 -0.9394 -1.6106 -0.1233
  731MPD2    H310809   3.746   4.611  12.316 -0.7900  1.9852  2.4398
  731MPD2     N10810   3.342   4.656  12.503 -0.4108  0.2558  0.0920
  731MPD2    H510811   3.392   4.714  12.571  1.8362 -1.1325 -0.3515
  731MPD2    N110812   3.442   4.367  12.102  0.2331  0.1869 -0.2987
  731MPD2    H710813   3.518   4.328  12.047 -0.0942 -0.8127 -0.0442
  732TMC3    C110814   3.327   4.292  11.905 -0.0895 -0.1451  0.7126
  732TMC3    C210815   3.213   4.230  11.860  0.1695  0.5918 -0.1581
  732TMC3    C310816   3.232   4.133  11.762 -0.1697  0.3912  0.0568
  732TMC3    C410817   3.448   4.264  11.855  0.5352  0.3708  0.9330
  732TMC3    C510818   3.461   4.156  11.765  0.1016 -0.6174  0.0491
  732TMC3    C610819   3.352   4.099  11.713 -0.4502 -0.5852  0.0791
  732TMC3     C10820   3.320   4.343  12.039 -0.4958  0.0624 -0.8810
  732TMC3     O10821   3.208   4.371  12.088  0.0763 -0.2155 -0.1399
  732TMC3     H10822   3.115   4.250  11.901  0.3454  0.1764  0.4738
  732TMC3    H110823   3.533   4.325  11.885  0.4916  1.0976 -0.4059
  732TMC3    H210824   3.360   4.014  11.647  1.0792  0.4923 -1.1284
  732TMC3    C710825   3.585   4.151  11.683  0.9336 -0.2962  0.2549
  732TMC3    C810826   3.110   4.058  11.719  0.6844 -0.3149 -0.2012
  732TMC3    O110827   3.584   4.087  11.573 -0.3070  0.5539 -0.2564
  732TMC3    O210828   3.107   4.002  11.612  0.0246 -0.4797 -0.0356
  733TMC3    C110829   4.003   3.122  13.193  0.3201  0.3509  0.8452
  733TMC3    C210830   4.102   3.024  13.188 -0.3617  0.5074  0.0069
  733TMC3    C310831   4.163   3.011  13.071 -0.1970  0.5980 -0.7374
  733TMC3    C410832   3.990   3.217  13.091 -0.4193 -0.2398 -0.0348
  733TMC3    C510833   4.056   3.190  12.964  0.9790 -0.5963  0.1613
  733TMC3    C610834   4.138   3.076  12.953 -0.0877 -0.3750 -0.9588
  733TMC3     C10835   3.872   3.083  13.247 -0.2633  0.0060  0.5168
  733TMC3     O10836   3.770   3.118  13.187 -0.7332  0.2472 -0.0506
  733TMC3     H10837   4.114   2.945  13.261 -0.3394 -0.8873 -1.5082
  733TMC3    H110838   3.915   3.294  13.087  0.5387  0.6478 -0.8989
  733TMC3    H210839   4.206   3.073  12.869 -0.3649  1.7666 -1.2744
  733TMC3    C710840   3.984   3.237  12.840  0.2722 -1.0907 -0.0558
  733TMC3    C810841   4.258   2.898  13.046 -0.5639  0.5340  0.3865
  733TMC3    O110842   3.873   3.286  12.853 -0.3142  0.3271  0.5669
  733TMC3    O210843   4.312   2.844  13.146 -1.1268 -0.1670 -0.4545
  734MPD2     C10844   1.845   0.743  12.248  0.2971  0.4106  0.3707
  734MPD2    C110845   1.725   0.741  12.184  0.2879  0.2055 -0.3296
  734MPD2    C210846   1.710   0.791  12.059 -0.1660 -0.7959 -0.1379
  734MPD2    C310847   1.818   0.849  12.000  0.0455  0.5886  0.5326
  734MPD2    C410848   1.943   0.847  12.060 -0.7836 -0.0177 -0.7428
  734MPD2    C510849   1.954   0.799  12.188 -0.2989  0.3144 -0.4973
  734MPD2     H10850   1.618   0.781  12.002  1.0126 -2.9396 -1.6935
  734MPD2    H110851   2.032   0.879  12.008  0.5724 -2.8088 -0.1487
  734MPD2    H210852   1.855   0.705  12.350  3.3917 -0.3905 -0.2370
  734MPD2    H310853   2.053   0.791  12.231 -0.9459  1.1713  1.1700
  734MPD2     N10854   1.795   0.887  11.869 -0.5995 -0.1688 -0.1877
  734MPD2    H510855   1.698   0.875  11.839 -0.9082  1.0826  0.3013
  734MPD2    N110856   1.621   0.687  12.259  0.1048 -0.1077 -0.1946
  734MPD2    H710857   1.642   0.671  12.357 -0.0010 -3.4250 -0.7276
  735TMC3    C110858   1.402   0.593  12.276  0.2791 -0.3626  0.2494
  735TMC3    C210859   1.278   0.608  12.215 -0.2554 -0.8035 -0.0131
  735TMC3    C310860   1.209   0.497  12.169 -0.1665 -0.4184 -0.2601
  735TMC3    C410861   1.458   0.471  12.288 -0.3102  0.0998  0.2421
  735TMC3    C510862   1.384   0.366  12.250  0.8185  0.0054  0.3704
  735TMC3    C610863   1.271   0.375  12.181  0.0230  0.0851 -0.7239
  735TMC3     C10864   1.493   0.683  12.204  0.1925  0.1529  0.4916
  735TMC3     O10865   1.435   0.744  12.112  0.5775  0.2081 -0.2948
  735TMC3     H10866   1.235   0.707  12.213 -0.2838 -0.7374  4.1873
  735TMC3    H110867   1.559   0.460  12.326  0.5828 -0.9522 -2.4898
  735TMC3    H210868   1.216   0.293  12.136  1.0037 -1.8670  1.6564
  735TMC3    C710869   1.461   0.253  12.202 -0.0023  0.2550 -1.0248
  735TMC3    C810870   1.141   0.528  12.040 -0.1930  0.8384  0.1869
  735TMC3    O110871   1.430   0.217  12.092 -0.4870  0.2276  0.0909
  735TMC3    O210872   1.074   0.440  11.990  0.7842 -0.1503 -0.5063
  736MPD2     C10873   1.728   0.071  12.363 -1.0868  0.5456  0.1724
  736MPD2    C110874   1.675   0.137  12.258 -0.2615 -1.0682  0.0561
  736MPD2    C210875   1.733   0.137  12.134 -0.0758  0.1610  0.3418
  736MPD2    C310876   1.843   0.057  12.111  0.0303 -0.8238  0.0047
  736MPD2    C410877   1.902   4.710  12.222 -0.1190  0.5115  0.4851
  736MPD2    C510878   1.843   4.715  12.351 -0.4000 -0.2523 -0.5574
  736MPD2     H10879   1.690   0.191  12.050 -1.0601  0.0303  0.7612
  736MPD2    H110880   1.998   4.660  12.210 -1.4240 -1.8633  0.0884
  736MPD2    H210881   1.678   0.084  12.458  1.1944 -0.7370  1.5499
  736MPD2    H310882   1.893   4.676  12.439  1.8785 -1.0767 -2.2185
  736MPD2     N10883   1.901   0.048  11.984  0.2710 -0.0887 -0.5372
  736MPD2    H510884   1.975   4.699  11.968 -0.6866 -1.7042  1.8435
  736MPD2    N110885   1.553   0.201  12.293  0.2262  0.2381 -0.3776
  736MPD2    H710886   1.538   0.215  12.393 -1.8897  1.3286 -0.8563
  737TMC3    C110887   1.988   0.104  11.773  0.1415  0.8888 -0.6452
  737TMC3    C210888   1.996   0.199  11.675 -0.3381 -0.3236  0.6563
  737TMC3    C310889   2.076   0.171  11.570 -0.1893 -0.1403  0.5124
  737TMC3    C410890   2.064   4.706  11.770  0.0285 -0.2788  0.1657
  737TMC3    C510891   2.151   4.691  11.666 -0.6355 -0.6289 -0.4683
  737TMC3    C610892   2.151   0.055  11.560  0.1045  0.1660 -0.2764
  737TMC3     C10893   1.877   0.117  11.868 -0.1299 -0.0332 -0.8106
  737TMC3     O10894   1.778   0.179  11.841  0.7389 -0.2372 -0.1241
  737TMC3     H10895   1.931   0.286  11.682  0.1054  0.2018 -1.5328
  737TMC3    H110896   2.064   4.631  11.848 -1.5821 -0.7711 -0.3119
  737TMC3    H210897   2.217   0.041  11.475 -1.0205 -0.8822 -0.9783
  737TMC3    C710898   2.216   4.566  11.661 -0.0479  0.1758  0.5185
  737TMC3    C810899   2.050   0.249  11.453 -0.2618 -0.6942  0.7045
  737TMC3    O110900   2.179   4.467  11.726 -0.1318  0.0754 -0.1140
  737TMC3    O210901   1.979   0.346  11.468 -0.1742  0.1548  0.4896
  738MPD2     C10902   1.908   4.216  15.377 -0.6246 -0.3447 -0.6615
  738MPD2    C110903   1.923   4.153  15.254 -0.5472 -0.6267 -0.7989
  738MPD2    C210904   2.020   4.204  15.158 -0.8625  0.6346  0.4435
  738MPD2    C310905   2.107   4.303  15.192  0.0264  0.2805  0.9312
  738MPD2    C410906   2.100   4.348  15.320  0.5047  0.0996  0.3162
  738MPD2    C510907   2.004   4.301  15.403  0.8015  0.4031  0.4746
  738MPD2     H10908   2.035   4.154  15.063  0.6557 -0.0598  1.0430
  738MPD2    H110909   2.169   4.421  15.360  2.2069 -1.5072  0.3304
  738MPD2    H210910   1.827   4.210  15.449  0.1636 -0.9966  0.1732
  738MPD2    H310911   2.015   4.340  15.503  0.8984 -0.1656  0.6824
  738MPD2     N10912   2.220   4.334  15.114  0.4161 -0.3450 -0.0318
  738MPD2    H510913   2.289   4.399  15.151 -0.1835  1.0685 -1.4384
  738MPD2    N110914   1.832   4.060  15.208  0.6371 -0.2530 -0.6792
  738MPD2    H710915   1.837   4.029  15.111  2.8486 -0.6839 -0.4270
  739TMC3    C110916   2.397   4.318  14.959 -0.3167 -0.2126 -0.1220
  739TMC3    C210917   2.445   4.305  14.833  0.0019  0.0519  0.1251
  739TMC3    C310918   2.575   4.298  14.813  0.2826 -0.0522 -0.2987
  739TMC3    C410919   2.480   4.319  15.062 -0.0115  0.0078  0.8373
  739TMC3    C510920   2.619   4.303  15.039  0.2354 -0.3773 -0.7833
  739TMC3    C610921   2.669   4.294  14.911  0.4361 -0.5360  0.5282
  739TMC3     C10922   2.253   4.293  14.987 -0.4497 -0.5058 -0.2672
  739TMC3     O10923   2.185   4.236  14.904 -0.3247 -0.3550  0.1837
  739TMC3     H10924   2.369   4.292  14.757 -1.3929  0.3460  1.4845
  739TMC3    H110925   2.453   4.360  15.159 -1.8477 -1.7106  1.0644
  739TMC3    H210926   2.772   4.269  14.892 -0.4243 -2.3388 -1.6934
  739TMC3    C710927   2.705   4.288  15.160 -0.0431  0.1098  0.4652
  739TMC3    C810928   2.613   4.292  14.670 -0.2503 -0.4689  1.0184
  739TMC3    O110929   2.795   4.366  15.180  0.4075 -0.0981 -0.1662
  739TMC3    O210930   2.518   4.311  14.596 -0.5339 -0.4281 -0.6990
  740TMC3    C110931   2.816   0.629  14.557 -0.3543 -0.1981 -0.4550
  740TMC3    C210932   2.852   0.636  14.692  0.1766 -0.3453 -0.5944
  740TMC3    C310933   2.967   0.578  14.733  0.1541  0.0021 -0.2791
  740TMC3    C410934   2.904   0.583  14.465  0.1374 -0.2149  0.0099
  740TMC3    C510935   3.024   0.541  14.512 -0.8173  0.5085  0.8729
  740TMC3    C610936   3.058   0.535  14.644 -0.1522 -0.9384  0.3674
  740TMC3     C10937   2.686   0.667  14.502  0.6615  0.8451 -0.2947
  740TMC3     O10938   2.683   0.690  14.380  0.2278  0.6889  0.1217
  740TMC3     H10939   2.777   0.671  14.762  1.4529 -0.3875  0.7984
  740TMC3    H110940   2.883   0.568  14.360  0.3819  2.1797 -0.3797
  740TMC3    H210941   3.137   0.478  14.691  0.0359 -0.2608  0.8808
  740TMC3    C710942   3.128   0.503  14.419  0.7042  0.4579  0.2577
  740TMC3    C810943   2.959   0.541  14.867 -0.5175 -0.4653 -0.3017
  740TMC3    O110944   3.222   0.441  14.466 -0.3846  0.0508 -0.4566
  740TMC3    O210945   2.851   0.513  14.912  0.4983  0.4385  0.1298
  741TMC3    C110946   2.491   4.655  14.713  0.0833  0.1083  0.2477
  741TMC3    C210947   2.406   4.581  14.639  0.3143  0.1224  0.1527
  741TMC3    C310948   2.278   4.575  14.679  0.3842  0.6860  0.3206
  741TMC3    C410949   2.454   0.006  14.825  0.4373 -0.8930  0.4882
  741TMC3    C510950   2.317   4.717  14.858  0.7280 -0.6119  0.6669
  741TMC3    C610951   2.232   4.628  14.796  0.4895 -0.2748  1.0852
  741TMC3     C10952   2.630   4.651  14.679  0.2322  0.4880  0.5183
  741TMC3     O10953   2.661   4.634  14.562 -0.3591  0.0652  0.0980
  741TMC3     H10954   2.440   4.525  14.553  0.8773 -1.1762  1.2227
  741TMC3    H110955   2.517   0.076  14.878  1.9811 -0.3117 -2.0947
  741TMC3    H210956   2.125   4.628  14.816  0.1511  1.0574 -0.7595
  741TMC3    C710957   2.277   0.058  14.985 -0.3789 -0.1024 -0.4101
  741TMC3    C810958   2.182   4.481  14.614 -0.6102 -0.6535  0.0717
  741TMC3    O110959   2.203   4.706  15.051  0.3733 -0.5872  0.1623
  741TMC3    O210960   2.066   4.468  14.654 -0.8675  0.3257  0.1162
  742TMC3    C110961   1.963   2.963  15.432  0.5417 -0.1116  0.2828
  742TMC3    C210962   1.921   2.981  15.305 -0.3925 -0.6350 -0.2066
  742TMC3    C310963   2.010   2.949  15.207  0.1690 -0.0879  0.1983
  742TMC3    C410964   2.089   2.926  15.477 -0.3775  0.5746  0.0312
  742TMC3    C510965   2.176   2.891  15.373  0.0191  0.2302 -0.2176
  742TMC3    C610966   2.133   2.897  15.244 -0.0768 -0.4546  0.0222
  742TMC3     C10967   1.871   3.013  15.537  0.3004 -0.5352 -0.7669
  742TMC3     O10968   1.793   3.101  15.501  0.2342 -0.2658  0.2536
  742TMC3     H10969   1.814   2.997  15.290 -0.7102 -0.1542  2.4644
  742TMC3    H110970   2.114   2.921  15.582 -1.1045 -1.6974  0.0882
  742TMC3    H210971   2.207   2.884  15.165 -0.1792  1.6535 -0.4192
  742TMC3    C710972   2.304   2.826  15.394  1.0250 -0.0319  0.0718
  742TMC3    C810973   1.971   2.915  15.077  0.2379  0.7244 -0.1531
  742TMC3    O110974   2.347   2.752  15.304  0.4937 -0.5731 -0.0461
  742TMC3    O210975   2.041   2.840  15.009 -0.1283 -0.1819  0.0389
  743MPD2     C10976   1.180   4.207   2.214 -0.1275  0.6457 -0.0404
  743MPD2    C110977   1.202   4.306   2.113  0.2840 -0.1480  1.5142
  743MPD2    C210978   1.331   4.312   2.056  0.8295  0.6104  0.2583
  743MPD2    C310979   1.432   4.225   2.092  0.1021 -0.0998 -0.7161
  743MPD2    C410980   1.411   4.134   2.197  0.2482 -0.4451 -0.0683
  743MPD2    C510981   1.280   4.129   2.246  0.1016  0.1865  0.9998
  743MPD2     H10982   1.360   4.388   1.985  3.2119 -0.2567  0.3144
  743MPD2    H110983   1.489   4.069   2.234 -0.2660 -1.0960 -0.1158
  743MPD2    H210984   1.084   4.186   2.261  0.5638  1.3909  1.6751
  743MPD2    H310985   1.270   4.066   2.333  2.1159 -1.3179  0.1424
  743MPD2     N10986   1.554   4.229   2.022  0.0956 -0.1213  0.4145
  743MPD2    H510987   1.555   4.298   1.947  2.5218 -0.6032  0.0010
  743MPD2    N110988   1.103   4.394   2.064 -0.4026  0.2628  0.8955
  743MPD2    H710989   1.114   4.445   1.977 -1.2504 -1.6278 -0.3287
  744TMC3    C110990   0.902   4.503   2.049  0.1990  0.3180 -0.0351
  744TMC3    C210991   0.806   4.575   2.109 -0.3294 -0.2194 -0.0067
  744TMC3    C310992   0.696   4.613   2.036  0.6222 -0.7245  0.1072
  744TMC3    C410993   0.890   4.451   1.923  0.2490  0.5107 -0.2413
  744TMC3    C510994   0.782   4.490   1.853 -0.3884 -0.3763  0.4232
  744TMC3    C610995   0.682   4.567   1.901  0.3880  0.2011  0.0214
  744TMC3     C10996   0.989   4.431   2.129 -0.1600  0.0577  0.2333
  744TMC3     O10997   0.945   4.398   2.235  0.2737 -0.8219 -0.4708
  744TMC3     H10998   0.810   4.587   2.217 -2.1602  1.1560 -0.0873
  744TMC3    H110999   0.974   4.405   1.870 -0.0184  0.3770 -0.5492
  744TMC3    H211000   0.592   4.593   1.847  0.5523 -1.0225 -0.8394
  744TMC3    C711001   0.758   4.424   1.724  0.1395  0.2621 -0.5469
  744TMC3    C811002   0.631   0.027   2.054 -0.2764  0.0061 -0.5450
  744TMC3    O111003   0.688   4.482   1.640 -0.3736  0.6403 -0.2458
  744TMC3    O211004   0.543   0.056   1.970 -0.1917 -0.0920 -0.9913
  745TMC3    C111005   2.781   2.376  14.037 -0.3684  0.0965  0.1561
  745TMC3    C211006   2.693   2.355  14.140 -0.5401  0.1059 -0.1640
  745TMC3    C311007   2.564   2.379  14.129  0.4892 -0.3000 -0.0301
  745TMC3    C411008   2.737   2.431  13.922  0.6020  0.6354  0.2385
  745TMC3    C511009   2.599   2.441  13.910  0.6298  0.2799  0.0361
  745TMC3    C611010   2.514   2.410  14.009  0.6394 -0.1501  0.4088
  745TMC3     C11011   2.918   2.419  14.066  0.7730 -0.6321  0.0013
  745TMC3     O11012   2.991   2.339  14.122 -0.4721 -0.1277  0.3415
  745TMC3     H11013   2.731   2.314  14.234 -1.4364  0.5012  0.3685
  745TMC3    H111014   2.808   2.458  13.845 -1.2729  2.6279 -0.8138
  745TMC3    H211015   2.410   2.439  14.000  0.3320 -1.1326  0.7225
  745TMC3    C711016   2.536   2.540  13.818 -0.2719  0.2401  0.5626
  745TMC3    C811017   2.515   2.474  14.222 -0.3536 -0.4190  0.6273
  745TMC3    O111018   2.427   2.586  13.851  0.3852  0.1683  0.1411
  745TMC3    O211019   2.405   2.524  14.205 -0.4943  0.5159  0.1599
  746TMC3    C111020   0.218   4.291  11.079  0.0101 -0.0367 -0.4336
  746TMC3    C211021   0.330   4.275  11.003  0.8304  0.0010  0.5084
  746TMC3    C311022   0.366   4.148  10.959 -0.2625  0.1444  0.2662
  746TMC3    C411023   0.147   4.179  11.128 -1.2754 -0.0724  0.4475
  746TMC3    C511024   0.197   4.059  11.082  0.4927 -0.2565  0.4378
  746TMC3    C611025   0.306   4.036  10.995 -0.3359 -0.0407  1.1990
  746TMC3     C11026   0.189   4.424  11.122  0.1026 -0.3064  0.8449
  746TMC3     O11027   0.148   4.443  11.233  0.0718 -0.1059 -0.1460
  746TMC3     H11028   0.397   4.357  10.981  0.7276 -0.5509 -1.8617
  746TMC3    H111029   0.052   4.190  11.178 -1.9413  3.0307 -1.4589
  746TMC3    H211030   0.328   3.938  10.954 -0.3207  0.6752 -0.4695
  746TMC3    C711031   0.123   3.936  11.102  0.5165  0.0982  0.2009
  746TMC3    C811032   0.469   4.128  10.864 -0.3209  0.0228 -1.2325
  746TMC3    O111033   0.138   3.858  11.010  0.2984 -0.0764  0.1753
  746TMC3    O211034   0.536   4.028  10.879  0.0840  0.2041 -0.2020
  747TMC3    C111035   3.026   4.372  10.972 -0.7445  0.4041 -0.8280
  747TMC3    C211036   2.901   4.356  11.016 -1.0015 -0.2910  0.4944
  747TMC3    C311037   2.865   4.383  11.147 -0.5180  0.3700  0.3621
  747TMC3    C411038   3.120   4.419  11.059 -0.5007  0.4537  0.7182
  747TMC3    C511039   3.081   4.452  11.187  0.0498 -0.1145  0.5843
  747TMC3    C611040   2.955   4.436  11.238  0.2025 -0.0466 -0.0381
  747TMC3     C11041   3.056   4.382  10.830  0.0710 -0.4117 -0.1860
  747TMC3     O11042   3.165   4.431  10.806 -0.3341  0.8379 -0.0230
  747TMC3     H11043   2.824   4.308  10.957 -0.5946 -1.4768  0.9243
  747TMC3    H111044   3.218   4.455  11.033 -0.3013 -0.5197  0.1045
  747TMC3    H211045   2.921   4.468  11.337 -0.3641  0.4839 -0.4003
  747TMC3    C711046   3.179   4.509  11.280 -0.0547 -0.3813 -0.5340
  747TMC3    C811047   2.738   4.331  11.195  0.7923 -0.1742 -0.0659
  747TMC3    O111048   3.130   4.571  11.370 -0.0011 -0.1771  0.0330
  747TMC3    O211049   2.696   4.222  11.145  0.1079 -0.2436  0.1437
  748MPD2     C11050   4.470   0.715   1.329  0.5870  0.2521 -0.1472
  748MPD2    C111051   4.490   0.751   1.461 -1.0219 -0.3193  0.0765
  748MPD2    C211052   4.608   0.826   1.495 -0.2135 -0.1430 -0.3328
  748MPD2    C311053   4.706   0.839   1.402 -0.1668  0.5997  0.3080
  748MPD2    C411054   4.694   0.788   1.269  0.6831  0.0514 -0.5316
  748MPD2    C511055   4.574   0.721   1.235  0.0948  0.0999  0.3416
  748MPD2     H11056   4.625   0.869   1.593 -2.2445  1.7791 -0.8323
  748MPD2    H111057   0.055   0.793   1.195  0.6877  2.1240 -0.3958
  748MPD2    H211058   4.379   0.663   1.301  0.8750  0.0788 -0.7704
  748MPD2    H311059   4.573   0.673   1.138 -0.5591 -0.4737  0.6305
  748MPD2     N11060   0.109   0.906   1.443 -0.4185  0.0444  0.3707
  748MPD2    H511061   0.105   0.942   1.538  1.4706 -0.9044  0.8152
  748MPD2    N111062   4.378   0.742   1.543 -0.3093  0.6095 -0.4224
  748MPD2    H711063   4.294   0.696   1.510 -0.3431  1.3564 -1.3941
  749TMC3    C111064   0.314   1.023   1.422 -0.4564  0.2226 -0.1821
  749TMC3    C211065   0.331   1.001   1.555 -0.3820 -0.6893 -0.1922
  749TMC3    C311066   0.383   1.099   1.633 -0.4805 -0.0290  0.2282
  749TMC3    C411067   0.347   1.143   1.371 -0.4684  0.5821 -0.6762
  749TMC3    C511068   0.384   1.249   1.452 -0.5168 -0.0219  0.6898
  749TMC3    C611069   0.405   1.225   1.587 -0.6240  0.8460 -0.0397
  749TMC3     C11070   0.208   0.944   1.352 -0.7591 -0.4755 -0.9183
  749TMC3     O11071   0.213   0.944   1.231 -0.2799 -0.1944  0.5134
  749TMC3     H11072   0.293   0.917   1.612 -0.8592  0.3368  1.0076
  749TMC3    H111073   0.340   1.151   1.263  1.1555 -1.1711 -0.9179
  749TMC3    H211074   0.432   1.299   1.662  2.5332  0.6377 -0.9832
  749TMC3    C711075   0.370   1.383   1.408  0.4569 -0.2801 -0.8774
  749TMC3    C811076   0.421   1.049   1.765 -0.4936 -0.1811  0.6882
  749TMC3    O111077   0.431   1.469   1.473 -0.3951  0.0981 -0.6537
  749TMC3    O211078   0.391   1.103   1.872  0.4048 -0.1563  0.1690
  750MPD2     C11079   0.580   1.458  11.395 -0.4274  0.1561  0.0857
  750MPD2    C111080   0.440   1.448  11.385 -0.2058  1.3332  0.2199
  750MPD2    C211081   0.387   1.336  11.328  0.4002 -0.3932 -0.7918
  750MPD2    C311082   0.473   1.242  11.264 -0.0577 -0.6465  0.1936
  750MPD2    C411083   0.610   1.250  11.275  0.1507  0.2788 -0.0549
  750MPD2    C511084   0.662   1.364  11.334 -0.2289 -0.3945 -0.3553
  750MPD2     H11085   0.282   1.316  11.348  0.5553 -0.4164 -0.0164
  750MPD2    H111086   0.676   1.170  11.243 -0.4652 -0.0675 -0.4526
  750MPD2    H211087   0.626   1.541  11.447 -1.3263  1.2149 -0.8102
  750MPD2    H311088   0.770   1.367  11.342 -0.1667 -0.9754 -0.9067
  750MPD2     N11089   0.430   1.126  11.192  0.0904 -0.6144  0.3104
  750MPD2    H511090   0.501   1.065  11.153 -0.2830 -1.1576  0.4766
  750MPD2    N111091   0.360   1.547  11.451 -0.2345  0.0012 -0.5128
  750MPD2    H711092   0.421   1.605  11.507  0.5051 -2.5343  1.2976
  751TMC3    C111093   0.274   0.955  11.129  0.6431  0.2926 -0.6341
  751TMC3    C211094   0.154   0.888  11.166 -0.3174  0.4546 -0.7503
  751TMC3    C311095   0.147   0.752  11.130  0.7166 -0.2510  0.4535
  751TMC3    C411096   0.382   0.883  11.071  0.0526  0.3952 -0.5658
  751TMC3    C511097   0.364   0.753  11.060  0.1903  0.2021 -0.1302
  751TMC3    C611098   0.254   0.683  11.081  0.6019  0.0926 -0.1575
  751TMC3     C11099   0.298   1.080  11.199  0.6065  0.1466  0.8452
  751TMC3     O11100   0.214   1.118  11.278  0.8017 -0.3009  0.3135
  751TMC3     H11101   0.070   0.945  11.204 -0.9422 -0.4712 -0.7357
  751TMC3    H111102   0.478   0.926  11.049  0.1435  0.8175  0.6254
  751TMC3    H211103   0.237   0.583  11.042  0.0773 -0.1699  0.7541
  751TMC3    C711104   0.481   0.674  11.032  0.1016 -0.6119 -0.5811
  751TMC3    C811105   0.018   0.689  11.116 -0.5477 -0.6383  0.6658
  751TMC3    O111106   0.581   0.738  11.002 -0.1380 -0.6809  0.0055
  751TMC3    O211107   0.013   0.581  11.058 -0.0829 -0.1148 -0.0307
  752TMC3    C111108   3.928   1.628  17.600  0.9301  0.5080 -0.0655
  752TMC3    C211109   3.794   1.623  17.642 -0.5191 -0.5859  0.2722
  752TMC3    C311110   3.750   1.521   0.046 -0.7230  0.0116 -0.4736
  752TMC3    C411111   4.010   1.527  17.650 -0.6622 -0.2352  0.3742
  752TMC3    C511112   3.965   1.433   0.062  0.4879 -0.3090  0.1076
  752TMC3    C611113   3.832   1.422   0.100 -0.1030 -0.1300 -0.2441
  752TMC3     C11114   3.973   1.691  17.476  0.0425  0.1508 -0.2126
  752TMC3     O11115   4.084   1.656  17.437 -0.1908 -0.4023  0.6641
  752TMC3     H11116   3.724   1.699  17.609  0.8443  0.8674  0.7476
  752TMC3    H111117   4.117   1.535  17.638 -0.8984  0.1348 -1.5966
  752TMC3    H211118   3.802   1.338   0.162  0.7847 -1.4239 -1.5695
  752TMC3    C711119   4.053   1.378   0.161  0.0264  0.0098  0.1857
  752TMC3    C811120   3.610   1.541   0.094 -0.6501  0.1119  0.0263
  752TMC3    O111121   4.002   1.353   0.269 -0.4011  0.4226  0.0948
  752TMC3    O211122   3.533   1.621   0.046 -0.2275 -0.1163 -0.4375
  753TMC3    C111123   1.400   2.821  13.535  0.2928 -0.8113  0.2889
  753TMC3    C211124   1.498   2.790  13.621  0.2197  0.5005 -0.0575
  753TMC3    C311125   1.566   2.674  13.595 -0.5691 -0.3587 -0.5247
  753TMC3    C411126   1.362   2.742  13.429  0.0220  0.5135 -0.7141
  753TMC3    C511127   1.437   2.628  13.406 -0.4197 -0.3111  0.3735
  753TMC3    C611128   1.539   2.591  13.491 -0.6806  0.0503 -0.3706
  753TMC3     C11129   1.334   2.953  13.538  0.1497 -0.5770 -0.1249
  753TMC3     O11130   1.221   2.963  13.496 -0.6650  0.8231  0.4902
  753TMC3     H11131   1.508   2.851  13.710  0.5032  1.0875 -0.4963
  753TMC3    H111132   1.295   2.778  13.352 -1.5672 -3.0130 -0.9858
  753TMC3    H211133   1.597   2.500  13.481 -0.1840  0.2801  0.3752
  753TMC3    C711134   1.371   2.520  13.329  0.4474 -0.6296  0.0933
  753TMC3    C811135   1.678   2.646  13.682 -0.4022  0.6551  0.8317
  753TMC3    O111136   1.444   2.430  13.283 -0.3214  0.0266 -0.6751
  753TMC3    O211137   1.762   2.571  13.637 -0.1404 -0.3720 -0.2700
  754MPD2     C11138   0.312   1.253  13.776 -0.5807 -0.4655  0.0585
  754MPD2    C111139   0.201   1.258  13.862 -0.1133 -0.3584  0.2559
  754MPD2    C211140   0.087   1.211  13.808  0.0333  0.0191  0.2560
  754MPD2    C311141   0.073   1.168  13.670  0.0200 -0.4830 -0.7395
  754MPD2    C411142   0.188   1.165  13.594 -0.1891  0.0801  0.2461
  754MPD2    C511143   0.306   1.196  13.653 -0.1525  0.0563  0.1395
  754MPD2     H11144   4.715   1.218  13.867  0.6110 -0.7461  1.2429
  754MPD2    H111145   0.183   1.123  13.494  0.9682  0.1054  0.1764
  754MPD2    H211146   0.407   1.296  13.803 -0.0606 -1.9737  0.6442
  754MPD2    H311147   0.397   1.184  13.596 -0.7153 -1.0821 -0.5240
  754MPD2     N11148   4.671   1.117  13.619 -0.5863 -0.0084 -0.4109
  754MPD2    H511149   4.673   1.065  13.532  0.1283  0.3445 -0.5986
  754MPD2    N111150   0.206   1.328  13.982  0.5651  0.4544  0.2675
  754MPD2    H711151   0.291   1.382  13.996 -0.6024  2.8764 -2.0414
  755MPD2     C11152   3.645   1.295  13.338 -0.3692 -0.3525 -0.0560
  755MPD2    C111153   3.684   1.261  13.468  0.2086  0.2982 -0.4730
  755MPD2    C211154   3.816   1.222  13.493  0.2991 -0.6428  0.5901
  755MPD2    C311155   3.906   1.214  13.390  0.2478  0.0639  0.0027
  755MPD2    C411156   3.863   1.248  13.261  0.0825  0.0071  0.1786
  755MPD2    C511157   3.744   1.302  13.241  0.3461  0.6401  0.1792
  755MPD2     H11158   3.840   1.172  13.586  1.5663  0.0519  0.6333
  755MPD2    H111159   3.935   1.243  13.179 -0.3563  1.3147 -0.2809
  755MPD2    H211160   3.545   1.332  13.319  0.4046  1.8397  0.0833
  755MPD2    H311161   3.722   1.335  13.140  0.3675 -0.7784 -0.2996
  755MPD2     N11162   4.039   1.170  13.408 -0.7330  0.2591  0.0587
  755MPD2    H511163   4.103   1.153  13.331  1.1742 -0.7304  1.8866
  755MPD2    N111164   3.601   1.275  13.583 -0.9556 -0.2287 -0.5227
  755MPD2    H711165   3.640   1.250  13.673 -0.7330  1.4629 -0.1611
  756MPD2     C11166   0.539   1.735   9.735  0.2074  0.5623 -0.0620
  756MPD2    C111167   0.459   1.708   9.841  0.4563  0.2211  0.4561
  756MPD2    C211168   0.432   1.572   9.870  0.2017 -0.6754  0.1767
  756MPD2    C311169   0.490   1.468   9.805 -0.2740  0.2166  0.3693
  756MPD2    C411170   0.568   1.500   9.699 -0.0580  0.2002  0.9142
  756MPD2    C511171   0.578   1.629   9.658  0.6382 -0.0321  0.3771
  756MPD2     H11172   0.369   1.551   9.956 -0.4584 -0.4576 -0.2612
  756MPD2    H111173   0.612   1.426   9.633  0.9628  0.9544  0.7510
  756MPD2    H211174   0.551   1.831   9.687 -0.9529  0.5351 -0.4310
  756MPD2    H311175   0.635   1.647   9.568  1.6304 -0.4060  0.9333
  756MPD2     N11176   0.470   1.335   9.850  0.1012 -0.4426  0.1507
  756MPD2    H511177   0.417   1.335   9.936  1.1985  1.2797  0.8307
  756MPD2    N111178   0.408   1.810   9.923 -0.1878 -0.8565  0.0543
  756MPD2    H711179   0.357   1.782  10.007 -1.0476 -0.9991 -0.5240
  757MPD2     C11180   4.547   0.586  10.024  0.0451 -0.2924  0.4644
  757MPD2    C111181   4.647   0.544   9.942  0.3676  0.2162 -0.1068
  757MPD2    C211182   0.042   0.626   9.930  0.0105 -0.2748 -0.0086
  757MPD2    C311183   0.064   0.734  10.008 -0.5454 -0.4199  0.0110
  757MPD2    C411184   4.673   0.777  10.096  0.5956  0.1475 -0.2797
  757MPD2    C511185   4.557   0.709  10.092 -0.2629 -0.4024 -0.7500
  757MPD2     H11186   0.122   0.601   9.862  0.1092  2.3457 -0.8590
  757MPD2    H111187   4.675   0.867  10.157 -1.8904 -1.8458  2.7155
  757MPD2    H211188   4.450   0.537  10.028 -0.5596  0.9270  0.7576
  757MPD2    H311189   4.473   0.737  10.153  0.0599 -0.0605 -0.4683
  757MPD2     N11190   0.185   0.798   9.994  0.3714 -0.5692 -0.2087
  757MPD2    H511191   0.258   0.750   9.942  0.2437 -1.0758  0.0758
  757MPD2    N111192   4.625   0.425   9.877  0.1639 -0.9602  0.3830
  757MPD2    H711193   4.548   0.373   9.918  0.1933  0.2899  2.0373
  758MPD2     C11194   4.300   1.128  16.357  0.3583 -0.0433  0.7410
  758MPD2    C111195   4.388   1.105  16.470 -0.6979 -0.7056 -0.2727
  758MPD2    C211196   4.353   1.165  16.589  0.2031  0.4104 -0.6749
  758MPD2    C311197   4.254   1.258  16.603 -0.1934 -0.3946 -0.7419
  758MPD2    C411198   4.170   1.279  16.496 -0.0871 -0.4487 -0.1321
  758MPD2    C511199   4.195   1.213  16.380 -0.4481  0.5938  0.2276
  758MPD2     H11200   4.424   1.138  16.667  0.3734  2.2229 -0.2113
  758MPD2    H111201   4.103   1.365  16.500  0.2143 -0.2076 -0.2813
  758MPD2    H211202   4.308   1.074  16.264 -1.0911  0.4319  0.3327
  758MPD2    H311203   4.127   1.228  16.297 -0.6074  0.2869  0.3020
  758MPD2     N11204   4.230   1.327  16.725  0.3993 -0.2627 -0.0264
  758MPD2    H511205   4.154   1.395  16.725  0.5598 -0.0810 -1.5503
  758MPD2    N111206   4.491   1.010  16.461  0.1241 -0.0547  0.2943
  758MPD2    H711207   4.522   0.988  16.367 -1.1790 -1.7215  0.2578
  759MPD2     C11208   3.986   3.438   9.413 -0.6609 -0.6423 -0.3691
  759MPD2    C111209   3.970   3.514   9.526 -0.0961 -0.1541  0.1941
  759MPD2    C211210   4.078   3.596   9.571  0.0055 -0.1614  0.2002
  759MPD2    C311211   4.193   3.603   9.491 -0.7945  0.0770  0.3494
  759MPD2    C411212   4.203   3.540   9.367  0.2681  0.0797  0.0876
  759MPD2    C511213   4.097   3.455   9.330 -0.3762 -0.0109  0.2792
  759MPD2     H11214   4.072   3.643   9.669 -0.9118  0.7815 -0.3101
  759MPD2    H111215   4.291   3.536   9.304 -0.6443 -0.1966 -1.1924
  759MPD2    H211216   3.911   3.373   9.369  2.2576 -1.7889 -3.6255
  759MPD2    H311217   4.110   3.403   9.236 -2.1422 -0.8058  0.4766
  759MPD2     N11218   4.306   3.684   9.541  0.2443 -0.6992  0.3694
  759MPD2    H511219   4.291   3.752   9.615 -1.0408 -1.8220  1.1592
  759MPD2    N111220   3.857   3.492   9.604  0.6061 -0.0986  0.1436
  759MPD2    H711221   3.868   3.510   9.703  4.1988  2.2401 -0.6899
  760MPD2     C11222   3.126   1.128  12.029  0.0645 -0.5071 -0.2415
  760MPD2    C111223   3.237   1.186  11.969 -0.6349  0.3550 -0.4190
  760MPD2    C211224   3.357   1.102  11.965  0.6819 -0.4625 -0.0936
  760MPD2    C311225   3.349   0.969  12.018 -0.4385  0.3820 -0.3203
  760MPD2    C411226   3.237   0.921  12.084  0.3820  0.3787 -0.4665
  760MPD2    C511227   3.124   1.001  12.080  0.2488 -0.1219  0.1066
  760MPD2     H11228   3.444   1.143  11.915 -0.8135 -2.1840 -4.0762
  760MPD2    H111229   3.225   0.822  12.127 -1.5943  1.5141  1.6472
  760MPD2    H211230   3.039   1.187  12.055  1.1652  1.5660 -1.2756
  760MPD2    H311231   3.030   0.968  12.123  1.8704 -1.7387  2.3814
  760MPD2     N11232   3.465   0.891  12.010 -0.5835  0.0173 -0.3918
  760MPD2    H511233   3.467   0.812  12.073 -0.3039 -0.5972 -1.1715
  760MPD2    N111234   3.249   1.312  11.911 -0.1234 -0.0516 -0.0446
  760MPD2    H711235   3.337   1.325  11.861  1.2790  1.5264  2.8064
  761MPD2     C11236   4.240   0.653  11.116  0.2885 -1.2096  0.1788
  761MPD2    C111237   4.329   0.635  11.014 -0.1483  0.0695 -0.1321
  761MPD2    C211238   4.459   0.677  11.039 -0.4611  0.1715  0.0495
  761MPD2    C311239   4.495   0.732  11.158 -0.1587 -0.4103 -0.0470
  761MPD2    C411240   4.399   0.774  11.244  0.8445  0.0755 -0.4682
  761MPD2    C511241   4.274   0.726  11.230 -0.2604  0.6222  0.0570
  761MPD2     H11242   4.533   0.647  10.965 -0.3435  1.4466 -0.3370
  761MPD2    H111243   4.431   0.815  11.340  0.3255  0.1407 -0.3211
  761MPD2    H211244   4.142   0.607  11.115  0.5090 -1.6884  0.5665
  761MPD2    H311245   4.210   0.737  11.318  1.0721 -0.5386  1.1735
  761MPD2     N11246   4.634   0.761  11.180 -0.6067  0.1491  0.0624
  761MPD2    H511247   4.654   0.815  11.264  1.5668  1.1959 -1.1307
  761MPD2    N111248   4.282   0.558  10.909 -0.1857  0.8592 -0.2503
  761MPD2    H711249   4.186   0.526  10.912 -0.2414  0.9338 -1.5030
  762MPD2     C11250   0.107   0.608  10.742  0.1556 -0.4297  0.2426
  762MPD2    C111251   0.105   0.472  10.715  0.6790 -0.5074  0.2351
  762MPD2    C211252   0.222   0.407  10.686  0.6090  0.1270  1.2305
  762MPD2    C311253   0.343   0.478  10.667 -0.3360  0.3642 -0.0066
  762MPD2    C411254   0.343   0.612  10.697 -0.5630 -0.0606 -0.5400
  762MPD2    C511255   0.227   0.674  10.735 -0.0877 -0.0851 -0.1263
  762MPD2     H11256   0.217   0.301  10.663  2.7627 -0.2066  2.3193
  762MPD2    H111257   0.431   0.673  10.683  0.1121 -1.4089 -2.2212
  762MPD2    H211258   0.015   0.655  10.774  0.5288  1.3223 -1.2830
  762MPD2    H311259   0.220   0.781  10.753 -2.2560 -0.0789 -0.9274
  762MPD2     N11260   0.451   0.400  10.627  0.2711 -0.0103  0.4813
  762MPD2    H511261   0.439   0.301  10.608  0.0927 -0.0818  0.9620
  762MPD2    N111262   4.692   0.412  10.713 -0.1150 -0.5712 -0.2570
  762MPD2    H711263   4.612   0.472  10.729  0.1533 -0.3730  0.3435
  763MPD2     C11264   1.880   1.275  16.363  0.0514  0.0939  0.4019
  763MPD2    C111265   1.779   1.352  16.324 -0.3172  0.1794 -0.9800
  763MPD2    C211266   1.759   1.479  16.387 -0.2224 -0.6083  0.3347
  763MPD2    C311267   1.844   1.516  16.490 -0.1550  0.3725 -0.3043
  763MPD2    C411268   1.956   1.434  16.517 -0.1814 -0.1898 -0.1755
  763MPD2    C511269   1.964   1.311  16.458 -0.3909  0.8146  0.2278
  763MPD2     H11270   1.678   1.542  16.353  0.5012 -0.9493 -1.9955
  763MPD2    H111271   2.034   1.467  16.585  1.5361 -0.8100 -1.8611
  763MPD2    H211272   1.913   1.186  16.312 -0.0782  1.4439 -2.0205
  763MPD2    H311273   2.053   1.259  16.491 -1.0224 -1.4357 -1.6171
  763MPD2     N11274   1.830   1.630  16.573 -0.2784  0.4873  0.2158
  763MPD2    H511275   1.900   1.641  16.645  0.0519 -1.3506  0.1714
  763MPD2    N111276   1.696   1.319  16.213  0.6646  0.3245  0.4571
  763MPD2    H711277   1.614   1.374  16.188  1.4508  0.9018 -0.8937
  764MPD2     C11278   0.488   3.237  17.546 -0.0756 -0.0615  0.4056
  764MPD2    C111279   0.444   3.108  17.513  0.5143  0.0353  0.4946
  764MPD2    C211280   0.449   3.002  17.604 -0.2900  0.6316  0.5490
  764MPD2    C311281   0.486   3.028   0.055  0.5003  0.5250  0.2944
  764MPD2    C411282   0.521   3.157   0.095 -0.2931 -0.0267  0.8576
  764MPD2    C511283   0.524   3.255  17.675  0.3156 -0.1220 -0.1664
  764MPD2     H11284   0.421   2.901  17.576 -2.1869  1.2101  0.3685
  764MPD2    H111285   0.546   3.186   0.197  1.2144 -1.1954  0.8164
  764MPD2    H211286   0.489   3.326  17.484 -3.5603 -0.2155  0.1000
  764MPD2    H311287   0.558   3.351   0.037  2.0523 -1.0637  0.7031
  764MPD2     N11288   0.474   2.921   0.151  0.0859 -0.3871  0.0707
  764MPD2    H511289   0.432   2.837   0.114  2.0653 -0.2248 -2.5662
  764MPD2    N111290   0.403   3.078  17.383 -0.3725 -0.3375  0.9923
  764MPD2    H711291   0.392   2.978  17.366  1.8852 -0.4154 -0.0024
  765MPD2     C11292   3.933   0.153  16.140  0.3659 -0.6361  0.5014
  765MPD2    C111293   4.015   0.264  16.141 -0.5478  0.1346  0.1099
  765MPD2    C211294   4.157   0.246  16.115 -0.0694 -0.3371  0.6795
  765MPD2    C311295   4.209   0.122  16.084  0.2770 -0.2721 -0.8395
  765MPD2    C411296   4.125   0.011  16.095 -0.7537 -0.0553  0.5969
  765MPD2    C511297   3.988   0.024  16.117 -0.2846 -0.8899  0.5484
  765MPD2     H11298   4.224   0.330  16.102  2.8485 -2.7364 -0.0838
  765MPD2    H111299   4.166   4.630  16.080  0.3852  0.9363 -2.9626
  765MPD2    H211300   3.832   0.149  16.180  0.0220  0.5466 -0.2486
  765MPD2    H311301   3.933   4.650  16.130  0.6283 -1.7621 -1.7728
  765MPD2     N11302   4.349   0.109  16.050  0.0417 -0.2296  0.8264
  765MPD2    H511303   4.405   0.193  16.042 -1.7385  0.9277  0.4394
  765MPD2    N111304   3.957   0.395  16.146  0.1406  0.4107 -0.1876
  765MPD2    H711305   3.857   0.401  16.158  0.0298 -3.0120  0.4813
  766MPD2     C11306   3.536   0.551  15.647  0.1729  0.2337 -0.2911
  766MPD2    C111307   3.667   0.548  15.670 -0.0274 -0.2829  0.2390
  766MPD2    C211308   3.756   0.519  15.574 -0.5675 -0.0266  0.2929
  766MPD2    C311309   3.707   0.495  15.445 -0.3799 -0.5923  0.8166
  766MPD2    C411310   3.571   0.488  15.427 -0.6949  0.3284  0.1507
  766MPD2    C511311   3.483   0.515  15.524 -0.0053  0.7834 -0.6284
  766MPD2     H11312   3.861   0.501  15.594 -0.4132 -0.8233 -1.2239
  766MPD2    H111313   3.523   0.463  15.333 -1.7627 -0.2488  0.8491
  766MPD2    H211314   3.465   0.553  15.729 -1.3058 -0.4530 -1.5557
  766MPD2    H311315   3.376   0.511  15.504  0.0536 -0.3252 -0.7477
  766MPD2     N11316   3.800   0.460  15.340  1.1647  0.6755 -0.0374
  766MPD2    H511317   3.768   0.444  15.245 -0.8677  0.3959  0.6967
  766MPD2    N111318   3.722   0.594  15.789  0.3908 -0.0595  0.3114
  766MPD2    H711319   3.822   0.577  15.796 -0.0439 -2.1905  1.2210
  767MPD2     C11320   3.436   0.801  15.317  1.1637 -0.0002 -0.4896
  767MPD2    C111321   3.566   0.792  15.275  0.0892  0.2377  0.3227
  767MPD2    C211322   3.593   0.752  15.147 -0.2456  0.3174 -0.1230
  767MPD2    C311323   3.489   0.717  15.061  0.5347  0.0725 -0.0318
  767MPD2    C411324   3.356   0.731  15.097  0.4986  0.3283 -0.5720
  767MPD2    C511325   3.337   0.768  15.233 -0.6343 -0.1168 -0.1900
  767MPD2     H11326   3.689   0.760  15.098 -0.6166  0.9060 -0.7557
  767MPD2    H111327   3.277   0.712  15.026  2.7457 -0.4580 -2.8666
  767MPD2    H211328   3.401   0.833  15.415  0.6572  3.2498 -1.7260
  767MPD2    H311329   3.235   0.777  15.270  0.0585 -0.7294  1.8654
  767MPD2     N11330   3.533   0.657  14.938 -0.4192 -0.3632 -0.8452
  767MPD2    H511331   3.632   0.648  14.918 -0.6842 -0.8031 -1.9464
  767MPD2    N111332   3.663   0.847  15.368 -0.5695 -0.0376 -0.7613
  767MPD2    H711333   3.630   0.887  15.455  0.4292  0.2558 -0.5138
  768MPD2     C11334   0.269   3.627  10.626 -0.4621  0.4967  0.3524
  768MPD2    C111335   0.208   3.592  10.743  0.2837 -0.3172 -0.7832
  768MPD2    C211336   0.264   3.621  10.862  0.5449 -1.0165 -0.2367
  768MPD2    C311337   0.392   3.680  10.874  0.6887 -0.1853 -0.3976
  768MPD2    C411338   0.461   3.700  10.756  0.2477  0.2360  0.7375
  768MPD2    C511339   0.400   3.671  10.634  0.7323 -0.2882  0.3086
  768MPD2     H11340   0.211   3.594  10.953  1.4641 -0.4224  0.4659
  768MPD2    H111341   0.563   3.737  10.762  0.1653  0.3331  1.6218
  768MPD2    H211342   0.236   3.599  10.527  0.5266  3.9932 -0.9966
  768MPD2    H311343   0.462   3.673  10.544  1.0943  1.2910  0.5918
  768MPD2     N11344   0.457   3.690  10.991 -0.0077  0.2434 -0.2920
  768MPD2    H511345   0.548   3.734  10.987  0.5643 -1.0415 -1.3137
  768MPD2    N111346   0.083   3.523  10.738 -0.2234  0.0416 -0.5443
  768MPD2    H711347   0.046   3.492  10.828  0.2147 -0.0079 -0.3787
  769MPD2     C11348   0.816   2.285  14.884  0.4427  0.3580 -0.6345
  769MPD2    C111349   0.711   2.282  14.967 -0.2215  0.6566 -0.2582
  769MPD2    C211350   0.726   2.295  15.106 -0.0465 -1.1398 -0.4273
  769MPD2    C311351   0.854   2.323  15.155  0.4381 -0.5404 -0.2005
  769MPD2    C411352   0.957   2.345  15.066  0.0295 -0.5729 -0.6856
  769MPD2    C511353   0.940   2.330  14.936  0.4887  0.2771 -0.1867
  769MPD2     H11354   0.650   2.271  15.178 -0.2858  0.4934 -0.1527
  769MPD2    H111355   1.055   2.380  15.097 -0.2496 -1.2973  1.0175
  769MPD2    H211356   0.801   2.278  14.776 -2.9936 -1.1032 -0.0765
  769MPD2    H311357   1.021   2.363  14.872 -2.2028  2.2999 -2.5381
  769MPD2     N11358   0.873   2.323  15.289  0.1802  0.6084  0.0773
  769MPD2    H511359   0.792   2.298  15.345 -0.7312 -1.3179 -2.1032
  769MPD2    N111360   0.582   2.236  14.925  0.1537  0.0469 -0.1100
  769MPD2    H711361   0.570   2.199  14.831 -0.5531 -1.5345  0.6007
  770MPD2     C11362   4.700   1.676  15.562 -0.2550  0.0532 -0.1223
  770MPD2    C111363   0.088   1.628  15.506 -0.0850 -0.8147 -0.1443
  770MPD2    C211364   0.142   1.683  15.391 -0.0288  0.7589  0.0557
  770MPD2    C311365   0.092   1.802  15.343  0.3326 -0.3912 -0.6421
  770MPD2    C411366   4.703   1.856  15.412 -0.1724 -0.0043 -0.1855
  770MPD2    C511367   4.645   1.791  15.516  0.1294 -0.7431 -0.0968
  770MPD2     H11368   0.237   1.649  15.353  0.2258  1.9420 -0.3708
  770MPD2    H111369   4.663   1.948  15.371 -0.7654  0.4179  1.3500
  770MPD2    H211370   4.648   1.628  15.643  1.5665  0.7382  1.4522
  770MPD2    H311371   4.567   1.842  15.572 -0.5816 -1.6297 -0.2751
  770MPD2     N11372   0.155   1.860  15.232  0.5710 -0.5281 -0.1529
  770MPD2    H511373   0.220   1.806  15.175 -0.8273 -0.7441 -1.5335
  770MPD2    N111374   0.149   1.516  15.563  0.5706  0.5825  0.2531
  770MPD2    H711375   0.104   1.464  15.638  0.5217  1.7014  1.0191
  771MPD2     C11376   1.682   4.609  13.193 -0.9292  0.6055 -0.0203
  771MPD2    C111377   1.587   4.706  13.185 -0.0497  0.3493  0.2316
  771MPD2    C211378   1.463   4.673  13.131  0.2162 -0.2464  1.2291
  771MPD2    C311379   1.435   4.539  13.096  0.2377  0.4664  0.6279
  771MPD2    C411380   1.530   4.443  13.116 -0.0245  0.0034  0.3129
  771MPD2    C511381   1.656   4.482  13.161  0.1363  0.3597 -0.3591
  771MPD2     H11382   1.392   0.034  13.109 -0.2884 -0.8497  0.6847
  771MPD2    H111383   1.519   4.342  13.078  3.3403 -0.9907  1.9303
  771MPD2    H211384   1.786   4.630  13.219 -0.9007 -1.3296  1.4548
  771MPD2    H311385   1.736   4.411  13.179 -0.5048  0.1372  1.5783
  771MPD2     N11386   1.308   4.507  13.039  0.0841  0.3032 -0.2256
  771MPD2    H511387   1.237   4.579  13.031  0.8141  1.4359  3.5155
  771MPD2    N111388   1.620   0.109  13.234 -0.6788 -0.0562 -0.2025
  771MPD2    H711389   1.714   0.131  13.266 -0.0596 -2.5152 -0.3061
  772MPD2     C11390   1.329   0.675  13.789  0.0068  0.1854  1.2613
  772MPD2    C111391   1.314   0.562  13.711 -0.3743 -0.4085 -0.2539
  772MPD2    C211392   1.205   0.480  13.726 -0.1293  0.3801  0.1589
  772MPD2    C311393   1.103   0.517  13.811 -0.5642  0.1647  0.4147
  772MPD2    C411394   1.112   0.633  13.885 -0.2620  0.3019 -0.0262
  772MPD2    C511395   1.225   0.709  13.876 -0.6810 -0.0355  0.9037
  772MPD2     H11396   1.200   0.384  13.675 -2.3320  0.8535 -0.5260
  772MPD2    H111397   1.039   0.659  13.961  1.2244 -0.8207  1.7777
  772MPD2    H211398   1.407   0.750  13.799  2.0621 -2.0096  2.0179
  772MPD2    H311399   1.254   0.791  13.941  0.1788  0.4822 -0.1297
  772MPD2     N11400   0.989   0.437  13.830 -0.1919 -0.6035  0.1652
  772MPD2    H511401   0.914   0.464  13.891  1.3904  3.1197  0.4588
  772MPD2    N111402   1.408   0.525  13.613  0.5147 -0.0981 -0.1743
  772MPD2    H711403   1.382   0.436  13.571 -0.8848  1.7038 -3.1828
  773MPD2     C11404   0.791   1.757   1.047  0.4611  0.3335 -0.1810
  773MPD2    C111405   0.747   1.688   0.935 -0.4812 -0.0981 -0.2262
  773MPD2    C211406   0.805   1.566   0.912 -0.4669 -0.1545  0.1495
  773MPD2    C311407   0.903   1.508   0.996  0.7115 -0.7774 -0.0201
  773MPD2    C411408   0.947   1.586   1.103  0.3165 -0.8911 -0.9167
  773MPD2    C511409   0.890   1.708   1.125 -1.4467 -0.3840  1.0961
  773MPD2     H11410   0.772   1.512   0.824  0.2897 -3.5486  1.9422
  773MPD2    H111411   1.017   1.546   1.176 -0.0841  1.3421  0.6851
  773MPD2    H211412   0.740   1.848   1.076 -0.2706  0.0352 -0.5416
  773MPD2    H311413   0.913   1.761   1.216 -0.0099 -0.6219  0.8827
  773MPD2     N11414   0.949   1.379   0.961 -0.7905 -0.8345 -0.0892
  773MPD2    H511415   0.911   1.336   0.878  0.1869  0.8865 -1.4112
  773MPD2    N111416   0.656   1.746   0.850  0.0016 -0.4284  0.1210
  773MPD2    H711417   0.607   1.690   0.782 -0.9671 -1.2066  1.4515
  774MPD2     C11418   4.147   1.204  13.953  0.2132  0.1588 -0.2706
  774MPD2    C111419   4.267   1.133  13.981 -0.2637 -0.1367  0.0242
  774MPD2    C211420   4.379   1.203  14.017  0.3721 -0.8220  0.4806
  774MPD2    C311421   4.367   1.337  14.048 -0.2665 -0.0031 -0.1348
  774MPD2    C411422   4.247   1.403  14.024 -0.6287  0.2868 -0.4315
  774MPD2    C511423   4.136   1.336  13.980  0.0367  0.2835  0.2596
  774MPD2     H11424   4.476   1.155  14.028  1.3586  1.2169  0.8077
  774MPD2    H111425   4.242   1.509  14.043 -1.6569  0.1617 -0.0241
  774MPD2    H211426   4.057   1.155  13.916 -0.0711  0.6779 -0.2590
  774MPD2    H311427   4.044   1.389  13.959 -0.3233 -0.1399  0.8059
  774MPD2     N11428   4.480   1.415  14.087 -0.4083  0.1280  0.1492
  774MPD2    H511429   4.572   1.373  14.077 -0.2207  0.3459  0.9757
  774MPD2    N111430   4.261   0.989  13.982  0.4313 -0.2823  0.0899
  774MPD2    H711431   4.168   0.949  13.970  1.0387 -0.6124 -3.5173
  775MPD2     C11432   1.015   2.244  16.156 -0.4348 -0.6160 -0.0019
  775MPD2    C111433   0.997   2.363  16.224  0.1203  0.3071 -0.4340
  775MPD2    C211434   1.065   2.474  16.177 -0.2631  0.4002  0.6012
  775MPD2    C311435   1.171   2.461  16.077 -0.0075 -0.1564  0.4207
  775MPD2    C411436   1.186   2.332  16.020  0.3526  0.5185 -0.4142
  775MPD2    C511437   1.112   2.226  16.058  0.4855  0.0343 -0.9892
  775MPD2     H11438   1.053   2.572  16.222  1.3757  1.7023 -1.8112
  775MPD2    H111439   1.269   2.310  15.954 -0.8137  1.2916 -2.1294
  775MPD2    H211440   0.967   2.150  16.180 -1.5078 -0.5991 -2.0806
  775MPD2    H311441   1.127   2.126  16.018 -0.4925  0.1755 -1.7052
  775MPD2     N11442   1.249   2.565  16.025 -0.5153  0.1322 -0.6425
  775MPD2    H511443   1.308   2.538  15.947 -0.2255  2.2009 -1.1520
  775MPD2    N111444   0.896   2.366  16.320 -0.6370 -0.5729 -0.2552
  775MPD2    H711445   0.856   2.277  16.346  0.7895 -0.9202  0.7352
  776MPD2     C11446   0.633   1.952  11.795  1.0994 -0.4107 -0.4363
  776MPD2    C111447   0.533   2.028  11.741  0.4769 -0.2114  0.4855
  776MPD2    C211448   0.546   2.167  11.731  1.1627 -0.6391 -0.4066
  776MPD2    C311449   0.665   2.226  11.769  0.2622 -0.4935 -0.0362
  776MPD2    C411450   0.763   2.146  11.820 -0.6080  0.2577 -0.4561
  776MPD2    C511451   0.745   2.009  11.835  0.2004 -0.7117  0.3440
  776MPD2     H11452   0.467   2.227  11.688 -0.1930  0.3176  3.4293
  776MPD2    H111453   0.863   2.183  11.838 -0.2021 -0.8400 -0.4384
  776MPD2    H211454   0.617   1.845  11.794  2.4386 -0.6260  1.4175
  776MPD2    H311455   0.830   1.945  11.855  1.8802  1.7158  0.9853
  776MPD2     N11456   0.691   2.364  11.757  0.4244 -0.0198 -0.3510
  776MPD2    H511457   0.776   2.391  11.803  0.2764  0.5793 -0.4330
  776MPD2    N111458   0.424   1.951  11.696 -0.5684  0.2154  0.0927
  776MPD2    H711459   0.431   1.850  11.699  0.2361  0.2152 -2.0840
  777MPD2     C11460   0.831   0.365   1.119 -0.2957  0.3472 -0.3030
  777MPD2    C111461   0.922   0.289   1.199 -0.0958  0.4578 -0.1403
  777MPD2    C211462   0.946   0.158   1.158  0.5931 -0.2049  0.0333
  777MPD2    C311463   0.888   0.119   1.030 -0.3783 -0.3320  0.0658
  777MPD2    C411464   0.814   0.203   0.949  0.5315 -0.1471 -0.1828
  777MPD2    C511465   0.780   0.323   0.999 -0.6036  0.2483  0.7479
  777MPD2     H11466   0.990   0.080   1.219  1.4406  0.8259  0.7413
  777MPD2    H111467   0.785   0.178   0.848 -2.8274  0.9942  0.4986
  777MPD2    H211468   0.810   0.469   1.136  3.4885  0.7465  1.9783
  777MPD2    H311469   0.728   0.396   0.939  0.2097  0.0905 -0.1457
  777MPD2     N11470   0.890   4.697   0.995  0.5192 -0.0347 -0.5578
  777MPD2    H511471   0.924   4.631   1.064  0.3118  2.9170  2.3930
  777MPD2    N111472   0.959   0.337   1.328 -0.0888 -0.4312  0.1880
  777MPD2    H711473   0.931   0.431   1.353  1.9724 -0.3912  2.3976
  778MPD2     C11474   1.652   0.429  14.494 -0.0204  0.0777  0.1053
  778MPD2    C111475   1.745   0.318  14.512 -0.2966  0.5684  0.6420
  778MPD2    C211476   1.872   0.327  14.455 -0.8178 -0.6309  0.0328
  778MPD2    C311477   1.909   0.428  14.376  0.0541 -0.3567 -0.1721
  778MPD2    C411478   1.813   0.531  14.353 -0.1553 -0.0519 -0.8047
  778MPD2    C511479   1.688   0.532  14.413  0.7799  0.1917  0.1513
  778MPD2     H11480   1.940   0.244  14.464 -0.9021 -0.4527  2.2313
  778MPD2    H111481   1.837   0.616  14.290  1.6420  0.2281  0.2566
  778MPD2    H211482   1.551   0.429  14.532  0.1561  2.2024  0.5610
  778MPD2    H311483   1.614   0.603  14.379  1.4903  1.2528  0.7922
  778MPD2     N11484   2.047   0.429  14.325 -0.5016 -0.7639 -0.3603
  778MPD2    H511485   2.108   0.356  14.362 -0.3165 -0.6420 -0.4297
  778MPD2    N111486   1.716   0.204  14.587 -0.2748  0.0446  0.2035
  778MPD2    H711487   1.781   0.126  14.584  0.8286  0.8969  1.4299
  779MPD2     C11488   1.316   3.605  14.379  0.4135 -0.0655  0.3897
  779MPD2    C111489   1.443   3.605  14.327  0.2194 -0.6383  0.4005
  779MPD2    C211490   1.502   3.718  14.279  0.5118 -0.5086 -0.3688
  779MPD2    C311491   1.418   3.829  14.264 -0.1199  0.3744  0.0825
  779MPD2    C411492   1.283   3.826  14.304  0.1934 -0.1177  0.1986
  779MPD2    C511493   1.233   3.714  14.363 -0.3039  0.0781  0.2751
  779MPD2     H11494   1.601   3.708  14.237  0.0191 -0.1844 -1.5918
  779MPD2    H111495   1.221   3.914  14.294 -1.4441 -1.0026  2.6235
  779MPD2    H211496   1.273   3.521  14.432 -0.0966 -0.2381 -0.2954
  779MPD2    H311497   1.133   3.718  14.404 -0.7396  0.1010 -0.8020
  779MPD2     N11498   1.476   3.947  14.213  0.0434  0.0938  0.0653
  779MPD2    H511499   1.576   3.944  14.195  0.2082 -0.2540  1.0122
  779MPD2    N111500   1.528   3.496  14.342 -0.5255 -0.5970  0.1259
  779MPD2    H711501   1.620   3.497  14.300  0.2540  1.0493  1.8708
  780MPD2     C11502   1.754   3.781   1.721  0.1029 -1.0273  0.3766
  780MPD2    C111503   1.643   3.861   1.722  0.4472  0.2843  0.7055
  780MPD2    C211504   1.606   3.922   1.608 -1.1541  0.1127  0.1454
  780MPD2    C311505   1.668   3.903   1.487 -0.5372  0.6228 -0.8267
  780MPD2    C411506   1.785   3.832   1.486  0.1875  0.4697  0.0379
  780MPD2    C511507   1.824   3.766   1.602 -0.2966 -0.4989 -0.3530
  780MPD2     H11508   1.528   3.998   1.606 -0.6731  0.6431  1.9263
  780MPD2    H111509   1.847   3.811   1.399 -1.1330  0.7720 -0.9735
  780MPD2    H211510   1.795   3.733   1.810  0.6077 -0.1983  0.5881
  780MPD2    H311511   1.912   3.703   1.593  1.7138  2.3174 -0.6507
  780MPD2     N11512   1.598   3.957   1.373 -0.2795 -0.2843 -0.9569
  780MPD2    H511513   1.516   4.011   1.399  0.1162 -0.2410  0.2117
  780MPD2    N111514   1.567   3.862   1.839 -0.0612 -0.2382  0.1649
  780MPD2    H711515   1.596   3.800   1.915 -1.2332 -1.3007 -0.2505
  781MPD2     C11516   2.852   0.034  12.194 -0.4569  0.2002 -0.6008
  781MPD2    C111517   2.955   0.077  12.279  0.2122  0.2224  0.2464
  781MPD2    C211518   3.086   0.086  12.228 -0.5838 -0.5613  0.6514
  781MPD2    C311519   3.117   0.043  12.100 -0.3892 -0.4373 -0.0297
  781MPD2    C411520   3.017   4.704  12.020  0.9231 -0.4066 -0.7274
  781MPD2    C511521   2.890   4.713  12.068 -0.8009 -0.6503 -0.1606
  781MPD2     H11522   3.156   0.126  12.300  0.0073  0.0026 -0.2343
  781MPD2    H111523   3.044   4.659  11.925 -0.9737 -0.0872 -1.4118
  781MPD2    H211524   2.746   0.043  12.216  0.6115  0.9479  4.2780
  781MPD2    H311525   2.817   4.690  11.991  0.3224  0.0085 -1.4102
  781MPD2     N11526   3.250   0.042  12.046  0.5608  0.1470 -0.1690
  781MPD2    H511527   3.260   4.709  11.959  1.5311 -0.3738  0.2528
  781MPD2    N111528   2.929   0.116  12.414 -0.0584 -0.0254  0.4556
  781MPD2    H711529   3.009   0.149  12.467  0.3661  0.3168 -0.3948
  782MPD2     C11530   1.242   0.902  10.264 -0.5016  0.0725  0.0040
  782MPD2    C111531   1.224   0.854  10.393 -0.6056 -0.0879 -0.1180
  782MPD2    C211532   1.251   0.946  10.496  0.7408  0.4856  0.6745
  782MPD2    C311533   1.302   1.074  10.469 -0.1518 -0.1111  0.3783
  782MPD2    C411534   1.322   1.114  10.341  0.7223 -0.1599  0.6751
  782MPD2    C511535   1.295   1.029  10.237  0.3660 -0.0402 -0.2002
  782MPD2     H11536   1.238   0.916  10.600  0.5509  0.6000  0.6836
  782MPD2    H111537   1.361   1.214  10.321  3.6223 -0.4397  4.9108
  782MPD2    H211538   1.223   0.824  10.191  2.0926 -0.6085  0.0654
  782MPD2    H311539   1.309   1.056  10.133 -1.4004 -0.2937 -0.5133
  782MPD2     N11540   1.341   1.165  10.574 -0.3865 -0.1448 -0.4016
  782MPD2    H511541   1.383   1.252  10.545 -1.4038  0.6365  0.4408
  782MPD2    N111542   1.205   0.715  10.427  0.0416  0.5035 -0.6131
  782MPD2    H711543   1.237   0.646  10.360  0.4403 -0.8777  0.9849
  783MPD2     C11544   0.532   0.312  11.028  0.2156 -0.4839  0.9397
  783MPD2    C111545   0.576   0.444  11.020  0.3432 -0.5981  0.5809
  783MPD2    C211546   0.710   0.470  10.985 -0.1569 -0.0092  0.0923
  783MPD2    C311547   0.797   0.372  10.940 -0.0979 -1.1996  0.1285
  783MPD2    C411548   0.756   0.244  10.967 -0.4068  0.2069 -0.5217
  783MPD2    C511549   0.626   0.216  11.005 -0.3574  0.3045 -0.7527
  783MPD2     H11550   0.740   0.572  10.966  0.2512 -0.1472 -0.0097
  783MPD2    H111551   0.815   0.154  10.967  0.8150  1.0071 -1.6469
  783MPD2    H211552   0.431   0.290  11.061  1.1967 -3.3022  2.0696
  783MPD2    H311553   0.600   0.112  11.017 -0.1103  0.3504  0.2410
  783MPD2     N11554   0.930   0.407  10.897  0.6256  0.0781  0.1100
  783MPD2    H511555   0.942   0.508  10.889  0.9889  0.0157 -0.1097
  783MPD2    N111556   0.473   0.537  11.041  0.3368  0.4446  0.0847
  783MPD2    H711557   0.387   0.498  11.079  1.9896 -0.9871  2.3400
  784MPD2     C11558   3.466   1.429   1.136  0.3791 -0.1471  0.2902
  784MPD2    C111559   3.488   1.561   1.177 -0.5026  0.1266  0.4885
  784MPD2    C211560   3.432   1.666   1.106 -0.4900  0.5373 -0.7940
  784MPD2    C311561   3.332   1.643   1.013 -0.9637  0.3811  0.3594
  784MPD2    C411562   3.306   1.508   0.980 -0.2897 -0.1555 -1.2304
  784MPD2    C511563   3.381   1.405   1.030 -0.5029  0.0464 -0.0209
  784MPD2     H11564   3.445   1.769   1.135 -1.1779  0.7526 -1.2577
  784MPD2    H111565   3.234   1.485   0.902 -0.0982 -0.1300 -1.4163
  784MPD2    H211566   3.512   1.340   1.179  0.7143  2.4719  5.3099
  784MPD2    H311567   3.371   1.304   0.992  0.4525  0.8233 -2.3167
  784MPD2     N11568   3.257   1.752   0.964 -0.3093  0.3573 -0.2339
  784MPD2    H511569   3.278   1.843   1.003 -1.9755  0.2783  0.8595
  784MPD2    N111570   3.584   1.600   1.276  0.5650 -0.0858  0.8135
  784MPD2    H711571   3.587   1.699   1.296 -1.8612 -0.1034  1.1964
  785MPD2     C11572   3.773   3.375  10.523  0.2011 -0.0493 -0.7146
  785MPD2    C111573   3.722   3.496  10.564  0.2078  0.7389 -0.7025
  785MPD2    C211574   3.596   3.533  10.527  0.0651 -0.1263  0.4553
  785MPD2    C311575   3.515   3.441  10.465  0.2350 -0.3912 -0.5208
  785MPD2    C411576   3.562   3.315  10.421 -0.4759 -0.0206 -0.5767
  785MPD2    C511577   3.697   3.286  10.446  0.4762  0.5114 -0.1187
  785MPD2     H11578   3.561   3.636  10.533  0.6975  0.1026  0.2968
  785MPD2    H111579   3.499   3.238  10.377 -0.4363 -0.0831 -0.5251
  785MPD2    H211580   3.871   3.349  10.559  1.0673  2.8595 -0.9430
  785MPD2    H311581   3.748   3.194  10.418 -0.2890  0.4701 -1.3525
  785MPD2     N11582   3.375   3.476  10.449 -0.3010 -0.2725  0.6136
  785MPD2    H511583   3.358   3.572  10.478 -1.2582 -0.3157  0.1869
  785MPD2    N111584   3.807   3.580  10.639 -0.5140  0.1605 -0.9644
  785MPD2    H711585   3.905   3.557  10.646 -0.5897  0.1041 -0.1110
  786MPD2     C11586   1.646   2.989  14.691  0.1991  0.6699  0.4354
  786MPD2    C111587   1.740   2.886  14.712  0.4310 -0.0246  0.1069
  786MPD2    C211588   1.812   2.893  14.826  0.0768 -0.0449 -0.0323
  786MPD2    C311589   1.795   2.992  14.919  0.2827 -0.5160 -0.0896
  786MPD2    C411590   1.705   3.092  14.898 -0.3844  0.5153  0.8942
  786MPD2    C511591   1.640   3.091  14.778  0.7224 -0.1813 -0.7326
  786MPD2     H11592   1.884   2.812  14.833 -1.0581 -1.1220 -0.8768
  786MPD2    H111593   1.690   3.164  14.978 -2.9388  0.6887  0.2520
  786MPD2    H211594   1.581   3.004  14.606  0.2836  1.7396  0.5583
  786MPD2    H311595   1.557   3.161  14.768  1.5729  0.7721 -1.0945
  786MPD2     N11596   1.873   3.005  15.036  0.1734 -0.4908  0.6886
  786MPD2    H511597   1.869   3.087  15.095 -1.5832 -0.6283  0.7645
  786MPD2    N111598   1.751   2.774  14.628  0.0970 -0.3910  0.1463
  786MPD2    H711599   1.826   2.708  14.646  0.0281 -0.4089  0.3708
  787MPD2     C11600   1.388   2.019  14.613  0.6740 -0.0850  0.5737
  787MPD2    C111601   1.512   2.070  14.632 -0.7058 -0.3891  0.3156
  787MPD2    C211602   1.601   1.996  14.704  0.5247  0.1263  0.7112
  787MPD2    C311603   1.577   1.861  14.746 -0.6954 -0.7632  0.4881
  787MPD2    C411604   1.459   1.809  14.717  0.2947  0.0989 -0.3845
  787MPD2    C511605   1.361   1.893  14.659 -0.4035 -0.6570 -0.3471
  787MPD2     H11606   1.691   2.043  14.740  1.1712  2.1244 -3.5146
  787MPD2    H111607   1.435   1.708  14.749  1.5196  0.3866  1.4352
  787MPD2    H211608   1.299   2.073  14.582  1.0062  0.5126  0.6646
  787MPD2    H311609   1.262   1.849  14.653 -1.7746  2.1264  1.8437
  787MPD2     N11610   1.683   1.791  14.815  0.3427 -0.3460 -0.7720
  787MPD2    H511611   1.770   1.843  14.827  0.3261 -0.1602 -1.4336
  787MPD2    N111612   1.537   2.200  14.583  0.5580  0.4831 -0.1561
  787MPD2    H711613   1.458   2.254  14.550  0.5430  0.4171 -0.2278
  788MPD2     C11614   4.104   0.786   1.116 -0.2579  0.7021 -0.4282
  788MPD2    C111615   3.986   0.721   1.082 -0.5770  0.2061 -0.4421
  788MPD2    C211616   3.889   0.795   1.020 -0.3895  0.0369 -0.0863
  788MPD2    C311617   3.908   0.922   0.974 -0.2769 -0.0301  0.1140
  788MPD2    C411618   4.025   0.981   0.990 -0.0268 -0.5485 -0.1842
  788MPD2    C511619   4.120   0.912   1.067  0.3122  0.5307  0.0517
  788MPD2     H11620   3.796   0.744   0.999  0.4232 -1.3834 -0.2062
  788MPD2    H111621   4.039   1.088   0.977  0.5069 -0.6366 -0.3375
  788MPD2    H211622   4.185   0.738   1.170  1.8143  1.0463 -3.2208
  788MPD2    H311623   4.212   0.964   1.093 -1.0912  1.4413  3.2181
  788MPD2     N11624   3.819   0.993   0.897  0.2418 -0.5293 -0.4727
  788MPD2    H511625   3.857   1.071   0.845  1.0577 -0.3518  0.3869
  788MPD2    N111626   3.969   0.584   1.101 -0.0182  0.0921 -0.0942
  788MPD2    H711627   3.886   0.545   1.057  2.8417 -3.1578 -2.5905
  789MPD2     C11628   4.001   0.955  16.455  0.4627 -0.1552  0.5848
  789MPD2    C111629   4.016   0.926  16.587  0.7468  0.1281  0.6976
  789MPD2    C211630   3.947   0.999  16.680  0.1972 -0.6051  0.6138
  789MPD2    C311631   3.860   1.099  16.636  1.3565 -0.0801  0.3521
  789MPD2    C411632   3.843   1.115  16.508  0.2721  0.4862  0.2596
  789MPD2    C511633   3.913   1.048  16.413 -0.2647 -0.0015 -0.3447
  789MPD2     H11634   3.968   0.986  16.786 -0.9487  1.9261  1.1355
  789MPD2    H111635   3.765   1.175  16.463  1.8905  0.6801 -2.2883
  789MPD2    H211636   4.063   0.904  16.383 -0.0686  0.2999 -0.1967
  789MPD2    H311637   3.900   1.074  16.308 -0.5746  0.5512 -0.1668
  789MPD2     N11638   3.777   1.176  16.727  0.2954 -0.3781  0.5928
  789MPD2    H511639   3.717   1.240  16.677 -0.3571 -0.4574  1.2760
  789MPD2    N111640   4.101   0.822  16.628 -0.1913 -0.2122  0.2380
  789MPD2    H711641   4.100   0.798  16.727 -0.5328 -0.7081  0.1194
  790MPD2     C11642   0.499   2.836  13.366  0.7194  0.0072  0.1641
  790MPD2    C111643   0.559   2.727  13.419 -0.1718 -0.0584  0.1397
  790MPD2    C211644   0.521   2.600  13.381 -0.8229  0.0936 -0.0757
  790MPD2    C311645   0.413   2.583  13.296 -0.0754  0.0576 -0.3827
  790MPD2    C411646   0.358   2.697  13.235  0.0474 -0.1913 -0.1920
  790MPD2    C511647   0.401   2.821  13.270  0.2032  0.6649  0.7922
  790MPD2     H11648   0.555   2.502  13.412  2.0169  1.0868 -0.0384
  790MPD2    H111649   0.278   2.691  13.162  0.2727  3.3813 -0.6896
  790MPD2    H211650   0.529   2.938  13.389  1.0938 -0.0217 -0.1816
  790MPD2    H311651   0.341   2.908  13.246  0.1103 -0.0491 -1.5302
  790MPD2     N11652   0.383   2.447  13.252 -0.2217 -0.4481 -0.0168
  790MPD2    H511653   0.435   2.377  13.304  2.9776  0.5118 -1.9465
  790MPD2    N111654   0.661   2.752  13.512 -0.1192 -0.3402  0.3612
  790MPD2    H711655   0.678   2.846  13.546 -3.2351  0.5448 -0.4934
  791MPD2     C11656   4.489   2.177  12.856  0.0058 -0.2395  0.1988
  791MPD2    C111657   4.532   2.078  12.940 -0.7188 -0.4889  0.1775
  791MPD2    C211658   4.459   1.968  12.966  0.7446  0.5101  0.2407
  791MPD2    C311659   4.333   1.960  12.913  0.1960  0.1154 -0.0177
  791MPD2    C411660   4.287   2.056  12.825  0.1859  0.0022  0.9585
  791MPD2    C511661   4.365   2.164  12.796 -0.4047 -1.0071  0.0615
  791MPD2     H11662   4.493   1.886  13.028 -1.6702 -0.5248  0.1842
  791MPD2    H111663   4.198   2.043  12.764 -0.1687  0.2723  1.4192
  791MPD2    H211664   4.552   2.264  12.839 -1.9462  1.0071 -0.5901
  791MPD2    H311665   4.329   2.243  12.731  1.5486 -0.8529 -0.8412
  791MPD2     N11666   4.260   1.842  12.937  0.4723 -0.5365  0.3924
  791MPD2    H511667   4.303   1.770  12.994 -0.0723  0.4464  2.0472
  791MPD2    N111668   4.659   2.093  12.999 -0.3656 -0.1158 -0.1764
  791MPD2    H711669   4.711   2.170  12.959  1.4903 -0.1856  2.0944
  792MPD2     C11670   0.950   1.739  11.199 -0.2812  0.2975 -0.0009
  792MPD2    C111671   0.831   1.807  11.209  0.0924 -0.7579 -0.6386
  792MPD2    C211672   0.715   1.755  11.159 -0.1413 -0.2343  1.1007
  792MPD2    C311673   0.715   1.629  11.104 -0.0771 -0.3894  0.9738
  792MPD2    C411674   0.831   1.557  11.100  0.0044 -0.5041  0.8669
  792MPD2    C511675   0.952   1.612  11.149 -0.0608  0.5852 -0.4104
  792MPD2     H11676   0.622   1.810  11.152 -0.6533 -1.2173  0.2647
  792MPD2    H111677   0.825   1.466  11.042  1.7832 -0.2149  0.2249
  792MPD2    H211678   1.043   1.789  11.224  0.4971 -0.5358 -1.1932
  792MPD2    H311679   1.041   1.551  11.156 -2.1480 -2.3349  1.0252
  792MPD2     N11680   0.598   1.574  11.038  0.1882 -0.0134  0.2066
  792MPD2    H511681   0.602   1.479  11.005 -0.2403 -0.2628  0.8703
  792MPD2    N111682   0.820   1.930  11.288  0.1480 -0.6116  0.8536
  792MPD2    H711683   0.733   1.982  11.293 -0.2435 -0.9185 -2.3395
  793MPD2     C11684   4.658   1.872  10.399  0.2266 -0.8156 -0.4687
  793MPD2    C111685   0.061   1.911  10.451  0.4150 -0.0569  0.5888
  793MPD2    C211686   0.110   1.852  10.563 -0.7535  0.8535  0.5657
  793MPD2    C311687   0.045   1.740  10.613  0.3304 -0.1000 -0.3982
  793MPD2    C411688   4.636   1.701  10.564 -0.0061  0.2638 -0.2147
  793MPD2    C511689   4.594   1.763  10.450  0.0500 -0.7725  0.0854
  793MPD2     H11690   0.205   1.880  10.606 -0.0240  1.7914 -1.6140
  793MPD2    H111691   4.581   1.614  10.597 -1.7227  1.3063 -0.2915
  793MPD2    H211692   4.609   1.917  10.313 -1.2329  0.3602  0.9710
  793MPD2    H311693   4.492   1.741  10.420 -0.3524 -1.1923  1.7025
  793MPD2     N11694   0.117   1.671  10.715  0.1504 -0.5864  0.0802
  793MPD2    H511695   0.209   1.707  10.736  0.7340 -0.1592 -3.2615
  793MPD2    N111696   0.147   2.002  10.390 -0.3773  0.5061 -0.4457
  793MPD2    H711697   0.239   2.013  10.431  0.3765  1.9227 -2.5004
  794MPD2     C11698   0.423   2.304   0.257  0.0376  0.7568  0.3441
  794MPD2    C111699   0.334   2.198   0.269 -0.8340  0.1237 -0.1209
  794MPD2    C211700   0.234   2.180   0.174 -0.1515  0.7919 -0.1397
  794MPD2    C311701   0.228   2.267   0.063  0.3254 -0.2586 -0.7280
  794MPD2    C411702   0.315   2.373   0.056  0.4953 -0.2124 -0.2278
  794MPD2    C511703   0.414   2.395   0.151 -0.2753 -0.7415  0.9973
  794MPD2     H11704   0.159   2.103   0.182  1.1431 -0.5877 -1.2639
  794MPD2    H111705   0.303   2.443  17.650 -0.1192 -1.4061 -1.1650
  794MPD2    H211706   0.505   2.326   0.325  0.5460  1.4458 -0.4767
  794MPD2    H311707   0.495   2.467   0.143 -0.0379 -1.4061 -2.6142
  794MPD2     N11708   0.141   2.244  17.631 -0.0583 -0.1898  0.4852
  794MPD2    H511709   0.149   2.310  17.553 -2.2830 -2.0763 -1.3441
  794MPD2    N111710   0.333   2.115   0.379  0.2191  0.0494  0.0465
  794MPD2    H711711   0.257   2.049   0.390 -0.8429  1.0485 -1.3949
  795MPD2     C11712   2.545   3.891  13.833 -0.3785  0.6566 -0.2097
  795MPD2    C111713   2.547   3.810  13.721 -0.9889 -0.8486 -0.0774
  795MPD2    C211714   2.629   3.696  13.714  0.4157 -0.0308  0.3034
  795MPD2    C311715   2.685   3.643  13.826 -0.1447 -0.5904  0.2774
  795MPD2    C411716   2.669   3.711  13.943  0.2053  0.0866 -0.3626
  795MPD2    C511717   2.606   3.833  13.945  0.1892 -1.1695 -0.0913
  795MPD2     H11718   2.638   3.636  13.624  0.5807  1.1223 -0.4470
  795MPD2    H111719   2.707   3.667  14.035  0.2514 -0.1604 -0.4980
  795MPD2    H211720   2.486   3.982  13.840 -0.0440  0.8079  0.6401
  795MPD2    H311721   2.615   3.870  14.046  1.5687 -1.8869  0.0507
  795MPD2     N11722   2.759   3.524  13.815  1.0063  0.1321 -0.8881
  795MPD2    H511723   2.797   3.503  13.724  0.8231 -0.4872 -0.8228
  795MPD2    N111724   2.475   3.836  13.602 -0.9978 -0.2826  0.1062
  795MPD2    H711725   2.472   3.754  13.542 -2.9753  0.1503 -0.3770
  796MPD2     C11726   2.116   0.907  15.939 -0.9406 -0.9972 -0.0193
  796MPD2    C111727   2.224   0.956  16.002 -0.3247 -0.1290 -0.4409
  796MPD2    C211728   2.228   1.086  16.041 -0.2697  0.3257 -0.2736
  796MPD2    C311729   2.120   1.178  16.019 -0.3272 -0.2878 -0.2667
  796MPD2    C411730   2.003   1.129  15.969  0.0527  0.5997  0.0214
  796MPD2    C511731   2.008   1.000  15.926 -0.5300 -0.2350  0.0342
  796MPD2     H11732   2.322   1.132  16.068 -0.1332 -0.3999  0.4869
  796MPD2    H111733   1.907   1.179  15.970  0.2042  0.9969 -3.9260
  796MPD2    H211734   2.105   0.805  15.903 -1.4738 -0.6464 -0.8824
  796MPD2    H311735   1.916   0.967  15.881  1.5352 -3.3955 -1.8254
  796MPD2     N11736   2.128   1.310  16.070 -0.1504 -0.2855  0.0049
  796MPD2    H511737   2.210   1.332  16.126 -1.5161  3.1308  0.6930
  796MPD2    N111738   2.329   0.870  16.024 -0.8361 -0.5228 -0.1196
  796MPD2    H711739   2.306   0.777  15.990 -3.1469  0.2505 -0.6876
  797MPD2     C11740   3.815   0.260  17.515  0.7261 -0.0587  0.2852
  797MPD2    C111741   3.681   0.281  17.531  0.2341  0.4222 -0.0898
  797MPD2    C211742   3.610   0.347  17.440  0.4237  0.7912  0.4304
  797MPD2    C311743   3.670   0.399  17.324  0.3996  0.2994 -0.3795
  797MPD2    C411744   3.807   0.366  17.304 -0.4191 -0.3412 -0.7910
  797MPD2    C511745   3.875   0.298  17.400 -0.0185  0.1953  0.3723
  797MPD2     H11746   3.503   0.359  17.454  0.4057 -0.8143  1.5879
  797MPD2    H111747   3.856   0.385  17.209  1.5388  0.6994  0.4261
  797MPD2    H211748   3.866   0.205  17.593 -1.0211 -1.7246  0.2750
  797MPD2    H311749   3.980   0.292  17.373 -0.4916 -0.9135 -1.2588
  797MPD2     N11750   3.600   0.484  17.236  0.8233  0.0170 -0.0599
  797MPD2    H511751   3.639   0.501  17.144  1.3118  2.3643  0.5870
  797MPD2    N111752   3.608   0.230  17.640  0.0590  0.4820 -0.4747
  797MPD2    H711753   3.518   0.277  17.645 -0.5186 -0.7502  0.7426
  798MPD2     C11754   2.929   0.455  17.455 -0.2426 -0.0716  0.1977
  798MPD2    C111755   3.061   0.494  17.459 -0.2263 -0.0946  0.0653
  798MPD2    C211756   3.143   0.450  17.560  0.4651  0.3695 -0.5745
  798MPD2    C311757   3.106   0.360  17.659  0.2918 -0.4599  0.1670
  798MPD2    C411758   2.973   0.321  17.658 -0.4163  0.3452  0.4779
  798MPD2    C511759   2.888   0.364  17.556 -0.4695  0.0548  0.8576
  798MPD2     H11760   3.242   0.493  17.566  0.6020 -0.0590  0.3159
  798MPD2    H111761   2.942   0.242   0.050 -0.7419 -0.8551 -1.0605
  798MPD2    H211762   2.874   0.491  17.369  0.6334 -0.9009 -0.7117
  798MPD2    H311763   2.787   0.325  17.546 -0.8146  1.0014  0.6089
  798MPD2     N11764   3.199   0.316   0.075  0.4668  0.6671  0.3472
  798MPD2    H511765   3.294   0.353   0.076  0.4631  0.6916 -0.2397
  798MPD2    N111766   3.130   0.573  17.364 -0.1789  0.2234 -0.1468
  798MPD2    H711767   3.231   0.584  17.369 -0.0853 -0.2722 -0.8837
  799MPD2     C11768   2.219   1.548  14.665  0.1446  0.8561  0.2404
  799MPD2    C111769   2.166   1.434  14.610  0.0083 -0.2001  0.3700
  799MPD2    C211770   2.038   1.451  14.553  1.0021  0.2856  0.2875
  799MPD2    C311771   1.970   1.570  14.559 -0.3104  0.4633  0.1189
  799MPD2    C411772   2.028   1.678  14.623 -0.1877 -0.6594  0.3664
  799MPD2    C511773   2.149   1.665  14.687 -0.0916  0.1498 -0.2272
  799MPD2     H11774   1.989   1.366  14.507 -1.6196  1.2062  1.3763
  799MPD2    H111775   1.982   1.776  14.627  2.3833  0.5836 -0.2081
  799MPD2    H211776   2.320   1.546  14.703  0.5169 -1.0297 -0.9031
  799MPD2    H311777   2.192   1.751  14.737  0.6728 -0.5311  0.2708
  799MPD2     N11778   1.841   1.597  14.510  0.0137 -0.1129 -0.0294
  799MPD2    H511779   1.816   1.695  14.503 -2.1960 -0.2927  5.1680
  799MPD2    N111780   2.237   1.319  14.597 -0.3487 -0.2130  0.1383
  799MPD2    H711781   2.198   1.247  14.537 -0.5130  1.0173 -1.2411
  800MPD2     C11782   2.657   2.881  14.482  0.6941 -0.7369 -0.3472
  800MPD2    C111783   2.776   2.805  14.459 -0.3394  0.6055  0.3520
  800MPD2    C211784   2.762   2.681  14.401 -0.2250 -0.4834 -0.6979
  800MPD2    C311785   2.634   2.628  14.375  0.4092 -0.0702 -0.8427
  800MPD2    C411786   2.518   2.702  14.401 -0.7681  0.3990 -0.3557
  800MPD2    C511787   2.534   2.829  14.451  0.4802  0.5562 -0.5794
  800MPD2     H11788   2.841   2.619  14.361 -1.6722 -2.7759 -0.0230
  800MPD2    H111789   2.415   2.670  14.390 -0.4348 -0.8084 -0.0078
  800MPD2    H211790   2.666   2.973  14.538  0.2775  1.3303 -3.6477
  800MPD2    H311791   2.451   2.894  14.476 -0.0410  0.0414 -0.9885
  800MPD2     N11792   2.622   2.519  14.292  0.1409  0.4708  0.1313
  800MPD2    H511793   2.709   2.468  14.282 -0.6012 -0.8361  0.3922
  800MPD2    N111794   2.899   2.870  14.496 -0.1934  0.0861  0.3669
  800MPD2    H711795   2.906   2.965  14.530 -2.0439  0.3536  0.0029
  801MPD2     C11796   3.189   3.462  14.203 -0.4217  0.3491 -0.4490
  801MPD2    C111797   3.107   3.401  14.299 -0.4130  0.0398 -0.1225
  801MPD2    C211798   2.990   3.463  14.339  0.4183 -0.2868  0.3839
  801MPD2    C311799   2.960   3.593  14.292  0.0345 -0.1596 -0.5603
  801MPD2    C411800   3.051   3.656  14.209  0.1332 -0.7144  0.1460
  801MPD2    C511801   3.160   3.587  14.169 -1.0246  0.5441 -0.2721
  801MPD2     H11802   2.932   3.424  14.422  0.9306 -0.4561  0.6669
  801MPD2    H111803   3.036   3.753  14.164 -2.0450 -1.5345 -0.8829
  801MPD2    H211804   3.268   3.408  14.152 -1.3191 -0.8461 -0.5909
  801MPD2    H311805   3.229   3.627  14.096  0.6855 -0.9588  0.5390
  801MPD2     N11806   2.861   3.678  14.361 -0.2728 -0.5157 -0.3913
  801MPD2    H511807   2.873   3.779  14.353 -0.5094 -0.5323 -0.9712
  801MPD2    N111808   3.128   3.263  14.339  0.2410 -0.0900 -0.0217
  801MPD2    H711809   3.059   3.228  14.405 -1.7884  0.6076 -1.7598
  802MPD2     C11810   1.481   4.494  17.489 -0.7900  0.3587 -0.1204
  802MPD2    C111811   1.569   4.462  17.592 -0.7410 -0.1620 -0.1365
  802MPD2    C211812   1.625   4.333  17.586  0.2809  0.3472  0.5594
  802MPD2    C311813   1.582   4.238  17.498 -0.5813 -0.3690  0.4434
  802MPD2    C411814   1.488   4.268  17.401 -1.2127 -0.5297 -0.0957
  802MPD2    C511815   1.452   4.399  17.389  0.1969  0.5547 -0.3284
  802MPD2     H11816   1.667   4.300   0.004 -0.1964  0.0384  0.6672
  802MPD2    H111817   1.454   4.194  17.328  0.2464 -0.5500 -0.7695
  802MPD2    H211818   1.438   4.593  17.478 -1.5883  0.0712  0.4080
  802MPD2    H311819   1.376   4.424  17.316 -0.1160 -0.1045 -0.2301
  802MPD2     N11820   1.634   4.107  17.518  0.0267 -0.1310  0.1162
  802MPD2    H511821   1.711   4.099  17.583  1.3414 -0.0917 -1.4651
  802MPD2    N111822   1.614   4.551   0.015  0.0106 -0.4657 -0.8080
  802MPD2    H711823   1.685   4.512   0.077  1.9657  0.7288 -2.3165
  803MPD2     C11824   3.243   2.025  11.833  0.5481  1.0793 -0.3484
  803MPD2    C111825   3.322   2.026  11.946 -0.1437 -0.1051  0.5917
  803MPD2    C211826   3.275   1.969  12.061 -0.3894  0.3249  0.0987
  803MPD2    C311827   3.155   1.893  12.063  0.1699  0.0539  0.5949
  803MPD2    C411828   3.082   1.884  11.949  0.0219  0.3211  0.2230
  803MPD2    C511829   3.127   1.947  11.841 -0.1254 -0.2364  0.1555
  803MPD2     H11830   3.336   1.978  12.150 -0.1066  0.8907 -0.1508
  803MPD2    H111831   2.991   1.827  11.935  0.1070 -0.3000  2.0710
  803MPD2    H211832   3.275   2.057  11.735 -0.2887 -2.8491 -1.9136
  803MPD2    H311833   3.060   1.955  11.756 -1.5951 -2.6644  1.0865
  803MPD2     N11834   3.103   1.848  12.185  0.1159 -0.1054  0.2175
  803MPD2    H511835   3.013   1.799  12.186 -0.7231  1.4396 -0.2597
  803MPD2    N111836   3.453   2.080  11.956  0.6680 -1.4733 -0.1912
  803MPD2    H711837   3.503   2.066  12.043 -0.1002 -2.1414  0.1403
  804MPD2     C11838   2.246   3.803  17.084  0.5825  0.3612  0.4433
  804MPD2    C111839   2.316   3.785  17.202  0.8166  0.0486 -0.2339
  804MPD2    C211840   2.407   3.888  17.229  0.0446  0.2805 -0.4419
  804MPD2    C311841   2.415   4.007  17.158  0.1315 -0.3268 -0.0239
  804MPD2    C411842   2.341   4.023  17.043 -0.2529  0.1274  0.1632
  804MPD2    C511843   2.255   3.921  17.008  0.6300  0.1207 -0.4635
  804MPD2     H11844   2.469   3.872  17.317 -0.5425 -0.1883 -0.1170
  804MPD2    H111845   2.356   4.114  16.986  2.3616 -1.6259 -1.9430
  804MPD2    H211846   2.172   3.732  17.049  0.2481  1.9024 -2.0550
  804MPD2    H311847   2.193   3.931  16.920  3.4737  1.0958 -2.3507
  804MPD2     N11848   2.492   4.118  17.196 -0.5921  0.0831 -0.1915
  804MPD2    H511849   2.492   4.199  17.134 -1.5843  0.7870  0.7157
  804MPD2    N111850   2.298   3.673  17.291  0.1091  0.3439 -0.1520
  804MPD2    H711851   2.337   3.669  17.385 -1.1012  1.4470  0.4008
  805MPD2     C11852   1.784   2.170  15.693 -0.3281 -0.1645 -0.4136
  805MPD2    C111853   1.881   2.225  15.609  0.2249 -0.0394 -1.1131
  805MPD2    C211854   2.009   2.235  15.664  0.1608  0.2071 -0.0661
  805MPD2    C311855   2.034   2.191  15.795 -0.3599 -0.1109 -0.5028
  805MPD2    C411856   1.934   2.139  15.876 -0.0891 -0.1228  0.7518
  805MPD2    C511857   1.807   2.135  15.824 -0.0110  0.3294 -0.3834
  805MPD2     H11858   2.091   2.280  15.608  0.7087  1.4051  1.7125
  805MPD2    H111859   1.950   2.119  15.981  0.5484 -0.9890  0.4923
  805MPD2    H211860   1.679   2.166  15.668 -0.7167  2.5305  0.7880
  805MPD2    H311861   1.727   2.096  15.886 -0.5583  1.5652 -0.3230
  805MPD2     N11862   2.159   2.216  15.851 -0.7106  0.4215 -0.3800
  805MPD2    H511863   2.218   2.280  15.800 -2.2183 -0.7301 -3.5764
  805MPD2    N111864   1.856   2.263  15.481 -0.2470  0.7535  1.0316
  805MPD2    H711865   1.941   2.288  15.431  0.2365 -2.3415  0.2953
  806MPD2     C11866   1.829   1.377   0.874  0.3305  0.0263  0.2900
  806MPD2    C111867   1.965   1.360   0.886 -0.4462 -0.0150  0.5749
  806MPD2    C211868   2.031   1.303   0.780  0.3734  0.0380 -0.2672
  806MPD2    C311869   1.955   1.255   0.672  0.3367 -0.2458  0.0268
  806MPD2    C411870   1.817   1.257   0.667 -0.4970 -0.5057  0.1901
  806MPD2    C511871   1.756   1.321   0.771 -0.6232 -0.5248 -0.8395
  806MPD2     H11872   2.138   1.294   0.771  0.7532  1.8576  2.5472
  806MPD2    H111873   1.766   1.219   0.580 -0.6513  2.8912 -1.1933
  806MPD2    H211874   1.777   1.416   0.961  1.2655 -0.2803  0.9853
  806MPD2    H311875   1.650   1.335   0.759 -0.9277 -0.9953  1.2692
  806MPD2     N11876   2.038   1.204   0.566  0.8388  0.3542 -0.4060
  806MPD2    H511877   2.137   1.220   0.576  0.4636  2.8155 -0.7408
  806MPD2    N111878   2.031   1.390   1.006 -0.0252 -0.0212  0.0299
  806MPD2    H711879   1.975   1.443   1.071  0.5586  0.6270  0.0031
  807MPD2     C11880   1.917   1.218   1.721 -0.5519  0.5423 -0.3336
  807MPD2    C111881   2.061   1.235   1.717 -0.4724 -0.0154 -0.4717
  807MPD2    C211882   2.141   1.185   1.815  0.9650 -0.2783 -0.4307
  807MPD2    C311883   2.095   1.122   1.928  0.0601  0.4283  0.3836
  807MPD2    C411884   1.959   1.109   1.930  0.4652  0.6921  0.1279
  807MPD2    C511885   1.869   1.150   1.832 -0.2684  0.0426 -0.0498
  807MPD2     H11886   2.246   1.206   1.796  0.1367  2.6080 -1.7575
  807MPD2    H111887   1.912   1.048   2.007  1.5961 -0.6413 -0.2479
  807MPD2    H211888   1.849   1.245   1.641 -1.4886  0.7467  0.5273
  807MPD2    H311889   1.762   1.136   1.832 -0.3275  0.4785 -2.2165
  807MPD2     N11890   2.190   1.070   2.023 -0.0920 -0.5760  0.6411
  807MPD2    H511891   2.288   1.091   2.006 -0.6892 -0.4208 -2.5678
  807MPD2    N111892   2.128   1.282   1.601 -0.5527 -0.0364  0.5546
  807MPD2    H711893   2.229   1.280   1.594 -0.6281  0.6525 -0.8122
  808MPD2     C11894   3.082   2.018  10.387  0.2334 -0.5637 -0.3306
  808MPD2    C111895   3.050   1.988  10.256  0.4132 -0.7136 -0.2848
  808MPD2    C211896   3.071   2.079  10.155  0.3746 -0.1761  0.4157
  808MPD2    C311897   3.146   2.192  10.186 -0.0472  0.3902  0.2819
  808MPD2    C411898   3.196   2.211  10.319 -0.2490 -0.3473 -0.0048
  808MPD2    C511899   3.148   2.135  10.421 -1.4047 -0.6037  1.4338
  808MPD2     H11900   3.028   2.068  10.056  3.1182  0.0664 -0.8072
  808MPD2    H111901   3.255   2.300  10.339  0.6818 -1.3374  1.6390
  808MPD2    H211902   3.062   1.940  10.460 -0.4516  2.3750  2.5970
  808MPD2    H311903   3.163   2.151  10.527 -2.2804  1.6249  1.2018
  808MPD2     N11904   3.157   2.290  10.081 -0.5554 -0.1793  0.0066
  808MPD2    H511905   3.113   2.265   9.993  0.8045  1.4743 -1.1516
  808MPD2    N111906   2.966   1.878  10.218  0.4042  0.5713 -0.4668
  808MPD2    H711907   2.937   1.881  10.121 -4.0023  1.8325  0.9124
  809MPD2     C11908   3.824   2.271   9.338  0.1400 -0.2336 -0.2939
  809MPD2    C111909   3.813   2.233   9.473 -0.2984 -0.2369 -0.1784
  809MPD2    C211910   3.710   2.271   9.558 -0.1098  0.1386 -0.3117
  809MPD2    C311911   3.624   2.370   9.519 -0.1920 -0.7929 -0.5231
  809MPD2    C411912   3.642   2.416   9.387 -0.5103 -0.8126 -0.6639
  809MPD2    C511913   3.730   2.360   9.301  0.1350 -0.0504 -0.2435
  809MPD2     H11914   3.712   2.225   9.656 -1.5075 -1.1537 -0.9006
  809MPD2    H111915   3.576   2.486   9.338  0.7242  1.2385  0.6327
  809MPD2    H211916   3.897   2.219   9.277 -0.7101 -5.1880  2.9385
  809MPD2    H311917   3.715   2.371   9.194  0.3030  0.1822 -0.2432
  809MPD2     N11918   3.521   2.432   9.599  0.1404  0.1394 -0.3649
  809MPD2    H511919   3.452   2.492   9.556 -0.2206 -0.1002 -0.1264
  809MPD2    N111920   3.913   2.145   9.534 -0.1094  0.2979 -0.3007
  809MPD2    H711921   3.907   2.128   9.634  0.5254  3.9520  0.3338
  810MPD2     C11922   2.705   1.876  10.770 -0.0975 -0.0496  0.5301
  810MPD2    C111923   2.692   1.961  10.663  0.4903 -0.1650  0.2644
  810MPD2    C211924   2.747   2.090  10.671  0.1208 -0.1453  0.7066
  810MPD2    C311925   2.809   2.131  10.788  0.3159 -0.0255 -0.3296
  810MPD2    C411926   2.828   2.035  10.888 -0.0071 -0.1725  0.1547
  810MPD2    C511927   2.787   1.909  10.878  0.3004  0.2562  0.1309
  810MPD2     H11928   2.720   2.168  10.600  0.6314  0.6454  1.3723
  810MPD2    H111929   2.882   2.062  10.979 -1.1480  1.7363  0.2633
  810MPD2    H211930   2.658   1.778  10.766 -0.7018  0.3034 -1.0920
  810MPD2    H311931   2.795   1.839  10.961  2.7150  0.2691 -0.0988
  810MPD2     N11932   2.847   2.263  10.812 -0.6439 -0.5565  0.1443
  810MPD2    H511933   2.897   2.279  10.898 -3.0373  0.7834  1.2671
  810MPD2    N111934   2.622   1.917  10.548 -0.2494 -0.4281  0.3166
  810MPD2    H711935   2.558   1.839  10.555  0.2831 -0.7963  1.1154
  811MPD2     C11936   2.040   2.272   9.986  0.1276 -0.7071 -0.5923
  811MPD2    C111937   2.172   2.263  10.025  0.2675  0.1897 -0.2529
  811MPD2    C211938   2.235   2.390  10.023  0.2549 -0.1860  0.7718
  811MPD2    C311939   2.185   2.503   9.972 -0.0104 -0.4947 -0.0745
  811MPD2    C411940   2.052   2.505   9.933 -0.1368 -0.6224  0.2181
  811MPD2    C511941   1.986   2.384   9.933  0.0573 -1.4725  0.0114
  811MPD2     H11942   2.335   2.400  10.064 -0.4111  0.4918  2.2382
  811MPD2    H111943   2.010   2.590   9.882  0.3338 -1.3402 -1.3702
  811MPD2    H211944   1.985   2.179   9.972 -0.0418 -0.5373 -1.0578
  811MPD2    H311945   1.889   2.383   9.885 -0.1822 -0.6421  0.4737
  811MPD2     N11946   2.261   2.626   9.984  0.1448 -0.4014 -0.0616
  811MPD2    H511947   2.358   2.613  10.010  0.4647 -0.8495 -1.4525
  811MPD2    N111948   2.223   2.143  10.075 -0.1434 -0.6063 -0.1696
  811MPD2    H711949   2.161   2.063  10.087  2.4522 -2.5371  0.3787
  812MPD2     C11950   1.352   1.848  12.387 -0.6236 -0.3101  0.1424
  812MPD2    C111951   1.243   1.900  12.453  0.2251  0.0288 -0.3829
  812MPD2    C211952   1.182   1.814  12.545  0.1661 -0.2814 -0.1775
  812MPD2    C311953   1.228   1.684  12.568 -0.0195  0.2787 -0.2350
  812MPD2    C411954   1.341   1.641  12.501 -0.3264  0.3449  0.2624
  812MPD2    C511955   1.407   1.721  12.417  0.3177  0.5067  0.3561
  812MPD2     H11956   1.091   1.842  12.597 -0.4237 -2.0780 -0.2726
  812MPD2    H111957   1.391   1.549  12.528  2.0059  1.3088 -0.7153
  812MPD2    H211958   1.405   1.902  12.310  2.3468 -1.0873  1.6680
  812MPD2    H311959   1.501   1.680  12.380 -0.7806  0.5199 -2.4584
  812MPD2     N11960   1.159   1.600  12.657  0.4164 -0.5232 -0.0736
  812MPD2    H511961   1.092   1.639  12.722 -0.2198 -1.6390 -0.0427
  812MPD2    N111962   1.202   2.029  12.418 -0.1190 -0.4482  0.0362
  812MPD2    H711963   1.256   2.086  12.354 -1.2909 -0.0977 -0.6449
  813MPD2     C11964   4.506   3.863  12.759 -0.5690 -0.1643  0.6586
  813MPD2    C111965   4.590   3.969  12.769  0.2042 -0.3725  0.5825
  813MPD2    C211966   4.577   4.060  12.874 -0.0003 -0.1659 -0.6559
  813MPD2    C311967   4.489   4.029  12.974 -0.6310  0.3633  0.2045
  813MPD2    C411968   4.419   3.915  12.965  0.0818  0.5539  1.0015
  813MPD2    C511969   4.424   3.835  12.864  0.1478  0.6078 -0.2264
  813MPD2     H11970   4.632   4.153  12.875  0.5239 -0.4796 -0.5316
  813MPD2    H111971   4.351   3.875  13.039 -0.9957 -0.5526 -0.5774
  813MPD2    H211972   4.516   3.790  12.678  1.6588  0.4856  0.3565
  813MPD2    H311973   4.369   3.741  12.868  1.0317  0.2356  2.7521
  813MPD2     N11974   4.488   4.113  13.093  0.0269 -0.0138  0.3682
  813MPD2    H511975   4.565   4.176  13.111 -0.9101  1.9107 -2.3543
  813MPD2    N111976   4.693   3.974  12.671 -0.1234 -0.3640  0.7506
  813MPD2    H711977   4.700   3.900  12.601 -0.6541 -1.0530  1.4356
  814MPD2     C11978   0.798   0.497  12.279 -0.3394 -0.0826  0.3750
  814MPD2    C111979   0.808   0.560  12.154 -0.0641  0.1686  0.0259
  814MPD2    C211980   0.862   0.685  12.150  0.3030  0.0541  0.0774
  814MPD2    C311981   0.925   0.746  12.265 -0.1828  0.6605  0.1622
  814MPD2    C411982   0.926   0.672  12.388 -0.1158  0.2466  0.4658
  814MPD2    C511983   0.864   0.547  12.385  0.7072  0.6170 -0.6407
  814MPD2     H11984   0.851   0.737  12.055  0.5122 -2.0016 -1.0680
  814MPD2    H111985   0.988   0.707  12.470  2.1929  1.5893 -1.8792
  814MPD2    H211986   0.742   0.404  12.280 -0.2695 -0.1353 -0.5044
  814MPD2    H311987   0.867   0.496  12.481 -0.7063  1.3782 -0.1895
  814MPD2     N11988   1.002   0.862  12.259 -0.4193 -0.2048  0.0731
  814MPD2    H511989   1.053   0.888  12.343 -0.7896 -1.1043  0.5773
  814MPD2    N111990   0.758   0.506  12.037 -0.1444  0.0707 -0.0836
  814MPD2    H711991   0.787   0.555  11.953  1.0410 -1.2123 -0.4199
  815MPD2     C11992   1.394   3.554  12.224 -0.0164  0.0150 -0.3690
  815MPD2    C111993   1.373   3.424  12.238 -0.2909  0.6696  0.4486
  815MPD2    C211994   1.251   3.374  12.280  0.5767 -0.5452  0.0839
  815MPD2    C311995   1.144   3.461  12.270  0.4679 -0.3830  0.0402
  815MPD2    C411996   1.164   3.593  12.268  0.4405 -0.1349 -0.6034
  815MPD2    C511997   1.288   3.644  12.249 -1.0703  0.5732  0.0825
  815MPD2     H11998   1.236   3.267  12.292  1.9112 -0.7113  0.3661
  815MPD2    H111999   1.078   3.657  12.280  1.1779  1.1101 -1.9733
  815MPD2    H212000   1.487   3.592  12.185  1.3424 -2.9031  0.0913
  815MPD2    H312001   1.307   3.750  12.236 -1.1644  0.9126  2.7983
  815MPD2     N12002   1.007   3.420  12.284 -0.3277 -0.0995  0.1264
  815MPD2    H512003   0.938   3.495  12.287  1.4095  1.4906  0.6488
  815MPD2    N112004   1.473   3.341  12.200 -0.3324  0.4070 -0.5258
  815MPD2    H712005   1.546   3.394  12.153 -0.6222  2.3526  1.2075
  816MPD2     C12006   1.149   3.034  17.545 -0.0072  0.0776  0.5959
  816MPD2    C112007   1.139   3.135  17.454 -0.1579  0.1174  0.0656
  816MPD2    C212008   1.209   3.134  17.330  0.3415  0.1693 -0.5297
  816MPD2    C312009   1.287   3.024  17.301 -0.4232  0.1744  0.9529
  816MPD2    C412010   1.299   2.921  17.393 -0.2408  0.0935  0.3876
  816MPD2    C512011   1.230   2.927  17.518  0.2021 -0.1760 -0.5352
  816MPD2     H12012   1.212   3.210  17.254 -0.1377  0.1298 -0.5849
  816MPD2    H112013   1.366   2.836  17.382  0.0841  0.5482 -1.2528
  816MPD2    H212014   1.106   3.049  17.643 -0.9484 -2.5328  0.5675
  816MPD2    H312015   1.235   2.859  17.602  1.9398  1.7396  0.9112
  816MPD2     N12016   1.350   3.028  17.174 -0.3322  0.2373  0.1092
  816MPD2    H512017   1.345   3.117  17.126  0.8396  0.2571  0.0307
  816MPD2    N112018   1.069   3.250  17.496  0.0687 -0.2844 -0.3611
  816MPD2    H712019   1.027   3.251  17.589 -0.0701  0.7071 -0.4272
  817MPD2     C12020   1.155   4.358  10.358 -0.5428  0.3532 -0.0034
  817MPD2    C112021   1.258   4.369  10.267  0.0708  0.6036 -0.6709
  817MPD2    C212022   1.265   4.480  10.183  0.2202 -0.1905  0.0880
  817MPD2    C312023   1.168   4.585  10.184  0.8889 -0.8913  0.5461
  817MPD2    C412024   1.060   4.562  10.276 -0.5655  0.2748  0.0787
  817MPD2    C512025   1.055   4.450  10.359  0.2492  0.1119  0.3659
  817MPD2     H12026   1.351   4.481  10.116  0.9333  1.7511  1.0150
  817MPD2    H112027   0.971   4.625  10.278  0.7456  2.1770 -0.5866
  817MPD2    H212028   1.153   4.283  10.437 -3.6902 -0.5767 -1.0069
  817MPD2    H312029   0.981   4.447  10.439  0.0979 -0.2024  0.2163
  817MPD2     N12030   1.174   4.692  10.090  0.3184  0.3299  0.0408
  817MPD2    H512031   1.255   4.696  10.028  1.8915  3.0606  2.2906
  817MPD2    N112032   1.358   4.275  10.244 -0.1682  0.3337 -0.1760
  817MPD2    H712033   1.419   4.298  10.166  2.0042  0.7847  1.6486
  818MPD2     C12034   4.429   4.296   9.977  0.1622  0.4868  0.6302
  818MPD2    C112035   4.448   4.241  10.097 -0.0407  0.3568  0.0164
  818MPD2    C212036   4.438   4.108  10.116 -0.2581  0.6843 -0.0184
  818MPD2    C312037   4.405   4.016  10.011 -0.0529  0.3394 -0.0695
  818MPD2    C412038   4.395   4.073   9.890  0.2191 -0.2504 -0.6833
  818MPD2    C512039   4.408   4.209   9.872  0.2846  1.0934 -0.8580
  818MPD2     H12040   4.437   4.077  10.219  1.5714  0.5458 -0.0334
  818MPD2    H112041   4.385   4.019   9.797 -1.6220 -1.4898  0.2231
  818MPD2    H212042   4.425   4.403   9.959 -0.8563  0.9449  3.4389
  818MPD2    H312043   4.416   4.238   9.768  4.7092 -1.1454 -1.1390
  818MPD2     N12044   4.376   3.878  10.032 -0.1898 -0.3707 -0.2968
  818MPD2    H512045   4.375   3.831  10.122  1.4480  1.5853  0.7323
  818MPD2    N112046   4.483   4.317  10.215 -0.0967  0.2987 -0.0989
  818MPD2    H712047   4.477   4.266  10.303  0.4184  0.6047  0.1118
  819MPD2     C12048   2.360   1.838  15.765  0.1483  0.2647  0.0331
  819MPD2    C112049   2.361   1.700  15.783  0.6474 -0.0419 -0.0695
  819MPD2    C212050   2.456   1.654  15.871 -0.0290 -0.1924 -0.2866
  819MPD2    C312051   2.540   1.737  15.943  0.1050 -0.0823  0.2832
  819MPD2    C412052   2.537   1.871  15.927 -0.9365 -0.3202 -0.4556
  819MPD2    C512053   2.439   1.923  15.838 -0.4039 -0.3951 -0.4448
  819MPD2     H12054   2.459   1.547  15.887 -0.3915 -0.1842 -0.1618
  819MPD2    H112055   2.605   1.936  15.981  1.5683 -3.6779  0.3758
  819MPD2    H212056   2.285   1.883  15.701  1.0248  1.4396 -0.1646
  819MPD2    H312057   2.423   2.028  15.815  0.3883 -0.2207 -0.2052
  819MPD2     N12058   2.629   1.675  16.030  0.2395  0.4311  0.4732
  819MPD2    H512059   2.635   1.574  16.022  0.9226  0.4013  1.2374
  819MPD2    N112060   2.272   1.627  15.704  0.4278  0.3849 -1.1491
  819MPD2    H712061   2.209   1.677  15.643  1.8280 -0.0302 -2.9499
  820MPD2     C12062   1.492   1.766  15.141 -0.0027 -0.5224  0.2633
  820MPD2    C112063   1.618   1.824  15.167  0.2558 -0.7658  0.5810
  820MPD2    C212064   1.714   1.741  15.227  0.0264  0.2827 -0.0584
  820MPD2    C312065   1.683   1.616  15.268 -0.5635 -0.0325  0.2731
  820MPD2    C412066   1.559   1.568  15.245  0.3301 -0.3372  0.6884
  820MPD2    C512067   1.466   1.641  15.182  0.0608 -0.2903 -1.0049
  820MPD2     H12068   1.806   1.790  15.257  0.1620 -0.3381  0.5442
  820MPD2    H112069   1.552   1.462  15.264  1.6495 -0.2600  1.6087
  820MPD2    H212070   1.419   1.835  15.101  1.3335  0.3095 -0.7570
  820MPD2    H312071   1.379   1.585  15.150 -1.4167  1.8799 -0.7719
  820MPD2     N12072   1.775   1.545  15.348 -0.0839  0.4400  0.5456
  820MPD2    H512073   1.747   1.454  15.384  1.5676  0.5082  2.0032
  820MPD2    N112074   1.644   1.953  15.125 -0.8113  0.4526  0.2975
  820MPD2    H712075   1.569   2.007  15.083 -0.2559  0.7753 -0.2880
  821MPD2     C12076   2.535   2.801  13.672  0.6504  0.0883  0.4460
  821MPD2    C112077   2.611   2.695  13.636 -0.1414 -0.7829 -0.4253
  821MPD2    C212078   2.704   2.714  13.532 -0.2254 -0.1156  0.2962
  821MPD2    C312079   2.712   2.832  13.459 -0.6242  0.1062  0.0596
  821MPD2    C412080   2.614   2.922  13.483 -0.3172 -0.2457  0.2763
  821MPD2    C512081   2.534   2.912  13.598  0.2921  0.0037 -0.0365
  821MPD2     H12082   2.764   2.629  13.502  1.7544  0.9405  1.2928
  821MPD2    H112083   2.608   3.019  13.437 -1.5877 -0.2373  0.4597
  821MPD2    H212084   2.465   2.790  13.754 -3.1799  0.7606 -2.7333
  821MPD2    H312085   2.481   2.996  13.642  1.8736  1.1276 -0.2875
  821MPD2     N12086   2.805   2.867  13.358  0.2245  0.0713 -0.4072
  821MPD2    H512087   2.798   2.959  13.316  2.8178  0.1322 -0.7211
  821MPD2    N112088   2.615   2.571  13.710 -0.3189 -0.4861  0.2698
  821MPD2    H712089   2.686   2.502  13.687  1.3648  1.5178 -0.5817
  822MPD2     C12090   3.068   2.864  15.944 -0.0689  0.1316  0.1190
  822MPD2    C112091   3.106   2.899  16.073 -0.5362 -0.7351  0.0010
  822MPD2    C212092   3.042   2.998  16.142 -0.4570 -0.5517  1.2149
  822MPD2    C312093   2.944   3.075  16.076 -0.8855 -0.3951 -0.9835
  822MPD2    C412094   2.900   3.032  15.948  1.1531 -0.6229 -0.4541
  822MPD2    C512095   2.962   2.930  15.884 -0.4357 -0.3643  0.4118
  822MPD2     H12096   3.076   3.022  16.242 -0.8006  1.1598  0.9154
  822MPD2    H112097   2.815   3.083  15.905  0.5351 -0.9573  0.3804
  822MPD2    H212098   3.107   2.780  15.888 -0.0457  0.4444 -0.3348
  822MPD2    H312099   2.945   2.906  15.780  2.3245  1.1488 -0.3737
  822MPD2     N12100   2.885   3.181  16.149  0.3928 -0.3112  0.2058
  822MPD2    H512101   2.898   3.184  16.249 -3.7723 -0.1987  0.7388
  822MPD2    N112102   3.203   2.826  16.153 -0.4858 -0.3156 -0.4576
  822MPD2    H712103   3.220   2.855  16.248  0.1391  0.6944 -0.8676
  823MPD2     C12104   2.512   3.515  16.842 -0.0289  0.2188 -0.2494
  823MPD2    C112105   2.584   3.432  16.761  0.7599 -0.3257  0.2284
  823MPD2    C212106   2.657   3.332  16.825  0.5708 -0.1416  0.0058
  823MPD2    C312107   2.658   3.312  16.963  0.3575 -0.3244 -0.0025
  823MPD2    C412108   2.579   3.391  17.039 -0.3648 -0.5082  0.2218
  823MPD2    C512109   2.519   3.503  16.981  0.2963  0.5697  0.2754
  823MPD2     H12110   2.721   3.269  16.763 -0.9555 -2.8884  1.2442
  823MPD2    H112111   2.571   3.374  17.146  1.6009 -0.2101  0.4209
  823MPD2    H212112   2.447   3.593  16.806  0.5119  1.3206  1.1597
  823MPD2    H312113   2.463   3.573  17.043 -0.4090  0.8879 -0.7243
  823MPD2     N12114   2.715   3.206  17.024  0.5176 -0.0410 -0.0644
  823MPD2    H512115   2.701   3.203  17.124 -0.1028  1.8752 -0.0906
  823MPD2    N112116   2.582   3.452  16.623  0.2238  0.4308 -0.4312
  823MPD2    H712117   2.555   3.545  16.591  0.2771  0.0789 -1.4737
  824MPD2     C12118   3.650   2.088  16.437 -0.5963  0.6617  0.0141
  824MPD2    C112119   3.633   2.156  16.325  0.0386 -0.1204  0.4913
  824MPD2    C212120   3.677   2.094  16.206  0.6846  0.3569  0.3599
  824MPD2    C312121   3.748   1.973  16.210 -0.2358 -0.0938 -0.4032
  824MPD2    C412122   3.756   1.908  16.329  0.0244  0.5991 -0.0856
  824MPD2    C512123   3.709   1.968  16.443  0.1133 -1.2856 -0.1625
  824MPD2     H12124   3.649   2.121  16.104  1.6633  0.3657  0.0882
  824MPD2    H112125   3.799   1.814  16.359 -2.7631 -1.3145 -2.0897
  824MPD2    H212126   3.634   2.132  16.535 -1.5774 -2.3253  1.2075
  824MPD2    H312127   3.740   1.922  16.536  0.7324 -0.1812  0.1812
  824MPD2     N12128   3.807   1.927  16.094  0.2908  0.2141  0.3907
  824MPD2    H512129   3.798   1.978  16.007 -2.8051 -1.1538 -0.0912
  824MPD2    N112130   3.566   2.282  16.328  1.2127  0.3976 -0.0180
  824MPD2    H712131   3.560   2.332  16.416  1.1777 -1.1374  0.8533
  825MPD2     C12132   4.464   2.112  15.557  0.8406  0.6438  0.1065
  825MPD2    C112133   4.411   2.114  15.685 -0.0115 -0.6984  0.3192
  825MPD2    C212134   4.452   2.218  15.768 -0.3183  0.1296  0.2217
  825MPD2    C312135   4.535   2.315  15.720  0.2247 -0.6615  0.7788
  825MPD2    C412136   4.599   2.310  15.601 -0.1507 -0.6731 -0.1466
  825MPD2    C512137   4.561   2.200  15.518  0.3772  0.8085  0.0919
  825MPD2     H12138   4.394   2.219  15.859 -0.7175  1.1738 -0.0583
  825MPD2    H112139   4.672   2.382  15.566 -3.0241  1.6700 -1.3359
  825MPD2    H212140   4.431   2.033  15.491  0.8620 -1.7656  3.0052
  825MPD2    H312141   4.605   2.181  15.421 -0.8484  1.1800 -0.5369
  825MPD2     N12142   4.567   2.424  15.805  0.2012 -0.0315 -0.0003
  825MPD2    H512143   4.620   2.500  15.764  2.0065 -0.0368  2.3561
  825MPD2    N112144   4.320   2.013  15.719 -0.6879 -0.0392  0.7288
  825MPD2    H712145   4.315   1.932  15.657 -1.9901 -0.1222  0.9503
  826MPD2     C12146   3.797   1.703  13.413 -0.5757 -0.2354 -0.0007
  826MPD2    C112147   3.801   1.834  13.391 -0.2980 -0.1032  0.1554
  826MPD2    C212148   3.703   1.921  13.441  0.5897  0.2807 -0.0002
  826MPD2    C312149   3.593   1.869  13.509 -0.2730  0.3065  0.3057
  826MPD2    C412150   3.590   1.733  13.518  0.6933  0.0184 -0.8288
  826MPD2    C512151   3.695   1.647  13.484  0.3809  1.2238 -0.3014
  826MPD2     H12152   3.715   2.028  13.426  0.5507  0.1563 -0.9424
  826MPD2    H112153   3.521   1.686  13.586  1.5883 -0.1936 -0.0690
  826MPD2    H212154   3.875   1.635  13.381 -0.0292 -0.3189  1.4987
  826MPD2    H312155   3.681   1.540  13.495  0.2192  1.0500 -2.1784
  826MPD2     N12156   3.510   1.943  13.589  0.0355 -0.1952 -0.4823
  826MPD2    H512157   3.460   1.888  13.658 -0.3408 -0.3636 -0.8876
  826MPD2    N112158   3.928   1.880  13.334 -0.4668 -0.4260 -0.6804
  826MPD2    H712159   4.007   1.817  13.322 -0.8800 -0.5297 -2.8196
  827MPD2     C12160   0.603   3.197  10.167  0.1221  0.1816  0.3290
  827MPD2    C112161   0.492   3.167  10.245  0.1644 -0.4224 -0.3870
  827MPD2    C212162   0.393   3.084  10.191  0.3728  0.0163 -0.9399
  827MPD2    C312163   0.404   3.034  10.060 -0.3468 -0.5161  0.1282
  827MPD2    C412164   0.516   3.070   9.984 -0.2829  0.6677 -0.2365
  827MPD2    C512165   0.613   3.153  10.037 -0.8932  0.7873  0.6144
  827MPD2     H12166   0.305   3.067  10.253 -0.0110  0.3078 -1.4082
  827MPD2    H112167   0.533   3.037   9.881 -2.0218 -1.3837  0.1273
  827MPD2    H212168   0.689   3.253  10.204  0.0719  0.4192  0.0792
  827MPD2    H312169   0.700   3.175   9.976 -0.9010 -0.6825  0.0604
  827MPD2     N12170   0.295   2.954  10.014  0.3374  0.2846  0.1348
  827MPD2    H512171   0.218   2.953  10.080 -0.1315 -1.9291 -0.4651
  827MPD2    N112172   0.490   3.224  10.382 -0.6393  0.9410 -0.1932
  827MPD2    H712173   0.553   3.299  10.407  0.0389  0.3576 -0.1670
  828MPD2     C12174   3.458   2.973  12.558 -0.1120 -0.4544  0.0310
  828MPD2    C112175   3.375   2.951  12.444 -0.3117 -0.0245  0.1876
  828MPD2    C212176   3.441   2.914  12.331 -1.2850  0.0369 -1.2521
  828MPD2    C312177   3.578   2.905  12.324  0.4637  0.2970 -0.0298
  828MPD2    C412178   3.652   2.917  12.436 -0.2289 -0.5511  0.2247
  828MPD2    C512179   3.598   2.964  12.556  0.4896 -0.3652 -0.2017
  828MPD2     H12180   3.378   2.888  12.246 -1.3304 -1.5740 -0.7324
  828MPD2    H112181   3.760   2.903  12.436 -0.6710 -3.8695  0.2134
  828MPD2    H212182   3.419   3.012  12.652  2.8578 -0.9667  1.4854
  828MPD2    H312183   3.652   2.995  12.644  1.9027  0.3148 -1.3111
  828MPD2     N12184   3.663   2.889  12.204 -0.7432 -0.0321  0.4184
  828MPD2    H512185   3.756   2.867  12.235 -0.6770 -1.7226 -0.9954
  828MPD2    N112186   3.236   2.957  12.450  0.0365 -0.2168  1.0736
  828MPD2    H712187   3.183   2.928  12.368 -0.1339  2.6228  0.1703
  829MPD2     C12188   2.886   3.423  11.820 -0.3294  0.3650 -0.7917
  829MPD2    C112189   2.783   3.439  11.913 -0.3540  0.2793 -0.1245
  829MPD2    C212190   2.801   3.390  12.045  0.3083  0.4475  0.3752
  829MPD2    C312191   2.907   3.320  12.081  0.2634 -0.2598 -0.1895
  829MPD2    C412192   3.011   3.313  11.991 -0.1180  0.1149 -0.2055
  829MPD2    C512193   3.000   3.359  11.859 -0.1763  1.1278 -0.1118
  829MPD2     H12194   2.715   3.402  12.111 -0.3913  4.4791 -1.2673
  829MPD2    H112195   3.095   3.248  12.012  1.1098  1.8818  0.3190
  829MPD2    H212196   2.873   3.453  11.717 -0.6663  0.6748 -0.6567
  829MPD2    H312197   3.082   3.341  11.791 -0.5456 -0.9561  0.0080
  829MPD2     N12198   2.917   3.252  12.207  0.6325  0.5605 -0.0647
  829MPD2    H512199   3.001   3.195  12.215  1.0401  1.0528 -0.8694
  829MPD2    N112200   2.657   3.497  11.870 -0.2898  0.5395  0.0655
  829MPD2    H712201   2.664   3.545  11.781 -0.7703  1.1489  0.3595
  830MPD2     C12202   3.282   1.173  16.194  0.1997  0.1548  0.2156
  830MPD2    C112203   3.218   1.245  16.092 -0.4334 -0.9196 -0.6707
  830MPD2    C212204   3.282   1.288  15.985 -0.5805  0.0847  0.3900
  830MPD2    C312205   3.421   1.267  15.973 -0.6461 -0.0809  0.9241
  830MPD2    C412206   3.491   1.198  16.074  0.1684 -0.3008 -0.2406
  830MPD2    C512207   3.415   1.144  16.179  0.3339  0.2023 -0.2529
  830MPD2     H12208   3.221   1.341  15.913 -1.2209  0.3271  1.1149
  830MPD2    H112209   3.594   1.171  16.055  0.8251  1.3088  1.0605
  830MPD2    H212210   3.232   1.132  16.281 -0.7438  0.1062 -0.3483
  830MPD2    H312211   3.461   1.088  16.260 -0.0223  1.7054  0.9822
  830MPD2     N12212   3.497   1.314  15.863  0.1623 -0.3603  0.5410
  830MPD2    H512213   3.597   1.292  15.863  0.6546  1.7533 -2.5845
  830MPD2    N112214   3.083   1.277  16.118 -0.6891 -0.4079 -0.2187
  830MPD2    H712215   3.057   1.272  16.216 -1.2601  0.3577 -0.3319
  831MPD2     C12216   3.161   3.418  16.416 -0.1456 -0.0383 -0.0686
  831MPD2    C112217   3.195   3.294  16.381 -0.3545  0.0834 -0.0855
  831MPD2    C212218   3.115   3.192  16.432 -0.8014  0.4065 -0.0838
  831MPD2    C312219   2.996   3.211  16.504 -0.1240  0.0687  0.1247
  831MPD2    C412220   2.970   3.341  16.544  0.1820  0.2974 -0.0609
  831MPD2    C512221   3.049   3.441  16.490  0.1502  0.5692 -0.0775
  831MPD2     H12222   3.142   3.091  16.403  1.0318  0.5233  1.2598
  831MPD2    H112223   2.885   3.380  16.597 -0.6305 -0.4975 -0.7845
  831MPD2    H212224   3.211   3.504  16.374  0.0829  0.6445  1.6331
  831MPD2    H312225   3.009   3.539  16.516  0.8676  0.8090  0.1171
  831MPD2     N12226   2.898   3.105  16.530  0.1285  0.6740 -0.0723
  831MPD2    H512227   2.806   3.130  16.564  0.1633 -0.2799  0.7258
  831MPD2    N112228   3.286   3.266  16.271 -0.0139  0.1476 -0.1110
  831MPD2    H712229   3.319   3.340  16.210  1.5227 -0.6251 -0.2041
  832MPD2     C12230   1.747   4.195  17.148 -0.2511 -0.6478 -0.1043
  832MPD2    C112231   1.709   4.326  17.163 -0.2464  0.1522  0.5228
  832MPD2    C212232   1.593   4.368  17.101 -1.2400 -0.7247  0.0376
  832MPD2    C312233   1.505   4.277  17.055  0.4596 -0.0819 -0.1624
  832MPD2    C412234   1.549   4.148  17.031 -0.5106  0.7867 -0.4377
  832MPD2    C512235   1.668   4.104  17.082 -0.4468  0.1109 -0.3514
  832MPD2     H12236   1.563   4.469  17.126  4.0031  0.4785  1.4193
  832MPD2    H112237   1.475   4.076  16.996  0.5188  0.2492 -1.5020
  832MPD2    H212238   1.835   4.151  17.194 -0.1535 -0.0153  0.3186
  832MPD2    H312239   1.697   3.999  17.084  3.5710  1.2491 -0.1977
  832MPD2     N12240   1.371   4.301  17.015  0.7871 -0.8593  0.3441
  832MPD2    H512241   1.319   4.226  16.971  0.1080 -1.5673  2.4034
  832MPD2    N112242   1.793   4.412  17.234  0.4734 -0.6887  0.7865
  832MPD2    H712243   1.884   4.377  17.264  0.8129 -0.5178 -0.0520
  833MPD2     C12244   4.050   0.812  12.489  0.0589 -0.7169 -0.5985
  833MPD2    C112245   4.021   0.879  12.377  0.0766  0.2980  0.5583
  833MPD2    C212246   4.093   0.850  12.265  0.5446  0.3119 -0.5889
  833MPD2    C312247   4.199   0.767  12.255 -0.7517  0.0171 -0.4311
  833MPD2    C412248   4.225   0.701  12.374 -0.5273 -0.6754  0.2243
  833MPD2    C512249   4.145   0.717  12.484 -0.4125 -0.2961  0.6192
  833MPD2     H12250   4.080   0.907  12.174  0.5180  0.3023 -0.5911
  833MPD2    H112251   4.299   0.622  12.374 -1.6845 -1.7543  0.3569
  833MPD2    H212252   3.994   0.825  12.581  0.1529  0.6331 -0.7392
  833MPD2    H312253   4.168   0.662  12.575 -2.3642  0.2811  1.4553
  833MPD2     N12254   4.275   0.737  12.145 -0.0392 -0.2482 -1.2636
  833MPD2    H512255   4.330   0.651  12.150  1.2440  0.4937 -2.6249
  833MPD2    N112256   3.920   0.981  12.379  0.0537 -0.7023  0.3640
  833MPD2    H712257   3.874   0.993  12.469 -1.3966 -2.7880 -0.1138
  834MPD2     C12258   3.940   4.705  11.556 -1.2875  0.6749 -0.1700
  834MPD2    C112259   3.890   0.102  11.503  0.0843 -0.3234 -0.3103
  834MPD2    C212260   3.934   0.232  11.547  0.2294  0.2331  0.4515
  834MPD2    C312261   4.024   0.234  11.649 -0.2783  0.0919 -0.0182
  834MPD2    C412262   4.062   0.120  11.716  0.0358 -0.5518  0.8526
  834MPD2    C512263   4.018   4.715  11.671 -0.2588 -0.1342 -0.2128
  834MPD2     H12264   3.896   0.320  11.497  1.9113  0.0813 -1.1014
  834MPD2    H112265   4.100   0.108  11.816 -0.9209 -0.4684  1.2263
  834MPD2    H212266   3.906   4.608  11.523  0.7577  0.4809 -1.7385
  834MPD2    H312267   4.032   4.620  11.721  0.6452 -0.7669 -1.6746
  834MPD2     N12268   4.072   0.361  11.688  0.2869  0.3953 -0.4127
  834MPD2    H512269   4.022   0.439  11.646  0.7607  0.3258 -1.1161
  834MPD2    N112270   3.785   0.081  11.406  0.1657 -0.0837  0.1020
  834MPD2    H712271   3.761   4.702  11.391  0.9077  0.3703 -3.9950
  835MPD2     C12272   3.988   2.938  11.183  0.7217  1.0821  0.0639
  835MPD2    C112273   3.878   2.997  11.242  0.0296 -0.5242  0.3204
  835MPD2    C212274   3.893   3.053  11.373  0.0916 -0.1768 -0.1825
  835MPD2    C312275   4.012   3.034  11.441  0.4931 -1.4660 -0.4185
  835MPD2    C412276   4.117   2.966  11.378 -0.1772  0.4496 -0.0041
  835MPD2    C512277   4.104   2.916  11.252 -0.0152 -0.1671  0.6312
  835MPD2     H12278   3.810   3.106  11.418 -0.0797 -0.0959 -0.5950
  835MPD2    H112279   4.213   2.953  11.426  0.4524  0.6584 -1.2068
  835MPD2    H212280   3.989   2.893  11.084 -3.5089 -0.2580  0.6283
  835MPD2    H312281   4.183   2.867  11.197  0.5004 -0.0426  1.2659
  835MPD2     N12282   4.039   3.090  11.570 -0.4592 -0.2174  0.1102
  835MPD2    H512283   4.129   3.065  11.610  0.4232  2.7437  0.0193
  835MPD2    N112284   3.756   3.010  11.177  0.1319 -0.3120  0.4849
  835MPD2    H712285   3.684   3.056  11.231 -0.3530 -1.1893  0.5840
  836MPD2     C12286   3.880   3.487  12.414 -0.8950 -0.0434 -0.2588
  836MPD2    C112287   3.821   3.473  12.295 -0.0064  0.2164 -1.1532
  836MPD2    C212288   3.686   3.497  12.286  0.4497  0.0483 -0.4882
  836MPD2    C312289   3.606   3.544  12.394 -0.0496  0.0194  0.1419
  836MPD2    C412290   3.674   3.558  12.513  0.0582 -0.0654  0.4799
  836MPD2    C512291   3.806   3.533  12.522 -0.5805  0.7186 -0.5782
  836MPD2     H12292   3.629   3.479  12.196 -0.7528  0.4571  0.1922
  836MPD2    H112293   3.619   3.591  12.601 -1.2502  0.7427 -0.6387
  836MPD2    H212294   3.983   3.459  12.431 -1.1903 -0.7385  0.3805
  836MPD2    H312295   3.860   3.542  12.615  0.0144  1.0579 -0.9577
  836MPD2     N12296   3.472   3.567  12.389 -0.0539 -0.8237 -0.0075
  836MPD2    H512297   3.433   3.582  12.481  0.3092  0.2121 -0.0159
  836MPD2    N112298   3.901   3.416  12.188  0.5764 -0.0251 -0.0548
  836MPD2    H712299   3.999   3.399  12.206  1.0061  0.5500 -1.7924
  837MPD2     C12300   2.607   3.092  10.376 -0.2114  0.4632  0.0608
  837MPD2    C112301   2.563   3.144  10.253 -0.6457  0.5134  0.2954
  837MPD2    C212302   2.494   3.263  10.259 -0.1163 -0.0579  0.4162
  837MPD2    C312303   2.449   3.316  10.378 -0.1755  0.6929 -0.5329
  837MPD2    C412304   2.477   3.250  10.495 -0.4171 -0.0888 -0.2726
  837MPD2    C512305   2.563   3.144  10.494 -0.2136 -0.2289 -0.2089
  837MPD2     H12306   2.457   3.308  10.168  0.7347 -0.0702  0.0652
  837MPD2    H112307   2.424   3.276  10.586 -0.3374  0.4955 -0.3948
  837MPD2    H212308   2.664   3.002  10.389  1.0371  0.7996 -3.2304
  837MPD2    H312309   2.598   3.109  10.591  0.6893  0.1835 -0.3873
  837MPD2     N12310   2.351   3.413  10.370  0.7238 -0.5565  0.2778
  837MPD2    H512311   2.324   3.454  10.281 -0.6390 -1.2162  0.3865
  837MPD2    N112312   2.584   3.088  10.126  0.9652  0.2124 -0.2650
  837MPD2    H712313   2.544   3.141  10.048 -4.0164 -0.6784  1.7271
  838MPD2     C12314   0.616   1.562  12.186  0.1258 -1.1878 -0.2452
  838MPD2    C112315   0.603   1.422  12.160  0.4028  0.1659  0.1478
  838MPD2    C212316   0.515   1.353  12.245 -0.1943 -0.8419  0.4664
  838MPD2    C312317   0.442   1.412  12.349 -0.2282  0.4400 -0.2382
  838MPD2    C412318   0.447   1.547  12.367  0.3461 -0.1727 -0.0531
  838MPD2    C512319   0.538   1.615  12.286  0.5172  0.2413  0.0198
  838MPD2     H12320   0.504   1.245  12.236  0.3192 -0.9070  0.5960
  838MPD2    H112321   0.384   1.598  12.439 -0.2685  1.0190 -1.4175
  838MPD2    H212322   0.680   1.635  12.138  0.7455 -0.0290  2.3267
  838MPD2    H312323   0.547   1.722  12.304  2.7894 -0.0985  0.9657
  838MPD2     N12324   0.341   1.323  12.402 -0.4423 -0.1465 -0.1469
  838MPD2    H512325   0.338   1.230  12.362 -1.2586  1.1600 -3.2087
  838MPD2    N112326   0.662   1.362  12.044  0.5680 -0.1648 -0.5690
  838MPD2    H712327   0.641   1.263  12.037  0.6637 -0.2330  0.1525
  839MPD2     C12328   0.354   0.644  11.851 -0.4584  0.2361  0.0733
  839MPD2    C112329   0.361   0.717  11.730 -0.3739  0.5258 -0.1473
  839MPD2    C212330   0.456   0.812  11.712  1.0212  0.1407 -0.3419
  839MPD2    C312331   0.537   0.854  11.814 -0.2716 -0.3039  0.0602
  839MPD2    C412332   0.536   0.781  11.929 -0.3228 -0.9384  0.2135
  839MPD2    C512333   0.454   0.670  11.948 -0.1455  0.2132  0.2259
  839MPD2     H12334   0.454   0.877  11.625 -3.8909  1.3355  0.6901
  839MPD2    H112335   0.607   0.813  12.005  1.1649 -1.0088 -1.1573
  839MPD2    H212336   0.282   0.563  11.862 -0.1177  0.1384  1.4995
  839MPD2    H312337   0.454   0.615  12.042  4.4651 -0.2753 -0.0957
  839MPD2     N12338   0.619   0.973  11.802  0.0887  0.9177  0.6056
  839MPD2    H512339   0.647   1.024  11.885 -0.7096  2.3534 -0.0069
  839MPD2    N112340   0.280   0.671  11.624 -0.5172  0.1919 -0.0715
  839MPD2    H712341   0.300   0.703  11.529 -0.6506 -1.1143 -0.5349
  840MPD2     C12342   0.983   3.443  10.617 -0.2791  0.2572 -0.1215
  840MPD2    C112343   0.918   3.432  10.732  0.0304 -0.3113  0.2880
  840MPD2    C212344   0.989   3.445  10.851  0.6869  0.2666 -0.2741
  840MPD2    C312345   1.126   3.470  10.849 -0.5603  0.7033 -0.7951
  840MPD2    C412346   1.187   3.485  10.727  1.1614 -0.1277 -0.4261
  840MPD2    C512347   1.114   3.479  10.621 -0.5506  0.0453  0.0541
  840MPD2     H12348   0.943   3.438  10.949 -0.7158  1.4307 -0.8296
  840MPD2    H112349   1.295   3.493  10.713  1.2600  0.6505  0.8010
  840MPD2    H212350   0.931   3.435  10.522  1.3415 -0.6305 -0.9468
  840MPD2    H312351   1.165   3.497  10.527  0.5291  2.2094  1.0637
  840MPD2     N12352   1.217   3.469  10.956  0.1371  0.0284  0.1416
  840MPD2    H512353   1.313   3.477  10.927  0.6519  1.8041  2.2854
  840MPD2    N112354   0.781   3.405  10.714 -0.7111  0.6027  0.2316
  840MPD2    H712355   0.746   3.415  10.619 -2.0643  1.4224  0.8234
  841MPD2     C12356   0.462   3.782  14.103  0.3458  0.2951  0.1170
  841MPD2    C112357   0.392   3.832  14.214  0.3426 -0.6197 -0.2039
  841MPD2    C212358   0.466   3.843  14.338  0.2261  0.1024  0.0268
  841MPD2    C312359   0.601   3.809  14.340 -0.1768 -0.6463 -0.1320
  841MPD2    C412360   0.660   3.761  14.232 -0.3913 -0.7372 -0.2966
  841MPD2    C512361   0.591   3.745  14.116  0.2235  0.5292 -0.1243
  841MPD2     H12362   0.420   3.872  14.432 -0.8497  1.0831 -0.7942
  841MPD2    H112363   0.761   3.721  14.232 -0.2494 -0.3788 -2.2437
  841MPD2    H212364   0.426   3.778  14.001 -0.6076 -1.1148  0.5086
  841MPD2    H312365   0.646   3.700  14.034 -0.1682 -0.1916  0.0197
  841MPD2     N12366   0.662   3.818  14.467  0.4883 -0.3130 -0.2671
  841MPD2    H512367   0.602   3.851  14.542  0.5198 -1.1792  0.1398
  841MPD2    N112368   0.251   3.850  14.219  0.7126 -0.2302 -0.4914
  841MPD2    H712369   0.210   3.884  14.306 -2.5832 -0.9484 -1.7680
  842MPD2     C12370   0.608   0.147  16.829 -0.5113 -0.4377  0.0607
  842MPD2    C112371   0.577   0.014  16.831  0.1272  0.4976  0.4513
  842MPD2    C212372   0.618   4.660  16.946 -0.5536 -0.3677  0.8471
  842MPD2    C312373   0.676   0.010  17.053  0.6245  0.2805  0.7109
  842MPD2    C412374   0.702   0.141  17.045 -0.4522  0.1296 -0.2230
  842MPD2    C512375   0.668   0.207  16.933 -0.5270 -0.2693 -0.0719
  842MPD2     H12376   0.618   4.552  16.936  0.4490 -0.2675 -0.2215
  842MPD2    H112377   0.749   0.196  17.126  1.2333 -0.2650 -0.9488
  842MPD2    H212378   0.594   0.201  16.737  0.7039 -1.1825 -0.5588
  842MPD2    H312379   0.689   0.313  16.933  0.4339 -0.4663 -0.6058
  842MPD2     N12380   0.737   4.661  17.164  0.3136 -0.0651 -0.1814
  842MPD2    H512381   0.794   4.715  17.228 -1.1044  0.0186  1.0038
  842MPD2    N112382   0.506   4.676  16.721 -0.0083 -0.0934  0.0087
  842MPD2    H712383   0.498   0.021  16.641 -0.4525  1.5010  1.3227
  843MPD2     C12384   2.575   4.379   0.923 -0.9299 -0.1708  0.3678
  843MPD2    C112385   2.681   4.392   1.011 -0.3226  0.3432 -0.8167
  843MPD2    C212386   2.789   4.471   0.967  0.0165  0.1689  0.6338
  843MPD2    C312387   2.786   4.548   0.854  1.0656 -0.8623  0.8328
  843MPD2    C412388   2.676   4.534   0.768 -0.0803 -0.0423 -0.3691
  843MPD2    C512389   2.568   4.455   0.809  0.2568 -0.3879 -0.2359
  843MPD2     H12390   2.883   4.459   1.020 -0.2457 -0.5587  0.9303
  843MPD2    H112391   2.671   4.587   0.673 -0.5174  0.8365  0.1386
  843MPD2    H212392   2.503   4.300   0.940 -2.0358  0.7804  0.1160
  843MPD2    H312393   2.475   4.439   0.755  0.2439  2.3889 -1.0148
  843MPD2     N12394   2.894   4.631   0.820  0.0234  0.2007  0.3268
  843MPD2    H512395   2.882   4.685   0.735 -1.6996  2.0278  1.7193
  843MPD2    N112396   2.680   4.325   1.136 -0.2414 -0.1280 -0.5432
  843MPD2    H712397   2.598   4.271   1.162 -0.6511 -0.2727 -2.1483
  844MPD2     C12398   1.241   4.219  16.558  0.2947 -0.4942 -0.9015
  844MPD2    C112399   1.369   4.171  16.546 -0.1545  0.1959 -0.2683
  844MPD2    C212400   1.475   4.250  16.591  0.0339 -0.0743  0.0197
  844MPD2    C312401   1.450   4.366  16.657  0.8943  0.4318 -0.2334
  844MPD2    C412402   1.326   4.420  16.653  0.1562 -0.1816  0.7072
  844MPD2    C512403   1.213   4.342  16.614  0.8456 -0.7135  0.1362
  844MPD2     H12404   1.573   4.205  16.578 -1.3264 -2.4053 -2.1202
  844MPD2    H112405   1.322   4.526  16.676  0.3634  0.1592 -0.8583
  844MPD2    H212406   1.157   4.173  16.507 -2.3024  2.0983  1.0456
  844MPD2    H312407   1.113   4.382  16.601 -0.0034 -2.6620  0.7632
  844MPD2     N12408   1.560   4.429  16.702 -0.1360 -0.2138  0.3613
  844MPD2    H512409   1.652   4.396  16.677  0.8831  2.0982  1.0702
  844MPD2    N112410   1.406   4.065  16.461 -0.1577 -0.2618  0.0769
  844MPD2    H712411   1.502   4.032  16.467 -0.8612 -1.8272  2.9243
  845MPD2     C12412   1.704   0.564  17.247 -0.2096  0.1292 -0.6730
  845MPD2    C112413   1.606   0.465  17.261  0.3940 -0.3562  0.7160
  845MPD2    C212414   1.618   0.349  17.194  0.4507 -0.0749  0.0701
  845MPD2    C312415   1.728   0.319  17.111 -0.5176 -0.3912  0.1088
  845MPD2    C412416   1.823   0.418  17.099  1.2230  0.0317 -0.2471
  845MPD2    C512417   1.808   0.537  17.162  0.1160  0.1140 -0.4363
  845MPD2     H12418   1.540   0.274  17.189 -0.3516  0.9004 -2.0269
  845MPD2    H112419   1.912   0.403  17.038  0.1148 -1.8114 -1.4192
  845MPD2    H212420   1.702   0.659  17.299  0.2534 -0.7115  0.8941
  845MPD2    H312421   1.878   0.618  17.143 -1.8910  1.9142 -0.1793
  845MPD2     N12422   1.731   0.194  17.050  0.5431  0.5257  0.3693
  845MPD2    H512423   1.649   0.137  17.065  1.1998  0.1221  2.5526
  845MPD2    N112424   1.507   0.495  17.358 -0.0732  0.0055 -0.3711
  845MPD2    H712425   1.486   0.591  17.379  0.0529 -0.0784  0.1427
  846MPD2     C12426   3.305   0.444  13.936 -0.2931  0.2173  0.3252
  846MPD2    C112427   3.208   0.546  13.936 -0.0847 -0.1543  0.5080
  846MPD2    C212428   3.149   0.584  14.062 -0.7806 -0.2090  0.1211
  846MPD2    C312429   3.181   0.514  14.177 -0.0017 -0.4712 -0.4380
  846MPD2    C412430   3.287   0.428  14.176  0.5667  0.1641 -0.4995
  846MPD2    C512431   3.349   0.403  14.058 -0.2283  0.0206 -0.3128
  846MPD2     H12432   3.074   0.661  14.076 -0.9774 -0.6156  1.3508
  846MPD2    H112433   3.336   0.401  14.268  0.7850 -0.5204 -0.8099
  846MPD2    H212434   3.354   0.408  13.847  0.3977 -0.9712  1.1924
  846MPD2    H312435   3.445   0.353  14.056  0.6739  1.7798 -0.7213
  846MPD2     N12436   3.107   0.547  14.290  0.2852 -0.1359  0.2453
  846MPD2    H512437   3.034   0.616  14.276  1.4247  1.1676  0.7398
  846MPD2    N112438   3.165   0.609  13.822  0.2488  0.2236 -0.5051
  846MPD2    H712439   3.104   0.688  13.840 -0.1542  0.1400 -1.4792
  847MPD2     C12440   2.938   1.373  14.669  0.2161 -0.2188  0.5678
  847MPD2    C112441   3.010   1.395  14.780  0.3102 -0.3858 -0.1927
  847MPD2    C212442   3.117   1.313  14.811 -0.7519  0.3907 -0.2626
  847MPD2    C312443   3.171   1.224  14.721 -0.0967  0.9944  0.2753
  847MPD2    C412444   3.104   1.215  14.600 -0.4251 -0.2320  0.1807
  847MPD2    C512445   2.990   1.289  14.577  0.1374  0.3144  0.0081
  847MPD2     H12446   3.157   1.325  14.911  1.4396  2.4022 -1.3783
  847MPD2    H112447   3.140   1.153  14.518  0.0562 -1.2886  1.1985
  847MPD2    H212448   2.847   1.427  14.646  0.8541 -0.2633 -2.1088
  847MPD2    H312449   2.931   1.285  14.487  3.4212  1.3339 -2.1915
  847MPD2     N12450   3.291   1.157  14.743  0.0734  0.4054  0.8976
  847MPD2    H512451   3.334   1.112  14.663 -2.8951  1.5588 -1.3353
  847MPD2    N112452   2.974   1.492  14.875  0.5255 -0.1217 -0.1077
  847MPD2    H712453   3.034   1.486  14.956  0.8592  1.4013 -0.2387
  848MPD2     C12454   0.837   4.630  16.543  0.9385  0.8104 -0.5677
  848MPD2    C112455   0.882   4.700  16.657 -0.0838 -0.3532  0.4871
  848MPD2    C212456   0.890   0.116  16.658 -0.4485  0.4740  0.0233
  848MPD2    C312457   0.859   0.191  16.541 -0.5241 -0.1461  1.1382
  848MPD2    C412458   0.822   0.118  16.434  0.1566 -0.3968 -0.3019
  848MPD2    C512459   0.809   4.701  16.435  0.1386 -0.1420 -0.7121
  848MPD2     H12460   0.934   0.162  16.746  1.4671 -0.0991 -0.6549
  848MPD2    H112461   0.799   0.167  16.340  1.3833  1.5092  0.4006
  848MPD2    H212462   0.815   4.525  16.529 -1.1701  1.1494  0.2229
  848MPD2    H312463   0.756   4.653  16.354 -1.3547  0.2880  0.0125
  848MPD2     N12464   0.855   0.328  16.535  0.1968  0.1345  0.3078
  848MPD2    H512465   0.822   0.365  16.447 -0.2170  2.2849  1.3704
  848MPD2    N112466   0.911   4.637  16.779  0.3920  0.2347 -0.4441
  848MPD2    H712467   0.938   4.688  16.863 -1.2107 -0.0243  0.2178
  849MPD2     C12468   0.329   4.235  14.303 -0.2201 -0.5740  0.4989
  849MPD2    C112469   0.423   4.185  14.211  0.0752  1.0473  0.2634
  849MPD2    C212470   0.555   4.156  14.257  0.0144  0.9113 -0.2811
  849MPD2    C312471   0.597   4.184  14.386 -0.1365 -0.4755 -0.4121
  849MPD2    C412472   0.510   4.241  14.475  0.1413  0.3702  0.2548
  849MPD2    C512473   0.384   4.258  14.429 -0.4241  0.0735 -0.7396
  849MPD2     H12474   0.627   4.114  14.187  0.1596  1.0681 -0.2264
  849MPD2    H112475   0.521   4.269  14.579 -0.8563 -3.3588  1.3789
  849MPD2    H212476   0.228   4.271  14.285 -0.2906 -0.0896  1.9270
  849MPD2    H312477   0.316   4.307  14.498  0.0501 -2.2527  1.3798
  849MPD2     N12478   0.733   4.166  14.414 -0.1467  0.7751 -0.1634
  849MPD2    H512479   0.791   4.143  14.335 -4.2422 -4.3284 -1.6452
  849MPD2    N112480   0.403   4.157  14.075 -0.4639 -0.1846  0.0747
  849MPD2    H712481   0.484   4.116  14.029 -1.0936 -1.0687 -0.2529
  850MPD2     C12482   3.220   2.479  15.015  0.1920 -0.0181 -0.4432
  850MPD2    C112483   3.252   2.375  15.105 -0.4495 -0.0720  0.4728
  850MPD2    C212484   3.386   2.366  15.137  1.0275  0.3203  0.4498
  850MPD2    C312485   3.486   2.444  15.079  0.1224  0.0840 -0.2240
  850MPD2    C412486   3.454   2.541  14.990 -0.1517 -0.6787  0.2674
  850MPD2    C512487   3.322   2.546  14.952 -0.2348  0.1132  0.0389
  850MPD2     H12488   3.418   2.294  15.211  0.9885  0.7585  0.8900
  850MPD2    H112489   3.523   2.605  14.936 -0.1749  0.0102  1.0584
  850MPD2    H212490   3.121   2.503  14.979  0.3101  1.7649  0.4368
  850MPD2    H312491   3.303   2.628  14.885 -0.2544  1.3512  1.5658
  850MPD2     N12492   3.627   2.437  15.109 -0.0138  0.5816 -0.1389
  850MPD2    H512493   3.704   2.498  15.083 -0.5788  1.7633  0.9615
  850MPD2    N112494   3.158   2.304  15.183  0.3200  0.4015 -0.3182
  850MPD2    H712495   3.199   2.247  15.257 -2.1535 -2.6787 -1.3606
  851MPD2     C12496   3.288   2.113  15.863  0.7121  0.2136  0.0161
  851MPD2    C112497   3.254   2.066  15.734 -0.2914  0.1930 -0.3663
  851MPD2    C212498   3.332   1.962  15.681 -0.0467  0.4543  0.4163
  851MPD2    C312499   3.434   1.908  15.753 -1.4898  0.0979  0.3150
  851MPD2    C412500   3.450   1.952  15.882 -0.7661 -0.0411 -0.5251
  851MPD2    C512501   3.382   2.049  15.938 -0.5382  0.1657  0.2437
  851MPD2     H12502   3.312   1.923  15.581  1.1673  1.3521 -0.1703
  851MPD2    H112503   3.528   1.918  15.949 -0.6611 -0.3807 -0.8166
  851MPD2    H212504   3.220   2.190  15.897 -0.6325 -0.1953 -1.7316
  851MPD2    H312505   3.412   2.089  16.034  0.8264 -0.9519  0.2847
  851MPD2     N12506   3.508   1.805  15.695  0.1074 -0.3151 -0.3778
  851MPD2    H512507   3.482   1.779  15.601 -1.1571  1.6466 -0.5719
  851MPD2    N112508   3.148   2.129  15.664 -0.0285 -0.3674 -0.5265
  851MPD2    H712509   3.128   2.224  15.690  2.7384  0.0618  0.0073
  852MPD2     C12510   3.228   3.686   9.749 -0.1968 -0.0775  0.3175
  852MPD2    C112511   3.303   3.719   9.858 -0.4489  0.3364 -0.3114
  852MPD2    C212512   3.434   3.760   9.836 -0.0117  0.1685  0.2283
  852MPD2    C312513   3.492   3.768   9.707  0.4944  0.5734 -0.4785
  852MPD2    C412514   3.409   3.748   9.603  0.6426  1.1204 -0.3534
  852MPD2    C512515   3.286   3.703   9.626  0.0576  0.1734  0.3003
  852MPD2     H12516   3.500   3.768   9.921  0.3489  0.6195 -0.0994
  852MPD2    H112517   3.438   3.745   9.498 -1.9630  3.2917 -1.1560
  852MPD2    H212518   3.126   3.651   9.753  0.7227 -2.6113  1.4421
  852MPD2    H312519   3.216   3.697   9.543 -0.1484  0.4686  0.4512
  852MPD2     N12520   3.629   3.811   9.702 -0.1921  0.5162  0.7109
  852MPD2    H512521   3.662   3.840   9.793 -0.0367  2.6068 -0.0120
  852MPD2    N112522   3.261   3.702   9.989  0.1703  0.1474 -0.9239
  852MPD2    H712523   3.318   3.742  10.063 -1.4813 -1.0069  0.9586
  853MPD2     C12524   4.691   4.384  12.399  0.6911 -0.0295 -0.5871
  853MPD2    C112525   0.087   4.472  12.381  0.4596  0.1415 -0.1783
  853MPD2    C212526   0.126   4.502  12.250  0.8125 -0.0432 -0.6271
  853MPD2    C312527   0.048   4.465  12.143 -0.3157  0.4865 -0.1436
  853MPD2    C412528   4.663   4.373  12.161  0.2127  0.1417  1.0590
  853MPD2    C512529   4.628   4.333  12.284  0.1200 -0.7041  0.4203
  853MPD2     H12530   0.212   4.563  12.225  0.1676  1.3816  0.6118
  853MPD2    H112531   4.610   4.330  12.077  0.5135 -0.4202  1.1493
  853MPD2    H212532   4.661   4.358  12.499 -1.4877 -0.6283 -1.3848
  853MPD2    H312533   4.540   4.271  12.298  0.2059 -0.8870  0.1410
  853MPD2     N12534   0.092   4.527  12.024  0.3366  0.2600  0.0956
  853MPD2    H512535   0.181   4.577  12.022  0.0050  0.9056  1.4201
  853MPD2    N112536   0.147   4.517  12.498 -0.3112  0.2033 -0.2606
  853MPD2    H712537   0.103   4.494  12.586 -0.7817  1.7035 -0.1002
  854MPD2     C12538   2.435   0.349  12.506 -0.3249  0.1961  0.4390
  854MPD2    C112539   2.301   0.341  12.479  0.1121 -0.4127  0.1494
  854MPD2    C212540   2.214   0.294  12.574  0.6748 -0.3561 -0.4586
  854MPD2    C312541   2.268   0.231  12.682 -0.1162 -0.5652  1.1273
  854MPD2    C412542   2.406   0.218  12.702 -0.0588 -0.1396 -0.0354
  854MPD2    C512543   2.489   0.287  12.614  0.3172  0.8495 -0.4040
  854MPD2     H12544   2.108   0.290  12.551  1.4951  0.5402 -4.5073
  854MPD2    H112545   2.442   0.164  12.789  1.4811 -1.1186 -1.2957
  854MPD2    H212546   2.508   0.406  12.450  0.4846 -0.7688  0.5236
  854MPD2    H312547   2.596   0.275  12.626 -0.0745 -1.6920  0.7356
  854MPD2     N12548   2.196   0.177  12.790  0.0622  0.4355 -0.0908
  854MPD2    H512549   2.251   0.140  12.867  0.4598 -2.0249 -1.5353
  854MPD2    N112550   2.255   0.401  12.361 -0.0500  0.0579 -0.6653
  854MPD2    H712551   2.153   0.407  12.354 -0.1543 -0.4109  0.4225
  855MPD2     C12552   2.600   4.634  13.474 -1.0642  0.0961  0.5001
  855MPD2    C112553   2.479   4.588  13.501  0.2695  0.0979 -0.1409
  855MPD2    C212554   2.377   4.609  13.414  0.1811  0.6271 -0.3123
  855MPD2    C312555   2.398   4.682  13.297 -0.2406 -0.8907  0.0193
  855MPD2    C412556   2.524   0.003  13.273 -0.0827  0.2432  0.0868
  855MPD2    C512557   2.626   4.689  13.352 -0.0775 -0.7045  0.0168
  855MPD2     H12558   2.275   4.588  13.446  0.4318 -0.9463 -0.5380
  855MPD2    H112559   2.554   0.046  13.178 -1.4616 -1.0602 -0.9266
  855MPD2    H212560   2.687   4.614  13.536  0.4163 -0.3451 -1.6728
  855MPD2    H312561   2.731   4.709  13.331 -0.4183  0.1106 -0.9187
  855MPD2     N12562   2.287   4.712  13.206  0.0586 -0.4552  0.3379
  855MPD2    H512563   2.310   0.061  13.133  0.3646 -1.7830 -0.7925
  855MPD2    N112564   2.446   4.515  13.620 -0.3047  0.1030  0.1524
  855MPD2    H712565   2.352   4.480  13.632 -0.5320  1.3816  2.0546
  856MPD2     C12566   4.471   0.591  14.388  0.2428 -0.5336  0.2539
  856MPD2    C112567   4.510   0.717  14.352  0.8627 -0.4640  0.3437
  856MPD2    C212568   4.411   0.817  14.348 -0.0268  0.0063 -0.3159
  856MPD2    C312569   4.286   0.780  14.390  0.8378 -0.0772 -0.5301
  856MPD2    C412570   4.251   0.659  14.433  0.4949 -0.1069 -0.1709
  856MPD2    C512571   4.349   0.568  14.433  0.4066 -0.4422  0.6326
  856MPD2     H12572   4.432   0.915  14.307  1.9414  1.0395  3.1911
  856MPD2    H112573   4.149   0.633  14.459  0.4620 -1.0281 -1.1865
  856MPD2    H212574   4.544   0.513  14.406  0.4431 -0.4564 -0.2000
  856MPD2    H312575   4.326   0.472  14.477 -1.7086  0.3015  1.1791
  856MPD2     N12576   4.175   0.868  14.383  0.4444 -0.9208 -0.1391
  856MPD2    H512577   4.085   0.822  14.391 -0.2163  0.2305 -1.0629
  856MPD2    N112578   4.642   0.757  14.317  0.3904 -0.1638 -0.0802
  856MPD2    H712579   4.662   0.855  14.299  0.0681 -0.0256  0.2956
  857MPD2     C12580   0.874   2.671  13.092 -0.3410 -0.1915 -0.6064
  857MPD2    C112581   0.999   2.693  13.047 -0.7306  1.0809 -0.0217
  857MPD2    C212582   1.063   2.815  13.089  0.4289 -0.6599 -0.3765
  857MPD2    C312583   0.992   2.909  13.159 -0.9437 -0.2407 -0.6680
  857MPD2    C412584   0.861   2.883  13.200  0.0107 -0.2021  0.4296
  857MPD2    C512585   0.803   2.760  13.170 -0.5324  1.2328  0.0858
  857MPD2     H12586   1.164   2.830  13.054 -0.3798  0.6728 -2.1008
  857MPD2    H112587   0.804   2.961  13.250  0.6800 -0.7239  2.0009
  857MPD2    H212588   0.819   2.585  13.058 -3.0010  1.5901 -0.7982
  857MPD2    H312589   0.702   2.729  13.193  0.0725 -0.6139  0.2702
  857MPD2     N12590   1.061   3.035  13.184 -0.4635 -0.3600  0.5015
  857MPD2    H512591   1.156   3.042  13.149 -0.4528 -1.3156  0.3345
  857MPD2    N112592   1.061   2.591  12.968 -0.2392 -0.4384 -0.3080
  857MPD2    H712593   1.004   2.508  12.961 -0.4418 -0.5285  2.4498
  858MPD2     C12594   1.452   2.377  16.779  0.2016  0.5537 -0.4103
  858MPD2    C112595   1.578   2.344  16.815  0.1490 -0.2532  0.3720
  858MPD2    C212596   1.640   2.412  16.921  0.6951  0.6626  0.1191
  858MPD2    C312597   1.565   2.491  17.005  0.2453 -0.0842 -0.1195
  858MPD2    C412598   1.437   2.522  16.969  0.5188 -0.8965  0.0720
  858MPD2    C512599   1.384   2.467  16.861  0.2795 -0.3060 -0.1338
  858MPD2     H12600   1.743   2.392  16.947  1.1878  1.1149 -1.5081
  858MPD2    H112601   1.369   2.586  17.024  0.8508 -3.0691  2.9886
  858MPD2    H212602   1.398   2.331  16.696  0.3957 -0.1030 -0.1734
  858MPD2    H312603   1.277   2.484  16.861  0.5942  1.7199 -1.2243
  858MPD2     N12604   1.614   2.551  17.116  0.2078 -0.0714  0.3912
  858MPD2    H512605   1.561   2.621  17.166 -1.8431  0.0549 -1.9456
  858MPD2    N112606   1.654   2.243  16.744 -0.3757 -0.0697  0.0832
  858MPD2    H712607   1.749   2.222  16.775  1.4389  3.8843 -2.6902
  859MPD2     C12608   0.422   4.457  15.862  0.1852 -0.0744  0.8229
  859MPD2    C112609   0.458   4.417  15.736 -0.5662 -0.6041 -0.7688
  859MPD2    C212610   0.473   4.278  15.728  0.3011  0.9781 -0.1736
  859MPD2    C312611   0.463   4.190  15.833  0.0907 -0.1443  0.7305
  859MPD2    C412612   0.439   4.245  15.951 -0.1503  0.7314 -0.0432
  859MPD2    C512613   0.418   4.379  15.971 -0.4872 -0.3853  0.0743
  859MPD2     H12614   0.495   4.227  15.635 -1.1370  2.4321 -1.3055
  859MPD2    H112615   0.431   4.185  16.040  1.8908 -1.2236 -1.1745
  859MPD2    H212616   0.404   4.562  15.884  2.3290  0.7448 -1.3670
  859MPD2    H312617   0.383   4.422  16.064  0.6392 -0.9139  0.7416
  859MPD2     N12618   0.478   4.048  15.835  0.1805 -0.1918  0.7954
  859MPD2    H512619   0.479   4.003  15.926  1.0283 -0.9058  0.4350
  859MPD2    N112620   0.466   4.506  15.626  0.3563 -0.8985  0.3424
  859MPD2    H712621   0.446   4.600  15.658 -1.4129 -1.4468  0.8316
  860MPD2     C12622   2.832   3.961  11.687 -0.8704  0.8038  0.7098
  860MPD2    C112623   2.888   4.007  11.807  0.2759  0.0036  0.0064
  860MPD2    C212624   2.800   4.021  11.919  0.0438 -0.5084  0.3637
  860MPD2    C312625   2.663   3.988  11.908 -0.0629  0.2804  0.3832
  860MPD2    C412626   2.612   3.947  11.787  0.3171  0.4753  0.0834
  860MPD2    C512627   2.698   3.935  11.680 -0.7178  0.9011 -0.0052
  860MPD2     H12628   2.838   4.056  12.014 -2.1400  1.2380  0.5920
  860MPD2    H112629   2.507   3.922  11.776  0.6565 -0.4320 -1.0602
  860MPD2    H212630   2.886   3.955  11.593 -1.2101  1.1249  0.4954
  860MPD2    H312631   2.662   3.897  11.585  0.4803  0.3014 -0.2229
  860MPD2     N12632   2.585   4.002  12.020 -0.1621  0.0873  0.2280
  860MPD2    H512633   2.626   4.052  12.098  3.7646 -2.3062 -0.2893
  860MPD2    N112634   3.015   4.064  11.820  0.4370  0.4574  0.3292
  860MPD2    H712635   3.039   4.113  11.906 -0.7978  2.7650 -0.6706
  861MPD2     C12636   1.936   2.406  11.156 -0.4253 -0.5221  0.3298
  861MPD2    C112637   1.857   2.406  11.272  0.1450 -0.3676  0.0547
  861MPD2    C212638   1.750   2.487  11.262  0.9455 -0.4740 -0.2215
  861MPD2    C312639   1.706   2.549  11.145 -0.4988 -0.7739 -0.7252
  861MPD2    C412640   1.785   2.531  11.034  0.2390  0.1393  0.1094
  861MPD2    C512641   1.907   2.459  11.037  0.2392  0.0686 -0.3994
  861MPD2     H12642   1.691   2.494  11.353  2.6213 -1.1164  0.9060
  861MPD2    H112643   1.771   2.576  10.936  3.0819  0.6682 -0.0656
  861MPD2    H212644   2.029   2.352  11.166 -0.0440  0.2557  0.9363
  861MPD2    H312645   1.980   2.460  10.956  0.4429 -1.9469 -0.2389
  861MPD2     N12646   1.601   2.644  11.133  0.4011  0.9803  0.3590
  861MPD2    H512647   1.600   2.700  11.048  0.3894  0.9109  0.3135
  861MPD2    N112648   1.899   2.358  11.403  0.4701  0.2906  0.3995
  861MPD2    H712649   1.842   2.372  11.485 -1.0418 -1.7063 -0.2949
  862MPD2     C12650   1.279   3.105  10.680 -0.3764  0.1743  0.1128
  862MPD2    C112651   1.354   2.992  10.717  0.9872  0.5961  0.1043
  862MPD2    C212652   1.363   2.894  10.618  0.4788  0.3271 -0.6661
  862MPD2    C312653   1.294   2.906  10.495  0.6401  0.3875  0.3669
  862MPD2    C412654   1.217   3.017  10.463  0.3082 -0.3853 -0.1091
  862MPD2    C512655   1.221   3.116  10.558  0.4980  0.0580 -0.3915
  862MPD2     H12656   1.420   2.805  10.645 -2.3662 -0.6479  2.2093
  862MPD2    H112657   1.155   3.011  10.375 -0.4734 -2.3686  0.5685
  862MPD2    H212658   1.262   3.182  10.753 -0.7611  0.7259 -0.5532
  862MPD2    H312659   1.167   3.205  10.529 -0.2293 -0.1952  0.1794
  862MPD2     N12660   1.310   2.807  10.394 -0.0435  0.2048  0.7322
  862MPD2    H512661   1.240   2.806  10.321  1.9773  0.6975 -1.2268
  862MPD2    N112662   1.413   2.971  10.846 -0.0104 -0.1501  0.8210
  862MPD2    H712663   1.452   2.877  10.848  0.6855  0.2083  3.9475
  863MPD2     C12664   4.388   1.700  17.558  0.4679  0.7686 -0.1064
  863MPD2    C112665   4.425   1.591  17.481 -0.0889 -0.0847 -0.2504
  863MPD2    C212666   4.550   1.525  17.513  0.4066 -0.2490 -0.1657
  863MPD2    C312667   4.631   1.581  17.612  0.9923  0.3270 -0.4964
  863MPD2    C412668   4.598   1.688   0.004 -0.4562 -0.3815  0.2864
  863MPD2    C512669   4.477   1.750  17.652  0.2604  0.5511 -0.2414
  863MPD2     H12670   4.590   1.448  17.448  2.2870  2.2589 -1.9892
  863MPD2    H112671   4.674   1.740   0.061 -1.4317  0.8601  0.4691
  863MPD2    H212672   4.296   1.756  17.546  0.4811  0.9871  0.8090
  863MPD2    H312673   4.452   1.836   0.038  1.3741  0.0333  0.9423
  863MPD2     N12674   0.043   1.538  17.636 -0.2442 -0.3203 -0.3709
  863MPD2    H512675   0.115   1.590   0.009  0.3303 -0.1860 -1.3573
  863MPD2    N112676   4.336   1.546  17.378 -0.4091  0.1374  0.0622
  863MPD2    H712677   4.257   1.604  17.351 -0.1818 -0.3506 -1.6723
  864MPD2     C12678   0.795   2.604   0.157 -0.2764  0.0306 -0.4449
  864MPD2    C112679   0.797   2.523   0.044  0.0290  0.4378 -0.5638
  864MPD2    C212680   0.812   2.582  17.592 -0.4300  0.7846 -0.7563
  864MPD2    C312681   0.825   2.726  17.581 -0.0889 -0.4878  0.1507
  864MPD2    C412682   0.820   2.800   0.019  0.3590  0.1404  0.5660
  864MPD2    C512683   0.814   2.741   0.146  0.2644 -0.3809  0.0262
  864MPD2     H12684   0.800   2.520  17.505  0.2587 -0.3060 -0.0743
  864MPD2    H112685   0.826   2.908   0.015 -3.7342  0.2921 -1.6713
  864MPD2    H212686   0.767   2.574   0.257 -0.6024 -0.8979 -0.8098
  864MPD2    H312687   0.797   2.804   0.232 -0.6394 -0.2885 -0.2206
  864MPD2     N12688   0.841   2.792  17.459  0.2224  0.3158 -0.5583
  864MPD2    H512689   0.821   2.891  17.459  1.8033  0.6331 -0.4955
  864MPD2    N112690   0.758   2.391   0.061 -0.3636 -0.2620 -0.1597
  864MPD2    H712691   0.727   2.366   0.154  0.7538  1.8281  0.7938
  865MPD2     C12692   0.661   3.007  16.573  0.3535 -0.0922 -0.2024
  865MPD2    C112693   0.623   2.922  16.668  0.1022  0.5301 -0.5888
  865MPD2    C212694   0.641   2.967  16.800  0.0141 -0.0940 -0.6619
  865MPD2    C312695   0.686   3.098  16.831  0.2760  0.3166 -0.0659
  865MPD2    C412696   0.722   3.179  16.727 -0.4531 -0.4271  0.3785
  865MPD2    C512697   0.705   3.138  16.601  0.4496 -0.0567 -0.2355
  865MPD2     H12698   0.609   2.900  16.879 -1.0698  2.4461  1.0632
  865MPD2    H112699   0.770   3.275  16.745 -0.5547  0.0694 -1.9977
  865MPD2    H212700   0.665   2.975  16.470  0.9530  0.1782 -0.2648
  865MPD2    H312701   0.723   3.216  16.527  0.4633 -0.1120 -0.2901
  865MPD2     N12702   0.726   3.133  16.963  0.4551 -0.6494 -0.9992
  865MPD2    H512703   0.781   3.217  16.978 -1.4157  0.7806 -2.1358
  865MPD2    N112704   0.589   2.794  16.631  0.4208 -0.3035  0.4629
  865MPD2    H712705   0.570   2.776  16.533  0.6084 -1.3313  0.6154
  866MPD2     C12706   2.381   2.789  12.100 -0.1661  0.1734  0.3592
  866MPD2    C112707   2.399   2.724  11.981 -0.0552 -0.2039  0.2814
  866MPD2    C212708   2.305   2.753  11.886  0.0168 -0.1758 -0.3962
  866MPD2    C312709   2.204   2.853  11.891 -0.2947 -0.2463  0.8281
  866MPD2    C412710   2.203   2.923  12.003  0.7178  0.0664  1.0436
  866MPD2    C512711   2.291   2.890  12.101  0.5722  0.2174 -0.0998
  866MPD2     H12712   2.328   2.712  11.788 -0.3588  1.6639 -1.2751
  866MPD2    H112713   2.126   2.996  12.023  0.8774  0.7335 -0.7006
  866MPD2    H212714   2.454   2.790  12.179  2.9835  0.6637 -2.5549
  866MPD2    H312715   2.287   2.949  12.192 -0.4424 -0.2168  0.1394
  866MPD2     N12716   2.105   2.887  11.799  0.1570 -0.2711 -0.0694
  866MPD2    H512717   2.039   2.964  11.811 -0.5872 -0.9092 -0.1126
  866MPD2    N112718   2.505   2.637  11.974  0.2480  0.0272  0.3340
  866MPD2    H712719   2.552   2.618  12.062 -1.0381  0.9073  1.2038
  867MPD2     C12720   4.531   2.469  16.898  0.5741  0.1288  0.4968
  867MPD2    C112721   4.583   2.490  17.022  0.8002 -0.1883  0.3497
  867MPD2    C212722   4.666   2.599  17.037  0.1605  0.0384 -0.4495
  867MPD2    C312723   4.697   2.692  16.940  0.3792 -0.4026  1.1487
  867MPD2    C412724   4.636   2.675  16.818  0.3581  0.1267  0.3232
  867MPD2    C512725   4.565   2.562  16.801  0.5992  0.0585 -0.5348
  867MPD2     H12726   4.698   2.617  17.139 -0.7506  0.2239 -0.1884
  867MPD2    H112727   4.654   2.748  16.741 -1.5664 -1.5249 -1.6823
  867MPD2    H212728   4.473   2.383  16.866  1.0503  0.2765 -0.7847
  867MPD2    H312729   4.514   2.553  16.706  2.7220  0.3378 -1.7120
  867MPD2     N12730   0.053   2.814  16.950  1.1900  0.5310  0.1331
  867MPD2    H512731   0.054   2.875  16.869 -0.0470  1.3514  0.7269
  867MPD2    N112732   4.565   2.395  17.133  0.3305 -0.1394 -0.5160
  867MPD2    H712733   4.542   2.300  17.103  0.0849 -0.4991  0.8113
  868MPD2     C12734   1.415   1.312  13.067 -0.6675  0.3119 -0.2500
  868MPD2    C112735   1.458   1.435  13.106  0.2322 -0.0907  0.5975
  868MPD2    C212736   1.379   1.505  13.205 -0.3702  0.3305 -0.5574
  868MPD2    C312737   1.262   1.446  13.261 -0.2511 -0.0783 -0.8369
  868MPD2    C412738   1.223   1.326  13.208 -0.0817 -0.1168 -0.3115
  868MPD2    C512739   1.297   1.265  13.115  0.5631  0.0562  0.2084
  868MPD2     H12740   1.428   1.592  13.247 -0.0364 -1.3729  2.6504
  868MPD2    H112741   1.135   1.273  13.244 -0.6328  0.9617 -0.0681
  868MPD2    H212742   1.458   1.238  13.001 -2.0891  1.3651 -2.3831
  868MPD2    H312743   1.263   1.168  13.079  1.4954 -0.7297  1.4342
  868MPD2     N12744   1.192   1.494  13.377  0.7696 -0.1953 -0.4356
  868MPD2    H512745   1.113   1.441  13.413  0.4502 -1.0785 -2.3936
  868MPD2    N112746   1.589   1.466  13.063  0.2571  0.1986  0.7228
  868MPD2    H712747   1.641   1.403  13.003  1.6935  3.0251 -1.0352
  869MPD2     C12748   3.738   4.703   2.793  0.2527  0.9483 -0.1719
  869MPD2    C112749   3.680   4.581   2.751 -0.3980 -0.0994  1.0592
  869MPD2    C212750   3.568   4.579   2.671  0.0376  0.2116  0.1023
  869MPD2    C312751   3.510   4.700   2.628  0.2973  0.2051  0.5298
  869MPD2    C412752   3.578   0.097   2.660 -0.0253 -0.0498  0.5357
  869MPD2    C512753   3.688   0.103   2.744  0.1219  0.1640 -0.3218
  869MPD2     H12754   3.512   4.488   2.651  2.5402 -1.4090  0.4994
  869MPD2    H112755   3.548   0.196   2.630 -0.4295 -1.3545 -3.4055
  869MPD2    H212756   3.823   0.004   2.859 -1.5629 -0.2966  2.5335
  869MPD2    H312757   3.749   0.190   2.765 -1.5502  1.0294  0.9177
  869MPD2     N12758   3.398   4.713   2.542 -0.0554 -0.3355  0.0123
  869MPD2    H512759   3.378   0.092   2.520 -0.4544 -0.3564  0.2824
  869MPD2    N112760   3.745   4.473   2.806 -0.1611 -0.4093 -0.0213
  869MPD2    H712761   3.830   4.502   2.853 -0.1348  1.7687 -1.3794
  870MPD2     C12762   2.458   2.233   1.744  0.3908 -0.0292  0.0568
  870MPD2    C112763   2.587   2.284   1.760  1.0320  0.9285 -0.6454
  870MPD2    C212764   2.599   2.422   1.788  0.6604 -0.8706  0.3590
  870MPD2    C312765   2.489   2.502   1.766 -0.4439  0.0991  0.4068
  870MPD2    C412766   2.366   2.449   1.754  0.3878  0.0306  0.3573
  870MPD2    C512767   2.351   2.315   1.745 -0.1662 -0.2021  0.3625
  870MPD2     H12768   2.699   2.462   1.776 -0.0157  1.1120  1.4114
  870MPD2    H112769   2.284   2.520   1.760  0.6287  0.2158  1.4052
  870MPD2    H212770   2.438   2.127   1.746 -2.8820  0.5812 -0.3824
  870MPD2    H312771   2.253   2.267   1.738 -0.5693  0.7408 -0.4349
  870MPD2     N12772   2.509   2.645   1.765 -0.0849 -0.0500  0.3293
  870MPD2    H512773   2.603   2.681   1.778 -0.8311  2.5507 -1.3785
  870MPD2    N112774   2.699   2.202   1.742  0.5483  0.0938  0.0590
  870MPD2    H712775   2.689   2.107   1.709 -2.0875  0.0602  0.9699
  871MPD2     C12776   3.168   2.691  16.681 -0.2986 -0.1441  0.4594
  871MPD2    C112777   3.181   2.667  16.809 -0.0176 -0.0218  0.5092
  871MPD2    C212778   3.201   2.532  16.852  0.3695  0.2608  0.1219
  871MPD2    C312779   3.229   2.439  16.758 -0.3321  1.0519  0.3315
  871MPD2    C412780   3.206   2.458  16.628 -0.1958 -0.0418  0.0898
  871MPD2    C512781   3.169   2.587  16.594 -0.5758 -0.2769 -0.0833
  871MPD2     H12782   3.200   2.503  16.957  2.1511 -0.9585 -0.2130
  871MPD2    H112783   3.222   2.389  16.545 -0.0438  1.7622 -1.3707
  871MPD2    H212784   3.148   2.791  16.643  0.8629 -0.8024 -1.9127
  871MPD2    H312785   3.162   2.609  16.488 -2.3470 -1.2043 -0.1487
  871MPD2     N12786   3.254   2.309  16.814  0.0459 -0.3359 -0.0565
  871MPD2    H512787   3.242   2.290  16.912 -1.0830 -0.3098 -0.1926
  871MPD2    N112788   3.150   2.775  16.896  0.1693 -0.3768  0.7276
  871MPD2    H712789   3.138   2.869  16.859 -1.4785 -0.7713  0.2661
  872MPD2     C12790   3.852   0.467  13.702  0.0642 -0.2480  0.2437
  872MPD2    C112791   3.912   0.471  13.832  0.3509  0.3023  1.4194
  872MPD2    C212792   3.858   0.402  13.936 -0.4483 -0.2389  1.0417
  872MPD2    C312793   3.733   0.340  13.921  0.2374  1.1035  0.2763
  872MPD2    C412794   3.664   0.353  13.799  0.9732 -1.0158  0.3607
  872MPD2    C512795   3.726   0.417  13.691  0.4769  0.3952 -0.6475
  872MPD2     H12796   3.918   0.409  14.026 -0.7397 -1.7564  1.3443
  872MPD2    H112797   3.567   0.307  13.783 -0.0428  0.4312  2.3864
  872MPD2    H212798   3.893   0.509  13.611 -2.1402 -0.7868 -1.0073
  872MPD2    H312799   3.671   0.426  13.598  1.3587 -1.1874 -1.3188
  872MPD2     N12800   3.672   0.265  14.022  0.0066  0.1398 -0.2122
  872MPD2    H512801   3.584   0.221  13.995  0.9187 -0.4366 -2.2271
  872MPD2    N112802   4.042   0.525  13.850  0.1666  0.2595 -0.0896
  872MPD2    H712803   4.070   0.525  13.947 -0.9300 -1.1551  0.2196
  873MPD2     C12804   1.210   0.579   1.123 -0.2699 -0.3621  0.2774
  873MPD2    C112805   1.281   0.522   1.226  0.2802 -0.5337  0.0902
  873MPD2    C212806   1.350   0.410   1.188  0.1761 -0.0550 -0.7764
  873MPD2    C312807   1.353   0.368   1.058 -0.3608  0.2771  0.3911
  873MPD2    C412808   1.291   0.442   0.957  0.3415 -0.0704  0.6373
  873MPD2    C512809   1.204   0.543   0.991  0.3624 -0.2404 -0.4304
  873MPD2     H12810   1.393   0.359   1.273 -0.8721  0.9477  0.3779
  873MPD2    H112811   1.296   0.415   0.852  0.0411  0.2956  0.5305
  873MPD2    H212812   1.136   0.654   1.151 -0.2295 -0.4233  0.5483
  873MPD2    H312813   1.146   0.595   0.916 -0.9418 -1.8362 -0.5405
  873MPD2     N12814   1.443   0.265   1.014  0.2881 -0.1202  0.0264
  873MPD2    H512815   1.451   0.252   0.914  0.7635 -0.4214  0.1024
  873MPD2    N112816   1.269   0.576   1.361 -0.0182  0.5634 -0.4699
  873MPD2    H712817   1.201   0.650   1.371  0.7041  1.1918 -0.2094
  874MPD2     C12818   0.180   0.425  16.303  0.7292 -0.7471  0.1481
  874MPD2    C112819   0.271   0.339  16.365 -0.3639  0.0182  0.1473
  874MPD2    C212820   0.380   0.406  16.425  0.1215  0.0783 -0.7092
  874MPD2    C312821   0.392   0.541  16.429 -0.2888 -0.0492  0.2368
  874MPD2    C412822   0.300   0.617  16.358 -0.1477  0.5661  0.2544
  874MPD2    C512823   0.196   0.557  16.295  0.0666 -0.5029 -0.5186
  874MPD2     H12824   0.463   0.355  16.471  0.1915 -0.2968 -1.2524
  874MPD2    H112825   0.303   0.725  16.362  1.3084  0.5374  0.0758
  874MPD2    H212826   0.090   0.390  16.256  1.2770 -2.0214  0.0504
  874MPD2    H312827   0.117   0.617  16.253  1.2146  1.6767  0.4132
  874MPD2     N12828   0.515   0.593  16.482  0.2186 -0.4298 -0.1136
  874MPD2    H512829   0.559   0.537  16.555  0.7667  0.2949  0.1084
  874MPD2    N112830   0.246   0.196  16.372  0.1413 -0.1064 -0.2876
  874MPD2    H712831   0.166   0.160  16.320 -0.9433 -1.6856  2.4533
  875MPD2     C12832   2.111   3.400  14.765 -0.9332 -0.2717 -0.5495
  875MPD2    C112833   1.976   3.407  14.760  0.4068 -0.1179 -0.4009
  875MPD2    C212834   1.904   3.474  14.860  0.2158 -0.3243  0.0548
  875MPD2    C312835   1.971   3.540  14.960  0.3663 -0.7801 -0.0989
  875MPD2    C412836   2.110   3.530  14.960 -0.5640  0.5385  0.2249
  875MPD2    C512837   2.186   3.470  14.862 -0.2670 -0.0494  0.1750
  875MPD2     H12838   1.797   3.460  14.870 -0.0502  1.7291  0.2153
  875MPD2    H112839   2.167   3.577  15.039 -0.9458  2.1139 -0.4364
  875MPD2    H212840   2.155   3.337  14.689 -1.3197 -1.5057  0.2516
  875MPD2    H312841   2.290   3.448  14.880  0.1555  0.5025 -1.5310
  875MPD2     N12842   1.906   3.597  15.070  1.2714  0.8879  0.1608
  875MPD2    H512843   1.966   3.657  15.127 -1.6791  3.0915  0.9201
  875MPD2    N112844   1.895   3.338  14.671  0.2432 -0.0417 -0.4072
  875MPD2    H712845   1.796   3.355  14.682  0.4042 -1.3891  3.1558
  876MPD2     C12846   0.632   0.139  16.023 -0.2182  0.6806 -0.1748
  876MPD2    C112847   0.747   0.085  15.969  0.3834  0.3997 -0.2360
  876MPD2    C212848   0.782   4.668  15.998 -0.3423  0.6349  0.3302
  876MPD2    C312849   0.701   4.598  16.088  0.3158 -0.3260 -0.5132
  876MPD2    C412850   0.593   4.660  16.146 -0.4725 -0.2640 -0.0428
  876MPD2    C512851   0.554   0.065  16.111  0.0219  0.1749 -0.2914
  876MPD2     H12852   0.872   4.621  15.959 -2.1045  0.0894 -3.0994
  876MPD2    H112853   0.523   4.607  16.210  0.1487 -0.2534  0.6473
  876MPD2    H212854   0.605   0.240  15.997 -0.8101  0.0696 -1.9208
  876MPD2    H312855   0.469   0.111  16.159 -0.1219  1.2824 -1.6069
  876MPD2     N12856   0.743   4.471  16.120 -0.2214  0.2067 -0.7887
  876MPD2    H512857   0.820   4.436  16.063  0.9743  2.2856 -0.4254
  876MPD2    N112858   0.819   0.168  15.883 -0.2181  0.0665 -1.0461
  876MPD2    H712859   0.793   0.264  15.866 -0.5705  0.5713  2.3628
  877MPD2     C12860   0.633   0.581  15.295 -0.6117  0.5925  0.1181
  877MPD2    C112861   0.763   0.542  15.273 -0.0272 -0.6335  0.0421
  877MPD2    C212862   0.812   0.561  15.146 -0.2672 -0.4743  0.7901
  877MPD2    C312863   0.738   0.616  15.043  0.1900  0.0038  1.2004
  877MPD2    C412864   0.608   0.644  15.065  0.3538  0.2087 -0.6814
  877MPD2    C512865   0.560   0.630  15.193  0.5401  0.6742  0.4249
  877MPD2     H12866   0.910   0.520  15.125 -0.6923 -0.9279 -0.3548
  877MPD2    H112867   0.539   0.690  14.994  0.5376 -0.5334 -1.3487
  877MPD2    H212868   0.589   0.579  15.394 -0.5745  0.3635  0.1293
  877MPD2    H312869   0.454   0.647  15.209  0.4996  0.6351  0.2087
  877MPD2     N12870   0.788   0.635  14.919 -0.2313 -0.5054  0.6968
  877MPD2    H512871   0.721   0.678  14.855  0.6312  2.4334  1.7584
  877MPD2    N112872   0.836   0.472  15.367 -0.1831  0.1797  0.3770
  877MPD2    H712873   0.926   0.440  15.333 -0.9885  0.4129 -1.9953
  878MPD2     C12874   0.019   3.867  13.139 -0.1547 -0.1399  0.0080
  878MPD2    C112875   0.148   3.904  13.124 -0.5041  0.1795  0.4582
  878MPD2    C212876   0.219   3.971  13.223 -0.1988  0.1190  0.1684
  878MPD2    C312877   0.157   3.987  13.341  0.0075 -0.2462 -0.2874
  878MPD2    C412878   0.021   3.950  13.357 -0.2248  0.7572  0.3610
  878MPD2    C512879   4.672   3.885  13.256 -0.3333  0.5653 -0.8166
  878MPD2     H12880   0.319   4.012  13.212  0.0718 -0.7541 -0.6266
  878MPD2    H112881   4.690   3.944  13.453  1.7014 -0.4738  1.2627
  878MPD2    H212882   4.686   3.807  13.064 -0.6522 -1.0111  1.0372
  878MPD2    H312883   4.571   3.848  13.272 -0.4453  2.7432  3.4658
  878MPD2     N12884   0.231   4.035  13.448  0.3582  0.6326 -0.1267
  878MPD2    H512885   0.332   4.033  13.433  0.3263  1.0045 -0.4069
  878MPD2    N112886   0.199   3.880  12.991  0.3352 -0.0415  0.2230
  878MPD2    H712887   0.135   3.841  12.923 -2.2267  1.1222  1.9585
  879MPD2     C12888   0.790   1.601  17.387 -0.5890 -0.9151 -0.2265
  879MPD2    C112889   0.867   1.517  17.468 -0.2299  0.1559 -0.0212
  879MPD2    C212890   0.807   1.394  17.492  0.2058  0.3363 -0.7312
  879MPD2    C312891   0.701   1.344  17.425 -0.0949 -0.1742 -0.8999
  879MPD2    C412892   0.635   1.426  17.336 -0.2740 -0.6795 -0.1589
  879MPD2    C512893   0.677   1.557  17.330  0.5387 -0.3265  0.7634
  879MPD2     H12894   0.853   1.331  17.567 -1.8216  0.2583  0.4482
  879MPD2    H112895   0.549   1.388  17.282 -0.4608 -0.5244  0.0283
  879MPD2    H212896   0.828   1.702  17.378 -1.0472 -0.9008 -2.0239
  879MPD2    H312897   0.618   1.626  17.271 -0.9242 -0.4121  2.1127
  879MPD2     N12898   0.654   1.207  17.441  0.1906 -0.1153 -0.5149
  879MPD2    H512899   0.578   1.180  17.379  1.5272  0.6767 -2.5028
  879MPD2    N112900   0.979   1.567  17.543 -0.5968  0.9216 -0.1855
  879MPD2    H712901   0.987   1.668  17.552 -0.3306  0.8214  0.7590
  880MPD2     C12902   2.859   2.488   0.343  0.2597  0.3011  0.4185
  880MPD2    C112903   2.796   2.507   0.462 -0.1966 -0.2480 -0.2209
  880MPD2    C212904   2.814   2.401   0.546  0.6166 -0.0431 -0.0510
  880MPD2    C312905   2.872   2.277   0.517 -0.1512 -0.2303 -0.4036
  880MPD2    C412906   2.938   2.266   0.388  0.0844 -0.0547  0.6368
  880MPD2    C512907   2.923   2.370   0.306 -0.5446 -0.2406  0.7191
  880MPD2     H12908   2.773   2.414   0.645 -1.7761  0.6969 -1.1523
  880MPD2    H112909   2.996   2.185   0.345  0.4264  0.9947 -0.8623
  880MPD2    H212910   2.856   2.574   0.277  0.9935 -0.7512 -0.9875
  880MPD2    H312911   2.971   2.369   0.209 -1.8232  0.3086  0.0896
  880MPD2     N12912   2.872   2.186   0.625 -0.2384  0.1285  0.0564
  880MPD2    H512913   2.829   2.207   0.714  1.0053  1.9558  0.2278
  880MPD2    N112914   2.729   2.632   0.489 -0.5423 -0.4166  0.1615
  880MPD2    H712915   2.718   2.705   0.420  1.8554  0.3586  0.6039
  881MPD2     C12916   2.094   3.393   0.300  1.0989 -0.2944  0.1118
  881MPD2    C112917   2.181   3.296   0.250 -0.3449  1.2837 -0.6292
  881MPD2    C212918   2.234   3.197   0.319 -0.1467 -0.0799 -0.1573
  881MPD2    C312919   2.200   3.186   0.453 -0.2702 -0.0951 -0.2227
  881MPD2    C412920   2.124   3.287   0.508 -0.0004  0.0671  0.9893
  881MPD2    C512921   2.070   3.389   0.438  0.1419 -0.2258 -0.3741
  881MPD2     H12922   2.294   3.122   0.268  0.6166  2.8021 -3.4996
  881MPD2    H112923   2.097   3.288   0.613 -3.5041 -0.0239  0.0792
  881MPD2    H212924   2.035   3.465   0.244 -0.4131  0.1421  2.2864
  881MPD2    H312925   2.006   3.458   0.491  2.2941 -0.3934  2.4151
  881MPD2     N12926   2.254   3.089   0.541  0.0952  0.4251  0.3389
  881MPD2    H512927   2.230   3.093   0.640  1.4218 -2.0569  0.7697
  881MPD2    N112928   2.195   3.292   0.110  0.4618  0.0154  0.2461
  881MPD2    H712929   2.258   3.222   0.070 -0.8569 -1.5745  0.9759
  882MPD2     C12930   0.741   0.224  14.188 -0.6523  0.2727 -0.3778
  882MPD2    C112931   0.679   0.298  14.284 -0.7189  0.0651  0.7968
  882MPD2    C212932   0.540   0.286  14.304 -0.6065 -0.2618 -0.2432
  882MPD2    C312933   0.468   0.205  14.221 -0.0928 -0.0498  0.8427
  882MPD2    C412934   0.533   0.137  14.120  0.3981 -0.0957 -0.0413
  882MPD2    C512935   0.670   0.142  14.109  0.4417 -0.0067 -0.1878
  882MPD2     H12936   0.490   0.347  14.379 -0.2122  0.5026 -0.6022
  882MPD2    H112937   0.484   0.069  14.052  0.3895  0.6388 -0.7730
  882MPD2    H212938   0.848   0.240  14.180 -0.1310 -1.7123  2.5844
  882MPD2    H312939   0.709   0.069  14.037 -2.1129 -0.5389 -1.0218
  882MPD2     N12940   0.325   0.179  14.232  0.3889  0.0169 -0.3417
  882MPD2    H512941   0.285   0.101  14.180 -3.7654  1.8581  0.1096
  882MPD2    N112942   0.751   0.411  14.343  0.0474 -0.7281  0.3407
  882MPD2    H712943   0.846   0.422  14.310 -0.5654  0.2405 -1.0759
  883MPD2     C12944   2.506   4.665  16.380 -0.2156 -0.3279  0.2342
  883MPD2    C112945   2.574   0.035  16.298  0.2023  0.0058 -0.2485
  883MPD2    C212946   2.704   0.080  16.332  0.7914 -0.3545  0.0894
  883MPD2    C312947   2.763   0.041  16.447  0.1669 -0.3240 -0.3170
  883MPD2    C412948   2.689   4.679  16.533 -0.2097  0.3698  0.5016
  883MPD2    C512949   2.564   4.644  16.502  0.3357 -0.0343  0.3358
  883MPD2     H12950   2.761   0.127  16.252  0.1892  0.9395  0.4202
  883MPD2    H112951   2.734   4.640  16.623 -2.9016 -0.0994  1.6189
  883MPD2    H212952   2.403   4.631  16.378 -1.3728  3.1736  0.1317
  883MPD2    H312953   2.510   4.576  16.567 -2.9804 -0.3959 -2.8037
  883MPD2     N12954   2.897   0.085  16.472  0.5611 -0.4851 -0.4065
  883MPD2    H512955   2.943   0.142  16.401  1.5582 -2.1176 -1.0792
  883MPD2    N112956   2.527   0.063  16.167 -0.0249 -0.4513 -0.1586
  883MPD2    H712957   2.589   0.123  16.115  0.2959 -0.7871 -0.1645
  884MPD2     C12958   4.703   0.813  15.726  0.1751  0.3181  0.7962
  884MPD2    C112959   4.684   0.948  15.692 -0.3168 -0.0400  0.1490
  884MPD2    C212960   4.559   0.986  15.656 -0.2076  0.5548 -0.1093
  884MPD2    C312961   4.451   0.892  15.659 -0.2606  0.6737  1.1166
  884MPD2    C412962   4.470   0.769  15.703  0.3884  0.3745  0.5072
  884MPD2    C512963   4.596   0.726  15.734  0.0650 -0.5128  0.4552
  884MPD2     H12964   4.535   1.086  15.620  1.7046  1.7446  1.9465
  884MPD2    H112965   4.390   0.697  15.719  1.3413 -0.4356  1.6737
  884MPD2    H212966   0.082   0.771  15.750  1.2315  1.3759 -1.6444
  884MPD2    H312967   4.616   0.624  15.767 -0.2145  0.0151  2.2904
  884MPD2     N12968   4.324   0.934  15.615  0.2919 -0.3908  0.3291
  884MPD2    H512969   4.315   1.030  15.583 -1.7058 -0.6553  0.0912
  884MPD2    N112970   0.073   1.039  15.674  0.0656 -0.0362  0.1170
  884MPD2    H712971   0.043   1.119  15.620 -1.2091  0.4144  1.4904
  885MPD2     C12972   2.647   0.669   0.522  0.4294 -0.0117 -0.1401
  885MPD2    C112973   2.734   0.776   0.535 -0.3416  0.4612  0.2050
  885MPD2    C212974   2.741   0.879   0.442 -0.9061 -0.3333 -0.1272
  885MPD2    C312975   2.646   0.879   0.339  0.5959  0.0762 -0.4018
  885MPD2    C412976   2.558   0.772   0.329 -0.3989  0.7396 -0.7652
  885MPD2    C512977   2.555   0.672   0.422 -0.4873 -0.6638 -0.2374
  885MPD2     H12978   2.804   0.967   0.451 -0.2810 -0.7749 -0.2233
  885MPD2    H112979   2.480   0.769   0.254 -0.0126 -0.5264 -1.1125
  885MPD2    H212980   2.638   0.588   0.594  2.1929  0.5253  0.6824
  885MPD2    H312981   2.475   0.598   0.422 -1.9435  0.8996  0.3725
  885MPD2     N12982   2.650   0.977   0.234  0.1104 -0.2034 -0.3552
  885MPD2    H512983   2.735   1.033   0.235 -1.4565  2.1737  0.2452
  885MPD2    N112984   2.822   0.765   0.648 -0.0382 -0.5751 -0.1276
  885MPD2    H712985   2.798   0.688   0.710 -0.9024 -0.2602 -0.0699
  886MPD2     C12986   3.841   4.131  15.824  0.0056 -0.3443  0.6020
  886MPD2    C112987   3.963   4.165  15.758  0.3350 -0.3289 -0.3187
  886MPD2    C212988   3.991   4.297  15.723  0.1686 -0.7818 -0.4140
  886MPD2    C312989   3.911   4.402  15.748  0.2283  0.6115  0.4798
  886MPD2    C412990   3.796   4.365  15.814 -0.0491  0.5338 -0.1460
  886MPD2    C512991   3.761   4.236  15.849 -0.7923 -0.1249  0.6170
  886MPD2     H12992   4.073   4.319  15.655 -0.2818 -1.7288 -1.2712
  886MPD2    H112993   3.722   4.435  15.850  1.1863  2.3629 -1.1705
  886MPD2    H212994   3.798   4.032  15.828 -1.1200  0.1007 -0.6529
  886MPD2    H312995   3.671   4.218  15.907  0.0786  0.0792  2.0391
  886MPD2     N12996   3.949   4.533  15.730  0.2948  0.5781 -0.2284
  886MPD2    H512997   3.872   4.597  15.748  0.0039  0.4573 -1.0627
  886MPD2    N112998   4.049   4.066  15.709  0.1787  0.5071 -0.0660
  886MPD2    H712999   4.121   4.088  15.641 -2.0479  1.1775 -2.2313
  887MPD2     C13000   4.665   4.091  15.475  0.0357 -0.2511 -0.0125
  887MPD2    C113001   4.571   4.106  15.571  0.8584  0.3644 -0.2989
  887MPD2    C213002   4.578   4.218  15.649  0.0067 -0.6477 -0.1898
  887MPD2    C313003   4.676   4.313  15.639  0.1053  0.2616  0.5447
  887MPD2    C413004   0.053   4.299  15.538  0.1329  0.3313 -0.1229
  887MPD2    C513005   0.044   4.186  15.463  0.0664  0.6618 -0.3046
  887MPD2     H13006   4.505   4.233  15.727  0.5590 -0.7717  0.3515
  887MPD2    H113007   0.144   4.358  15.529  0.8773 -0.8844 -0.5845
  887MPD2    H213008   4.687   4.000  15.422 -1.8506 -0.2503 -0.7945
  887MPD2    H313009   0.122   4.174  15.389  1.2058  1.0269  0.8339
  887MPD2     N13010   4.678   4.417  15.730 -0.8584  0.2505 -0.2337
  887MPD2    H513011   4.610   4.407  15.805  0.4358  0.8699  1.0169
  887MPD2    N113012   4.469   4.018  15.587  0.1023 -0.2633 -0.6874
  887MPD2    H713013   4.394   4.042  15.652  0.9700 -1.0084  0.5932
  888MPD2     C13014   1.773   4.474  15.019  0.2755  0.5691  0.5233
  888MPD2    C113015   1.741   4.533  15.136  0.4301 -0.4073  1.1962
  888MPD2    C213016   1.765   4.672  15.152 -0.2105  0.1146  0.6611
  888MPD2    C313017   1.828   0.023  15.048  1.0335  0.1216  0.2734
  888MPD2    C413018   1.875   4.666  14.939 -0.1053 -0.4622  0.1633
  888MPD2    C513019   1.853   4.534  14.926 -0.2742 -0.0670  0.3675
  888MPD2     H13020   1.745   0.007  15.244  0.2145  0.0289  0.8013
  888MPD2    H113021   1.924   4.712  14.854  0.4304 -0.8946  0.2381
  888MPD2    H213022   1.764   4.369  14.996 -0.8844  0.3545  1.9400
  888MPD2    H313023   1.889   4.470  14.846  0.0781 -0.0570  0.5155
  888MPD2     N13024   1.842   0.168  15.061 -0.2790  0.1592 -0.4941
  888MPD2    H513025   1.814   0.211  15.148  3.9911  2.0117 -0.0372
  888MPD2    N113026   1.679   4.446  15.231  0.2931  0.1790  0.4030
  888MPD2    H713027   1.664   4.350  15.201  0.4877  0.5916 -1.0366
  889MPD2     C13028   0.812   3.633  12.889  0.2215 -0.4864  0.6908
  889MPD2    C113029   0.920   3.667  12.960 -0.3488  0.8398  0.8711
  889MPD2    C213030   0.984   3.792  12.929 -0.5791  0.3003 -0.4272
  889MPD2    C313031   0.912   3.886  12.858 -0.3235  0.0552 -0.2146
  889MPD2    C413032   0.783   3.856  12.805  0.5566 -0.2116  0.1626
  889MPD2    C513033   0.745   3.729  12.823 -0.0488  0.0766 -0.3357
  889MPD2     H13034   1.080   3.818  12.972 -0.3423 -4.0068  1.6045
  889MPD2    H113035   0.723   3.917  12.739  2.1526  1.7650  0.5302
  889MPD2    H213036   0.762   3.537  12.900  0.1843 -0.2287  2.8466
  889MPD2    H313037   0.659   3.698  12.766 -0.2626 -1.4131  0.7818
  889MPD2     N13038   0.968   4.012  12.839  0.9294 -0.0338 -0.2554
  889MPD2    H513039   1.060   4.028  12.877  0.7196 -1.4707  0.8370
  889MPD2    N113040   0.994   3.560  13.022  0.7885 -0.4103 -0.7293
  889MPD2    H713041   0.950   3.469  13.012 -0.4623 -0.0551  1.5355
  890MPD2     C13042   0.313   1.435  15.183 -0.2061 -0.0311 -0.0420
  890MPD2    C113043   0.444   1.464  15.223 -1.0091  0.5751  1.3641
  890MPD2    C213044   0.511   1.356  15.282  0.0865  0.5133 -0.6156
  890MPD2    C313045   0.450   1.229  15.299  0.2381  0.0628  0.3806
  890MPD2    C413046   0.316   1.216  15.263 -0.3780  0.0722  0.2273
  890MPD2    C513047   0.256   1.319  15.199  0.2125 -0.0185 -0.3577
  890MPD2     H13048   0.613   1.369  15.316  0.0468 -1.8662  0.4326
  890MPD2    H113049   0.256   1.130  15.290  0.9687 -0.6193  1.0021
  890MPD2    H213050   0.261   1.509  15.123  5.0601  2.2309 -1.8258
  890MPD2    H313051   0.154   1.303  15.165 -0.4477  2.9026  0.2977
  890MPD2     N13052   0.522   1.127  15.366 -0.0847  0.0748  0.0601
  890MPD2    H513053   0.620   1.140  15.387 -0.3471  4.2299 -1.2640
  890MPD2    N113054   0.522   1.582  15.198 -0.3856 -0.1541 -0.3584
  890MPD2    H713055   0.621   1.571  15.216 -1.2629 -2.7863  2.7953
  891MPD2     C13056   3.532   4.566  16.680 -0.2708  0.4409 -0.0522
  891MPD2    C113057   3.435   4.515  16.764  0.1989  0.6347  0.6874
  891MPD2    C213058   3.472   4.486  16.889  1.0799  0.0432 -0.0704
  891MPD2    C313059   3.604   4.498  16.933 -0.5699  0.1107  0.2518
  891MPD2    C413060   3.696   4.538  16.841 -0.0843  0.1139  0.0798
  891MPD2    C513061   3.658   4.577  16.714  0.5411 -0.5938 -0.3041
  891MPD2     H13062   3.410   4.454  16.972 -0.4102  3.0665 -0.0028
  891MPD2    H113063   3.803   4.526  16.854 -0.1723 -1.2752 -0.4562
  891MPD2    H213064   3.514   4.589  16.576  0.5350 -2.3909 -0.8124
  891MPD2    H313065   3.737   4.615  16.650  1.2637  0.6546  1.3233
  891MPD2     N13066   3.640   4.452  17.060 -0.2476  0.2556 -1.0902
  891MPD2    H513067   3.571   4.399  17.112  1.4322 -1.1847 -0.3260
  891MPD2    N113068   3.303   4.488  16.713 -0.0464 -0.6247  0.3819
  891MPD2    H713069   3.289   4.510  16.615 -0.0683 -0.7376  0.3606
  892MPD2     C13070   4.587   0.368  15.092 -0.3898  0.4521  0.7638
  892MPD2    C113071   4.502   0.375  14.985 -0.1685  0.6661 -0.1267
  892MPD2    C213072   4.534   0.308  14.864  0.2239  0.2423 -0.0813
  892MPD2    C313073   4.652   0.232  14.853 -0.4072  0.3981 -0.2136
  892MPD2    C413074   0.023   0.241  14.957  0.1280 -0.8862 -0.0407
  892MPD2    C513075   4.707   0.305  15.075  0.1420 -0.2163 -0.0039
  892MPD2     H13076   4.467   0.320  14.779 -0.2307  0.2049  0.2732
  892MPD2    H113077   0.110   0.176  14.957  1.0526  0.2935  3.3529
  892MPD2    H213078   4.572   0.414  15.189 -1.2851 -0.7310  1.1799
  892MPD2    H313079   0.059   0.308  15.158 -0.6812  0.2775  0.6776
  892MPD2     N13080   4.676   0.151  14.735 -0.3891  0.0152 -0.1631
  892MPD2    H513081   0.039   0.090  14.737 -1.4206 -1.2677  2.7201
  892MPD2    N113082   4.378   0.441  14.988  0.4763 -0.3641 -0.0958
  892MPD2    H713083   4.316   0.416  14.912  1.9882  1.7009 -2.0076
  893MPD2     C13084   3.749   2.940   2.238  0.0129 -0.6240  0.5144
  893MPD2    C113085   3.610   2.946   2.241 -1.1245 -0.4693 -0.0991
  893MPD2    C213086   3.548   2.827   2.221  0.2437 -0.2310 -0.7405
  893MPD2    C313087   3.624   2.716   2.208 -0.3782 -0.1433 -0.4282
  893MPD2    C413088   3.766   2.714   2.207 -0.2920 -0.4638  0.2631
  893MPD2    C513089   3.827   2.831   2.232 -0.3539 -1.1703 -0.1606
  893MPD2     H13090   3.441   2.827   2.234  0.1423  0.6326 -1.5990
  893MPD2    H113091   3.818   2.623   2.180  0.8069 -0.2940  1.7736
  893MPD2    H213092   3.804   3.031   2.257  2.4731 -2.2044  0.8861
  893MPD2    H313093   3.934   2.842   2.220 -0.2332 -0.2239  1.7298
  893MPD2     N13094   3.577   2.587   2.189 -0.8869 -0.1857 -0.2045
  893MPD2    H513095   3.646   2.520   2.157  0.4612  1.1016 -0.0078
  893MPD2    N113096   3.555   3.073   2.272 -0.6857  0.0478 -0.1962
  893MPD2    H713097   3.624   3.143   2.297  0.1001 -1.5180  2.0839
  894MPD2     C13098   0.125   1.991   1.384 -0.0672 -0.4218  0.5344
  894MPD2    C113099   0.203   1.978   1.495 -0.4455  0.1297  0.9624
  894MPD2    C213100   0.269   2.089   1.544 -0.1494  0.4307  0.9382
  894MPD2    C313101   0.237   2.215   1.496 -0.5818  0.2612  0.2941
  894MPD2    C413102   0.138   2.231   1.406  0.4047  0.4280  0.1470
  894MPD2    C513103   0.095   2.117   1.339  0.2916  0.1442  0.2648
  894MPD2     H13104   0.322   2.070   1.637  0.8113  0.8907  0.4920
  894MPD2    H113105   0.102   2.326   1.367  0.8874  0.9222  0.8891
  894MPD2    H213106   0.098   1.899   1.332 -4.5333  0.3561  1.4815
  894MPD2    H313107   0.031   2.115   1.251 -0.3747 -0.1197  0.7560
  894MPD2     N13108   0.319   2.319   1.544 -0.2980  0.0353  0.6782
  894MPD2    H513109   0.401   2.281   1.590  0.9943 -0.0140 -1.6808
  894MPD2    N113110   0.220   1.852   1.563  0.3678 -0.5741 -0.2596
  894MPD2    H713111   0.279   1.842   1.646  0.0474  1.7245  0.2556
  895MPD2     C13112   3.648   4.596  13.840 -0.3450  0.6355  0.2433
  895MPD2    C113113   3.552   4.544  13.754 -0.2047 -0.0207  0.2509
  895MPD2    C213114   3.574   4.426  13.686  0.4419 -0.5446 -0.6379
  895MPD2    C313115   3.703   4.371  13.682 -0.3628 -1.0268 -0.2170
  895MPD2    C413116   3.796   4.430  13.774  0.3313  0.5788 -0.0478
  895MPD2    C513117   3.772   4.544  13.849  0.1918 -0.5760  0.2780
  895MPD2     H13118   3.502   4.388  13.615 -1.2508  0.5091  0.5304
  895MPD2    H113119   3.896   4.391  13.791 -1.3054 -3.6859 -0.0031
  895MPD2    H213120   3.626   4.683  13.901 -0.7759  0.0845  0.8707
  895MPD2    H313121   3.849   4.564  13.922 -2.2270 -0.2000  2.7472
  895MPD2     N13122   3.741   4.261  13.598 -0.4502  0.3561  0.6808
  895MPD2    H513123   3.828   4.216  13.626  1.2100  2.0830 -1.6753
  895MPD2    N113124   3.421   4.600  13.745  0.1853 -0.0000  0.5461
  895MPD2    H713125   3.362   4.550  13.679  0.7167  0.6861 -0.4478
  896MPD2     C13126   2.171   2.013   1.576  0.2858  0.3670 -0.5722
  896MPD2    C113127   2.085   2.028   1.471 -0.0227 -0.5922 -0.5619
  896MPD2    C213128   1.961   2.088   1.487 -0.0167 -0.3556  0.3556
  896MPD2    C313129   1.926   2.139   1.612 -0.2732  0.1361 -0.5788
  896MPD2    C413130   2.012   2.117   1.718  0.6120  0.5740 -0.5536
  896MPD2    C513131   2.128   2.050   1.698 -0.7163  0.0125  0.9028
  896MPD2     H13132   1.892   2.107   1.406 -1.6779 -1.7727  1.4117
  896MPD2    H113133   1.995   2.147   1.821  0.2704 -0.5713 -0.2674
  896MPD2    H213134   2.263   1.957   1.569 -0.2624 -0.6579  0.4883
  896MPD2    H313135   2.187   2.015   1.782 -0.3226  0.6477  0.8856
  896MPD2     N13136   1.794   2.200   1.624 -0.6870  0.3183  0.2808
  896MPD2    H513137   1.734   2.192   1.542 -0.0169 -0.4079 -0.1490
  896MPD2    N113138   2.133   1.988   1.345  0.3970  0.0005 -0.5267
  896MPD2    H713139   2.227   1.950   1.341 -0.3065 -1.9514  0.8560
  897MPD2     C13140   2.832   3.754  10.624  0.2827 -0.1383 -0.6391
  897MPD2    C113141   2.724   3.720  10.541  0.1837  0.0529  0.0186
  897MPD2    C213142   2.627   3.629  10.578  0.4259 -0.6219 -0.1350
  897MPD2    C313143   2.652   3.561  10.694 -0.0671 -0.9158 -0.1954
  897MPD2    C413144   2.763   3.583  10.768  0.1718  0.6361  0.5486
  897MPD2    C513145   2.848   3.683  10.738  0.6149  0.1114  0.2831
  897MPD2     H13146   2.541   3.607  10.517  0.0790  1.1897 -0.3030
  897MPD2    H113147   2.775   3.537  10.865 -1.6321  1.5382  1.1792
  897MPD2    H213148   2.910   3.819  10.587  0.5032  0.0996  0.2405
  897MPD2    H313149   2.931   3.697  10.806  0.0712 -1.0562  1.1758
  897MPD2     N13150   2.550   3.467  10.739 -0.2353 -0.3239 -0.8593
  897MPD2    H513151   2.456   3.473  10.701 -0.4713 -1.1393 -0.3863
  897MPD2    N113152   2.723   3.784  10.415 -0.0410 -0.0453 -0.3256
  897MPD2    H713153   2.788   3.861  10.403  2.3554 -1.7229  1.8762
  898MPD2     C13154   4.445   4.290   0.356  0.0700  0.9029  0.3058
  898MPD2    C113155   4.527   4.388   0.321  0.0310  0.0806 -0.5014
  898MPD2    C213156   4.475   4.503   0.270  1.0784  0.8811  0.4214
  898MPD2    C313157   4.338   4.518   0.256  0.0388 -0.2896  0.5212
  898MPD2    C413158   4.252   4.419   0.290 -0.2889  0.0924 -0.3289
  898MPD2    C513159   4.306   4.303   0.335  0.1424  0.6326  0.3508
  898MPD2     H13160   4.542   4.582   0.237 -0.6754  2.6047  1.0348
  898MPD2    H113161   4.148   4.422   0.260 -0.5373 -0.1261  0.5215
  898MPD2    H213162   4.485   4.190   0.366  0.9910  1.2600  0.1649
  898MPD2    H313163   4.247   4.212   0.324 -0.2937  0.6734  2.3557
  898MPD2     N13164   4.299   4.643   0.202  0.5732  0.3145  0.7427
  898MPD2    H513165   4.374   4.705   0.172 -1.1091  1.9995  0.0015
  898MPD2    N113166   4.663   4.379   0.338 -0.7268  0.2616  0.3931
  898MPD2    H713167   4.713   4.465   0.318  1.9393 -2.2116 -3.5444
  899MPD2     C13168   0.288   0.773   0.066 -0.5397 -1.2255  0.1613
  899MPD2    C113169   0.332   0.886   0.140  0.1510 -0.0237 -0.3943
  899MPD2    C213170   0.349   0.873   0.274 -0.3720 -0.6732  0.4780
  899MPD2    C313171   0.312   0.756   0.346 -0.1610  0.5462 -0.2451
  899MPD2    C413172   0.262   0.650   0.267 -0.6531  0.2476  0.4786
  899MPD2    C513173   0.253   0.661   0.133  0.2744 -0.2508  0.4337
  899MPD2     H13174   0.373   0.962   0.330  1.5238 -0.6299 -0.4032
  899MPD2    H113175   0.235   0.558   0.318  1.5055 -0.0884  1.0174
  899MPD2    H213176   0.279   0.774  17.633 -1.1262  2.0284  0.2541
  899MPD2    H313177   0.217   0.574   0.079  0.0715 -0.9483  1.7034
  899MPD2     N13178   0.311   0.753   0.489  0.2377 -0.7017  0.0606
  899MPD2    H513179   0.261   0.674   0.528  0.6523 -1.2238 -0.4720
  899MPD2    N113180   0.346   1.005   0.066 -0.0203  0.6658  0.2986
  899MPD2    H713181   0.323   1.004  17.643  0.0089  0.8311  0.2889
  900MPD2     C13182   0.186   1.882  12.811 -0.8074  0.6439 -0.0732
  900MPD2    C113183   0.110   1.773  12.809 -0.4684  0.1440  0.2594
  900MPD2    C213184   4.712   1.768  12.733 -0.2961  0.5425 -0.6826
  900MPD2    C313185   4.665   1.880  12.673  1.0416  0.2741  0.1751
  900MPD2    C413186   0.018   1.995  12.686 -0.1331 -0.0416  0.4590
  900MPD2    C513187   0.139   1.997  12.755 -0.2455 -0.1764 -0.1016
  900MPD2     H13188   4.641   1.687  12.719 -1.3687  1.5892 -1.2436
  900MPD2    H113189   4.699   2.089  12.647 -2.8182 -1.2120  0.2103
  900MPD2    H213190   0.276   1.892  12.870 -0.3338  3.5347 -1.2603
  900MPD2    H313191   0.200   2.086  12.768  4.2641 -2.7259 -3.7983
  900MPD2     N13192   4.536   1.870  12.606  0.1120  0.1079  0.3023
  900MPD2    H513193   4.489   1.782  12.626  0.1335  0.4642  1.9183
  900MPD2    N113194   0.168   1.663  12.862  0.0997  0.1223  0.3026
  900MPD2    H713195   0.264   1.682  12.892 -0.2296  0.3548  1.2215
  901MPD2     C13196   0.351   0.608  13.113  0.7826 -0.5758  0.0944
  901MPD2    C113197   0.438   0.656  13.019  0.5971 -0.1237 -1.0691
  901MPD2    C213198   0.426   0.794  12.998 -0.2198  0.0940  0.0123
  901MPD2    C313199   0.334   0.877  13.056  0.2510  0.5689 -1.1363
  901MPD2    C413200   0.243   0.824  13.139 -0.5064  0.8535 -0.0152
  901MPD2    C513201   0.259   0.689  13.166 -0.4278 -0.0830 -0.6927
  901MPD2     H13202   0.501   0.845  12.939  2.0606 -2.6404  0.5184
  901MPD2    H113203   0.164   0.876  13.193  0.6905 -1.8087  4.3310
  901MPD2    H213204   0.345   0.501  13.128  1.4438 -0.7679 -0.9881
  901MPD2    H313205   0.188   0.649  13.237 -1.5143  1.4378 -0.9221
  901MPD2     N13206   0.343   1.011  13.022 -0.5088  0.3731  0.0423
  901MPD2    H513207   0.429   1.039  12.976  0.3412 -2.2235  0.0484
  901MPD2    N113208   0.522   0.567  12.953 -0.2948 -0.3156  0.6731
  901MPD2    H713209   0.519   0.471  12.985 -1.8110  0.2579  2.2580
  902MPD2     C13210   4.194   4.283  12.934  0.3389  0.1705  0.0818
  902MPD2    C113211   4.222   4.371  12.836  0.2858  0.4688 -0.2757
  902MPD2    C213212   4.234   4.335  12.707  0.1538  0.1467 -0.5250
  902MPD2    C313213   4.232   4.195  12.677  0.3943  0.1204  0.2513
  902MPD2    C413214   4.189   4.107  12.775  0.1574 -0.4176 -0.5544
  902MPD2    C513215   4.180   4.155  12.901  0.0351  0.0658  0.4678
  902MPD2     H13216   4.264   4.409  12.634 -1.4033 -0.1722 -1.4909
  902MPD2    H113217   4.188   3.999  12.766  1.3241 -0.4614 -0.2592
  902MPD2    H213218   4.190   4.300  13.041 -0.2957  0.2391  0.0506
  902MPD2    H313219   4.168   4.077  12.975  2.9017 -1.4116 -0.6051
  902MPD2     N13220   4.252   4.147  12.547 -0.5442 -0.3011 -0.0912
  902MPD2    H513221   4.246   4.048  12.524 -0.9206 -0.7158  1.8094
  902MPD2    N113222   4.214   4.508  12.854  0.0435 -0.0107 -0.4270
  902MPD2    H713223   4.230   4.579  12.783 -1.0319  1.3165  0.6416
  903MPD2     C13224   4.085   4.247  11.624 -0.0037 -0.1561 -0.5355
  903MPD2    C113225   4.058   4.260  11.758  0.1655  0.6035 -0.4371
  903MPD2    C213226   3.930   4.237  11.809  0.7656 -0.1715 -0.6591
  903MPD2    C313227   3.826   4.205  11.716 -0.6285 -0.4658 -0.1692
  903MPD2    C413228   3.855   4.193  11.583 -0.3918  0.3338 -0.3213
  903MPD2    C513229   3.979   4.212  11.534  0.4727  0.2793  0.4808
  903MPD2     H13230   3.916   4.235  11.916 -2.9044 -0.2439 -1.1408
  903MPD2    H113231   3.782   4.157  11.512  0.9295 -1.6764 -0.6647
  903MPD2    H213232   4.187   4.256  11.589 -0.0483  1.4335 -0.2689
  903MPD2    H313233   3.990   4.208  11.426 -0.5923  2.4849  0.2948
  903MPD2     N13234   3.696   4.182  11.758 -0.2476  0.6680 -0.1765
  903MPD2    H513235   3.678   4.207  11.855  0.7466 -0.6251  0.3316
  903MPD2    N113236   4.172   4.272  11.844 -0.3721 -0.5072  0.0722
  903MPD2    H713237   4.265   4.252  11.808  0.2685  0.1740  1.3698
  904MPD2     C13238   3.357   3.950  13.770 -0.1602 -0.2875  0.6721
  904MPD2    C113239   3.337   3.864  13.878  0.0537  0.4449 -0.0375
  904MPD2    C213240   3.439   3.828  13.961 -0.2230 -0.6215  0.0882
  904MPD2    C313241   3.566   3.880  13.940  0.0433  0.5706 -0.0338
  904MPD2    C413242   3.583   3.978  13.844 -0.3253 -0.8396 -0.2070
  904MPD2    C513243   3.479   4.009  13.756  0.6400 -0.9129 -0.0355
  904MPD2     H13244   3.424   3.758  14.042  2.4685  0.2145  1.3407
  904MPD2    H113245   3.671   4.035  13.817 -0.2033 -1.3665 -0.9142
  904MPD2    H213246   3.292   3.970  13.686 -0.3217 -0.6377  0.7144
  904MPD2    H313247   3.487   4.089  13.683 -0.9322 -0.1346  0.6464
  904MPD2     N13248   3.663   3.822  14.015 -1.0286  0.0121  0.3773
  904MPD2    H513249   3.630   3.746  14.074  1.5293 -0.8066  0.7581
  904MPD2    N113250   3.206   3.821  13.904 -0.1201 -0.4494 -0.0944
  904MPD2    H713251   3.184   3.795  14.000 -1.1273  0.9618  0.0513
  905MPD2     C13252   2.957   3.993  13.271  0.0489  0.1507  0.2248
  905MPD2    C113253   3.019   3.929  13.370 -0.5160  0.3320 -0.4312
  905MPD2    C213254   3.156   3.905  13.371 -0.2824  0.0236  0.3600
  905MPD2    C313255   3.230   3.925  13.250  0.2133 -0.5240  0.6934
  905MPD2    C413256   3.159   3.973  13.140 -0.2733  0.3672 -0.0855
  905MPD2    C513257   3.025   4.001  13.156  1.4235 -0.1960 -0.6827
  905MPD2     H13258   3.200   3.867  13.462 -1.9845 -0.0194  1.1747
  905MPD2    H113259   3.198   3.972  13.039 -0.0789  1.8660 -0.0203
  905MPD2    H213260   2.850   4.014  13.268 -0.2105 -0.9482  2.0550
  905MPD2    H313261   2.970   4.016  13.063  1.5236 -0.8147 -0.8423
  905MPD2     N13262   3.368   3.919  13.242  0.5289 -0.2952  0.0488
  905MPD2    H513263   3.413   3.957  13.159 -0.5234 -0.5098 -0.6078
  905MPD2    N113264   2.967   3.927  13.503  0.9332  0.1447 -0.1727
  905MPD2    H713265   3.028   3.883  13.571 -0.5774 -0.2274  0.9372
  906MPD2     C13266   1.287   3.299  11.805 -0.2346 -0.2999 -0.0152
  906MPD2    C113267   1.198   3.352  11.715  0.3673  0.1848  0.0745
  906MPD2    C213268   1.064   3.343  11.754 -0.1394 -0.0509 -0.4213
  906MPD2    C313269   1.028   3.269  11.866  0.4611 -0.2767  0.0179
  906MPD2    C413270   1.124   3.228  11.958 -0.1470  0.6013  0.0618
  906MPD2    C513271   1.255   3.241  11.920 -0.9614 -0.1757 -0.4927
  906MPD2     H13272   0.986   3.370  11.684 -1.5324 -1.5392  0.5396
  906MPD2    H113273   1.098   3.188  12.055  1.2642 -0.6087 -0.0601
  906MPD2    H213274   1.395   3.312  11.795 -0.2841 -0.7518 -1.1443
  906MPD2    H313275   1.330   3.198  11.985 -1.0753 -1.4635 -1.2038
  906MPD2     N13276   0.894   3.246  11.899 -0.0029 -0.3471 -0.0076
  906MPD2    H513277   0.881   3.166  11.961  0.4485 -0.8322 -0.5287
  906MPD2    N113278   1.237   3.409  11.589  0.7541 -0.1908 -0.0414
  906MPD2    H713279   1.171   3.453  11.527  0.7262  1.4918  1.1956
  907MPD2     C13280   0.191   2.737  16.496  1.1602 -0.1567 -0.3732
  907MPD2    C113281   0.124   2.632  16.447  0.0818  0.8570  0.5325
  907MPD2    C213282   0.121   2.516  16.520  0.0290 -1.0933  0.3139
  907MPD2    C313283   0.192   2.502  16.636  0.8267 -0.5441 -0.4366
  907MPD2    C413284   0.270   2.609  16.684 -0.4796  0.9575 -0.7154
  907MPD2    C513285   0.265   2.720  16.608  0.0821  0.3204 -0.1131
  907MPD2     H13286   0.070   2.428  16.483  0.2563 -0.8976 -0.4767
  907MPD2    H113287   0.335   2.617  16.770  1.8223 -1.5628 -2.2083
  907MPD2    H213288   0.191   2.834  16.448 -0.9149  0.2458  0.4685
  907MPD2    H313289   0.328   2.801  16.644  0.7669 -0.1630 -0.2279
  907MPD2     N13290   0.184   2.380  16.704 -0.1724  0.2147  1.0095
  907MPD2    H513291   0.117   2.314  16.664  0.3834  0.4235 -0.2477
  907MPD2    N113292   0.053   2.631  16.330 -0.5637  0.2855 -0.1771
  907MPD2    H713293   0.008   2.543  16.308 -1.0414  0.5769 -0.3780
  908MPD2     C13294   2.944   3.583   9.458 -0.7578  0.1041  0.2534
  908MPD2    C113295   2.894   3.506   9.556  0.5900 -0.4630 -0.1629
  908MPD2    C213296   2.844   3.560   9.674 -0.0503 -0.3878  0.6871
  908MPD2    C313297   2.827   3.694   9.680  0.2360 -0.1391  0.1889
  908MPD2    C413298   2.870   3.773   9.578  0.2967 -0.2906 -0.5616
  908MPD2    C513299   2.934   3.717   9.467  0.3585  0.2855  0.2052
  908MPD2     H13300   2.823   3.498   9.761 -0.0428 -2.2833 -0.6739
  908MPD2    H113301   2.871   3.880   9.564 -2.6431 -0.5556 -2.8887
  908MPD2    H213302   2.993   3.545   9.369  0.3123  1.3533  0.3056
  908MPD2    H313303   2.980   3.781   9.392 -2.9325  2.8229  0.3833
  908MPD2     N13304   2.776   3.742   9.805 -0.0897 -0.5109 -0.7577
  908MPD2    H513305   2.753   3.671   9.875  0.0382 -0.9501 -1.1611
  908MPD2    N113306   2.913   3.365   9.540  0.3387 -0.7171  0.7062
  908MPD2    H713307   2.962   3.335   9.456 -0.3291 -0.1494  0.1066
  909MPD2     C13308   2.824   0.982  11.955  0.7223 -0.6942  0.0615
  909MPD2    C113309   2.838   1.111  11.905 -0.8053  0.8434  0.4317
  909MPD2    C213310   2.787   1.216  11.972 -0.0017 -0.1095 -0.2462
  909MPD2    C313311   2.715   1.197  12.091  0.1386  0.3036 -0.2467
  909MPD2    C413312   2.698   1.068  12.138  0.2868  0.3108 -0.0036
  909MPD2    C513313   2.751   0.961  12.068 -0.4858 -0.7556 -0.1329
  909MPD2     H13314   2.796   1.317  11.932 -2.0185  0.8857  1.7809
  909MPD2    H113315   2.648   1.045  12.231  0.9226  0.8639  0.4780
  909MPD2    H213316   2.869   0.897  11.905  1.7714  0.1377 -0.4200
  909MPD2    H313317   2.745   0.860  12.107 -0.1494 -0.3493  0.9743
  909MPD2     N13318   2.664   1.310  12.151 -0.1720 -0.3564  0.5217
  909MPD2    H513319   2.678   1.403  12.114 -0.8368 -0.7142 -0.6147
  909MPD2    N113320   2.917   1.149  11.794  0.1703 -0.5857  0.0279
  909MPD2    H713321   2.927   1.248  11.772 -0.6722 -0.8800 -1.6727
  910MPD2     C13322   3.474   3.399  15.819 -0.0934  0.3381  0.5275
  910MPD2    C113323   3.595   3.355  15.764 -0.1331 -1.1245 -0.9928
  910MPD2    C213324   3.612   3.367  15.629 -0.4690  0.0284 -0.0021
  910MPD2    C313325   3.517   3.407  15.543  0.1407  0.4861  0.1472
  910MPD2    C413326   3.395   3.436  15.596  0.5377 -1.4200 -0.0583
  910MPD2    C513327   3.375   3.434  15.732 -0.3382  0.6194  0.0814
  910MPD2     H13328   3.710   3.338  15.594 -0.8651 -1.2501 -0.0367
  910MPD2    H113329   3.314   3.472  15.533 -0.4106 -4.3271 -0.4882
  910MPD2    H213330   3.451   3.409  15.924 -0.3642  0.6446  0.4366
  910MPD2    H313331   3.277   3.473  15.757 -0.2645  1.0602 -0.3279
  910MPD2     N13332   3.536   3.411  15.402 -0.2983 -0.4396 -0.2961
  910MPD2    H513333   3.456   3.429  15.343 -1.8113 -1.0951  1.5356
  910MPD2    N113334   3.693   3.297  15.847  0.2652 -0.3719  0.1902
  910MPD2    H713335   3.780   3.275  15.801 -0.8787  1.5227 -2.8443
  911MPD2     C13336   1.671   4.244  16.128 -0.6326 -0.4308 -0.4056
  911MPD2    C113337   1.697   4.310  16.251  0.6025 -0.2590  0.4241
  911MPD2    C213338   1.611   4.402  16.306 -0.0134 -0.2661  0.0083
  911MPD2    C313339   1.496   4.440  16.235  0.0570 -0.3962 -0.8401
  911MPD2    C413340   1.466   4.370  16.116 -0.4052 -0.1550  0.3863
  911MPD2    C513341   1.551   4.271  16.068  0.1200 -0.0636  0.0000
  911MPD2     H13342   1.633   4.457  16.397 -0.7448 -0.2947  0.2032
  911MPD2    H113343   1.382   4.388  16.050  1.5578 -0.4781 -2.1749
  911MPD2    H213344   1.748   4.184  16.080 -0.4932 -0.2590 -0.4009
  911MPD2    H313345   1.535   4.231  15.969 -0.5113  1.7154 -0.6119
  911MPD2     N13346   1.402   4.543  16.268 -0.6890 -0.6381  0.3558
  911MPD2    H513347   1.319   4.538  16.210 -0.9229 -1.2416  0.7444
  911MPD2    N113348   1.809   4.252  16.313 -0.1612 -0.1991 -0.3253
  911MPD2    H713349   1.854   4.177  16.261  0.7037 -0.3318  0.6136
  912MPD2     C13350   1.130   4.452  15.857 -0.8075 -0.4747  0.1027
  912MPD2    C113351   1.126   4.447  15.992  0.5971  1.1723 -0.2555
  912MPD2    C213352   1.133   4.318  16.049 -0.4528  0.0471 -0.2746
  912MPD2    C313353   1.163   4.205  15.971 -0.2460 -0.6674  0.1177
  912MPD2    C413354   1.182   4.218  15.836 -0.1232 -0.6956  0.6645
  912MPD2    C513355   1.159   4.340  15.781 -0.5528  0.0738 -0.3485
  912MPD2     H13356   1.131   4.306  16.157 -0.8052  0.7077 -0.2090
  912MPD2    H113357   1.202   4.130  15.776 -2.8442 -0.8261 -0.0506
  912MPD2    H213358   1.113   4.542  15.798 -1.5484 -1.9802 -1.9458
  912MPD2    H313359   1.164   4.352  15.673 -1.2497  0.2881 -0.3593
  912MPD2     N13360   1.209   4.086  16.035 -0.4609 -0.5862 -0.1138
  912MPD2    H513361   1.223   4.085  16.136  1.1483  0.2638 -0.3190
  912MPD2    N113362   1.108   4.565  16.071 -0.0165  0.4724  0.2911
  912MPD2    H713363   1.107   4.651  16.018 -3.1367  1.2399  1.6208
  913MPD2     C13364   1.725   0.688   9.328  0.3854 -0.5854 -0.2044
  913MPD2    C113365   1.747   0.703   9.465  0.1206  0.3743  0.6226
  913MPD2    C213366   1.755   0.830   9.520  0.3866  0.0136 -0.2996
  913MPD2    C313367   1.743   0.939   9.432 -0.7754 -0.6249 -0.3180
  913MPD2    C413368   1.713   0.922   9.298  0.6045  0.0361 -0.3520
  913MPD2    C513369   1.702   0.792   9.246  0.0304  0.1751  0.3920
  913MPD2     H13370   1.780   0.839   9.625  1.2931  2.3374 -0.7212
  913MPD2    H113371   1.710   1.005   9.229 -0.9291 -0.2625 -0.6546
  913MPD2    H213372   1.719   0.587   9.288 -2.0430 -1.0463  1.3396
  913MPD2    H313373   1.688   0.772   9.141  0.7878  0.3213  0.2629
  913MPD2     N13374   1.750   1.080   9.474  0.0317 -0.1857 -0.1044
  913MPD2    H513375   1.740   1.156   9.407  0.4071 -0.3672 -0.3677
  913MPD2    N113376   1.777   0.577   9.533  0.7916  0.6598  0.3724
  913MPD2    H713377   1.789   0.497   9.472 -0.6355  0.5725  0.2014
  914MPD2     C13378   0.178   0.576  12.199  0.3321 -0.5461 -1.1162
  914MPD2    C113379   0.225   0.675  12.287  0.3049 -0.6195  0.1931
  914MPD2    C213380   0.328   0.632  12.370  0.4628  0.4768  0.8262
  914MPD2    C313381   0.377   0.499  12.369 -0.1868  0.3176 -0.7866
  914MPD2    C413382   0.336   0.412  12.268  0.8105 -0.8958  0.9636
  914MPD2    C513383   0.240   0.453  12.183  0.7256  0.1053  0.2465
  914MPD2     H13384   0.361   0.689  12.457  1.2835  3.0366 -1.1480
  914MPD2    H113385   0.372   0.310  12.260 -0.6392 -1.5108  2.2430
  914MPD2    H213386   0.092   0.601  12.138 -0.7914 -2.1059 -0.1932
  914MPD2    H313387   0.179   0.384  12.125 -0.9624  2.0391 -0.2784
  914MPD2     N13388   0.469   0.457  12.472  0.2815 -0.1323 -0.2998
  914MPD2    H513389   0.489   0.525  12.545  0.1037  0.5450 -0.8797
  914MPD2    N113390   0.165   0.809  12.294 -0.0834 -0.2358 -0.2526
  914MPD2    H713391   0.079   0.840  12.249  2.2062  2.0127 -3.0650
  915MPD2     C13392   3.022   0.899  15.945  0.0491  0.4015 -0.1405
  915MPD2    C113393   2.885   0.918  15.919  0.2897  0.3332 -0.1557
  915MPD2    C213394   2.807   0.982  16.015  0.0166 -0.1434 -0.3343
  915MPD2    C313395   2.861   1.002  16.141 -0.9515 -1.2693 -0.5296
  915MPD2    C413396   2.994   0.990  16.162  0.1434 -0.6916  0.0148
  915MPD2    C513397   3.072   0.932  16.067 -0.9281  0.0901 -0.1679
  915MPD2     H13398   2.703   1.008  15.997  0.5020  1.3992 -0.9252
  915MPD2    H113399   3.048   1.039  16.242 -1.2922 -0.0174  0.5561
  915MPD2    H213400   3.085   0.847  15.874 -0.4623 -0.4603  0.0321
  915MPD2    H313401   3.178   0.928  16.090 -0.7157  2.8570 -0.6628
  915MPD2     N13402   2.782   1.057  16.241  0.0851  0.4024 -0.4000
  915MPD2    H513403   2.684   1.074  16.223 -0.1018 -0.1222  0.1245
  915MPD2    N113404   2.818   0.874  15.803  0.5318  0.7695 -0.1012
  915MPD2    H713405   2.721   0.898  15.782  0.3599 -0.3724 -0.6409
  916MPD2     C13406   0.830   4.014  15.739  0.3863 -0.0238  0.0109
  916MPD2    C113407   0.867   3.935  15.841  0.3797 -0.1767 -0.0427
  916MPD2    C213408   0.890   3.806  15.826  0.2437 -0.2207  0.7310
  916MPD2    C313409   0.879   3.751  15.695  0.2072 -0.4194  0.0776
  916MPD2    C413410   0.846   3.829  15.587  0.0939  0.1992  0.1766
  916MPD2    C513411   0.817   3.958  15.614  0.2079  0.7061  0.0770
  916MPD2     H13412   0.927   3.755  15.914 -2.9764 -0.8219  1.7575
  916MPD2    H113413   0.827   3.797  15.485  0.4612  3.0732 -0.7917
  916MPD2    H213414   0.820   4.122  15.747  0.7783 -0.0348  0.5792
  916MPD2    H313415   0.775   4.025  15.540 -1.2520  0.1827  0.4343
  916MPD2     N13416   0.890   3.605  15.674  0.4984  0.5963 -0.1549
  916MPD2    H513417   0.916   3.544  15.751 -1.4250  0.9333  0.7763
  916MPD2    N113418   0.868   4.011  15.958 -0.6399 -0.0198  0.2420
  916MPD2    H713419   0.850   4.111  15.950 -0.3844  0.0561  0.6051
  917MPD2     C13420   1.592   1.097  11.062 -0.2863 -0.3035 -0.2512
  917MPD2    C113421   1.571   1.199  11.154  0.0805 -0.1623  0.1101
  917MPD2    C213422   1.646   1.313  11.139  0.2735  0.0443 -0.0541
  917MPD2    C313423   1.748   1.325  11.045 -0.1501  0.1480  0.0907
  917MPD2    C413424   1.780   1.215  10.964 -0.2316 -0.7084 -0.6261
  917MPD2    C513425   1.696   1.108  10.973 -0.0968  0.4533  0.3566
  917MPD2     H13426   1.616   1.403  11.192  0.2052  0.0658 -0.1276
  917MPD2    H113427   1.854   1.215  10.885 -0.4297  3.1916 -0.8031
  917MPD2    H213428   1.531   1.009  11.044 -1.0998  0.3927 -0.9292
  917MPD2    H313429   1.717   1.033  10.898  1.9015  1.8913 -0.4939
  917MPD2     N13430   1.816   1.448  11.016 -0.3187 -0.0855 -0.0107
  917MPD2    H513431   1.897   1.440  10.956  0.4528 -2.3172  1.3194
  917MPD2    N113432   1.472   1.187  11.255  0.7300 -0.4472  0.4356
  917MPD2    H713433   1.393   1.128  11.228 -0.5920  1.3839  0.2935
  918MPD2     C13434   1.400   1.816  12.044  0.2353  0.0504 -0.0229
  918MPD2    C113435   1.514   1.762  11.977  0.3472 -0.4986 -0.1104
  918MPD2    C213436   1.513   1.646  11.908  0.2026 -0.5079 -0.3365
  918MPD2    C313437   1.398   1.572  11.903 -0.1102 -0.3873  0.4370
  918MPD2    C413438   1.291   1.618  11.978  0.0318  0.2358  0.0020
  918MPD2    C513439   1.293   1.742  12.044  0.0143  0.1541  0.3307
  918MPD2     H13440   1.602   1.619  11.853  0.4714 -1.1976  0.4374
  918MPD2    H113441   1.198   1.563  11.982  0.2902 -0.2213 -0.3242
  918MPD2    H213442   1.400   1.910  12.097 -0.3146 -0.7831  1.4626
  918MPD2    H313443   1.206   1.771  12.101 -1.3813 -0.7388 -1.3383
  918MPD2     N13444   1.393   1.454  11.830 -0.0294 -0.1959  0.1169
  918MPD2    H513445   1.476   1.444  11.773  0.7798  1.7680  0.9455
  918MPD2    N113446   1.643   1.814  11.980 -0.1166 -0.0694 -0.0225
  918MPD2    H713447   1.712   1.760  11.930  0.0910  0.3176 -0.1567
  919MPD2     C13448   2.083   0.412  11.222  0.1265  0.2813 -0.0048
  919MPD2    C113449   2.108   0.281  11.223  0.2299 -0.4197 -0.7661
  919MPD2    C213450   2.130   0.215  11.106  0.0845  0.5462 -0.7008
  919MPD2    C313451   2.098   0.254  10.977  0.9980  0.6579 -0.0915
  919MPD2    C413452   2.043   0.382  10.980  0.2729 -0.2338 -0.6409
  919MPD2    C513453   2.040   0.454  11.099 -0.0562  0.2561  0.0745
  919MPD2     H13454   2.157   0.110  11.112 -0.8425  0.3057 -0.7820
  919MPD2    H113455   2.017   0.448  10.897  3.0028 -0.2349 -1.4845
  919MPD2    H213456   2.070   0.480  11.306 -0.7231  0.1818 -0.0605
  919MPD2    H313457   2.021   0.559  11.085 -0.6740 -0.2478 -2.7721
  919MPD2     N13458   2.105   0.176  10.855  0.2422  0.2719 -0.4057
  919MPD2    H513459   2.081   0.219  10.766  3.0168 -0.4334 -1.5190
  919MPD2    N113460   2.111   0.208  11.339  0.2081  0.5280 -0.3830
  919MPD2    H713461   2.146   0.113  11.326 -2.6450 -0.6845  0.7396
  920MPD2     C13462   2.140   0.517  10.089  0.0943 -0.1541  0.2239
  920MPD2    C113463   2.049   0.507  10.197  0.0166 -0.1249  0.0943
  920MPD2    C213464   2.073   0.415  10.298 -0.0616 -0.0414 -1.0781
  920MPD2    C313465   2.186   0.341  10.294 -0.1886 -0.9744  0.7402
  920MPD2    C413466   2.278   0.360  10.193  0.0607  0.0726 -0.0639
  920MPD2    C513467   2.255   0.451  10.093  0.0270  0.4894 -0.2437
  920MPD2     H13468   1.993   0.398  10.369 -0.4796 -1.3561 -1.8550
  920MPD2    H113469   2.371   0.306  10.182  0.1845  0.5081 -1.1972
  920MPD2    H213470   2.114   0.574  10.001  0.4790  0.5786  0.5924
  920MPD2    H313471   2.314   0.460  10.003 -0.9636 -0.3418 -0.9792
  920MPD2     N13472   2.202   0.238  10.395 -0.2068 -0.2131  0.2361
  920MPD2    H513473   2.126   0.228  10.461  0.9303  0.0645  1.5825
  920MPD2    N113474   1.918   0.567  10.197  0.2450  0.8913 -0.0202
  920MPD2    H713475   1.847   0.510  10.241  1.8761 -1.3811 -0.3614
  921MPD2     C13476   2.537   4.585  16.886  0.0044  0.7227  0.4533
  921MPD2    C113477   2.568   4.454  16.861  0.0342  0.2144 -0.9176
  921MPD2    C213478   2.468   4.367  16.812 -0.8702 -0.3344  0.3448
  921MPD2    C313479   2.347   4.423  16.780 -0.2590 -1.3426 -0.5613
  921MPD2    C413480   2.318   4.554  16.797  0.3831  0.6565  0.3056
  921MPD2    C513481   2.412   4.632  16.856  0.2187  0.4497 -0.3544
  921MPD2     H13482   2.493   4.265  16.785 -0.8051 -0.3049  0.2938
  921MPD2    H113483   2.227   4.597  16.758 -0.9894 -2.7659 -0.2675
  921MPD2    H213484   2.613   4.654  16.922 -0.2478  1.4864 -0.4565
  921MPD2    H313485   2.394   0.016  16.885  0.8280 -0.2183  2.3735
  921MPD2     N13486   2.248   4.343  16.714  0.2638  0.3700  0.5088
  921MPD2    H513487   2.168   4.396  16.681 -0.1564  0.7444  2.1285
  921MPD2    N113488   2.707   4.425  16.871 -0.1673 -0.1852  1.1675
  921MPD2    H713489   2.775   4.501  16.874  1.0759 -1.2340 -0.7695
  922MPD2     C13490   3.957   1.854   0.192 -0.3581  0.0656  0.3547
  922MPD2    C113491   3.941   1.967   0.104 -0.0598  0.1088  0.0777
  922MPD2    C213492   3.814   2.010   0.091  0.3948 -0.2859  0.1020
  922MPD2    C313493   3.713   1.958   0.162  0.3610  0.3240 -0.0006
  922MPD2    C413494   3.734   1.853   0.256 -0.3239  0.2173 -0.6229
  922MPD2    C513495   3.861   1.795   0.270 -0.3475 -0.0244 -0.6324
  922MPD2     H13496   3.793   2.098   0.031 -2.7782 -0.4697  0.9515
  922MPD2    H113497   3.666   1.815   0.331  0.3877  2.3950  1.1168
  922MPD2    H213498   4.054   1.807   0.188  0.9117  2.7237  0.1772
  922MPD2    H313499   3.888   1.722   0.346 -1.0437  1.2224  0.8144
  922MPD2     N13500   3.587   2.013   0.167 -0.5495  0.5660 -0.3292
  922MPD2    H513501   3.522   1.950   0.212  0.7539 -1.4831 -1.2959
  922MPD2    N113502   4.040   2.018   0.021 -0.0737 -0.4134 -0.4799
  922MPD2    H713503   4.016   2.090  17.629  1.0723  1.0493  0.6584
  923MPD2     C13504   1.249   3.092   9.236  0.0910  0.1166 -0.1907
  923MPD2    C113505   1.174   3.142   9.343 -0.3985  0.6154  0.3002
  923MPD2    C213506   1.234   3.164   9.461  0.3093  0.0804 -1.0516
  923MPD2    C313507   1.369   3.161   9.481 -0.2935  0.3293 -0.6279
  923MPD2    C413508   1.446   3.125   9.369  0.5393 -0.1291  0.4436
  923MPD2    C513509   1.384   3.090   9.253  0.0368 -0.3069 -0.4764
  923MPD2     H13510   1.168   3.194   9.542  1.9118 -1.5479  0.8704
  923MPD2    H113511   1.553   3.114   9.382  0.8127  0.1114 -1.5069
  923MPD2    H213512   1.199   3.069   9.143  0.0395 -1.2708  0.1852
  923MPD2    H313513   1.441   3.042   9.175 -1.0494  0.5378 -1.7851
  923MPD2     N13514   1.435   3.212   9.598  0.0716  0.1781  0.1157
  923MPD2    H513515   1.536   3.206   9.607  0.0697  1.6151  1.0040
  923MPD2    N113516   1.034   3.161   9.322 -0.0555 -0.0222 -0.2415
  923MPD2    H713517   0.989   3.124   9.238  0.0965  1.6555 -1.0716
  924MPD2     C13518   0.010   2.147  16.135  0.4823 -0.1996  0.3896
  924MPD2    C113519   4.644   2.087  16.221 -0.3542  0.1398  0.0658
  924MPD2    C213520   4.698   2.050  16.342  1.1333  0.2492 -0.0706
  924MPD2    C313521   0.109   2.084  16.385  0.0991 -0.3371  0.6894
  924MPD2    C413522   0.191   2.142  16.292  0.4232  0.6182  0.1008
  924MPD2    C513523   0.140   2.180  16.170 -0.1781  0.0026  0.1396
  924MPD2     H13524   4.643   1.983  16.407 -2.0076  0.9240 -2.0720
  924MPD2    H113525   0.298   2.153  16.305  0.0713  1.4269  2.2438
  924MPD2    H213526   4.686   2.163  16.037 -1.1380  0.4195  1.1881
  924MPD2    H313527   0.214   2.217  16.101  0.9742  0.2207  1.4831
  924MPD2     N13528   0.162   2.052  16.512  0.4106 -0.4109  0.5664
  924MPD2    H513529   0.261   2.073  16.521 -0.2233  1.3247  3.3754
  924MPD2    N113530   4.514   2.064  16.182 -0.4431  0.5374 -0.5133
  924MPD2    H713531   4.494   2.071  16.082  0.2134  0.7100 -0.6287
  925MPD2     C13532   3.815   4.681  14.851  0.0312 -0.0832 -0.4519
  925MPD2    C113533   3.685   4.702  14.812 -0.4209  0.7110 -0.0203
  925MPD2    C213534   3.574   4.700  14.905 -0.5689  0.5671 -0.2564
  925MPD2    C313535   3.609   4.656  15.035 -0.4995 -0.2917  0.2083
  925MPD2    C413536   3.741   4.631  15.068  0.5662  0.1100 -0.5164
  925MPD2    C513537   3.844   4.643  14.982 -0.3551 -0.4752  0.2604
  925MPD2     H13538   3.474   4.716  14.866 -1.5867 -1.9012  1.3078
  925MPD2    H113539   3.761   4.597  15.169  0.4290  2.8848  0.4600
  925MPD2    H213540   3.897   4.703  14.784 -1.1716  0.5763 -1.7113
  925MPD2    H313541   3.945   4.617  15.011  0.0705 -1.0049 -1.6720
  925MPD2     N13542   3.510   4.638  15.131  0.6280 -0.3990  0.2330
  925MPD2    H513543   3.538   4.609  15.224  1.3755 -1.0507 -0.1966
  925MPD2    N113544   3.655   0.032  14.681  0.1887  1.0379 -0.0638
  925MPD2    H713545   3.554   0.035  14.671  0.2124  2.7886  0.1983
  926MPD2     C13546   2.489   3.279  13.746 -0.2274 -0.2629  0.1868
  926MPD2    C113547   2.398   3.359  13.674 -0.5565 -0.1816 -0.1307
  926MPD2    C213548   2.439   3.395  13.542  0.2301 -0.0101  0.4331
  926MPD2    C313549   2.564   3.371  13.501  0.0825 -0.7402  0.6860
  926MPD2    C413550   2.651   3.281  13.568  0.1775  0.0958  0.0735
  926MPD2    C513551   2.608   3.234  13.689 -0.8446 -0.1285 -0.4350
  926MPD2     H13552   2.370   3.443  13.473  0.8766  2.3394  1.4507
  926MPD2    H113553   2.746   3.247  13.529  0.8079  0.3593  1.3634
  926MPD2    H213554   2.471   3.231  13.842 -0.8913  1.8067  1.1230
  926MPD2    H313555   2.665   3.163  13.748 -0.9204  1.9331  2.1148
  926MPD2     N13556   2.621   3.443  13.391  0.0674  0.0021  0.1074
  926MPD2    H513557   2.703   3.398  13.351  0.7639  1.7485 -0.4451
  926MPD2    N113558   2.267   3.387  13.727  1.3339 -0.5907 -0.2183
  926MPD2    H713559   2.212   3.448  13.667 -1.0051 -0.4028  2.1596
  927MPD2     C13560   1.659   0.698   0.727  0.5303 -0.4913 -0.4306
  927MPD2    C113561   1.736   0.810   0.729  0.1717 -0.1749 -0.1232
  927MPD2    C213562   1.809   0.844   0.610 -0.5408  0.2578  0.1168
  927MPD2    C313563   1.806   0.764   0.497 -0.0192  0.8004  0.1350
  927MPD2    C413564   1.736   0.652   0.496 -0.0725 -0.2983  0.2157
  927MPD2    C513565   1.671   0.615   0.616 -0.5610  0.1110  0.7072
  927MPD2     H13566   1.855   0.942   0.604 -1.1565  0.3963 -2.2182
  927MPD2    H113567   1.731   0.589   0.408 -0.4558 -0.7495  0.5578
  927MPD2    H213568   1.587   0.668   0.802 -0.8084  1.1169 -1.0730
  927MPD2    H313569   1.620   0.520   0.621  1.0249 -0.7954 -0.4624
  927MPD2     N13570   1.853   0.820   0.377  0.1530 -0.2389 -0.5414
  927MPD2    H513571   1.888   0.915   0.385  1.4330 -0.6375 -1.4030
  927MPD2    N113572   1.726   0.899   0.835 -0.2275 -0.4822  0.0946
  927MPD2    H713573   1.651   0.882   0.902 -0.6137  1.8796  0.2644
  928MPD2     C13574   0.857   4.076   1.606 -0.4118 -0.0944  0.1531
  928MPD2    C113575   0.802   4.209   1.597 -0.2604 -0.6243 -0.4365
  928MPD2    C213576   0.758   4.253   1.473 -0.0953 -0.2044 -0.0236
  928MPD2    C313577   0.776   4.176   1.364  0.2583 -0.0843 -0.3768
  928MPD2    C413578   0.824   4.048   1.377  0.1052 -0.1176  0.3431
  928MPD2    C513579   0.860   3.993   1.497 -0.1676 -0.1315  0.0072
  928MPD2     H13580   0.723   4.355   1.462  0.0875 -0.2977 -1.5167
  928MPD2    H113581   0.844   3.982   1.293  1.1657  1.2428 -0.4754
  928MPD2    H213582   0.898   4.036   1.698 -0.2432  2.2635  1.0834
  928MPD2    H313583   0.903   3.894   1.510 -0.4979 -0.4676 -1.4805
  928MPD2     N13584   0.762   4.241   1.238 -0.1041  0.0965 -0.4351
  928MPD2    H513585   0.716   4.331   1.229  0.4102  0.2785 -1.2556
  928MPD2    N113586   0.802   4.291   1.714  0.3695  0.3889  0.2490
  928MPD2    H713587   0.854   4.250   1.790 -1.2655  0.3870  1.3671
  929MPD2     C13588   4.265   3.013   9.514 -0.3993 -0.0945 -0.5716
  929MPD2    C113589   4.169   3.008   9.613  0.0403 -0.6880  0.6115
  929MPD2    C213590   4.137   3.129   9.675 -0.2674 -0.3664 -0.8820
  929MPD2    C313591   4.215   3.241   9.658 -0.1884 -1.0357 -0.2701
  929MPD2    C413592   4.306   3.245   9.547  0.1082  0.1272  0.6469
  929MPD2    C513593   4.335   3.128   9.480  0.5394  0.7181 -0.2049
  929MPD2     H13594   4.068   3.131   9.758 -0.9862 -0.5446 -1.4746
  929MPD2    H113595   4.363   3.333   9.522 -1.1349  0.3735 -1.2727
  929MPD2    H213596   4.306   2.917   9.485 -0.5148 -0.3759  0.1854
  929MPD2    H313597   4.416   3.132   9.408  0.3579 -0.3985 -0.4552
  929MPD2     N13598   4.220   3.350   9.751  0.2374 -0.2581 -0.0108
  929MPD2    H513599   4.299   3.413   9.738 -0.4182  0.9683  1.8855
  929MPD2    N113600   4.116   2.880   9.643  0.3444  0.3509 -0.0721
  929MPD2    H713601   4.144   2.802   9.585 -0.3419 -0.7025  1.0124
  930MPD2     C13602   1.528   1.150  13.939 -0.0854  0.8468 -0.6891
  930MPD2    C113603   1.675   1.151  13.939 -0.3080  0.1346  0.0781
  930MPD2    C213604   1.740   1.067  13.848  0.4350  0.0996  0.4071
  930MPD2    C313605   1.665   0.989  13.756 -0.0982  0.7242  0.0790
  930MPD2    C413606   1.527   0.980  13.769 -0.2508  0.3240  0.0614
  930MPD2    C513607   1.459   1.065  13.857  0.1411  0.4567 -0.0212
  930MPD2     H13608   1.848   1.068  13.839  0.4136 -3.1728 -0.3129
  930MPD2    H113609   1.468   0.919  13.702 -2.6118 -1.3862  3.6969
  930MPD2    H213610   1.469   1.216  14.001  0.7806  1.5488 -0.6063
  930MPD2    H313611   1.351   1.062  13.852  0.0823  2.1441  0.1342
  930MPD2     N13612   1.722   0.912  13.650 -0.3339  0.0570  0.3294
  930MPD2    H513613   1.664   0.835  13.618  0.8451 -0.4451 -0.6165
  930MPD2    N113614   1.738   1.247  14.021 -1.2043  0.5550 -0.0863
  930MPD2    H713615   1.682   1.309  14.078 -0.6855 -0.7562  1.8488
  931MPD2     C13616   2.387   1.058   1.236  0.7166 -0.3251 -0.3757
  931MPD2    C113617   2.273   1.048   1.307 -0.2989 -0.3921  0.1542
  931MPD2    C213618   2.279   1.003   1.438 -0.3276 -0.0776  0.0160
  931MPD2    C313619   2.396   0.952   1.492  0.0172 -0.8016 -0.3021
  931MPD2    C413620   2.514   0.960   1.421 -0.8822 -0.4530  0.3552
  931MPD2    C513621   2.512   1.022   1.296  0.2442  0.1865  0.4952
  931MPD2     H13622   2.196   1.021   1.505 -0.0327 -0.7149  0.5644
  931MPD2    H113623   2.612   0.930   1.457 -0.9975  1.2066  2.0276
  931MPD2    H213624   2.392   1.088   1.132  1.2939  0.8664 -0.0056
  931MPD2    H313625   2.599   1.031   1.231  0.3362  1.2457  0.7686
  931MPD2     N13626   2.395   0.903   1.623  0.0534  0.2304  0.3020
  931MPD2    H513627   2.487   0.873   1.657 -0.3696 -1.9595 -0.4987
  931MPD2    N113628   2.162   1.085   1.227  0.0867 -0.0769  0.3847
  931MPD2    H713629   2.177   1.115   1.132  0.2320 -1.9300 -0.1822
  932MPD2     C13630   3.485   4.266  10.863 -0.6101  0.0102 -0.0110
  932MPD2    C113631   3.561   4.311  10.970 -0.4020 -0.0218 -0.3162
  932MPD2    C213632   3.638   4.224  11.047 -0.6092 -0.1565 -0.3331
  932MPD2    C313633   3.622   4.085  11.036 -0.1585 -0.2098  0.4545
  932MPD2    C413634   3.533   4.042  10.941  1.2537 -0.4565  0.1644
  932MPD2    C513635   3.460   4.129  10.864  0.0642  0.3107 -0.5290
  932MPD2     H13636   3.692   4.254  11.136  0.5505 -0.0849 -1.0640
  932MPD2    H113637   3.507   3.937  10.926  0.3441 -0.1433 -0.4926
  932MPD2    H213638   3.431   4.335  10.800  2.4632  0.7858 -1.7825
  932MPD2    H313639   3.396   4.087  10.787 -0.5243  1.4234 -0.6384
  932MPD2     N13640   3.692   3.987  11.110  1.1677  0.0687  0.1370
  932MPD2    H513641   3.659   3.895  11.083  1.0147  0.2333 -0.2372
  932MPD2    N113642   3.564   4.448  10.988 -0.7358  0.3589  0.0486
  932MPD2    H713643   3.508   4.508  10.929 -0.5852 -1.3456 -1.8083
  933MPD2     C13644   0.739   0.307   2.262 -0.4390  0.2749  0.1688
  933MPD2    C113645   0.666   0.250   2.157  0.1941  0.9574 -0.4245
  933MPD2    C213646   0.543   0.314   2.112  0.2563  0.0914  0.4284
  933MPD2    C313647   0.519   0.441   2.160  0.1632  0.2867  0.1812
  933MPD2    C413648   0.606   0.498   2.250 -0.1307  0.1232 -0.2956
  933MPD2    C513649   0.710   0.428   2.304 -0.1869 -0.9176 -0.4452
  933MPD2     H13650   0.475   0.265   2.043  1.7027 -2.4991  0.8438
  933MPD2    H113651   0.590   0.602   2.278  1.1569  0.2740 -0.1246
  933MPD2    H213652   0.832   0.265   2.298 -0.6177  0.7646  1.2109
  933MPD2    H313653   0.766   0.486   2.376 -0.9485 -0.9982  0.2094
  933MPD2     N13654   0.406   0.514   2.107 -0.2492 -0.3384  0.1057
  933MPD2    H513655   0.363   0.479   2.022  0.2379 -3.6590  1.2144
  933MPD2    N113656   0.701   0.110   2.135  0.1843  0.4683  0.5944
  933MPD2    H713657   0.787   0.074   2.175 -0.5000  0.8362  2.3619
  934MPD2     C13658   0.467   1.562   2.637 -0.9256  0.0123  0.2918
  934MPD2    C113659   0.600   1.547   2.621 -0.1059  0.0232 -0.3454
  934MPD2    C213660   0.645   1.561   2.488 -0.1765 -0.4247 -1.2260
  934MPD2    C313661   0.561   1.576   2.383 -0.3503  0.2257  0.4316
  934MPD2    C413662   0.425   1.593   2.404  0.5534 -0.5168  0.0160
  934MPD2    C513663   0.378   1.582   2.531 -0.6247  0.2622  0.5081
  934MPD2     H13664   0.750   1.569   2.464  0.0802 -0.6516 -0.1607
  934MPD2    H113665   0.349   1.608   2.329  0.6354  1.0672  0.2575
  934MPD2    H213666   0.426   1.575   2.737 -1.4444 -0.7882  0.1910
  934MPD2    H313667   0.273   1.601   2.550  0.1879  3.0861  2.2536
  934MPD2     N13668   0.607   1.597   2.251  0.0946 -0.3128  0.3021
  934MPD2    H513669   0.541   1.642   2.187  1.1910 -1.2462 -1.4886
  934MPD2    N113670   0.690   1.532   2.728  0.5812  0.1445  0.3461
  934MPD2    H713671   0.790   1.525   2.712  0.4341  0.0135 -0.5069
  935MPD2     C13672   1.368   1.087   1.826  0.1281 -0.0402  0.9008
  935MPD2    C113673   1.298   1.143   1.731  0.2322 -0.5947 -0.2987
  935MPD2    C213674   1.218   1.247   1.758  0.4493 -0.3422 -0.2826
  935MPD2    C313675   1.203   1.303   1.886 -0.4050  0.1182 -0.2540
  935MPD2    C413676   1.287   1.254   1.977 -0.3850 -0.4597 -0.5115
  935MPD2    C513677   1.368   1.144   1.949  0.3209  0.5306  0.3653
  935MPD2     H13678   1.156   1.282   1.677  0.9589 -0.2680 -0.6400
  935MPD2    H113679   1.298   1.287   2.080 -1.2339 -0.4112 -0.4402
  935MPD2    H213680   1.420   0.993   1.812  0.1974  0.2710 -0.9298
  935MPD2    H313681   1.432   1.099   2.024 -0.3817 -2.9499 -1.1277
  935MPD2     N13682   1.109   1.401   1.917  0.7925 -0.3488 -0.3222
  935MPD2    H513683   1.093   1.410   2.017 -0.6516  0.3635 -0.6140
  935MPD2    N113684   1.283   1.092   1.601  0.1269  0.3907  0.2586
  935MPD2    H713685   1.218   1.127   1.530  0.1011  1.8105  0.9811
  936MPD2     C13686   3.883   3.200  12.556 -0.2568  0.7058 -0.6049
  936MPD2    C113687   4.018   3.198  12.592  0.4686  0.2566 -1.0374
  936MPD2    C213688   4.107   3.142  12.501 -0.4247 -0.0417  0.2171
  936MPD2    C313689   4.067   3.100  12.375 -0.0928  0.6578  0.0807
  936MPD2    C413690   3.932   3.117  12.337 -0.3717 -0.8827 -0.2946
  936MPD2    C513691   3.846   3.169  12.429  0.6370  0.2590 -0.6204
  936MPD2     H13692   4.206   3.120  12.538  0.1251  0.7813 -0.7421
  936MPD2    H113693   3.890   3.083  12.243  1.0197 -0.4366 -1.0870
  936MPD2    H213694   3.809   3.232  12.629  1.0576  3.0463 -0.2762
  936MPD2    H313695   3.742   3.184  12.401  0.3742 -0.7673 -0.1930
  936MPD2     N13696   4.154   3.022  12.287 -0.0572 -0.3495  0.1295
  936MPD2    H513697   4.112   2.966  12.214 -1.4267  0.3617  0.3785
  936MPD2    N113698   4.063   3.218  12.723  0.6451 -0.0613  0.3288
  936MPD2    H713699   4.163   3.209  12.741  0.8445 -2.0631 -1.8010
  937MPD2     C13700   2.356   4.337  11.535 -0.0604 -0.2447  0.2514
  937MPD2    C113701   2.403   4.467  11.533  0.5887  0.2811  0.3482
  937MPD2    C213702   2.492   4.493  11.432  0.5684  0.0468 -0.0067
  937MPD2    C313703   2.565   4.393  11.362  0.6862  0.3343  0.6803
  937MPD2    C413704   2.527   4.264  11.381 -0.2586  0.1052 -0.0680
  937MPD2    C513705   2.415   4.240  11.458  0.2792 -0.1162  0.6834
  937MPD2     H13706   2.509   4.595  11.400  0.6387 -0.5073 -1.7564
  937MPD2    H113707   2.572   4.175  11.339 -0.1535 -0.1831  0.6636
  937MPD2    H213708   2.286   4.302  11.610 -1.3482  1.0170 -0.3712
  937MPD2    H313709   2.394   4.136  11.479 -2.5566 -0.4624 -3.6471
  937MPD2     N13710   2.680   4.421  11.285 -0.3643  0.0940 -0.3225
  937MPD2    H513711   2.724   4.511  11.295 -0.0705 -0.0569 -0.2564
  937MPD2    N113712   2.331   4.577  11.586 -0.2473  0.5399 -0.3064
  937MPD2    H713713   2.371   4.667  11.564 -1.1173  0.5391 -1.9060
  938MPD2     C13714   0.195   1.716   1.068  0.9394  0.2857  0.0201
  938MPD2    C113715   0.300   1.732   1.162 -0.1114 -0.1092 -0.6747
  938MPD2    C213716   0.341   1.613   1.227  0.6753 -0.0774 -0.4655
  938MPD2    C313717   0.277   1.491   1.206  0.3925  1.0577 -0.1916
  938MPD2    C413718   0.178   1.483   1.119 -0.1944 -0.3549 -0.8065
  938MPD2    C513719   0.144   1.591   1.048 -0.5255  0.4512  0.0107
  938MPD2     H13720   0.430   1.614   1.289 -0.9251 -0.3884  1.8607
  938MPD2    H113721   0.118   1.393   1.109 -0.3203 -0.0709 -2.7569
  938MPD2    H213722   0.154   1.800   1.014  1.7978 -0.7157 -2.1923
  938MPD2    H313723   0.060   1.580   0.981  1.2052  0.6326 -2.1629
  938MPD2     N13724   0.297   1.383   1.285  0.1341 -0.0663 -1.0526
  938MPD2    H513725   0.255   1.297   1.250  0.0809 -0.6213  0.3740
  938MPD2    N113726   0.377   1.853   1.181 -0.0252  0.4971  0.3638
  938MPD2    H713727   0.445   1.848   1.255  0.3814 -0.6280 -0.0931
  939MPD2     C13728   1.985   2.472   1.611 -0.1029  0.0085 -0.1608
  939MPD2    C113729   1.872   2.552   1.592 -0.1410  0.0094 -0.2099
  939MPD2    C213730   1.827   2.569   1.462  0.1694  0.1772  0.4766
  939MPD2    C313731   1.890   2.505   1.351 -0.7333  0.6416 -0.4587
  939MPD2    C413732   1.993   2.418   1.375 -0.0178 -0.2544 -0.2425
  939MPD2    C513733   2.045   2.405   1.502  0.0613  0.3559  0.7271
  939MPD2     H13734   1.736   2.624   1.442 -1.2868 -1.7408  1.7581
  939MPD2    H113735   2.029   2.349   1.300  0.9064  1.6004 -1.5138
  939MPD2    H213736   2.024   2.449   1.710  0.5501 -3.7799 -1.2899
  939MPD2    H313737   2.131   2.343   1.520  0.7779  1.9182  2.6766
  939MPD2     N13738   1.824   2.516   1.226 -0.2880  0.4978  0.5792
  939MPD2    H513739   1.761   2.594   1.210 -1.2030 -0.0931  1.3352
  939MPD2    N113740   1.821   2.613   1.708  0.1602 -0.4591 -0.4378
  939MPD2    H713741   1.868   2.594   1.796  2.9751  2.0711 -1.4160
  940MPD2     C13742   4.613   2.888  12.831 -0.3184 -0.4224  0.0413
  940MPD2    C113743   4.694   2.872  12.937  0.2391 -0.1368  0.1614
  940MPD2    C213744   0.082   2.787  12.921  1.1544  0.0264  0.2721
  940MPD2    C313745   0.104   2.725  12.798 -0.0611  0.2456  0.6533
  940MPD2    C413746   0.029   2.751  12.693 -0.2648 -0.1910  0.3404
  940MPD2    C513747   4.635   2.828  12.714 -0.0154 -0.5423 -0.1456
  940MPD2     H13748   0.145   2.763  13.005  3.6959  1.2107 -1.2959
  940MPD2    H113749   0.040   2.702  12.598 -0.5481 -2.4987  1.4975
  940MPD2    H213750   4.534   2.961  12.842  0.1666 -0.0646  1.1693
  940MPD2    H313751   4.586   2.863  12.624  1.1470  3.2400  0.6776
  940MPD2     N13752   0.211   2.640  12.780 -0.0990 -0.1792 -0.5091
  940MPD2    H513753   0.202   2.584  12.695  0.9763 -0.6517 -0.3021
  940MPD2    N113754   4.669   2.935  13.058  0.4333 -0.3990  0.0357
  940MPD2    H713755   0.012   2.894  13.128 -0.2560 -0.2600  0.7265
  941MPD2     C13756   0.269   1.651   9.461  0.0286 -0.0408  0.3312
  941MPD2    C113757   0.191   1.614   9.574  0.1489  0.8934 -0.2857
  941MPD2    C213758   0.173   1.480   9.603 -0.0384  0.3228 -0.3459
  941MPD2    C313759   0.217   1.380   9.526 -0.1359  0.7328  0.5390
  941MPD2    C413760   0.299   1.416   9.420  0.2004  0.6178 -0.0483
  941MPD2    C513761   0.320   1.548   9.388 -0.3507  0.5100  0.0163
  941MPD2     H13762   0.109   1.456   9.687 -0.8681 -0.1247 -1.1039
  941MPD2    H113763   0.354   1.341   9.364 -0.3356  0.1064  0.1145
  941MPD2    H213764   0.293   1.753   9.435  0.4272  0.1469  1.4323
  941MPD2    H313765   0.386   1.581   9.309 -0.0963  3.1237  1.3259
  941MPD2     N13766   0.216   1.245   9.558  0.6169  0.2973 -0.2749
  941MPD2    H513767   0.250   1.179   9.490  2.0567 -1.5481  2.2694
  941MPD2    N113768   0.117   1.706   9.649  0.3700 -0.4831 -0.0542
  941MPD2    H713769   0.068   1.659   9.725 -0.2592 -0.5287 -0.4911
  942MPD2     C13770   4.543   2.785   9.489  0.4826  0.6684 -0.4408
  942MPD2    C113771   4.561   2.684   9.399  0.1845 -0.2189 -0.3575
  942MPD2    C213772   4.687   2.670   9.345 -0.1873 -0.3016  0.4521
  942MPD2    C313773   0.074   2.751   9.373 -0.9025 -0.5654 -0.5993
  942MPD2    C413774   0.048   2.866   9.455  0.4114  0.3891 -0.2051
  942MPD2    C513775   4.648   2.872   9.516  0.5667  0.3294 -0.3944
  942MPD2     H13776   4.691   2.587   9.277  0.9342  0.2243 -0.1210
  942MPD2    H113777   0.126   2.938   9.478 -1.3102  2.4159 -0.7015
  942MPD2    H213778   4.449   2.789   9.542 -1.0300 -1.0528 -3.0433
  942MPD2    H313779   4.630   2.954   9.585 -0.7670 -1.1611  1.0193
  942MPD2     N13780   0.200   2.737   9.317  0.4775  0.0253  0.2391
  942MPD2    H513781   0.273   2.806   9.335  0.0431  0.7864 -0.9811
  942MPD2    N113782   4.463   2.598   9.355 -0.1567 -0.5136 -0.2519
  942MPD2    H713783   4.505   2.527   9.296 -2.2596 -0.8902 -1.3056
  943MPD2     C13784   3.374   1.839   9.951 -0.4477  0.0005 -0.0162
  943MPD2    C113785   3.266   1.845   9.866 -0.3649  0.2542  0.1464
  943MPD2    C213786   3.257   1.938   9.759  0.1966 -0.5519  0.7537
  943MPD2    C313787   3.368   2.022   9.738 -0.7511  0.1151  0.3545
  943MPD2    C413788   3.483   1.999   9.822 -0.3533  0.6884 -0.1871
  943MPD2    C513789   3.483   1.923   9.934  0.0404 -0.6043  0.1888
  943MPD2     H13790   3.174   1.948   9.690  1.3010  2.5865 -0.1184
  943MPD2    H113791   3.576   2.055   9.808  0.1351 -0.2355 -0.6493
  943MPD2    H213792   3.368   1.769  10.034  0.3030 -1.6681 -1.3645
  943MPD2    H313793   3.573   1.909   9.992  0.5174  3.2254  0.3903
  943MPD2     N13794   3.369   2.112   9.633 -0.0750 -0.3230 -0.1275
  943MPD2    H513795   3.454   2.157   9.600 -0.8437 -0.1406 -1.8183
  943MPD2    N113796   3.161   1.747   9.885  0.0733 -0.0131  0.0494
  943MPD2    H713797   3.162   1.687   9.967 -3.2826 -0.3179 -0.1250
  944MPD2     C13798   2.673   0.797  11.534 -0.5627 -0.6519  0.5793
  944MPD2    C113799   2.627   0.791  11.407  0.0801  0.2835  0.1632
  944MPD2    C213800   2.621   0.902  11.339  0.2418 -0.5594  0.0248
  944MPD2    C313801   2.668   1.021  11.396  0.9688  0.3102  0.1928
  944MPD2    C413802   2.713   1.027  11.527 -0.7148  0.8361  0.7674
  944MPD2    C513803   2.711   0.915  11.598  0.4406 -0.4407 -0.0249
  944MPD2     H13804   2.588   0.891  11.237 -2.6514  1.3752  0.7554
  944MPD2    H113805   2.760   1.110  11.578  0.2878  0.6017  0.2228
  944MPD2    H213806   2.663   0.708  11.595 -0.6080 -0.1664  1.2820
  944MPD2    H313807   2.741   0.922  11.702  0.1376 -0.2417  0.0503
  944MPD2     N13808   2.645   1.142  11.324 -0.0162 -0.1900  0.1694
  944MPD2    H513809   2.622   1.139  11.225 -0.0987 -0.2539  0.1903
  944MPD2    N113810   2.586   0.658  11.367 -0.3275 -0.1728 -0.4590
  944MPD2    H713811   2.617   0.585  11.430  2.1685  0.3578 -1.1005
    1TCq1    O113812   0.267   1.859  14.271 -0.2718 -0.2820  0.0296
    1TCq1    C113813   0.381   1.902  14.321 -0.2823 -0.5502 -0.4118
    1TCq1    O213814   0.478   1.842  14.366  0.2171  0.1241  0.7915
    1TCq1    C213815   0.375   2.048  14.340 -0.8337  0.2200  0.2490
    1TCq1    C313816   0.313   2.120  14.244 -0.2508  0.3455  0.4780
    1TCq1    C413817   0.357   2.245  14.226 -0.4788 -0.1489  0.0064
    1TCq1    C513818   0.450   2.304  14.298 -0.1435 -0.5637  0.1641
    1TCq1    C613819   0.510   2.229  14.399  0.4820  0.0864  0.2563
    1TCq1    C713820   0.466   2.100  14.425 -0.0606  0.1465  0.1732
    1TCq1    C813821   0.565   2.306  14.515  0.0075 -0.0999  0.1067
    1TCq1    O413822   0.534   2.255  14.625 -0.4012  0.5388 -0.3131
    1TCq1    C913823   0.312   2.314  14.105 -0.0742  1.2405  0.5463
    1TCq1    O513824   0.279   2.237  14.014  0.2709 -0.0803 -0.4423
    1TCq1    O613825   0.337   2.432  14.089  0.3949 -0.5832 -0.9516
    1TCq1    H113826   0.205   1.934  14.276  0.4086  0.3040 -0.2519
    1TCq1    H213827   0.254   2.071  14.167 -0.9172  1.0807  0.5114
    1TCq1    H313828   0.476   2.407  14.277  0.2716 -0.5599  0.6901
    1TCq1    H413829   0.516   2.043  14.503 -0.6258 -0.1047  0.3498
    2MPD2     C13830   0.822   2.687  14.747 -1.0083  0.1249 -0.1095
    2MPD2    C113831   0.841   2.700  14.614  0.3501  0.0663 -0.1098
    2MPD2    C213832   0.778   2.610  14.526  0.1160 -0.4491 -0.0487
    2MPD2    C313833   0.695   2.516  14.576 -0.8077 -0.5697  0.1785
    2MPD2    C413834   0.660   2.516  14.709  0.5498 -0.4962 -0.4326
    2MPD2    C513835   0.731   2.597  14.791 -0.4760  0.4142 -0.3923
    2MPD2     H13836   0.802   2.609  14.420  1.8242 -0.2738  0.3378
    2MPD2    H113837   0.587   2.449  14.753  0.6757 -0.8856 -0.8113
    2MPD2    H213838   0.863   2.747  14.827  0.7938 -1.2562  0.0095
    2MPD2    H313839   0.719   2.584  14.898  1.1520  2.5814  0.0552
    2MPD2     N13840   0.636   2.421  14.479 -0.4902 -0.3406  0.1636
    2MPD2    H513841   0.675   2.424  14.386  1.9379  0.7699  1.2241
    2MPD2    N113842   0.911   2.815  14.568 -0.3863 -0.3958 -0.3027
    2MPD2    H713843   0.954   2.870  14.641 -0.7428 -0.7420  0.1710
    3TMC2    C113844   0.986   2.985  14.423 -0.2746  0.0831 -0.2370
    3TMC2    C213845   0.979   3.069  14.532  0.3437 -0.9500  0.0305
    3TMC2    C313846   1.013   3.199  14.516  0.2074  0.5546 -0.2543
    3TMC2    C413847   1.028   3.023  14.301  0.0343 -0.0104  0.7321
    3TMC2    C513848   1.070   3.153  14.290  0.1709  0.3721  0.1208
    3TMC2    C613849   1.059   3.240  14.393  0.8725 -0.3119 -0.0310
    3TMC2     C13850   0.923   2.853  14.433  0.3793  0.2320 -0.0321
    3TMC2     O13851   0.876   2.807  14.328  0.2029  0.3480 -0.1324
    3TMC2     H13852   0.936   3.040  14.627  0.5404 -0.4645  0.2684
    3TMC2    H113853   1.040   2.952  14.220  0.3324 -1.1701  1.7964
    3TMC2    H213854   1.118   3.331  14.388  0.2458 -0.0249 -2.0591
    3TMC2    C713855   1.171   3.179  14.181 -0.3508 -0.0698 -0.0863
    3TMC2    C813856   1.037   3.281  14.633 -0.3107 -0.2531 -0.1962
    3TMC2    O113857   1.208   3.084  14.116  0.0587 -0.1678 -0.6706
    3TMC2    O213858   1.009   3.240  14.747 -0.4647 -0.0523  0.3989
    3TMC2    O513859   1.007   3.407  14.595  0.0127 -0.2622  0.1191
    3TMC2    H513860   0.994   3.436  14.502 -1.5238  2.2226  1.0974
    4MPD2     C13861   0.745   3.991  13.167 -0.1645  0.5922  0.0341
    4MPD2    C113862   0.693   3.950  13.285 -0.2669  0.4415 -0.5209
    4MPD2    C213863   0.770   3.967  13.399  0.5638  0.5322 -0.1953
    4MPD2    C313864   0.900   4.019  13.395 -0.0914  0.3235 -0.3206
    4MPD2    C413865   0.933   4.086  13.277  0.2498 -0.5867 -0.4570
    4MPD2    C513866   0.864   4.060  13.162  0.3487  0.2974 -0.5791
    4MPD2     H13867   0.727   3.929  13.490  0.4429  1.5361  0.1683
    4MPD2    H113868   1.032   4.129  13.271 -0.2705  0.7778  0.7109
    4MPD2    H213869   0.678   3.972  13.084 -1.4953  1.6579  0.8712
    4MPD2    H313870   0.888   4.103  13.065  2.0159  2.1427  0.6553
    4MPD2     N13871   0.971   4.027  13.519  0.2161  0.3346 -0.3902
    4MPD2    H513872   0.922   3.987  13.599 -1.9229  1.2575 -1.2405
    4MPD2    N113873   0.573   3.867  13.275 -0.3800 -0.3313  0.0581
    4MPD2    H713874   0.539   3.854  13.180  0.2680 -0.1472 -0.1936
    5TCq2    C113875   1.094   4.077  13.533 -0.6019  0.1931 -0.4684
    5TCq2    O213876   1.158   4.144  13.453  0.3272  0.6497 -0.5111
    5TCq2    C213877   1.170   4.047  13.656  0.5133  0.5981  0.1453
    5TCq2    C313878   1.290   4.107  13.671  0.6655  0.3544  0.7467
    5TCq2    C413879   1.391   4.060  13.746 -0.9847  0.4555  0.4345
    5TCq2    C513880   1.364   3.949  13.829  0.1775 -0.2943  0.4449
    5TCq2    C613881   1.238   3.895  13.824 -0.0132 -0.1531  0.5466
    5TCq2    C713882   1.142   3.943  13.741  0.1824  0.1221 -0.0391
    5TCq2    C813883   1.213   3.774  13.903  1.0627 -0.3070 -0.2379
    5TCq2    O413884   1.101   3.740  13.933  0.2942  0.4574  0.4715
    5TCq2    C913885   1.517   4.127  13.759 -0.1524 -0.7110 -0.1509
    5TCq2    O513886   1.537   4.228  13.688 -0.0656  0.7364  0.3068
    5TCq2    O613887   1.602   4.087  13.842  0.1192 -0.6036 -0.4807
    5TCq2    H213888   1.316   4.197  13.618 -0.6965  0.5734  0.4505
    5TCq2    H313889   1.443   3.927  13.901  0.4029 -0.3403  0.1822
    5TCq2    H413890   1.048   3.890  13.737  0.1453  0.0143  2.2573
    6MPD1     C13891   3.851   4.316  13.152  0.1796 -0.1328  0.5664
    6MPD1    C113892   3.794   4.211  13.078  0.0285 -0.1467 -0.2742
    6MPD1    C213893   3.853   4.088  13.089 -0.7125 -0.0020  1.1478
    6MPD1    C313894   3.953   4.067  13.179  0.1164 -0.1217 -0.6079
    6MPD1    C413895   4.004   4.171  13.256 -0.0835 -0.5737  0.3711
    6MPD1    C513896   3.957   4.295  13.241  0.0218 -0.1722  0.1371
    6MPD1     H13897   3.818   4.005  13.029 -2.3746  1.4235  0.1749
    6MPD1    H113898   4.075   4.147  13.335  1.9803  1.1561 -0.9269
    6MPD1    H213899   3.795   4.409  13.145  1.6318  0.8939  2.4483
    6MPD1    H313900   3.986   4.378  13.304  1.5929  0.6973 -1.7553
    6MPD1     N13901   4.007   3.936  13.196 -0.3421 -0.2669 -0.2746
    6MPD1    H513902   4.087   3.933  13.258 -1.3326  0.0663  1.0164
    6MPD1    N113903   3.706   4.234  12.969 -0.2294  0.5431  0.3718
    6MPD1    H613904   3.653   4.321  12.965 -1.5995 -0.3429 -1.1575
    6MPD1    H713905   3.637   4.163  12.942  0.5909 -0.4695  0.9555
    7MPD2     C13906   4.475   3.839  13.635 -0.4482 -0.2379  0.2349
    7MPD2    C113907   4.484   3.737  13.542  0.2093  0.1669 -0.0445
    7MPD2    C213908   4.593   3.658  13.534 -0.4588 -0.3625  0.1995
    7MPD2    C313909   4.711   3.689  13.601  0.0474 -0.1535  1.2651
    7MPD2    C413910   4.705   3.794  13.693  1.1105 -0.0793  0.5345
    7MPD2    C513911   4.585   3.866  13.711  0.0300  0.5055  0.2972
    7MPD2     H13912   4.581   3.573  13.468 -3.0795  0.7040 -0.7207
    7MPD2    H113913   0.073   3.830  13.748  2.0466  0.8230 -1.5108
    7MPD2    H213914   4.384   3.896  13.648  0.9198  1.7586  1.0226
    7MPD2    H313915   4.578   3.952  13.777 -3.0246 -0.4210  1.2100
    7MPD2     N13916   0.120   3.624  13.573 -0.1026 -0.1409  0.8122
    7MPD2    H513917   0.197   3.657  13.630 -0.1798  0.8660  0.3345
    7MPD2    N113918   4.358   3.708  13.476 -0.3937 -0.5282 -0.6922
    7MPD2    H713919   4.283   3.773  13.497 -0.8080 -0.4715 -2.3814
    8TMC3    C113920   0.279   3.542  13.427  0.0780  0.1653  0.3845
    8TMC3    C213921   0.340   3.665  13.453  0.3611 -0.0845 -0.0810
    8TMC3    C313922   0.405   3.727  13.344 -0.0618  0.1130 -1.0161
    8TMC3    C413923   0.296   3.479  13.313 -0.0414 -0.6300  0.2387
    8TMC3    C513924   0.345   3.544  13.205 -0.1611  0.4522  0.2963
    8TMC3    C613925   0.412   3.662  13.221 -0.6252 -0.3216  0.4107
    8TMC3     C13926   0.141   3.546  13.458 -0.1586  0.1208  0.4458
    8TMC3     O13927   0.069   3.485  13.376 -0.1837  0.3381  0.1277
    8TMC3     H13928   0.336   3.725  13.543  0.0730  0.5028 -0.4848
    8TMC3    H113929   0.266   3.376  13.303 -0.7544 -0.4719  0.8131
    8TMC3    H213930   0.453   3.701  13.129 -1.4990  1.6109  0.8272
    8TMC3    C713931   0.279   3.531  13.075  0.7539 -0.1221 -0.1539
    8TMC3    C813932   0.487   3.834  13.377  0.3986  0.0145 -0.4078
    8TMC3    O113933   0.334   3.578  12.974 -0.1935  0.6860 -0.3251
    8TMC3    O213934   0.472   3.892  13.484 -0.0263 -0.0351 -0.2342
    9TMC3    C113935   4.080   3.723  13.141  0.3372 -0.5222  0.8477
    9TMC3    C213936   4.091   3.616  13.052  0.0876 -0.7767 -0.1310
    9TMC3    C313937   4.171   3.509  13.093  0.4446  0.1929  0.0379
    9TMC3    C413938   4.152   3.720  13.258 -0.8470  0.1114  0.3639
    9TMC3    C513939   4.217   3.605  13.302  0.3746  0.2341 -0.0096
    9TMC3    C613940   4.213   3.490  13.223  0.0253  0.0554  0.5908
    9TMC3     C13941   3.992   3.837  13.109 -0.1003 -0.0297 -1.1744
    9TMC3     O13942   3.931   3.834  13.002  0.6329  0.1512  0.3702
    9TMC3     H13943   4.054   3.624  12.950 -0.6458 -1.9571  0.0383
    9TMC3    H113944   4.155   3.807  13.322 -0.1238 -0.4300  1.0605
    9TMC3    H213945   4.263   3.397  13.246  2.4135  0.8846 -1.1694
    9TMC3    C713946   4.343   3.615  13.371  0.3155  0.1414  0.1003
    9TMC3    C813947   4.271   3.477  12.993  0.1482 -0.1997  0.4022
    9TMC3    O113948   4.423   3.535  13.324  0.2123  0.1278 -0.3088
    9TMC3    O213949   4.239   3.490  12.877  0.6156 -0.5141  0.2049
   10MPD2     C13950   0.053   3.512  12.880  0.3960  0.0974 -0.7893
   10MPD2    C113951   0.045   3.495  13.018  0.2033 -0.6326  0.4377
   10MPD2    C213952   4.637   3.487  13.076 -0.1031  0.6925  0.1503
   10MPD2    C313953   4.531   3.485  12.994 -0.7785 -0.9286  0.4651
   10MPD2    C413954   4.541   3.493  12.857  0.0184  0.2834  0.2480
   10MPD2    C513955   4.664   3.508  12.799 -0.3088 -0.0683 -0.1428
   10MPD2     H13956   4.624   3.463  13.180 -1.1843 -2.2588 -0.6674
   10MPD2    H113957   4.454   3.490  12.792  0.3492  2.3190 -0.2994
   10MPD2    H213958   0.150   3.520  12.833  0.6639 -0.7222 -0.3700
   10MPD2    H313959   4.673   3.501  12.691 -0.2319 -3.7733  0.1165
   10MPD2     N13960   4.399   3.468  13.054  0.7702  0.3840  0.4331
   10MPD2    H513961   4.400   3.467  13.155  1.2423 -0.9493  0.4186
   10MPD2    N113962   0.153   3.498  13.104 -0.0340  0.0783  0.0516
   10MPD2    H713963   0.120   3.496  13.200  1.3967 -0.3865  0.5237
   11MPD2     C13964   1.394   3.312  14.019  0.5019 -0.4292  0.2758
   11MPD2    C113965   1.286   3.377  14.070  0.6179  0.4595  0.5477
   11MPD2    C213966   1.272   3.507  14.034 -0.3942 -0.6631  0.1511
   11MPD2    C313967   1.357   3.572  13.946  0.8456 -0.9453  0.2603
   11MPD2    C413968   1.465   3.506  13.904 -0.1168 -0.3592  0.1363
   11MPD2    C513969   1.489   3.380  13.947 -0.0841 -0.3196 -0.0565
   11MPD2     H13970   1.208   3.569  14.096  1.4369 -0.8365  2.1855
   11MPD2    H113971   1.533   3.556  13.837  1.4430 -3.0175 -0.2941
   11MPD2    H213972   1.418   3.210  14.047  0.2644 -1.4907 -3.3538
   11MPD2    H313973   1.585   3.338  13.920  0.1787 -0.2652  0.7828
   11MPD2     N13974   1.333   3.702  13.895  0.5623 -0.4454 -0.4461
   11MPD2    H513975   1.403   3.747  13.838  1.0166 -1.6124 -0.8114
   11MPD2    N113976   1.195   3.316  14.156  0.7308  0.1429 -0.7382
   11MPD2    H713977   1.127   3.378  14.199  1.7693  2.6003 -2.6253
    1MPD1     C13978   4.245   4.659  17.415  0.6788  0.7212 -0.1395
    1MPD1    C113979   4.223   4.569  17.514 -0.6489  0.5844 -0.0918
    1MPD1    C213980   4.097   4.561  17.573  0.5535  0.1896 -0.0735
    1MPD1    C313981   3.985   4.615  17.514  0.7301  0.4667 -0.4339
    1MPD1    C413982   4.007   4.679  17.389  0.5143 -0.0934  0.6652
    1MPD1    C513983   4.136   4.705  17.349  0.2986 -0.3927 -0.3175
    1MPD1     H13984   4.082   4.500  17.661  0.7971 -0.9722 -0.8362
    1MPD1    H113985   3.920   4.702  17.328  0.9700 -0.3905 -0.0950
    1MPD1    H213986   4.338   4.681  17.365  0.8762  0.1169 -0.0442
    1MPD1    H313987   4.163   0.037  17.257 -1.3727 -2.6606 -2.0425
    1MPD1     N13988   3.859   4.577  17.563  0.2507  0.4044 -0.3126
    1MPD1    H513989   3.852   4.521  17.647  1.1446 -2.2437 -1.9882
    1MPD1    N113990   4.339   4.536  17.583  0.7395  0.1256  0.2275
    1MPD1    H613991   4.418   4.522  17.520 -0.3440 -0.2217 -1.0644
    1MPD1    H713992   4.329   4.450  17.636  0.7045  0.2316  0.3899
    2MPD1     C13993   2.752   4.661  17.529 -0.5309 -0.3483  0.2019
    2MPD1    C113994   2.790   4.546  17.601  0.5432 -0.0665  0.3739
    2MPD1    C213995   2.925   4.517  17.612 -0.3016  0.2101 -0.4118
    2MPD1    C313996   3.018   4.606  17.568 -0.2614 -0.0764 -0.2463
    2MPD1    C413997   2.984   0.002  17.501  0.2210  0.0887 -0.2149
    2MPD1    C513998   2.847   0.029  17.480 -0.2011 -0.4158 -0.0965
    2MPD1     H13999   2.958   4.440   0.006 -1.1815 -0.7463 -1.0546
    2MPD1    H114000   3.049   0.075  17.454 -1.4696  1.6864 -0.0400
    2MPD1    H214001   2.652   4.700  17.519  0.5393  2.0744 -0.9400
    2MPD1    H314002   2.808   0.114  17.426 -0.9375 -0.6917  0.0012
    2MPD1     N14003   3.158   4.579  17.593 -0.4460 -0.4229 -0.2265
    2MPD1    H514004   3.177   4.485  17.623 -1.3437 -0.3154  0.6675
    2MPD1    N114005   2.700   4.465  17.670 -0.0445  0.1282  0.1008
    2MPD1    H614006   2.602   4.465  17.640  1.4470  0.8837 -4.7623
    2MPD1    H714007   2.729   4.368  17.662 -1.8246 -0.5041  1.2450
    3TMC3    C114008   3.390   4.598  17.609  0.0756 -0.5278 -0.8294
    3TMC3    C214009   3.380   4.494   0.018 -0.9285  0.0912 -0.4101
    3TMC3    C314010   3.506   4.437   0.050 -0.3835  0.3344 -0.5806
    3TMC3    C414011   3.503   4.634  17.553  0.1853 -0.4710 -0.4133
    3TMC3    C514012   3.622   4.573  17.578  0.2545 -0.8388  0.0772
    3TMC3    C614013   3.628   4.476  17.673  0.0812 -0.5021 -0.1236
    3TMC3     C14014   3.263   4.666  17.579 -0.2785 -0.2947 -0.5587
    3TMC3     O14015   3.271   0.065  17.537  0.3542 -0.1634 -0.6167
    3TMC3     H14016   3.301   4.473   0.089 -0.2205  0.5283  0.5091
    3TMC3    H114017   3.499   0.002  17.487  0.1619 -2.2598 -2.7561
    3TMC3    H214018   3.714   4.410  17.673  2.7296  2.9422 -0.5481
    3TMC3    C714019   3.737   4.621  17.507 -0.5960  0.0423 -0.3028
    3TMC3    C814020   3.513   4.357   0.171  0.7703 -0.0581  0.3001
    3TMC3    O114021   3.717   4.683  17.405  0.6119 -0.0315 -0.1514
    3TMC3    O214022   3.410   4.305   0.214  0.2178 -0.5082 -0.1103
    4MPD1     C14023   3.774   4.165   0.572 -0.1714 -0.7757 -0.3017
    4MPD1    C114024   3.849   4.258   0.507 -0.2968 -0.4478 -0.9783
    4MPD1    C214025   3.798   4.297   0.386 -0.0228 -0.6547  1.0636
    4MPD1    C314026   3.674   4.276   0.336 -0.5023  0.4813  0.2978
    4MPD1    C414027   3.601   4.190   0.410  0.7770 -0.3769  0.3373
    4MPD1    C514028   3.651   4.126   0.517 -0.7686 -0.4205 -0.4356
    4MPD1     H14029   3.855   4.374   0.335 -0.4120 -2.0512 -1.4807
    4MPD1    H114030   3.502   4.164   0.373  1.3709 -3.8871  1.1729
    4MPD1    H214031   3.799   4.113   0.664  1.0240  1.8780  0.8751
    4MPD1    H314032   3.582   4.061   0.569 -1.5446 -1.2447 -2.5275
    4MPD1     N14033   3.636   4.357   0.226  0.3818 -0.6039  0.4806
    4MPD1    H514034   3.701   4.428   0.195 -0.2457 -0.1224  0.2865
    4MPD1    N114035   3.983   4.273   0.543  0.5292 -0.5448 -0.5080
    4MPD1    H614036   4.006   4.250   0.640  0.1592  1.9721  0.1759
    4MPD1    H714037   4.021   4.365   0.521  0.1218 -0.2521  0.0001
    1TCq1    O114038   4.277   3.971  11.656  0.4651 -0.1815  0.0755
    1TCq1    C114039   4.376   3.993  11.575  0.1324 -0.3947 -0.3686
    1TCq1    O214040   4.483   4.046  11.594 -0.4338  0.0848 -0.1221
    1TCq1    C214041   4.322   3.976  11.439 -0.1047  1.9717  0.2607
    1TCq1    C314042   4.242   3.864  11.418  0.0626  0.1672 -0.0425
    1TCq1    C414043   4.243   3.799  11.294 -0.2415 -0.3909  0.8582
    1TCq1    C514044   4.329   3.847  11.195 -0.1538 -0.1271 -1.0100
    1TCq1    C614045   4.381   3.974  11.212  0.4594 -0.0423 -0.1199
    1TCq1    C714046   4.384   4.033  11.338 -0.3314 -0.7120  0.3924
    1TCq1    C814047   4.452   4.037  11.106  0.0067 -0.5540 -0.2970
    1TCq1    O414048   4.505   3.963  11.023 -0.7777  0.3524 -0.1415
    1TCq1    C914049   4.210   3.660  11.283  0.0855  0.2698 -0.0178
    1TCq1    O514050   4.216   3.611  11.164 -0.4323 -0.4551 -0.4014
    1TCq1    O614051   4.202   3.601  11.387  0.3540  0.8328 -0.0080
    1TCq1    H114052   4.194   3.938  11.616  0.4551 -0.1114  0.0378
    1TCq1    H214053   4.204   3.805  11.501 -0.3735  2.0190  1.0658
    1TCq1    H314054   4.361   3.785  11.112  0.1677  1.8433 -2.3642
    1TCq1    H414055   4.454   4.114  11.356 -0.6134 -0.3465 -0.1516
    2MPD1     C14056   4.638   4.440  10.836  0.5385  0.3478  0.5308
    2MPD1    C114057   4.599   4.488  10.959 -0.3177 -0.5623 -0.0187
    2MPD1    C214058   4.537   4.396  11.047  0.0382 -0.0048 -0.8143
    2MPD1    C314059   4.543   4.257  11.026 -0.3316  0.3298  0.3634
    2MPD1    C414060   4.601   4.211  10.914  0.3201 -1.0440 -0.3194
    2MPD1    C514061   4.646   4.305  10.820 -0.1086  0.1315  0.3097
    2MPD1     H14062   4.467   4.435  11.121 -0.2318 -0.5822 -0.7607
    2MPD1    H114063   4.609   4.105  10.893 -0.1866 -1.3107  0.8564
    2MPD1    H214064   4.685   4.499  10.758 -0.8398 -0.3009 -0.7926
    2MPD1    H314065   4.690   4.269  10.728 -1.4545  1.7889 -0.9692
    2MPD1     N14066   4.465   4.172  11.118  0.0631  0.8970 -0.1201
    2MPD1    H514067   4.411   4.214  11.193 -0.8380  1.0545 -0.8463
    2MPD1    N114068   4.592   4.620  10.997  0.7274 -0.6362  0.5049
    2MPD1    H614069   4.591   4.637  11.097 -0.8797  0.4962  0.2867
    2MPD1    H714070   4.669   4.671  10.954 -0.4672 -0.8251 -1.8653
    1TCq1    O114071   4.207   0.832   0.613 -0.4863  0.0777  0.0263
    1TCq1    C114072   4.119   0.935   0.621  0.0988  0.6448 -0.5069
    1TCq1    O214073   4.001   0.925   0.646 -0.9395 -0.2111  0.7126
    1TCq1    C214074   4.194   1.062   0.633  0.0768  0.2932  0.0533
    1TCq1    C314075   4.114   1.171   0.620 -0.0007  0.9375  0.0598
    1TCq1    C414076   4.159   1.294   0.670  0.5384  0.0033 -0.5879
    1TCq1    C514077   4.254   1.302   0.761  0.1014  0.0282 -0.4452
    1TCq1    C614078   4.320   1.176   0.791 -0.4439  0.3494 -0.2654
    1TCq1    C714079   4.303   1.061   0.725  0.3771  0.7905  0.0433
    1TCq1    C814080   4.402   1.164   0.908 -0.0707  0.4747  0.2803
    1TCq1    O414081   4.434   1.049   0.939 -0.3059  0.1625  0.2321
    1TCq1    C914082   4.059   1.394   0.679  0.0088  0.1026  1.0605
    1TCq1    O514083   4.094   1.512   0.706  0.5589 -0.6929 -0.4855
    1TCq1    O614084   3.942   1.351   0.681 -0.1621  0.5391 -0.4881
    1TCq1    H114085   4.298   0.866   0.598  0.2648 -2.1343 -0.4334
    1TCq1    H214086   4.039   1.175   0.542 -1.5765 -0.5790  1.4918
    1TCq1    H314087   4.272   1.395   0.814  1.3895 -0.2907 -0.3156
    1TCq1    H414088   4.354   0.969   0.750 -2.5066 -0.7363  0.2519
    2MPD1     C14089   4.611   1.382   1.328  0.4515 -0.1145 -0.2227
    2MPD1    C114090   4.596   1.480   1.233 -1.0102  0.8433  0.4283
    2MPD1    C214091   4.530   1.440   1.124 -1.0868 -0.3362  0.7073
    2MPD1    C314092   4.502   1.308   1.090  0.0303  0.3463  0.4173
    2MPD1    C414093   4.544   1.207   1.172  0.4277  0.1404 -0.3813
    2MPD1    C514094   4.592   1.244   1.296  0.5527  0.1714 -0.1986
    2MPD1     H14095   4.490   1.521   1.065 -0.1693 -0.4456 -0.0595
    2MPD1    H114096   4.526   1.101   1.156  0.5314  0.1724 -0.7144
    2MPD1    H214097   4.660   1.403   1.423 -0.8632  1.3133  0.1364
    2MPD1    H314098   4.621   1.173   1.372  1.0167  1.2512  0.6318
    2MPD1     N14099   4.431   1.286   0.972  0.0285  0.6503 -0.5402
    2MPD1    H514100   4.409   1.365   0.912  0.8080  0.2827 -1.3108
    2MPD1    N114101   4.601   1.618   1.273  0.1017 -0.2250  0.3482
    2MPD1    H614102   4.619   1.674   1.190 -0.0738 -0.9062 -0.1489
    2MPD1    H714103   4.673   1.627   1.344  0.2123 -1.0395  0.3440
    1MPD1     C14104   0.902   0.321  11.374  0.1716  0.2299  0.7509
    1MPD1    C114105   0.970   0.237  11.456 -0.2656  0.5376 -0.1875
    1MPD1    C214106   1.107   0.212  11.432  0.2610 -0.0592  0.0467
    1MPD1    C314107   1.174   0.280  11.326  0.5360 -0.1733  0.7047
    1MPD1    C414108   1.093   0.360  11.240 -0.2593 -0.1958 -0.4353
    1MPD1    C514109   0.963   0.387  11.270 -0.0014  0.2839 -0.1769
    1MPD1     H14110   1.161   0.138  11.490 -1.9043 -1.7122 -0.0791
    1MPD1    H114111   1.142   0.421  11.165  0.8574 -0.9574 -0.3384
    1MPD1    H214112   0.801   0.343  11.406 -1.1337 -1.4206 -2.3393
    1MPD1    H314113   0.905   0.455  11.209 -0.7487 -0.9430 -0.8298
    1MPD1     N14114   1.307   0.242  11.298 -1.0965 -0.2901 -0.0298
    1MPD1    H514115   1.352   0.167  11.349  0.0890  0.9690  0.7896
    1MPD1    N114116   0.914   0.196  11.577 -0.3208  0.3779  0.5138
    1MPD1    H614117   0.960   0.115  11.618 -0.5047 -0.3935 -0.7857
    1MPD1    H714118   0.813   0.183  11.581 -0.1082 -2.1920 -2.0856
    2MPD1     C14119   1.409   4.582  10.670 -0.4271 -0.5326 -0.6915
    2MPD1    C114120   1.356   4.599  10.801  0.5883 -0.0267  0.5228
    2MPD1    C214121   1.280   4.495  10.858  0.3439 -0.4964 -0.6812
    2MPD1    C314122   1.262   4.376  10.789  0.2551 -0.0119  0.0793
    2MPD1    C414123   1.323   4.363  10.666 -0.6256 -0.2374  0.9361
    2MPD1    C514124   1.399   4.459  10.606 -0.5359  0.5314 -0.1082
    2MPD1     H14125   1.224   4.520  10.948 -1.8388  0.6546 -2.3637
    2MPD1    H114126   1.307   4.271  10.610  0.1487 -0.9207  1.8377
    2MPD1    H214127   1.473   4.655  10.622 -0.7804  0.8703  0.9435
    2MPD1    H314128   1.439   4.448  10.506  2.8548 -1.8367  1.5052
    2MPD1     N14129   1.190   4.265  10.840  0.3655 -0.0728 -0.5176
    2MPD1    H514130   1.195   4.182  10.782 -4.2319  0.4708 -1.6973
    2MPD1    N114131   1.364   0.013  10.854  0.9212  0.9219 -0.3627
    2MPD1    H614132   1.455   0.047  10.823  1.2446 -0.2065 -0.6582
    2MPD1    H714133   1.360   0.002  10.955  0.4751  2.3168 -0.2236
    3MPD1     C14134   0.737   4.181  11.751  0.3030  0.0718 -0.4250
    3MPD1    C114135   0.743   4.280  11.658 -0.0572 -0.5095  0.0424
    3MPD1    C214136   0.800   4.254  11.532 -0.4939 -0.9755  0.1104
    3MPD1    C314137   0.856   4.130  11.503  0.3238 -0.0617  0.0496
    3MPD1    C414138   0.861   4.034  11.599 -0.3840  0.7571 -0.4105
    3MPD1    C514139   0.798   4.062  11.716 -0.1034 -0.2351  0.0157
    3MPD1     H14140   0.809   4.336  11.461 -0.5843 -0.2492  0.9469
    3MPD1    H114141   0.893   3.931  11.584 -0.2112  0.3392  2.9782
    3MPD1    H214142   0.684   4.189  11.845  0.0098 -2.2121 -0.3885
    3MPD1    H314143   0.786   3.983  11.789  1.9621  0.1009  0.7279
    3MPD1     N14144   0.894   4.110  11.366  0.0177 -0.1658  0.2472
    3MPD1    H514145   0.885   4.189  11.303  1.3449 -0.6369 -0.5365
    3MPD1    N114146   0.714   4.415  11.696  0.4838  0.3371  0.1939
    3MPD1    H614147   0.794   4.449  11.749  0.1633  0.2629  0.7281
    3MPD1    H714148   0.714   4.472  11.612 -0.7370 -0.8948 -0.6551
    4MPD2     C14149   1.797   4.600  10.729  0.1086  0.7112  0.3064
    4MPD2    C114150   1.828   4.624  10.859 -0.4052 -0.0691  0.7457
    4MPD2    C214151   1.906   4.524  10.913  0.1737  0.6163 -0.5072
    4MPD2    C314152   1.945   4.407  10.857  0.1421  0.1330 -0.4180
    4MPD2    C414153   1.920   4.399  10.722  0.4249 -0.1465  0.0933
    4MPD2    C514154   1.834   4.488  10.660  0.3016 -0.4328 -0.7836
    4MPD2     H14155   1.943   4.552  11.012 -0.0816  0.4756 -0.3709
    4MPD2    H114156   1.951   4.314  10.662 -0.5458  0.3791 -1.1375
    4MPD2    H214157   1.726   4.663  10.677  0.0968 -0.5067 -1.1754
    4MPD2    H314158   1.803   4.476  10.557 -0.1081 -0.8713 -0.6061
    4MPD2     N14159   2.021   4.301  10.929 -0.1907 -0.8566  0.2945
    4MPD2    H514160   2.037   4.213  10.882  1.6764 -0.2760 -0.1687
    4MPD2    N114161   1.789   0.021  10.933  0.0883  0.1160  0.1361
    4MPD2    H714162   1.818   0.013  11.030  0.9310 -1.9775 -0.2951
    5TMC3    C114163   1.673   0.219  10.999 -0.2151  0.1970 -0.4587
    5TMC3    C214164   1.542   0.224  11.027  0.5543  0.0726  0.3677
    5TMC3    C314165   1.500   0.222  11.154 -0.2686 -0.3755  0.0653
    5TMC3    C414166   1.758   0.201  11.101 -1.1570 -0.2476  0.1644
    5TMC3    C514167   1.712   0.176  11.228  0.2439  0.1238 -0.1924
    5TMC3    C614168   1.582   0.200  11.261  0.0663 -0.0009  0.9356
    5TMC3     C14169   1.698   0.117  10.894 -0.5555  0.9181 -0.3215
    5TMC3     O14170   1.629   0.122  10.792  0.0551 -0.5227  0.0306
    5TMC3     H14171   1.472   0.230  10.945 -1.5289  0.1712  2.1552
    5TMC3    H114172   1.865   0.202  11.084 -0.9951  0.1666  1.2648
    5TMC3    H214173   1.540   0.189  11.361  1.5673 -0.2848  1.5387
    5TMC3    C714174   1.784   0.067  11.288  1.6532  0.2303 -0.1373
    5TMC3    C814175   1.365   0.272  11.179 -0.6060 -0.4483 -0.1531
    5TMC3    O114176   1.858   0.012  11.210 -0.0986 -0.3234  0.2939
    5TMC3    O214177   1.322   0.337  11.082  0.2390  0.6277  0.3825
    6TMC3    C114178   1.067   4.124  10.998  0.9861 -0.1853  0.2327
    6TMC3    C214179   0.988   4.117  11.106  0.5960  0.0739  0.3145
    6TMC3    C314180   0.986   4.000  11.179 -0.0463 -0.0835  0.1360
    6TMC3    C414181   1.148   4.021  10.968 -0.0879  0.6911 -0.0035
    6TMC3    C514182   1.145   3.903  11.039 -0.0660  0.0944 -0.4898
    6TMC3    C614183   1.057   3.883  11.139  0.2753  0.8347 -0.1503
    6TMC3     C14184   1.113   4.259  10.956 -0.1926  0.0050 -0.1095
    6TMC3     O14185   1.091   4.345  11.040  0.2939  0.2782  0.6142
    6TMC3     H14186   0.924   4.200  11.134  0.8119  0.8974 -1.6192
    6TMC3    H114187   1.225   4.040  10.894 -1.2687 -0.3458 -1.5201
    6TMC3    H214188   1.045   3.783  11.180  1.3990  0.6731 -0.2137
    6TMC3    C714189   1.278   3.867  11.081  0.0740 -0.6592 -0.3084
    6TMC3    C814190   0.949   3.996  11.319 -0.8797  0.3420  0.0312
    6TMC3    O114191   1.373   3.871  11.005 -0.4152 -0.3804 -0.3133
    6TMC3    O214192   0.985   3.897  11.382  0.3154  0.4800  0.6788
    7MPD2     C14193   1.886   4.428  11.630 -0.0293  0.0497 -0.1455
    7MPD2    C114194   1.924   4.435  11.500  0.0770 -0.1431 -0.6383
    7MPD2    C214195   1.881   4.542  11.425  0.0764  0.1697 -0.6171
    7MPD2    C314196   1.795   4.637  11.483 -0.6185 -0.5379  0.4447
    7MPD2    C414197   1.762   4.630  11.613 -0.4391 -0.2828  0.8985
    7MPD2    C514198   1.801   4.522  11.687 -0.6773 -0.6115  0.1233
    7MPD2     H14199   1.905   4.543  11.319  0.2302  0.3521 -0.5794
    7MPD2    H114200   1.687   4.698  11.651 -1.4934  0.2609 -2.1671
    7MPD2    H214201   1.924   4.354  11.699 -0.9614 -2.3925 -2.2301
    7MPD2    H314202   1.773   4.515  11.791 -1.2935 -1.3921 -0.0985
    7MPD2     N14203   1.751   0.034  11.418  0.2086  0.0956 -0.3540
    7MPD2    H514204   1.678   0.082  11.470  0.4506  2.2606 -1.9956
    7MPD2    N114205   2.000   4.340  11.429  0.0557  0.0958  0.2444
    7MPD2    H714206   2.018   4.361  11.331  1.4787  0.5527  0.6016
    8TMC3    C114207   2.084   4.137  11.362  0.2391 -0.3544 -0.3032
    8TMC3    C214208   1.989   4.035  11.347  0.4271 -0.5471 -0.6709
    8TMC3    C314209   1.954   4.009  11.216 -0.8955 -0.0977  0.5170
    8TMC3    C414210   2.138   4.206  11.254 -0.9482  0.4755  0.1502
    8TMC3    C514211   2.092   4.185  11.128 -0.1615  0.3649  0.6554
    8TMC3    C614212   2.002   4.081  11.111  0.1501  0.1867 -0.2308
    8TMC3     C14213   2.044   4.221  11.480  0.5866 -0.1118 -0.0467
    8TMC3     O14214   2.035   4.168  11.592 -0.3883  0.5008  0.4746
    8TMC3     H14215   1.945   3.992  11.436  0.7567 -0.1151 -0.2959
    8TMC3    H114216   2.217   4.280  11.261 -0.5225 -0.0894  1.3607
    8TMC3    H214217   1.939   4.079  11.023 -3.2162  0.6931  2.1383
    8TMC3    C714218   2.064   4.311  11.063 -0.2415  0.4137  0.5137
    8TMC3    C814219   1.819   3.952  11.196 -0.0258 -0.1651 -0.4409
    8TMC3    O114220   2.078   4.411  11.136  0.4451 -0.3516 -0.0790
    8TMC3    O214221   1.755   3.964  11.091 -0.2631  0.0085  0.3178
    9MPD2     C14222   1.607   3.824  11.472  0.1790 -0.3187  0.0877
    9MPD2    C114223   1.636   3.851  11.341 -0.3501  0.0578  0.0937
    9MPD2    C214224   1.531   3.856  11.259 -0.2377  0.3196 -0.3284
    9MPD2    C314225   1.398   3.837  11.298  0.0369 -0.3313  0.2026
    9MPD2    C414226   1.370   3.809  11.428 -0.5061  0.4557 -0.2620
    9MPD2    C514227   1.477   3.798  11.510  0.2589 -0.2365 -0.9945
    9MPD2     H14228   1.543   3.872  11.153 -0.1923  0.4281 -0.3068
    9MPD2    H114229   1.268   3.824  11.461 -0.7915 -2.3350  0.0979
    9MPD2    H214230   1.681   3.807  11.550  1.5626 -1.2231 -1.4102
    9MPD2    H314231   1.464   3.792  11.618 -0.0046 -1.1227 -1.0717
    9MPD2     N14232   1.281   3.848  11.213 -0.7521 -0.5134 -0.2280
    9MPD2    H514233   1.190   3.843  11.258 -0.5312 -1.0683  0.1624
    9MPD2    N114234   1.770   3.895  11.310 -0.4721 -0.2450  0.0859
    9MPD2    H714235   1.834   3.889  11.388  1.0909 -1.6743 -1.3283
    1MPD1     C14236   0.184   3.522  17.245 -0.6176  0.5247  0.2459
    1MPD1    C114237   0.150   3.500  17.112  0.4021  0.0204  0.0711
    1MPD1    C214238   0.068   3.395  17.077  0.1358  0.3792  0.4552
    1MPD1    C314239   0.012   3.314  17.181 -0.5636 -0.3626  0.5997
    1MPD1    C414240   0.042   3.345  17.316  0.6280 -0.1966 -0.2398
    1MPD1    C514241   0.123   3.447  17.342  0.1236  0.7878 -0.2743
    1MPD1     H14242   0.050   3.369  16.973  0.4410  1.0234  0.2467
    1MPD1    H114243   0.001   3.283  17.395  1.2987 -0.8597 -0.4175
    1MPD1    H214244   0.253   3.598  17.277  1.1242 -0.9329 -0.0218
    1MPD1    H314245   0.161   3.472  17.441 -1.9372 -2.2333  1.2640
    1MPD1     N14246   4.651   3.199  17.165  0.5951 -0.2038 -0.0640
    1MPD1    H514247   4.642   3.152  17.254 -1.0317  2.3057  1.0948
    1MPD1    N114248   0.193   3.584  17.015 -0.0660  0.0029  0.3388
    1MPD1    H614249   0.146   3.578  16.924 -2.3516 -0.2993  1.5380
    1MPD1    H714250   0.175   3.678  17.050 -1.1832 -0.6772  1.5863
    2MPD1     C14251   4.294   2.678  16.367 -0.1137 -0.1684 -0.3130
    2MPD1    C114252   4.234   2.622  16.478 -0.1719 -0.3021  0.5648
    2MPD1    C214253   4.266   2.669  16.604  0.1331 -0.8926 -0.0808
    2MPD1    C314254   4.343   2.779  16.623 -0.2710  0.7554 -1.2415
    2MPD1    C414255   4.395   2.844  16.509  0.3945 -0.5696 -0.1535
    2MPD1    C514256   4.379   2.784  16.383  0.3145 -0.9078 -1.0804
    2MPD1     H14257   4.222   2.618  16.689  2.3123  0.7247  2.0221
    2MPD1    H114258   4.452   2.936  16.518  2.1331 -1.5579 -1.0331
    2MPD1    H214259   4.278   2.640  16.267 -0.1213  5.4705 -2.4997
    2MPD1    H314260   4.428   2.833  16.300  0.7458  1.7029  0.7202
    2MPD1     N14261   4.364   2.840  16.750  0.4353 -0.1364  0.0711
    2MPD1    H514262   4.439   2.907  16.751 -0.0386  0.4096 -0.7218
    2MPD1    N114263   4.168   2.501  16.473  0.0064 -0.0460 -0.2179
    2MPD1    H614264   4.125   2.487  16.382 -2.0822  0.6495  0.6652
    2MPD1    H714265   4.097   2.481  16.543 -0.0713  1.5449  0.1688
    3TCq2    C114266   4.291   2.812  16.872 -1.0753  0.0269  0.7790
    3TCq2    O214267   4.193   2.742  16.884 -0.0353 -0.7745  0.6372
    3TCq2    C214268   4.351   2.884  16.979  0.6667 -0.3264  0.3095
    3TCq2    C314269   4.279   2.880  17.100  0.0699 -0.5999 -0.6955
    3TCq2    C414270   4.322   2.953  17.210  0.6571  0.3292 -0.1409
    3TCq2    C514271   4.429   3.038  17.200  0.4957 -0.3212  0.6627
    3TCq2    C614272   4.490   3.048  17.076  0.6905  0.0495  0.0736
    3TCq2    C714273   4.456   2.969  16.968 -0.1226 -0.2697  0.4172
    3TCq2    C814274   4.593   3.157  17.052  0.9311  0.6296  0.4798
    3TCq2    O414275   4.590   3.203  16.938 -0.2211 -0.3585 -0.3949
    3TCq2    C914276   4.259   2.939  17.340  0.1689  0.8568  0.1499
    3TCq2    O514277   4.199   2.830  17.359 -0.6497 -0.2403  0.2364
    3TCq2    O614278   4.271   3.037  17.416 -0.1379 -0.3206  0.0253
    3TCq2    H214279   4.190   2.819  17.112 -0.0499 -0.4058 -0.5925
    3TCq2    H314280   4.449   3.106  17.282  0.4315 -0.6585  0.9563
    3TCq2    H414281   4.518   2.972  16.879  0.0565 -1.2645  0.5184
    1TCq1    O114282   3.582   3.168  13.004  0.2472 -0.2544  0.0862
    1TCq1    C114283   3.489   3.092  12.948 -0.7136  0.0892  0.6349
    1TCq1    O214284   3.385   3.133  12.895 -0.5226  0.2541 -0.0503
    1TCq1    C214285   3.511   2.953  12.974 -0.3210 -0.0570 -0.0835
    1TCq1    C314286   3.407   2.867  12.984 -0.0030 -0.8409 -0.2473
    1TCq1    C414287   3.428   2.742  13.038  0.1656 -0.3579 -0.2750
    1TCq1    C514288   3.551   2.691  13.060  0.6808  0.4234 -0.2996
    1TCq1    C614289   3.658   2.773  13.029 -0.3348  0.8214  0.2098
    1TCq1    C714290   3.638   2.901  12.997 -0.0360 -0.6450 -0.6139
    1TCq1    C814291   3.795   2.727  13.048 -0.4359 -0.2733  0.2136
    1TCq1    O414292   3.886   2.785  12.987 -0.1413 -0.7852 -0.1066
    1TCq1    C914293   3.312   2.657  13.071  0.8397 -0.1749  0.6487
    1TCq1    O514294   3.199   2.692  13.033 -0.1175  0.0860 -0.2186
    1TCq1    O614295   3.344   2.544  13.119  0.0581  0.2842 -0.4442
    1TCq1    H114296   3.639   3.116  13.065  1.3447  2.4762  1.3637
    1TCq1    H214297   3.305   2.898  12.961 -0.3565 -0.9007  1.2427
    1TCq1    H314298   3.566   2.584  13.058 -2.0775  0.0677 -1.7217
    1TCq1    H414299   3.730   2.957  12.989 -0.9229  0.8674 -0.2145
    2MPD2     C14300   4.038   2.641  13.189 -0.3065  0.5514  0.3622
    2MPD2    C114301   3.913   2.606  13.230 -0.0134 -0.1053  0.1536
    2MPD2    C214302   3.904   2.522  13.346 -0.1623  0.1187  0.2049
    2MPD2    C314303   4.011   2.475  13.411  0.1327 -0.2614  0.0099
    2MPD2    C414304   4.136   2.503  13.357 -0.9009  0.1569 -0.3731
    2MPD2    C514305   4.149   2.603  13.259  0.5552 -0.3455  0.4654
    2MPD2     H14306   3.810   2.501  13.394  0.6441 -3.1175  0.3785
    2MPD2    H114307   4.228   2.476  13.407 -0.9157  0.4658 -0.1765
    2MPD2    H214308   4.063   2.715  13.113 -2.0271  0.5487 -0.1980
    2MPD2    H314309   4.250   2.640  13.247 -0.3075  1.9997  0.3584
    2MPD2     N14310   4.003   2.394  13.526 -0.1851  0.2042 -0.2594
    2MPD2    H514311   3.910   2.373  13.562  1.1880  1.2336  3.9735
    2MPD2    N114312   3.794   2.653  13.172  0.6292 -0.0415 -0.2863
    2MPD2    H714313   3.706   2.627  13.216  1.7793 -0.0313  2.0404
    3TCq1    O114314   3.782   2.347  13.980  0.4811  0.1656  0.3831
    3TCq1    C114315   3.910   2.361  14.018 -0.1348 -0.4807  0.8215
    3TCq1    O214316   3.966   2.461  14.061 -0.5124 -0.0292 -0.1015
    3TCq1    C214317   3.977   2.277  13.920  0.3579 -0.7385 -0.6186
    3TCq1    C314318   4.059   2.185  13.971 -0.0932  0.0702 -0.0078
    3TCq1    C414319   4.138   2.119  13.883 -0.2047 -0.3829  0.7444
    3TCq1    C514320   4.132   2.152  13.752 -0.6284 -0.5968 -0.0445
    3TCq1    C614321   4.059   2.256  13.706  1.3550  0.0794 -0.5121
    3TCq1    C714322   3.967   2.317  13.784 -0.3065 -1.0159  0.5120
    3TCq1    C814323   4.106   2.327  13.590  0.0717  0.0939  0.3360
    3TCq1    O414324   4.227   2.324  13.573  0.0767 -0.7858  0.3124
    3TCq1    C914325   4.236   2.023  13.927 -0.2660 -0.6297  0.0196
    3TCq1    O514326   4.323   1.988  13.841 -0.1451  0.1650  0.3112
    3TCq1    O614327   4.241   1.989  14.054  0.4849  0.1444 -0.1327
    3TCq1    H114328   3.757   2.254  13.962  1.8993 -0.1773  0.2003
    3TCq1    H214329   4.082   2.189  14.077 -0.1796 -0.0507  0.0153
    3TCq1    H314330   4.208   2.107  13.688  0.4095 -2.1936  2.3130
    3TCq1    H414331   3.904   2.399  13.752  0.1442 -1.7821 -2.3247
    1MPD2     C14332   4.037   3.466  14.841  0.4074  0.4235  1.2925
    1MPD2    C114333   3.931   3.383  14.802  0.0021  0.0442 -0.2486
    1MPD2    C214334   3.903   3.274  14.890  0.0284  0.2962 -0.3481
    1MPD2    C314335   3.974   3.250  15.010  0.8184  0.7899  0.0554
    1MPD2    C414336   4.080   3.333  15.040  0.2161 -0.5121 -0.4052
    1MPD2    C514337   4.116   3.441  14.957 -0.7006  0.2083 -0.8554
    1MPD2     H14338   3.826   3.202  14.866  0.0319  0.3418 -0.4906
    1MPD2    H114339   4.130   3.310  15.134  3.5542  2.3192 -1.4925
    1MPD2    H214340   4.067   3.553  14.784 -0.9278 -0.8462 -1.3473
    1MPD2    H314341   4.200   3.509  14.963 -2.0748  1.4796  3.8120
    1MPD2     N14342   3.950   3.145  15.106 -0.2711  0.3108  0.5628
    1MPD2    H514343   4.016   3.152  15.182  0.2472  0.5779  0.0917
    1MPD2    N114344   3.846   3.414  14.691 -0.0557 -0.1021  0.1501
    1MPD2    H714345   3.858   3.509  14.655 -2.0286 -0.3883 -1.2171
    2TMC3    C114346   3.642   3.406  14.569  0.2269  0.8481 -0.1923
    2TMC3    C214347   3.532   3.324  14.556 -0.4283 -0.2797 -0.1533
    2TMC3    C314348   3.405   3.368  14.577  0.9020 -0.2586 -0.6811
    2TMC3    C414349   3.613   3.538  14.595 -0.3318  0.1887  0.4343
    2TMC3    C514350   3.482   3.586  14.618  0.9451 -0.3111 -0.2868
    2TMC3    C614351   3.379   3.494  14.610 -0.0391 -0.6978  0.8537
    2TMC3     C14352   3.736   3.338  14.653 -0.4169 -0.1908 -0.7581
    2TMC3     O14353   3.712   3.219  14.674  0.2676 -0.2130 -0.2313
    2TMC3     H14354   3.549   3.226  14.513  0.4895 -1.2211  2.3499
    2TMC3    H114355   3.692   3.605  14.628 -0.9300  1.0812  0.0756
    2TMC3    H214356   3.279   3.531  14.628 -1.5924 -2.6987 -3.6728
    2TMC3    C714357   3.441   3.715  14.576 -0.3462 -0.4412 -0.0467
    2TMC3    C814358   3.330   3.260  14.639 -0.7418  0.1827  0.9163
    2TMC3    O114359   3.373   3.715  14.469  0.1774  0.2380  0.1425
    2TMC3    O214360   3.214   3.276  14.669 -0.1615 -0.0209 -0.5472
    3TCq1    O114361   4.112   4.713  14.544  0.0339  0.0950 -0.0500
    3TCq1    C114362   4.194   4.601  14.556 -0.3759 -0.4802 -0.0892
    3TCq1    O214363   4.305   4.605  14.599  0.0030  0.2539  0.4507
    3TCq1    C214364   4.106   4.505  14.624 -0.0724  0.4421  0.0409
    3TCq1    C314365   4.154   4.447  14.739 -0.0953 -0.2724  0.0052
    3TCq1    C414366   4.065   4.381  14.822  0.0758 -0.2458  0.2008
    3TCq1    C514367   3.930   4.371  14.785 -0.0508 -0.1149 -0.0388
    3TCq1    C614368   3.884   4.425  14.665 -0.3179  0.8704 -0.1764
    3TCq1    C714369   3.970   4.499  14.587 -0.2105 -0.1665 -0.1313
    3TCq1    C814370   3.753   4.381  14.607  0.0521 -0.1304 -0.0253
    3TCq1    O414371   3.715   4.441  14.508  0.3639 -0.3225  0.8691
    3TCq1    C914372   4.099   4.316  14.946  0.4560  0.8008  0.0179
    3TCq1    O514373   4.012   4.239  14.995  0.0692  0.4448  0.1571
    3TCq1    O614374   4.215   4.340  14.992 -0.1067 -0.3519 -0.2472
    3TCq1    H114375   4.015   4.709  14.538 -0.0520  0.3116  1.2477
    3TCq1    H214376   4.260   4.444  14.761  0.0044 -1.0370 -0.5746
    3TCq1    H314377   3.859   4.324  14.853 -2.9120 -0.2960 -3.1059
    3TCq1    H414378   3.941   4.550  14.496 -1.3696 -1.2988 -0.3896
    4MPD2     C14379   3.500   4.233  14.535 -0.4070  0.0885 -0.3628
    4MPD2    C114380   3.599   4.183  14.618 -0.0415  0.8978  0.3359
    4MPD2    C214381   3.590   4.048  14.662 -0.2808 -0.0236 -0.4496
    4MPD2    C314382   3.499   3.958  14.607 -0.0179 -0.0912  0.1422
    4MPD2    C414383   3.416   4.011  14.515 -0.9894  0.0534 -0.2052
    4MPD2    C514384   3.415   4.142  14.483 -0.0983  0.0220 -0.2102
    4MPD2     H14385   3.675   4.010  14.718 -0.0486  0.0342 -0.7659
    4MPD2    H114386   3.343   3.945  14.469 -0.7780 -0.0868 -0.3437
    4MPD2    H214387   3.506   4.336  14.503 -0.6932 -0.1405 -1.1658
    4MPD2    H314388   3.355   4.182  14.402 -0.1801  1.1338  0.3914
    4MPD2     N14389   3.507   3.820  14.638 -0.2525 -0.5895  0.0326
    4MPD2    H514390   3.573   3.788  14.709  0.2301  0.5850  0.1205
    4MPD2    N114391   3.715   4.259  14.657  0.2001  0.0187 -0.2552
    4MPD2    H714392   3.787   4.211  14.710  1.4911  0.6789 -1.4443
    5TMC2    C114393   3.667   2.809  15.241  0.2667  0.5319  0.0681
    5TMC2    C214394   3.663   2.854  15.367 -0.9397  0.1682  0.7836
    5TMC2    C314395   3.754   2.949  15.401 -0.3474  0.7918 -0.3235
    5TMC2    C414396   3.772   2.844  15.166  0.4881 -0.4508  0.3668
    5TMC2    C514397   3.846   2.955  15.196 -0.4863 -0.2598 -0.2674
    5TMC2    C614398   3.843   3.011  15.316 -0.7429  0.0982 -0.2596
    5TMC2     C14399   3.543   2.821  15.176  0.3381 -0.8701  0.2961
    5TMC2     O14400   3.439   2.803  15.231  0.6004  0.1251 -0.3476
    5TMC2     H14401   3.575   2.827  15.425 -0.3433 -0.4377  1.4269
    5TMC2    H114402   3.780   2.797  15.069 -0.1687  0.0727  0.0568
    5TMC2    H214403   3.888   3.103  15.351  1.9704 -1.1805 -0.3540
    5TMC2    C714404   3.862   3.041  15.079  0.6050  0.3701  0.2407
    5TMC2    C814405   3.736   2.998  15.531 -0.1067 -0.3033 -0.4417
    5TMC2    O114406   3.819   2.998  14.976  0.1299 -0.0811 -0.2694
    5TMC2    O214407   3.766   3.109  15.571 -0.6012 -0.1595  0.4325
    5TMC2    O514408   3.700   2.892  15.602  0.0721 -0.3070 -0.3308
    5TMC2    H514409   3.723   2.805  15.564 -0.0598 -0.4838 -0.0108
    6MPD2     C14410   3.258   3.034  14.813  0.8340  0.0823  0.1415
    6MPD2    C114411   3.388   3.079  14.795  0.3903 -0.8052  0.1217
    6MPD2    C214412   3.488   3.023  14.869  0.3828 -0.4021  0.1841
    6MPD2    C314413   3.453   2.930  14.972 -0.0603 -0.3564 -0.0166
    6MPD2    C414414   3.323   2.887  14.984 -0.4277 -0.3101 -0.1932
    6MPD2    C514415   3.223   2.944  14.907  0.2488  0.8069  0.7438
    6MPD2     H14416   3.590   3.053  14.849 -0.3703  1.0644 -1.4131
    6MPD2    H114417   3.295   2.815  15.060 -1.7146  1.3356  0.8957
    6MPD2    H214418   3.170   3.062  14.756  0.2775 -2.6789 -0.3699
    6MPD2    H314419   3.120   2.914  14.921  0.2641  0.3904 -0.0872
    6MPD2     N14420   3.558   2.878  15.053  0.0116 -0.1556  0.0010
    6MPD2    H514421   3.651   2.911  15.027  0.3109  0.8710  2.3713
    6MPD2    N114422   3.417   3.180  14.705 -0.3851 -0.4707 -0.0137
    6MPD2    H714423   3.513   3.206  14.688 -0.1232 -0.2356  1.8223
  945NH4     N114424   0.023   1.894  12.145 -0.5344  0.3727 -0.2190
  945NH4     H214425   0.009   1.825  12.221 -0.4314 -0.2218 -0.7342
  945NH4     H314426   0.032   1.986  12.191  0.6291 -0.9815  2.2749
  945NH4     H414427   4.656   1.903  12.086  0.0736  4.0310 -0.5459
  945NH4     H514428   0.100   1.879  12.077 -3.1836  1.4772 -3.4551
  946SOD     NA14429   4.211   2.675  17.516 -0.2414 -0.3998 -0.3969
  947SOD     NA14430   3.126   3.228  15.174  0.5487  0.1764 -0.0567
  948SOD     NA14431   2.469   4.691   9.888 -0.0104 -0.5776 -0.3857
  949SOD     NA14432   2.569   2.480  11.113 -0.1872  0.0002 -0.6517
  950SOD     NA14433   4.214   2.152  11.895  0.2778  0.4093  0.0897
  951SOD     NA14434   1.420   1.874   3.063 -0.3008  0.2999  0.0580
  952SOD     NA14435   0.144   0.889   3.630 -0.2806  0.4576  0.2091
  953SOD     NA14436   2.090   0.510   0.254  0.2560 -0.1590 -0.2432
  954SOD     NA14437   2.304   0.397  13.406 -0.0395 -0.1093 -0.1970
  955SOD     NA14438   1.111   0.096  13.564 -0.4516 -0.3109  0.6435
  956SOD     NA14439   3.351   2.334  11.631 -0.2784 -0.5081 -0.6203
  957SOD     NA14440   3.432   3.614  11.021  0.2121 -0.2419  0.0217
  958SOD     NA14441   3.369   1.411  10.735  0.2918  0.1204 -0.1826
  959SOD     NA14442   2.811   0.303  11.625  0.7295  0.2511 -0.5821
  960SOD     NA14443   3.537   0.119  16.014 -0.0328 -0.2840  0.1272
  961SOD     NA14444   2.489   2.282   2.765 -0.4094 -0.0240 -0.3765
  962SOD     NA14445   3.024   4.260  12.178  0.8738  0.5364 -0.1564
  963SOD     NA14446   3.998   1.966   9.145 -0.7188  0.0083 -0.0648
  964SOD     NA14447   0.603   3.169  13.690 -0.2239 -0.4244  0.1227
  965SOD     NA14448   1.612   1.202  14.955  0.3433  0.3848 -0.3270
  966SOD     NA14449   0.225   2.778  11.731  0.2391 -0.4450 -0.3071
  967SOD     NA14450   4.134   3.904  17.453  0.3484 -0.3319  0.0946
  968SOD     NA14451   1.085   4.717   8.789 -0.2150 -0.0860 -0.1653
  969SOD     NA14452   3.142   2.469  13.062  0.5090 -0.1655 -0.1227
  970SOD     NA14453   1.920   2.310   2.049 -0.3212  0.5032  0.0796
  971SOD     NA14454   1.527   3.107   2.736 -0.2876 -0.8673 -0.2307
  972SOD     NA14455   4.457   1.002  16.910  0.3679  0.2160  0.0758
  973SOD     NA14456   2.526   1.796   6.709 -0.0915  0.1751 -0.0940
  974SOD     NA14457   0.731   3.250  13.998  0.1090 -0.1596  0.1605
  975SOD     NA14458   2.826   0.862   7.442  0.0234  0.5256 -0.0557
  976SOD     NA14459   0.072   4.607  15.159 -0.0953  0.0540 -0.3488
  977SOD     NA14460   1.614   3.178  12.797 -0.3136 -0.1498 -1.1476
  978SOD     NA14461   1.709   3.978  11.898  0.2750 -0.0325  0.2901
  979SOD     NA14462   1.506   2.015   0.544  0.0684 -0.0306  0.5391
  980SOD     NA14463   1.208   3.015  15.158 -0.2154 -0.1809  0.1224
  981SOD     NA14464   2.557   1.950  13.100 -0.3575 -0.1586  0.0563
  982SOD     NA14465   2.642   0.056  11.669 -0.2202  0.3016  0.0561
  983SOD     NA14466   4.354   1.129   9.407  0.4556  0.3195 -0.0155
  984SOD     NA14467   1.456   0.984   3.118 -0.3873  0.3446 -0.2431
  985SOD     NA14468   2.275   3.852   1.654  0.3263  0.0687  0.3053
  986SOD     NA14469   3.633   1.460   3.166  0.0146 -0.0596 -0.3376
  987SOD     NA14470   4.642   2.721  14.016 -0.0138 -0.1203  0.5159
  988SOD     NA14471   0.838   3.663  16.203 -0.6313 -0.0762 -0.4611
  989SOD     NA14472   4.613   1.338   9.857  0.0379 -0.2497 -0.1801
  990SOD     NA14473   3.865   3.680   3.803  0.0817  0.1943 -0.0690
  991SOD     NA14474   4.496   3.486  14.638 -0.6208 -0.4251 -0.3759
  992SOD     NA14475   3.096   3.371  14.901 -0.0452 -0.3856  0.8534
  993SOD     NA14476   0.981   3.085  14.895  0.3951  0.1449  0.2074
  994SOD     NA14477   0.706   2.894  14.209  0.0494 -0.2343 -0.2071
  995SOD     NA14478   0.336   4.702   2.855 -0.3103 -0.1718  0.3240
  996SOD     NA14479   1.523   2.976  13.120 -0.1126 -0.2915 -0.1675
  997SOD     NA14480   0.996   2.297   9.222 -0.0345  0.7966 -0.6501
  998SOD     NA14481   3.941   0.501   3.170 -0.1268  0.0381  0.3016
  999SOD     NA14482   2.785   1.249  10.537  0.4153  0.3215  0.0064
 1000SOD     NA14483   2.442   4.469   5.912  0.0004 -0.1307  0.0407
 1001SOD     NA14484   3.542   4.441  13.247 -0.1564 -0.2830 -0.0106
 1002SOD     NA14485   0.837   0.815   0.278 -0.0676 -0.3757  0.7697
 1003SOD     NA14486   3.055   0.679   2.859 -0.0562 -0.5076 -0.2526
 1004SOD     NA14487   3.240   3.240  12.758  0.2847 -0.0005 -0.3374
 1005SOD     NA14488   4.243   1.556   9.905  0.0346  0.0973  0.4626
 1006SOD     NA14489   3.801   2.446  11.100 -0.0964 -0.0876  0.0919
 1007SOD     NA14490   3.107   2.682   2.128 -0.0746 -0.2101  0.7973
 1008SOD     NA14491   1.767   2.116   1.136  0.0221 -0.2654 -0.0878
 1009SOD     NA14492   4.382   1.950  11.665 -0.6202 -0.2275  0.4098
 1010SOD     NA14493   1.989   1.076  15.091 -0.2579 -0.1596  0.3076
 1011SOL     OW14494   2.260   2.712   2.219  0.0686  0.1296  0.3006
 1011SOL    HW114495   2.289   2.636   2.168 -1.2441 -0.5912  0.6147
 1011SOL    HW214496   2.198   2.744   2.153 -0.5907 -0.0199  0.8413
 1012SOL     OW14497   1.447   0.469   6.119 -0.3124 -0.1708  0.4279
 1012SOL    HW114498   1.500   0.546   6.139  1.0559 -0.8611 -0.5444
 1012SOL    HW214499   1.398   0.462   6.201 -2.1343 -1.9965 -0.8174
 1013SOL     OW14500   1.396   1.597  16.968 -0.7488 -0.4883 -0.2066
 1013SOL    HW114501   1.336   1.559  16.904 -1.3590 -0.8363  0.5793
 1013SOL    HW214502   1.443   1.649  16.903 -2.2263  0.4055 -0.5409
 1014SOL     OW14503   2.953   2.115  13.110  0.2135  0.1234  0.3365
 1014SOL    HW114504   2.909   2.108  13.195 -0.8603 -1.2061 -0.3342
 1014SOL    HW214505   2.945   2.021  13.097 -0.9450  0.3220 -0.3761
 1015SOL     OW14506   2.930   0.503   5.526  0.3836  0.0632  1.1933
 1015SOL    HW114507   2.873   0.489   5.602 -0.9674 -0.1066  0.1462
 1015SOL    HW214508   2.862   0.514   5.460 -1.0745  0.7196  2.7897
 1016SOL     OW14509   0.898   2.327   8.478  0.1949 -0.1292  0.0899
 1016SOL    HW114510   0.823   2.308   8.534 -0.6676  0.4277 -0.8773
 1016SOL    HW214511   0.946   2.244   8.484 -0.0413 -0.2519  0.3266
 1017SOL     OW14512   4.552   3.196   5.866 -0.3703  0.1355 -0.2411
 1017SOL    HW114513   4.517   3.196   5.956 -2.4349 -0.5975 -1.0589
 1017SOL    HW214514   4.581   3.105   5.859  0.2663  0.2275  1.2177
 1018SOL     OW14515   3.687   2.949   8.946 -0.3931  0.6020 -0.1132
 1018SOL    HW114516   3.686   3.007   9.022  0.5933  0.5449 -0.0606
 1018SOL    HW214517   3.664   2.866   8.988 -1.6640 -0.1553 -2.2797
 1019SOL     OW14518   0.469   0.210   4.606 -0.2843  0.1648  0.1656
 1019SOL    HW114519   0.411   0.203   4.681  1.0706  0.0910  1.1979
 1019SOL    HW214520   0.481   0.305   4.603 -1.3934  0.3001  0.3167
 1020SOL     OW14521   2.569   1.984   5.961 -0.2435  0.0569  0.5009
 1020SOL    HW114522   2.594   2.074   5.982  0.5253  0.0102 -0.2539
 1020SOL    HW214523   2.655   1.951   5.935 -0.8799 -1.9893  1.0021
 1021SOL     OW14524   3.994   4.367   4.862  0.1546  0.0285  0.1726
 1021SOL    HW114525   4.019   4.276   4.847 -0.9353  0.0259 -1.5690
 1021SOL    HW214526   4.083   4.399   4.881 -0.0842  1.1482 -0.6424
 1022SOL     OW14527   1.121   1.656   8.671  0.1314  0.0240  0.2681
 1022SOL    HW114528   1.198   1.713   8.667 -0.3367  0.5508 -1.2702
 1022SOL    HW214529   1.155   1.580   8.717  1.3210  0.5674  0.2821
 1023SOL     OW14530   0.586   2.857   7.753  0.7803  0.3267 -0.5955
 1023SOL    HW114531   0.542   2.804   7.687  0.7365  0.2611 -0.5132
 1023SOL    HW214532   0.526   2.931   7.764 -1.3112 -1.2501 -1.3826
 1024SOL     OW14533   1.604   0.265   1.440  0.2202 -0.2963 -0.2461
 1024SOL    HW114534   1.535   0.331   1.445  1.7607  1.3291 -0.8477
 1024SOL    HW214535   1.572   0.212   1.367 -1.0483 -1.3542  1.0560
 1025SOL     OW14536   0.895   2.400   3.551  0.1581 -0.2089  0.2187
 1025SOL    HW114537   0.921   2.438   3.635  0.2135 -1.1090  0.6023
 1025SOL    HW214538   0.809   2.358   3.561  0.5077 -1.3937 -1.6780
 1026SOL     OW14539   0.620   1.712   3.632 -0.2905 -0.1759  0.0875
 1026SOL    HW114540   0.595   1.622   3.610 -0.6954  0.4526 -2.0422
 1026SOL    HW214541   0.691   1.698   3.695 -0.1992 -0.0739  0.0065
 1027SOL     OW14542   3.201   1.680  14.718  0.2367  0.3115  0.1036
 1027SOL    HW114543   3.202   1.737  14.642 -0.1581  0.7059  0.3963
 1027SOL    HW214544   3.259   1.610  14.687  2.8642  1.4353  2.3641
 1028SOL     OW14545   2.952   1.708  14.550  0.9993 -0.3109  0.4237
 1028SOL    HW114546   2.899   1.639  14.591 -0.7605 -0.4860 -2.1401
 1028SOL    HW214547   2.957   1.765  14.627  1.7641  1.3818 -0.8785
 1029SOL     OW14548   1.707   1.400   8.748  0.3340 -0.7118  0.3538
 1029SOL    HW114549   1.800   1.378   8.739 -0.1598 -3.0735  1.2364
 1029SOL    HW214550   1.700   1.442   8.834 -1.4216  0.7735 -0.5204
 1030SOL     OW14551   0.395   1.704   6.978  0.2820  0.1332 -0.3037
 1030SOL    HW114552   0.427   1.728   6.891  3.0843 -0.4930  0.5749
 1030SOL    HW214553   0.382   1.780   7.034  0.5980  1.5788 -2.2113
 1031SOL     OW14554   2.442   4.063   4.417 -0.0498 -0.1094  0.0298
 1031SOL    HW114555   2.374   4.019   4.468  0.9856 -0.9259  0.7099
 1031SOL    HW214556   2.429   4.152   4.450 -3.0174 -0.1730 -0.9982
 1032SOL     OW14557   1.089   2.429   7.228  0.1835 -0.0092  0.0785
 1032SOL    HW114558   1.157   2.466   7.173 -1.1899  0.1712 -1.5228
 1032SOL    HW214559   1.146   2.414   7.303 -2.3518 -1.2333  1.7654
 1033SOL     OW14560   2.549   3.076   5.519 -0.5218 -0.2600  0.0825
 1033SOL    HW114561   2.482   3.009   5.508 -1.5706  0.8144 -0.0400
 1033SOL    HW214562   2.485   3.145   5.536  1.0566  1.0724  0.6149
 1034SOL     OW14563   3.431   1.471   3.285  0.3634 -0.1305 -0.1153
 1034SOL    HW114564   3.443   1.421   3.366  1.8586 -0.4695 -0.5356
 1034SOL    HW214565   3.353   1.525   3.298 -0.4103 -1.4677  0.8023
 1035SOL     OW14566   2.497   2.567   5.843 -0.0670 -0.1783 -0.2537
 1035SOL    HW114567   2.547   2.629   5.791  1.3300 -1.9429 -1.0217
 1035SOL    HW214568   2.552   2.490   5.858 -1.3364 -1.1307 -0.4889
 1036SOL     OW14569   1.549   4.225   9.527  0.2105  0.0178 -0.0308
 1036SOL    HW114570   1.509   4.153   9.575  3.6991 -0.6114  1.8809
 1036SOL    HW214571   1.487   4.296   9.543  0.0654  0.4739 -2.5073
 1037SOL     OW14572   0.523   0.184   9.817  0.3649 -0.7631  0.3092
 1037SOL    HW114573   0.452   0.227   9.866  1.8452  1.3924  0.5519
 1037SOL    HW214574   0.604   0.224   9.848 -0.4400  1.2641 -0.2216
 1038SOL     OW14575   3.882   3.239   5.579 -0.4758 -0.1743  0.4658
 1038SOL    HW114576   3.959   3.255   5.634  1.5059 -3.8309 -1.2316
 1038SOL    HW214577   3.880   3.318   5.525  1.3427 -0.7853 -0.5089
 1039SOL     OW14578   0.991   3.294   9.855 -0.3725 -0.1353 -0.2280
 1039SOL    HW114579   1.067   3.277   9.799 -0.6271  0.0891 -0.6380
 1039SOL    HW214580   1.028   3.350   9.923 -0.9763  0.3619 -0.3116
 1040SOL     OW14581   1.832   3.177   0.718  0.5218  0.3973 -0.9229
 1040SOL    HW114582   1.877   3.262   0.724 -0.3235  0.6533  1.9784
 1040SOL    HW214583   1.768   3.189   0.788 -0.1128 -2.3923 -1.0368
 1041SOL     OW14584   3.681   1.739   0.572 -0.1084 -0.2906  0.1228
 1041SOL    HW114585   3.760   1.688   0.557 -0.5768  0.0032 -3.3358
 1041SOL    HW214586   3.642   1.698   0.649 -0.4469 -0.0316  0.0911
 1042SOL     OW14587   1.341   0.142   4.379 -0.0635 -0.1785  0.4705
 1042SOL    HW114588   1.417   0.190   4.347 -0.6158 -0.4703 -1.2949
 1042SOL    HW214589   1.306   0.190   4.453  1.4801  0.8697  0.5142
 1043SOL     OW14590   2.836   2.846   3.135  0.8116 -0.2541 -0.2084
 1043SOL    HW114591   2.841   2.812   3.045 -1.6747  2.5113 -1.3949
 1043SOL    HW214592   2.787   2.927   3.126 -2.4175 -2.2197 -0.1151
 1044SOL     OW14593   1.433   0.603   4.975 -0.0079  0.2301  0.0361
 1044SOL    HW114594   1.385   0.680   5.007 -1.5117 -0.4835 -0.4977
 1044SOL    HW214595   1.410   0.537   5.040  2.1871  0.2398  0.8380
 1045SOL     OW14596   1.299   2.212   1.129 -0.3491  0.1008 -0.0692
 1045SOL    HW114597   1.393   2.227   1.116 -0.1998 -0.3967  0.4615
 1045SOL    HW214598   1.293   2.129   1.177  1.0086  0.4023  0.6340
 1046SOL     OW14599   0.707   0.293   3.752 -0.1979 -0.4154 -0.0780
 1046SOL    HW114600   0.791   0.256   3.726  1.5857  3.2135  0.5905
 1046SOL    HW214601   0.642   0.226   3.730  0.6545 -1.1053 -0.5100
 1047SOL     OW14602   0.364   4.201   8.859  0.1547 -0.3909  0.3397
 1047SOL    HW114603   0.377   4.109   8.883 -2.1646 -0.5450  1.0287
 1047SOL    HW214604   0.330   4.192   8.770  0.6695 -3.7534  0.4684
 1048SOL     OW14605   3.235   4.175   0.395 -0.3119 -0.0808 -0.2017
 1048SOL    HW114606   3.296   4.241   0.427  0.1644 -0.8883  0.5699
 1048SOL    HW214607   3.254   4.191   0.303  1.1875 -0.1051  0.1016
 1049SOL     OW14608   1.314   1.529   9.343  0.4503  0.1367 -0.1071
 1049SOL    HW114609   1.402   1.522   9.382  1.3642 -0.2289 -2.2126
 1049SOL    HW214610   1.279   1.601   9.395  0.1522 -1.6228  2.1244
 1050SOL     OW14611   4.125   4.569   6.432  0.3670  0.0654  0.5564
 1050SOL    HW114612   4.177   4.509   6.379 -2.2018 -0.9924 -0.7603
 1050SOL    HW214613   4.101   4.513   6.506  0.8555 -0.3800  0.3804
 1051SOL     OW14614   0.294   0.656   3.252 -0.2047 -0.1127 -0.7547
 1051SOL    HW114615   0.328   0.591   3.314  2.3315 -0.1654 -2.1934
 1051SOL    HW214616   0.206   0.624   3.234  0.8394 -2.8494 -1.0080
 1052SOL     OW14617   1.228   0.167   8.406 -0.3577 -0.0671  0.4733
 1052SOL    HW114618   1.208   0.185   8.314 -0.4392  1.6887  0.8363
 1052SOL    HW214619   1.320   0.190   8.418  0.4817 -3.4279  0.6008
 1053SOL     OW14620   0.360   1.346   3.610 -0.1001  0.9240  0.3567
 1053SOL    HW114621   0.454   1.360   3.597  0.3050 -1.6195  0.6798
 1053SOL    HW214622   0.326   1.355   3.521  0.2559  3.9823  0.5115
 1054SOL     OW14623   0.087   1.763   4.158  0.1346 -0.3124  0.2990
 1054SOL    HW114624   0.008   1.711   4.147  0.0077 -0.6900  2.8899
 1054SOL    HW214625   0.124   1.731   4.240  1.9704 -0.7839 -0.6992
 1055SOL     OW14626   3.969   0.389   1.489  0.0475  0.3440  0.2095
 1055SOL    HW114627   3.973   0.298   1.519 -0.7083 -0.1327 -1.1331
 1055SOL    HW214628   3.877   0.398   1.462  0.2567  1.7030 -0.0763
 1056SOL     OW14629   4.282   4.394   7.658  0.2286  0.7407 -0.2127
 1056SOL    HW114630   4.272   4.404   7.753 -0.7526  0.4345 -0.2825
 1056SOL    HW214631   4.262   4.483   7.629  1.4950  0.4646 -1.9683
 1057SOL     OW14632   1.010   0.510  14.181  0.8208 -0.5679 -0.4897
 1057SOL    HW114633   1.026   0.599  14.214  1.1369 -1.4636  1.8055
 1057SOL    HW214634   0.942   0.530  14.117  1.8141  0.7304 -1.1513
 1058SOL     OW14635   0.377   3.050  16.418  0.3223 -0.0191  0.3175
 1058SOL    HW114636   0.364   3.099  16.500 -2.3192 -1.3790  0.7243
 1058SOL    HW214637   0.403   3.121  16.360  1.2773 -1.1505 -0.6301
 1059SOL     OW14638   2.610   0.494  16.581  0.6057  0.1063  0.0827
 1059SOL    HW114639   2.635   0.461  16.667 -1.0383 -0.2019  0.4527
 1059SOL    HW214640   2.590   0.582  16.613 -0.0871 -0.2688  0.7023
 1060SOL     OW14641   0.472   0.278  17.329 -0.1897 -0.2889 -0.0750
 1060SOL    HW114642   0.562   0.312  17.336 -0.0231 -0.7794  0.1104
 1060SOL    HW214643   0.434   0.354  17.373 -1.5433 -0.7945 -0.3870
 1061SOL     OW14644   1.703   2.260   8.241 -0.2603  0.2463 -0.5094
 1061SOL    HW114645   1.733   2.179   8.200  1.0420  0.6432 -0.3259
 1061SOL    HW214646   1.680   2.218   8.324 -0.0884  0.2225 -0.4730
 1062SOL     OW14647   1.845   3.730   4.221 -0.3836  0.2395  0.1351
 1062SOL    HW114648   1.940   3.742   4.221 -0.4494  0.7876  1.2975
 1062SOL    HW214649   1.833   3.732   4.126 -2.1384 -0.7171  0.3500
 1063SOL     OW14650   1.846   3.653  12.911 -0.7301  0.0067 -0.1110
 1063SOL    HW114651   1.842   3.559  12.895  1.0625 -0.0945 -0.0483
 1063SOL    HW214652   1.762   3.692  12.890  0.1134  1.5964 -0.5056
 1064SOL     OW14653   0.691   3.586   3.564 -0.0597 -0.1366  0.3603
 1064SOL    HW114654   0.641   3.589   3.482  0.1593 -1.4968  0.1835
 1064SOL    HW214655   0.674   3.675   3.593  3.3229  0.5141  0.3791
 1065SOL     OW14656   0.418   2.048   9.608  0.0884 -0.7164  0.0661
 1065SOL    HW114657   0.324   2.028   9.608  0.0507 -0.5375 -0.1832
 1065SOL    HW214658   0.444   2.034   9.699  2.8371  1.7494 -0.3599
 1066SOL     OW14659   2.523   0.551   8.275  0.1175 -0.4475  0.1647
 1066SOL    HW114660   2.462   0.507   8.216  2.4154  1.4579 -3.6767
 1066SOL    HW214661   2.559   0.613   8.212  1.7358 -1.2425  0.3012
 1067SOL     OW14662   1.668   0.867   3.768  0.0084 -0.1550  0.1250
 1067SOL    HW114663   1.701   0.807   3.835  1.3486 -1.3144 -1.5738
 1067SOL    HW214664   1.645   0.949   3.811 -1.0268 -0.1934 -0.3456
 1068SOL     OW14665   4.249   2.375  11.536 -0.3678 -0.1040 -0.2245
 1068SOL    HW114666   4.290   2.377  11.623  1.3675  0.9584 -1.0850
 1068SOL    HW214667   4.327   2.409  11.492 -2.3379  1.1153 -2.7773
 1069SOL     OW14668   1.518   1.160   4.167 -0.5142 -0.1393  0.7690
 1069SOL    HW114669   1.549   1.192   4.252  1.4707  1.9493 -0.7492
 1069SOL    HW214670   1.440   1.118   4.202 -1.5917  0.4486 -0.9255
 1070SOL     OW14671   1.063   2.743  13.482 -0.0973  0.1265 -0.2426
 1070SOL    HW114672   0.990   2.786  13.437  0.2154  0.4690 -0.4223
 1070SOL    HW214673   1.114   2.823  13.498 -0.2763  0.4418 -1.2397
 1071SOL     OW14674   0.393   3.758   6.755 -0.1405  0.7811 -0.6261
 1071SOL    HW114675   0.469   3.700   6.761 -2.0437 -1.5766  0.3638
 1071SOL    HW214676   0.323   3.696   6.775  0.1479  0.8056  0.4553
 1072SOL     OW14677   0.042   2.442  15.002  0.4517  0.2239 -0.2153
 1072SOL    HW114678   0.132   2.474  14.996 -0.0967  1.6004 -1.0603
 1072SOL    HW214679   0.017   2.402  14.919  1.7648  2.2105 -1.5609
 1073SOL     OW14680   1.665   1.283   6.326 -0.0851 -0.2358 -0.3558
 1073SOL    HW114681   1.750   1.316   6.358 -0.8248 -0.3549  1.7380
 1073SOL    HW214682   1.614   1.292   6.407 -1.3384 -1.0917 -1.0656
 1074SOL     OW14683   4.652   3.938  11.783 -0.3028 -0.2811 -0.0662
 1074SOL    HW114684   4.661   3.844  11.772 -1.0928 -0.3761  0.1402
 1074SOL    HW214685   4.595   3.966  11.712  0.7199 -1.2502 -1.2722
 1075SOL     OW14686   2.115   1.951   5.466  0.5892  0.1557  0.4293
 1075SOL    HW114687   2.076   2.038   5.463 -1.4064 -0.7391  0.5876
 1075SOL    HW214688   2.178   1.945   5.394 -0.0555 -0.9594 -0.0273
 1076SOL     OW14689   3.279   3.753  10.833  0.2702 -0.0335  0.6055
 1076SOL    HW114690   3.312   3.771  10.744  0.0896 -1.1549  0.3044
 1076SOL    HW214691   3.220   3.679  10.816  1.6198 -2.1331  4.9474
 1077SOL     OW14692   2.160   2.516   8.960 -0.1777  0.5986  0.1232
 1077SOL    HW114693   2.181   2.598   9.005 -3.1653  1.5807 -0.2771
 1077SOL    HW214694   2.102   2.465   9.016 -2.1804  1.1805 -1.4100
 1078SOL     OW14695   2.253   3.016   4.829  0.4651  0.7285  0.6569
 1078SOL    HW114696   2.192   2.953   4.791 -0.0631  1.0171  1.0475
 1078SOL    HW214697   2.334   2.988   4.786  0.8950  2.3836  0.3844
 1079SOL     OW14698   1.226   1.507   5.968  0.1831 -0.5206 -0.0116
 1079SOL    HW114699   1.235   1.475   6.058  0.3799  0.4398  0.3136
 1079SOL    HW214700   1.145   1.461   5.942  0.7382 -1.0707 -0.7645
 1080SOL     OW14701   4.306   4.324  16.514 -0.2966 -0.0652 -0.5020
 1080SOL    HW114702   4.302   4.411  16.475 -0.6992  0.2949  0.3731
 1080SOL    HW214703   4.289   4.267  16.438  2.5985  0.2462 -1.3805
 1081SOL     OW14704   1.816   1.581   1.585 -0.0692  0.0166  0.7782
 1081SOL    HW114705   1.727   1.558   1.613 -1.2377  1.1241 -2.0441
 1081SOL    HW214706   1.845   1.490   1.577 -2.0210 -0.5405 -0.0443
 1082SOL     OW14707   0.404   0.148   0.200  0.1716  0.5633 -0.0965
 1082SOL    HW114708   0.426   0.066   0.244  0.0599 -0.1831 -1.4233
 1082SOL    HW214709   0.369   0.185   0.281 -3.1138  0.8035 -1.6241
 1083SOL     OW14710   4.104   1.889   3.675  0.2576 -0.5800 -0.4938
 1083SOL    HW114711   4.132   1.935   3.596 -1.3898 -0.4341 -0.9984
 1083SOL    HW214712   4.185   1.855   3.713  2.7393  2.9168 -2.6461
 1084SOL     OW14713   1.944   3.510   2.326  0.1470 -0.2244 -0.4592
 1084SOL    HW114714   1.853   3.503   2.298 -0.7767 -1.7906  2.9515
 1084SOL    HW214715   1.935   3.597   2.364 -2.1981 -0.7902  0.2568
 1085SOL     OW14716   4.613   0.165  13.792  0.1446  0.3238  0.1383
 1085SOL    HW114717   4.596   0.146  13.884 -0.0023  0.6542  0.1810
 1085SOL    HW214718   4.604   0.260  13.797  0.0521  0.3435 -0.4546
 1086SOL     OW14719   2.229   3.119  16.682 -0.1465  0.2428 -0.1945
 1086SOL    HW114720   2.164   3.119  16.752  0.7370 -0.3534  0.6242
 1086SOL    HW214721   2.178   3.177  16.625  3.2125  0.5968 -2.8424
 1087SOL     OW14722   0.230   4.279   7.002  0.1149 -0.0623 -0.0512
 1087SOL    HW114723   0.216   4.266   6.908  2.9318  0.9794 -0.5997
 1087SOL    HW214724   0.159   4.342   7.017  1.2592  1.0511  0.6843
 1088SOL     OW14725   2.110   3.277   4.820 -0.7087 -0.3043 -0.0562
 1088SOL    HW114726   2.158   3.246   4.743 -2.2948 -1.4437 -0.5833
 1088SOL    HW214727   2.030   3.306   4.775 -1.6022 -1.9471  0.4836
 1089SOL     OW14728   0.057   3.325  15.582  0.3686 -0.2462 -0.6442
 1089SOL    HW114729   0.038   3.407  15.538 -3.4999 -1.3856 -1.0654
 1089SOL    HW214730   0.054   3.352  15.674  1.2022 -0.6973 -0.4830
 1090SOL     OW14731   1.515   0.827   6.926  0.1136 -0.4804 -0.6124
 1090SOL    HW114732   1.500   0.764   6.995 -0.4898 -0.3759 -0.6512
 1090SOL    HW214733   1.518   0.914   6.966  0.9171 -0.4900 -0.6411
 1091SOL     OW14734   1.237   3.827   9.027  0.4550 -0.3504  0.1216
 1091SOL    HW114735   1.242   3.820   9.122  2.3291 -2.6169 -0.1492
 1091SOL    HW214736   1.311   3.884   9.004  1.4410 -2.6245 -2.3181
 1092SOL     OW14737   0.546   3.335   6.444 -0.1621 -0.6000  0.3817
 1092SOL    HW114738   0.574   3.289   6.365  0.4433  0.1995  0.1316
 1092SOL    HW214739   0.544   3.258   6.501 -0.0869  0.0126  1.2185
 1093SOL     OW14740   0.739   1.559   5.192  0.1515 -0.0696  0.0444
 1093SOL    HW114741   0.776   1.471   5.208 -0.4218  0.0397  1.9509
 1093SOL    HW214742   0.646   1.545   5.209  0.1741  1.8968  1.7334
 1094SOL     OW14743   4.155   0.231   3.452 -0.7175 -0.3632  0.2713
 1094SOL    HW114744   4.202   0.221   3.535 -0.3046  0.1943  0.1123
 1094SOL    HW214745   4.179   0.150   3.407  3.0764  0.5423  0.6200
 1095SOL     OW14746   4.318   0.955   2.656  0.0933 -0.4554 -0.0137
 1095SOL    HW114747   4.339   0.894   2.586 -1.1030 -1.1345  0.2210
 1095SOL    HW214748   4.303   1.043   2.620  0.7209 -0.5725 -0.5604
 1096SOL     OW14749   3.579   0.956   1.768 -0.0078 -1.0587  0.0396
 1096SOL    HW114750   3.663   0.934   1.808  0.1768 -1.7630 -0.7330
 1096SOL    HW214751   3.598   0.928   1.678 -1.4282 -2.7220  0.2508
 1097SOL     OW14752   0.461   4.072   2.334 -0.1820  0.5640 -0.0694
 1097SOL    HW114753   0.481   4.117   2.416  2.2405 -0.0321 -0.3249
 1097SOL    HW214754   0.375   4.103   2.307  0.1270  1.0091 -0.5430
 1098SOL     OW14755   2.814   4.543   7.646 -0.4226  0.0663 -0.1329
 1098SOL    HW114756   2.771   4.570   7.564 -3.1307  0.6680  1.4730
 1098SOL    HW214757   2.905   4.546   7.619 -0.7711  0.7305 -1.2428
 1099SOL     OW14758   3.618   3.397   0.256 -0.4975  0.1328  0.0821
 1099SOL    HW114759   3.684   3.456   0.293 -1.1836  0.9456  0.0169
 1099SOL    HW214760   3.652   3.328   0.313 -0.2794  1.4324  1.5393
 1100SOL     OW14761   0.481   2.247   2.704 -0.2944 -0.3012  0.2693
 1100SOL    HW114762   0.560   2.221   2.750 -0.2200 -2.2732 -0.9674
 1100SOL    HW214763   0.456   2.312   2.770 -2.1431 -0.3722 -0.3552
 1101SOL     OW14764   3.715   4.271   1.638 -0.3093  0.1271 -0.1994
 1101SOL    HW114765   3.799   4.226   1.629 -0.8534 -0.4494 -2.2943
 1101SOL    HW214766   3.738   4.354   1.596  3.4979 -0.6534  0.2730
 1102SOL     OW14767   1.768   0.838   4.257 -0.6611 -0.4516  0.2955
 1102SOL    HW114768   1.774   0.907   4.191 -0.1738 -0.9829 -0.2103
 1102SOL    HW214769   1.768   0.886   4.340 -0.9728 -2.2419  1.3304
 1103SOL     OW14770   3.134   4.360   4.754  0.2915 -0.2557 -0.2192
 1103SOL    HW114771   3.104   4.410   4.678  0.0722 -1.8101 -1.1751
 1103SOL    HW214772   3.107   4.408   4.832  2.7450 -0.3342  0.7000
 1104SOL     OW14773   4.502   4.467   3.977  0.2679 -0.1632 -0.3185
 1104SOL    HW114774   4.419   4.419   3.981  1.3940 -1.7731  3.9023
 1104SOL    HW214775   4.564   4.410   3.932  0.5994  0.6964 -0.9634
 1105SOL     OW14776   2.193   2.678   1.071 -0.6646  0.1248 -0.0947
 1105SOL    HW114777   2.253   2.605   1.054 -2.1425 -0.9007 -0.8473
 1105SOL    HW214778   2.255   2.743   1.104  0.4131 -0.7754 -0.3134
 1106SOL     OW14779   1.152   1.079   0.017 -0.3444  0.0598 -0.2895
 1106SOL    HW114780   1.223   1.093  17.631 -1.6001 -1.0778 -1.9930
 1106SOL    HW214781   1.107   1.157  17.663  1.1304  1.0049 -0.0532
 1107SOL     OW14782   1.161   4.141   1.738 -0.0955  0.0019 -1.4478
 1107SOL    HW114783   1.169   4.125   1.644  0.9194 -1.9427 -1.0221
 1107SOL    HW214784   1.251   4.126   1.767 -0.8505 -1.5766  0.0781
 1108SOL     OW14785   0.296   2.338  15.438  0.1911 -0.8219  0.4776
 1108SOL    HW114786   0.231   2.268  15.435  0.5945 -1.1486 -0.5869
 1108SOL    HW214787   0.266   2.396  15.368  0.1886  1.0654  2.0237
 1109SOL     OW14788   1.830   1.172   5.080  0.6457  0.1487  0.5718
 1109SOL    HW114789   1.834   1.078   5.062 -0.2430  0.1152  0.5514
 1109SOL    HW214790   1.753   1.166   5.136  0.9559  3.1181  1.3399
 1110SOL     OW14791   0.882   0.359   2.928  0.2737  0.0164  0.2043
 1110SOL    HW114792   0.882   0.393   2.838 -0.7059 -0.5048  0.0104
 1110SOL    HW214793   0.976   0.350   2.944  0.5753  1.3392 -0.7860
 1111SOL     OW14794   2.103   4.617   0.770  0.5343  0.1722  0.3764
 1111SOL    HW114795   2.116   4.712   0.774 -1.2244  0.3591  1.4704
 1111SOL    HW214796   2.164   4.585   0.836 -0.4502 -1.8847  0.2651
 1112SOL     OW14797   0.114   0.933   5.585 -0.2022 -0.3372  0.1892
 1112SOL    HW114798   0.107   1.028   5.577  2.1193 -0.0313  1.7971
 1112SOL    HW214799   0.096   0.903   5.497  0.0855 -0.3585  0.1361
 1113SOL     OW14800   0.660   0.051  11.610  0.0688 -0.7731 -0.0614
 1113SOL    HW114801   0.716   4.692  11.599  1.9411  0.6060 -0.1991
 1113SOL    HW214802   0.605   0.049  11.532 -3.5421  2.2835  2.4070
 1114SOL     OW14803   2.480   4.035   5.572 -0.0926  0.5651  0.1499
 1114SOL    HW114804   2.545   3.994   5.515  0.0287  0.8464  0.0847
 1114SOL    HW214805   2.537   4.100   5.614  1.0219 -1.6782  2.1231
 1115SOL     OW14806   2.055   1.734   7.000 -0.2411  0.2818 -0.1887
 1115SOL    HW114807   2.057   1.644   6.969  0.2401 -0.2210  1.3053
 1115SOL    HW214808   2.128   1.734   7.063 -0.5456  0.6110  0.1607
 1116SOL     OW14809   0.110   0.200   4.189  0.5203  0.0150  0.2593
 1116SOL    HW114810   0.055   0.154   4.252 -1.5764 -0.3708 -1.8593
 1116SOL    HW214811   0.135   0.134   4.124  2.3231  0.1426  0.8026
 1117SOL     OW14812   0.520   3.997  12.211  0.5196 -0.2611 -0.1223
 1117SOL    HW114813   0.612   3.983  12.189  0.9074  1.3598  0.5458
 1117SOL    HW214814   0.489   3.923  12.157  0.6159  1.5632 -2.6625
 1118SOL     OW14815   4.616   0.804  12.139 -0.3492 -0.7371 -0.2212
 1118SOL    HW114816   4.549   0.824  12.205 -0.2104  0.5455 -0.4633
 1118SOL    HW214817   4.629   0.711  12.154  0.5272 -0.5594  0.0777
 1119SOL     OW14818   2.537   1.390   2.051  0.1770  0.0240 -0.6204
 1119SOL    HW114819   2.607   1.455   2.059  0.3896 -0.3792  0.8428
 1119SOL    HW214820   2.552   1.328   2.122 -0.3255 -0.9991 -1.4057
 1120SOL     OW14821   1.050   0.106  16.952  0.0788 -0.1580 -0.8047
 1120SOL    HW114822   1.067   0.184  16.899  1.4071  0.3861  0.4479
 1120SOL    HW214823   1.065   0.130  17.043 -0.8108 -2.1291 -0.1475
 1121SOL     OW14824   1.766   1.707   5.175  0.5414  0.5003  0.5957
 1121SOL    HW114825   1.777   1.753   5.092  0.0069  0.7817  0.6864
 1121SOL    HW214826   1.849   1.725   5.221  0.8227 -2.0615  1.0803
 1122SOL     OW14827   1.427   4.382  11.981  0.2259 -0.3790  0.5557
 1122SOL    HW114828   1.501   4.412  12.035  0.7362  0.0737 -0.4044
 1122SOL    HW214829   1.353   4.384  12.041 -0.3607 -5.1175  0.0229
 1123SOL     OW14830   2.770   0.465   3.086 -0.0345  0.3934  0.1257
 1123SOL    HW114831   2.699   0.518   3.122 -1.1660  0.7036 -2.6114
 1123SOL    HW214832   2.720   0.427   3.014 -0.7681  3.1000 -0.7930
 1124SOL     OW14833   2.172   2.714  16.119 -0.2661 -0.6789  0.0159
 1124SOL    HW114834   2.255   2.688  16.158  0.3812 -0.1168 -0.9939
 1124SOL    HW214835   2.159   2.801  16.156  0.9021  0.2003 -1.6316
 1125SOL     OW14836   0.409   0.625   9.058 -0.1414  0.7869 -0.0101
 1125SOL    HW114837   0.400   0.714   9.092 -0.0920  0.5242  0.6952
 1125SOL    HW214838   0.317   0.600   9.053  0.2922 -1.1960  2.3404
 1126SOL     OW14839   0.347   0.844  14.792 -0.2509  0.2639  0.4756
 1126SOL    HW114840   0.316   0.920  14.742 -0.8660  0.3399  0.9794
 1126SOL    HW214841   0.273   0.792  14.762 -1.2035  0.6066  2.2553
 1127SOL     OW14842   1.695   2.354   7.504 -0.1924 -0.1593  0.3510
 1127SOL    HW114843   1.700   2.338   7.598  1.6680 -0.3055  0.2174
 1127SOL    HW214844   1.699   2.262   7.478  2.0340  0.7053 -2.3831
 1128SOL     OW14845   3.633   2.232  12.582  0.0195  0.2467  0.5716
 1128SOL    HW114846   3.694   2.183  12.638  1.5503 -0.0445 -1.3515
 1128SOL    HW214847   3.586   2.154  12.552 -1.0239  1.8505 -1.8994
 1129SOL     OW14848   0.413   0.215  13.418 -0.5391 -0.1531  0.5732
 1129SOL    HW114849   0.507   0.201  13.403 -0.5068 -1.0542  1.6180
 1129SOL    HW214850   0.399   0.309  13.407 -0.5733 -0.0781  1.2688
 1130SOL     OW14851   1.358   3.153   8.916  0.0597 -0.3629 -0.5259
 1130SOL    HW114852   1.280   3.124   8.869 -1.7086  1.0258  1.5832
 1130SOL    HW214853   1.321   3.210   8.982 -0.7253 -3.0425  1.3523
 1131SOL     OW14854   2.597   3.308   3.737  0.0465 -0.5692  0.1731
 1131SOL    HW114855   2.630   3.244   3.674  0.3379 -0.4614  0.2158
 1131SOL    HW214856   2.574   3.384   3.683  1.3000 -0.3294 -0.0132
 1132SOL     OW14857   1.196   3.334   7.426  0.0341 -0.3213 -0.2176
 1132SOL    HW114858   1.290   3.329   7.407  0.1944 -0.3191  0.6074
 1132SOL    HW214859   1.148   3.342   7.343 -0.0805  4.7051  0.3240
 1133SOL     OW14860   4.237   3.905   6.230 -0.2956 -0.4485 -0.0070
 1133SOL    HW114861   4.249   3.926   6.137 -2.1951  1.9026  0.2680
 1133SOL    HW214862   4.214   3.812   6.222  0.7168 -0.6961 -0.0048
 1134SOL     OW14863   3.731   0.882  13.099 -0.0583  0.0430 -0.1012
 1134SOL    HW114864   3.638   0.903  13.103 -0.2339 -1.0388  1.1271
 1134SOL    HW214865   3.728   0.813  13.033  0.0874 -1.4421  1.4479
 1135SOL     OW14866   4.176   1.207   5.895  0.7948 -0.3742  0.8594
 1135SOL    HW114867   4.251   1.181   5.842 -0.1886 -0.5807 -0.4342
 1135SOL    HW214868   4.159   1.121   5.934 -0.6173 -0.3592  0.2517
 1136SOL     OW14869   1.054   0.777  16.214  0.2789  0.3848 -0.3667
 1136SOL    HW114870   1.082   0.693  16.250 -1.0301  0.8945  1.8831
 1136SOL    HW214871   1.128   0.791  16.155  0.5411 -2.3764 -0.6659
 1137SOL     OW14872   0.954   1.562   9.320 -0.1015  0.5673  0.6119
 1137SOL    HW114873   0.890   1.520   9.262  1.9493 -1.6189 -0.0580
 1137SOL    HW214874   0.946   1.502   9.394  2.0425 -2.2265 -1.4393
 1138SOL     OW14875   0.988   3.326   3.453 -0.2626  0.0023 -0.0523
 1138SOL    HW114876   1.049   3.253   3.446 -0.1998  0.1482 -1.0187
 1138SOL    HW214877   0.932   3.316   3.375 -0.8207 -0.0903  0.3583
 1139SOL     OW14878   4.522   2.497   6.213  0.3609  0.7118 -0.1874
 1139SOL    HW114879   4.499   2.440   6.286  0.0916  1.2258  0.1306
 1139SOL    HW214880   4.446   2.556   6.216  0.1930  0.3854  1.9163
 1140SOL     OW14881   2.106   3.457   1.057  0.1113  0.4199  0.2148
 1140SOL    HW114882   2.114   3.498   1.143 -1.2161 -1.9325  1.4369
 1140SOL    HW214883   2.174   3.390   1.052  0.2323  0.6222 -0.7952
 1141SOL     OW14884   3.054   3.706  11.723 -0.5791  0.2221  0.2806
 1141SOL    HW114885   2.991   3.668  11.783  0.0025  1.9816  2.0041
 1141SOL    HW214886   3.105   3.763  11.780 -0.2184 -2.2039  2.3614
 1142SOL     OW14887   3.670   0.410   7.284 -0.3563  0.4116  0.0596
 1142SOL    HW114888   3.674   0.496   7.241  0.4748  0.8379  0.9779
 1142SOL    HW214889   3.762   0.386   7.295 -0.0743  1.2031 -0.5924
 1143SOL     OW14890   4.677   3.824   0.426 -0.3664  0.3679  0.1061
 1143SOL    HW114891   0.047   3.845   0.457 -0.2970  0.6158 -0.2605
 1143SOL    HW214892   4.662   3.742   0.473 -1.2277 -0.0966 -0.9727
 1144SOL     OW14893   1.183   3.900   5.759  0.7036 -0.5734  0.8135
 1144SOL    HW114894   1.234   3.870   5.834 -1.7769  0.9722  3.1276
 1144SOL    HW214895   1.126   3.966   5.799  1.6200  1.4734 -1.2597
 1145SOL     OW14896   4.042   1.226  12.507  0.2514 -0.5580  0.8540
 1145SOL    HW114897   3.983   1.161  12.543 -0.8404  1.0176  1.9150
 1145SOL    HW214898   4.121   1.211  12.559  1.7411  0.6653 -1.0486
 1146SOL     OW14899   4.397   4.214   6.621 -0.8548  0.0987  0.0241
 1146SOL    HW114900   4.383   4.135   6.568 -1.0953  1.9442 -2.6247
 1146SOL    HW214901   4.445   4.173   6.694  2.8124  2.3520 -1.1364
 1147SOL     OW14902   1.826   2.626   7.158 -0.4654 -0.0994  0.4515
 1147SOL    HW114903   1.887   2.658   7.224 -1.5427 -0.9709  1.8798
 1147SOL    HW214904   1.763   2.577   7.211  0.0506 -1.1219  0.1109
 1148SOL     OW14905   3.686   4.519   5.629 -0.7687 -0.4443  0.2409
 1148SOL    HW114906   3.718   4.523   5.539  2.4424  1.1614  1.4356
 1148SOL    HW214907   3.744   4.580   5.675 -0.4492 -0.2967 -0.3578
 1149SOL     OW14908   1.294   3.703   5.586  0.6787 -0.9193 -0.1679
 1149SOL    HW114909   1.377   3.709   5.634  1.2677 -1.0413 -1.1647
 1149SOL    HW214910   1.250   3.781   5.620  1.3905 -0.6321  0.0866
 1150SOL     OW14911   4.151   0.192  16.467  0.1689  0.0738 -0.4535
 1150SOL    HW114912   4.182   0.165  16.554  0.8000  1.0695 -0.3656
 1150SOL    HW214913   4.234   0.228  16.435 -0.1264  0.0221 -1.2791
 1151SOL     OW14914   1.296   1.388   3.856 -0.4292  0.1982  0.0032
 1151SOL    HW114915   1.387   1.410   3.871 -1.3786  3.0352  1.6590
 1151SOL    HW214916   1.292   1.404   3.761  0.1816 -1.7446 -0.3535
 1152SOL     OW14917   1.098   2.627   8.599 -0.0677  0.2329 -0.0500
 1152SOL    HW114918   1.059   2.686   8.534 -1.5753 -0.5909  0.1247
 1152SOL    HW214919   1.032   2.641   8.666  1.3157  0.3346  1.2863
 1153SOL     OW14920   1.411   0.338   5.555 -0.7494 -0.0535 -0.2090
 1153SOL    HW114921   1.455   0.421   5.573  0.5234 -0.8299  0.2875
 1153SOL    HW214922   1.368   0.362   5.473  1.5665  1.0573 -1.1048
 1154SOL     OW14923   0.314   1.059   8.321  0.2502 -0.5638  0.3617
 1154SOL    HW114924   0.372   1.004   8.375 -1.4940 -3.3711 -0.5975
 1154SOL    HW214925   0.335   1.039   8.230 -0.2369 -1.2851  0.4121
 1155SOL     OW14926   4.021   2.453  11.435  0.5882  0.3474 -0.0186
 1155SOL    HW114927   4.109   2.426  11.460  0.4396 -0.5766 -0.4982
 1155SOL    HW214928   3.981   2.434  11.520  2.5299  2.2225  1.3261
 1156SOL     OW14929   4.161   0.587   6.441 -0.5208  0.4301 -0.1934
 1156SOL    HW114930   4.141   0.556   6.530  0.4328  1.9794  0.5754
 1156SOL    HW214931   4.163   0.501   6.401  0.1728  0.1511  0.4432
 1157SOL     OW14932   1.833   0.460   3.927  0.0321  0.5309  0.4911
 1157SOL    HW114933   1.873   0.376   3.905 -1.3405 -0.1512  0.5938
 1157SOL    HW214934   1.815   0.463   4.021  0.8999 -0.5955  0.6857
 1158SOL     OW14935   0.521   0.298  15.669 -0.3436 -0.5768  0.3090
 1158SOL    HW114936   0.465   0.376  15.669 -0.4133 -0.6318 -0.7449
 1158SOL    HW214937   0.592   0.346  15.626 -0.7234 -2.3079 -2.2145
 1159SOL     OW14938   0.174   1.853   3.626 -0.2483  0.4752  0.1703
 1159SOL    HW114939   0.120   1.782   3.660  1.2358 -1.2762 -1.1121
 1159SOL    HW214940   0.193   1.810   3.542 -0.7119  3.3842 -1.4400
 1160SOL     OW14941   0.817   3.888  13.714 -0.3114  0.4912  0.1111
 1160SOL    HW114942   0.843   3.887  13.806 -0.1723 -0.0152  0.0660
 1160SOL    HW214943   0.725   3.863  13.720 -0.5875  0.7624 -2.9115
 1161SOL     OW14944   1.103   4.507   5.638  0.4371 -0.1778 -0.3048
 1161SOL    HW114945   1.077   4.462   5.718 -2.4680 -0.5524 -1.4510
 1161SOL    HW214946   1.157   4.581   5.665  0.3993 -1.0732  2.1705
 1162SOL     OW14947   1.384   4.313  12.436 -0.1967 -0.3829  0.3797
 1162SOL    HW114948   1.422   4.252  12.373 -0.5082 -0.1997  0.0081
 1162SOL    HW214949   1.395   4.392  12.382  0.5462 -1.4060 -0.9564
 1163SOL     OW14950   1.948   2.660   6.883  0.0038  0.1467  0.0439
 1163SOL    HW114951   1.905   2.623   6.960 -0.7870 -1.4673 -1.1506
 1163SOL    HW214952   2.042   2.652   6.900 -0.1761  0.7117  1.2694
 1164SOL     OW14953   3.062   1.914   2.657 -0.5395  0.1264 -0.3307
 1164SOL    HW114954   3.078   1.901   2.750 -0.7132 -0.2603 -0.3547
 1164SOL    HW214955   3.103   1.836   2.620 -0.2892  0.4455 -0.7290
 1165SOL     OW14956   0.174   4.060   2.063 -0.0839  0.0611  0.3418
 1165SOL    HW114957   0.265   4.089   2.059 -0.3427  0.7660 -0.5572
 1165SOL    HW214958   0.167   4.005   1.985 -2.1986  2.6162 -1.2570
 1166SOL     OW14959   2.396   2.500   1.084  0.6006  0.1190  0.6530
 1166SOL    HW114960   2.453   2.503   1.008 -0.9496  0.8033 -0.4911
 1166SOL    HW214961   2.453   2.519   1.158  1.0217  0.1173  0.3283
 1167SOL     OW14962   3.252   2.284  14.584  0.0342 -0.7179 -0.6307
 1167SOL    HW114963   3.206   2.279  14.500  2.1037 -0.3035 -1.7991
 1167SOL    HW214964   3.319   2.216  14.576  0.6236 -0.3529  1.2418
 1168SOL     OW14965   0.801   2.587   2.573 -0.3608  0.8379 -0.2437
 1168SOL    HW114966   0.883   2.628   2.601 -0.1978 -0.4926  1.2188
 1168SOL    HW214967   0.795   2.627   2.486 -1.3370  0.7400 -0.2273
 1169SOL     OW14968   4.210   0.372  11.240  0.1465  0.1436 -0.0344
 1169SOL    HW114969   4.276   0.440  11.254 -0.9666  1.2775 -0.2591
 1169SOL    HW214970   4.245   0.306  11.299 -0.4238 -0.2252 -0.1155
 1170SOL     OW14971   4.549   0.712   7.279  0.1047  0.1292  0.1829
 1170SOL    HW114972   4.470   0.695   7.227  0.4316 -0.4649 -0.1226
 1170SOL    HW214973   4.550   0.639   7.341 -1.4531 -0.3935 -0.3952
 1171SOL     OW14974   1.512   0.890  12.658 -0.3994  0.4099  0.9354
 1171SOL    HW114975   1.485   0.940  12.735 -1.9008  0.5194  0.3314
 1171SOL    HW214976   1.461   0.927  12.586  1.5110  0.0057 -0.6319
 1172SOL     OW14977   2.565   3.990  16.787  0.3669 -0.6369  0.4088
 1172SOL    HW114978   2.622   4.066  16.777  1.3671 -1.3650  0.6846
 1172SOL    HW214979   2.481   4.036  16.794  0.2848 -0.7519  0.1719
 1173SOL     OW14980   0.914   3.698   1.138  0.4029  0.3464  0.9421
 1173SOL    HW114981   0.954   3.613   1.121  0.0890  0.1816  1.0360
 1173SOL    HW214982   0.995   3.739   1.169  0.8946 -1.6063  2.2410
 1174SOL     OW14983   4.117   3.619  17.073 -0.4409 -0.6964  0.4938
 1174SOL    HW114984   4.051   3.629  17.142 -0.1265 -1.2335  0.8672
 1174SOL    HW214985   4.119   3.708  17.037 -1.2467 -0.8192  0.1450
 1175SOL     OW14986   0.509   4.644   4.075 -0.4949 -0.0069 -0.5922
 1175SOL    HW114987   0.545   0.001   4.122 -0.1136 -0.7639  0.3431
 1175SOL    HW214988   0.420   4.677   4.064 -0.3662  0.1985 -1.0089
 1176SOL     OW14989   3.867   0.073   3.882 -0.1297  0.4623  0.2220
 1176SOL    HW114990   3.827   4.706   3.864  0.5950  0.2759 -0.5444
 1176SOL    HW214991   3.912   0.057   3.965 -1.1429 -0.1346  0.6502
 1177SOL     OW14992   2.841   3.759   2.950  0.8127  0.4862 -0.1339
 1177SOL    HW114993   2.823   3.804   2.867 -0.0812 -0.5653 -0.5194
 1177SOL    HW214994   2.887   3.679   2.924  2.0987  1.0551  0.4008
 1178SOL     OW14995   2.163   2.337   4.192 -0.6009 -0.2408 -0.3649
 1178SOL    HW114996   2.156   2.273   4.120  2.2989  1.5189 -2.1999
 1178SOL    HW214997   2.184   2.288   4.272  0.0576  0.4352 -0.1261
 1179SOL     OW14998   2.108   0.264   5.562  0.5070 -0.3111  0.5264
 1179SOL    HW114999   2.017   0.270   5.535 -0.0972 -2.1563  2.2488
 1179SOL    HW215000   2.124   0.172   5.544 -2.4599 -0.9719  1.2803
 1180SOL     OW15001   3.647   4.635   7.719 -0.3805  0.1934 -0.3282
 1180SOL    HW115002   3.742   4.637   7.734 -0.6425  1.9577  1.0698
 1180SOL    HW215003   3.630   0.011   7.712 -1.1260  0.0971  0.1887
 1181SOL     OW15004   3.742   3.234   0.436  0.1965 -0.3131  0.6638
 1181SOL    HW115005   3.804   3.240   0.509  3.1840  1.9384 -2.0232
 1181SOL    HW215006   3.803   3.231   0.363 -0.7828 -0.6187 -0.1376
 1182SOL     OW15007   1.739   3.223   5.004  0.3418  0.1884  0.3532
 1182SOL    HW115008   1.824   3.180   5.008  0.5149  0.4203 -0.8873
 1182SOL    HW215009   1.711   3.199   4.916  0.3395 -0.0579  0.4206
 1183SOL     OW15010   3.412   2.785   5.930  0.3214 -0.1772 -0.1287
 1183SOL    HW115011   3.496   2.745   5.952 -0.9844 -2.7397  0.2672
 1183SOL    HW215012   3.410   2.776   5.834 -1.9271  0.7690 -0.1673
 1184SOL     OW15013   1.067   4.038   6.338 -0.5246 -0.4867 -0.3671
 1184SOL    HW115014   0.973   4.055   6.348 -0.3924 -1.5856  2.8513
 1184SOL    HW215015   1.058   3.963   6.280  4.0213 -2.1338  1.0675
 1185SOL     OW15016   4.570   4.214  14.805  0.5761 -0.5273  0.1783
 1185SOL    HW115017   4.599   4.305  14.797  0.1245 -0.4119 -0.0886
 1185SOL    HW215018   4.653   4.172  14.778  0.5397 -0.0323 -0.6848
 1186SOL     OW15019   3.623   0.732   3.795 -0.4765  0.4008  0.1989
 1186SOL    HW115020   3.591   0.642   3.801 -1.3081  0.6054 -1.3228
 1186SOL    HW215021   3.621   0.737   3.700 -1.5279  0.7416  0.2398
 1187SOL     OW15022   2.808   1.339   2.831  0.3511 -0.3668  0.6338
 1187SOL    HW115023   2.890   1.350   2.878  1.6131  0.4383 -1.7878
 1187SOL    HW215024   2.785   1.429   2.807  1.1136 -0.4017 -0.2235
 1188SOL     OW15025   3.763   3.039   2.644  0.0377 -0.0862  0.4641
 1188SOL    HW115026   3.802   2.985   2.713  1.3250  1.0579  0.6143
 1188SOL    HW215027   3.723   2.964   2.599 -1.0470 -0.0303  1.3275
 1189SOL     OW15028   0.282   0.239  13.167 -0.2965  0.3908 -0.5489
 1189SOL    HW115029   0.272   0.264  13.258  1.2881  2.8353 -1.0609
 1189SOL    HW215030   0.353   0.176  13.184 -2.2398 -1.2394  1.4157
 1190SOL     OW15031   3.228   1.487   7.208  0.6934 -0.2716 -0.3091
 1190SOL    HW115032   3.279   1.555   7.251  0.1976  1.3452 -2.2864
 1190SOL    HW215033   3.134   1.502   7.212  0.8055  0.0330  1.1120
 1191SOL     OW15034   3.375   4.356   6.823 -0.1658  0.4381 -0.5852
 1191SOL    HW115035   3.466   4.325   6.819  0.0692  0.8581  1.5290
 1191SOL    HW215036   3.353   4.326   6.911 -1.7281  1.1212 -0.7545
 1192SOL     OW15037   2.317   3.472   2.373 -0.0350 -0.0471  0.5815
 1192SOL    HW115038   2.349   3.562   2.383  0.3993 -0.1144 -0.2224
 1192SOL    HW215039   2.240   3.478   2.316  1.9051 -2.9597 -2.3464
 1193SOL     OW15040   3.586   1.999   5.189 -0.2241  0.2178 -0.3435
 1193SOL    HW115041   3.642   1.960   5.122  1.2324 -0.5456  1.3241
 1193SOL    HW215042   3.646   2.069   5.216 -0.2096  0.9281 -2.2090
 1194SOL     OW15043   0.662   1.184   5.768 -0.1544  0.6638  0.5968
 1194SOL    HW115044   0.622   1.098   5.753 -0.9626  1.3197 -0.9317
 1194SOL    HW215045   0.750   1.148   5.780 -0.1233  0.6635  0.3555
 1195SOL     OW15046   1.142   3.136  11.358 -0.4529 -0.7075  0.0282
 1195SOL    HW115047   1.055   3.159  11.390 -0.4481  0.7240 -1.0018
 1195SOL    HW215048   1.167   3.071  11.425  2.6214  3.8840  3.2997
 1196SOL     OW15049   0.290   3.368  13.716 -0.3838 -0.2352 -0.1050
 1196SOL    HW115050   0.207   3.345  13.758 -1.8483  2.8680 -1.3183
 1196SOL    HW215051   0.346   3.401  13.787 -3.1653  0.0891  1.9193
 1197SOL     OW15052   3.516   3.514   8.026 -0.4409  0.2902 -0.3711
 1197SOL    HW115053   3.474   3.431   8.003  0.2011 -0.3928  0.9579
 1197SOL    HW215054   3.528   3.555   7.940  0.8307 -0.4946 -0.5597
 1198SOL     OW15055   0.999   1.435   7.890 -0.2282 -0.1626  0.0602
 1198SOL    HW115056   1.008   1.507   7.829 -1.0624  1.1268  1.4460
 1198SOL    HW215057   0.937   1.385   7.838 -1.1767  1.1983 -0.1147
 1199SOL     OW15058   1.781   2.190  13.856  0.2063  0.0752 -0.2854
 1199SOL    HW115059   1.836   2.228  13.787  1.8641  1.9666  2.0232
 1199SOL    HW215060   1.786   2.252  13.929  1.2180  0.2651 -0.5022
 1200SOL     OW15061   4.580   0.335  12.303  0.7440  0.3583 -0.4219
 1200SOL    HW115062   4.521   0.275  12.349 -0.6535  0.0666 -2.5982
 1200SOL    HW215063   4.662   0.291  12.324  0.4120 -0.5054 -0.9276
 1201SOL     OW15064   1.719   2.268   6.305 -0.0623 -0.5391  0.2083
 1201SOL    HW115065   1.666   2.273   6.226 -0.8465 -0.3043  0.7542
 1201SOL    HW215066   1.774   2.346   6.297  0.0096 -0.9216 -2.9950
 1202SOL     OW15067   4.669   0.608   2.459  0.2397 -0.7573 -0.5443
 1202SOL    HW115068   4.624   0.625   2.376  0.1583 -3.0271 -0.9755
 1202SOL    HW215069   0.026   0.553   2.437  2.2786 -0.0356  4.6310
 1203SOL     OW15070   1.455   4.377   2.844  0.1528  0.9116  0.2294
 1203SOL    HW115071   1.487   4.457   2.802 -0.0593  1.0877  0.4057
 1203SOL    HW215072   1.407   4.341   2.769 -1.4020  0.2924  1.5324
 1204SOL     OW15073   3.659   2.478   6.369 -0.2421 -0.3976  0.1708
 1204SOL    HW115074   3.616   2.482   6.454  1.3985  2.4627  0.8688
 1204SOL    HW215075   3.588   2.433   6.324  0.8689 -2.2319  0.2463
 1205SOL     OW15076   0.077   1.039  10.792  1.1249  0.9923 -0.1442
 1205SOL    HW115077   0.043   1.087  10.867  0.9899  1.8653 -0.7613
 1205SOL    HW215078   0.009   0.972  10.785 -0.4107  2.4737  0.6020
 1206SOL     OW15079   3.662   0.121   3.122 -0.0262 -0.0682 -0.2200
 1206SOL    HW115080   3.752   0.152   3.124  0.2600 -1.0156  1.1215
 1206SOL    HW215081   3.667   0.028   3.144  2.9601  0.5290  1.5595
 1207SOL     OW15082   2.337   3.215   9.448  0.0677  0.1280  0.1777
 1207SOL    HW115083   2.381   3.258   9.521  0.1158  2.4804 -1.2451
 1207SOL    HW215084   2.274   3.278   9.412  2.1013  1.9239 -0.2638
 1208SOL     OW15085   1.262   1.107  14.185  0.2187  0.7953  0.5278
 1208SOL    HW115086   1.272   1.013  14.167 -2.4594  0.3180  1.6340
 1208SOL    HW215087   1.222   1.131  14.101 -1.9535 -1.7922  0.8079
 1209SOL     OW15088   0.972   4.385   5.203  0.2202 -0.4173 -0.1158
 1209SOL    HW115089   0.880   4.385   5.229  1.1292 -4.3370  3.1456
 1209SOL    HW215090   0.967   4.465   5.151 -1.7719  0.3001  1.2096
 1210SOL     OW15091   3.197   0.116  15.548  0.2191 -0.1705  0.2007
 1210SOL    HW115092   3.241   0.048  15.598  0.0966 -1.2392 -1.1342
 1210SOL    HW215093   3.265   0.120  15.480  0.3889 -1.9895  0.2723
 1211SOL     OW15094   1.597   3.657   5.092 -0.0415  0.6760  0.1261
 1211SOL    HW115095   1.674   3.708   5.115 -1.0009  2.7295 -1.2509
 1211SOL    HW215096   1.630   3.567   5.084 -1.3870 -0.0180  2.5280
 1212SOL     OW15097   1.220   1.214   5.671  0.2546  0.1960  0.0955
 1212SOL    HW115098   1.141   1.186   5.717 -0.4078  0.5550 -0.8283
 1212SOL    HW215099   1.283   1.205   5.742  2.3658  2.3647 -1.4663
 1213SOL     OW15100   3.548   1.896   8.499  0.1404 -0.1499  0.1737
 1213SOL    HW115101   3.549   1.990   8.520  0.6537 -0.3507  1.0493
 1213SOL    HW215102   3.498   1.908   8.418 -3.4305 -0.0746  2.4058
 1214SOL     OW15103   4.332   3.637   7.816 -0.6154 -0.0091 -0.1769
 1214SOL    HW115104   4.288   3.653   7.899  1.3520  1.9139  0.5032
 1214SOL    HW215105   4.261   3.663   7.757 -0.0219 -0.9462 -1.3083
 1215SOL     OW15106   2.749   0.074   2.178 -0.0960  0.5287  0.2503
 1215SOL    HW115107   2.753   4.697   2.179 -1.5797  0.4751  2.6717
 1215SOL    HW215108   2.665   0.087   2.223 -0.3777  0.9912 -0.3994
 1216SOL     OW15109   0.821   3.676   5.663 -0.0092  0.3316 -0.0070
 1216SOL    HW115110   0.837   3.761   5.621  1.8920 -0.1985 -0.3558
 1216SOL    HW215111   0.889   3.630   5.614  0.2282  1.2418 -0.5260
 1217SOL     OW15112   1.060   4.229  11.959 -0.4757  0.0042 -0.0027
 1217SOL    HW115113   0.972   4.209  11.990  0.0130  0.3298  1.5961
 1217SOL    HW215114   1.093   4.291  12.024  0.2591 -1.0219  0.5870
 1218SOL     OW15115   3.458   2.442  10.470  0.1706 -0.4595  0.1218
 1218SOL    HW115116   3.482   2.517  10.415 -2.2563 -0.5140 -1.0131
 1218SOL    HW215117   3.408   2.482  10.541  1.7454 -0.1724  1.0772
 1219SOL     OW15118   1.678   1.806   6.581  0.2751  0.2934 -0.6948
 1219SOL    HW115119   1.629   1.777   6.504  2.2036 -0.0873 -1.7789
 1219SOL    HW215120   1.767   1.773   6.569 -0.0432 -0.4892 -0.9105
 1220SOL     OW15121   2.162   1.785   3.217 -0.1490  0.0574  0.2501
 1220SOL    HW115122   2.234   1.848   3.206 -0.2647 -0.1980 -2.0332
 1220SOL    HW215123   2.202   1.715   3.268 -1.1569 -1.4435 -1.0436
 1221SOL     OW15124   0.350   0.216   9.411  0.3266  0.0715 -0.1567
 1221SOL    HW115125   0.325   0.289   9.468  0.1989  1.4958 -2.0660
 1221SOL    HW215126   0.272   0.161   9.407  1.6408 -1.8306  0.6450
 1222SOL     OW15127   0.105   1.897   2.511  0.4113 -0.0755 -0.1271
 1222SOL    HW115128   0.081   1.827   2.571 -3.4711  0.2530 -1.3397
 1222SOL    HW215129   0.183   1.929   2.557  0.5059  0.6700 -0.8099
 1223SOL     OW15130   3.246   3.168   6.141 -0.1209 -0.0306  0.2362
 1223SOL    HW115131   3.156   3.149   6.117 -0.5786  2.5820 -0.1029
 1223SOL    HW215132   3.240   3.144   6.233  1.1980  4.9933  1.6623
 1224SOL     OW15133   1.696   0.702   2.702 -0.4267 -0.0394 -0.3732
 1224SOL    HW115134   1.764   0.767   2.685 -4.1027  3.7775 -0.4861
 1224SOL    HW215135   1.633   0.734   2.637 -0.6779 -0.7242 -0.4678
 1225SOL     OW15136   2.267   4.681   6.220 -0.3551 -0.6186  0.6948
 1225SOL    HW115137   2.171   4.675   6.219 -0.3024 -2.4961  3.2840
 1225SOL    HW215138   2.279   4.614   6.288 -0.5310 -1.6957 -0.3341
 1226SOL     OW15139   0.597   0.902  12.269 -0.0824  0.2284  0.8771
 1226SOL    HW115140   0.503   0.884  12.272 -0.5166  2.4037  0.3623
 1226SOL    HW215141   0.629   0.857  12.348 -1.4753 -2.0752  0.1177
 1227SOL     OW15142   3.401   0.096   6.858  0.1732  0.4617  0.4723
 1227SOL    HW115143   3.404   0.051   6.774  0.5675 -1.8638  1.7054
 1227SOL    HW215144   3.427   0.028   6.920 -1.7073  0.6051  1.4196
 1228SOL     OW15145   3.379   3.735   3.414  0.1062 -0.1076  0.4400
 1228SOL    HW115146   3.302   3.710   3.364  1.7276 -0.1088 -2.0792
 1228SOL    HW215147   3.349   3.809   3.467  0.8055 -0.6561  1.6088
 1229SOL     OW15148   3.169   3.855  12.519 -0.4710 -0.1592  0.2939
 1229SOL    HW115149   3.234   3.883  12.454 -0.1110  2.3339  1.7317
 1229SOL    HW215150   3.153   3.940  12.559 -1.7886  0.6054 -1.8619
 1230SOL     OW15151   3.879   3.076   6.942  0.0485  0.1143  0.2639
 1230SOL    HW115152   3.954   3.122   6.903  0.5406  0.1495  1.2456
 1230SOL    HW215153   3.817   3.083   6.870  0.4975  1.2723 -0.0181
 1231SOL     OW15154   2.762   1.180  13.094  0.4566 -0.1299  0.8051
 1231SOL    HW115155   2.856   1.198  13.094  0.1765  1.2627 -0.2417
 1231SOL    HW215156   2.740   1.267  13.125 -1.1254  0.1930 -1.1813
 1232SOL     OW15157   4.350   4.695   1.974  0.0418 -0.4891 -0.5946
 1232SOL    HW115158   4.441   4.688   1.946  0.5316  2.1828  0.3080
 1232SOL    HW215159   4.334   0.061   1.931 -1.2901 -0.1174  0.6025
 1233SOL     OW15160   0.567   2.460  13.995  0.7232 -0.5670 -0.0930
 1233SOL    HW115161   0.530   2.479  13.909 -0.3170 -1.3823  0.1763
 1233SOL    HW215162   0.491   2.436  14.048  0.9296 -0.0758  0.4263
 1234SOL     OW15163   2.230   3.079  15.881  0.1259 -0.3259  0.8094
 1234SOL    HW115164   2.235   2.990  15.918  2.5018 -0.8425 -0.7246
 1234SOL    HW215165   2.217   3.134  15.958 -2.7672  0.5070 -0.2793
 1235SOL     OW15166   3.617   4.356   6.243  0.1773  0.0049  0.1313
 1235SOL    HW115167   3.606   4.382   6.334 -1.8433  3.7387 -1.1785
 1235SOL    HW215168   3.535   4.307   6.236 -0.4340  1.4072 -2.4329
 1236SOL     OW15169   0.972   4.142   6.036 -0.5057 -0.1903 -0.5976
 1236SOL    HW115170   1.065   4.116   6.034 -0.5812 -0.5813  0.9528
 1236SOL    HW215171   0.949   4.141   6.129  0.0759  0.6745 -0.4420
 1237SOL     OW15172   0.605   0.075   5.613 -0.3019 -0.8073  0.3313
 1237SOL    HW115173   0.700   0.080   5.604 -0.3362  1.2778  1.1567
 1237SOL    HW215174   0.582   0.079   5.520 -2.7303  0.3836  0.9617
 1238SOL     OW15175   4.489   4.509   2.852  0.1083  0.1223 -0.1841
 1238SOL    HW115176   4.482   4.459   2.933 -0.1277  1.8041  0.8243
 1238SOL    HW215177   4.435   4.463   2.787  0.7226  0.6776 -1.0867
 1239SOL     OW15178   2.358   3.552  14.062  0.5524  0.2956 -0.3706
 1239SOL    HW115179   2.331   3.489  13.995 -0.0756  1.0232 -0.7914
 1239SOL    HW215180   2.441   3.518  14.095 -1.2535 -2.7411  1.0754
 1240SOL     OW15181   3.570   2.025  12.773  0.1799  0.2456 -0.1774
 1240SOL    HW115182   3.618   1.951  12.736 -0.5740 -1.0911  1.4948
 1240SOL    HW215183   3.634   2.068  12.830  1.3365 -0.1756 -1.1690
 1241SOL     OW15184   2.819   0.163   2.500 -0.4938  0.5913 -0.2166
 1241SOL    HW115185   2.734   0.159   2.456  0.0506 -1.1832 -1.0950
 1241SOL    HW215186   2.830   0.257   2.482 -0.6342  0.3803 -1.3803
 1242SOL     OW15187   1.623   2.255   2.776 -0.3476 -0.6771 -0.3720
 1242SOL    HW115188   1.699   2.288   2.824 -1.7417  0.0691  1.3508
 1242SOL    HW215189   1.663   2.266   2.690 -0.7336  0.5932 -0.3946
 1243SOL     OW15190   3.671   0.315  15.094 -0.3669  0.0704 -0.0306
 1243SOL    HW115191   3.623   0.279  15.019 -1.6692  1.6580  0.0241
 1243SOL    HW215192   3.628   0.270  15.167 -0.6035  1.9806  1.0181
 1244SOL     OW15193   3.441   0.749   6.634  0.3316 -0.0551  0.0231
 1244SOL    HW115194   3.403   0.709   6.712  1.7754 -0.0526  0.7315
 1244SOL    HW215195   3.505   0.812   6.669 -0.2517 -0.4361  1.7651
 1245SOL     OW15196   2.491   4.361  13.268  0.0864 -0.0549  0.1033
 1245SOL    HW115197   2.560   4.426  13.284  0.4221 -0.5010  0.4722
 1245SOL    HW215198   2.511   4.305  13.344  1.1389 -1.1612 -0.9950
 1246SOL     OW15199   1.881   2.650   3.181  0.4341  0.4336 -0.5399
 1246SOL    HW115200   1.846   2.578   3.233  0.1701 -1.6677 -3.6238
 1246SOL    HW215201   1.962   2.617   3.143  0.1385 -2.2519  1.1742
 1247SOL     OW15202   1.953   2.772  13.541 -0.1988 -0.6859 -0.1333
 1247SOL    HW115203   1.925   2.685  13.569 -0.4635 -0.6306 -0.2290
 1247SOL    HW215204   2.008   2.820  13.604  1.1753 -1.0184 -1.0892
 1248SOL     OW15205   2.874   1.185  15.759  0.1893  0.0501  0.7031
 1248SOL    HW115206   2.921   1.103  15.778 -0.5054 -0.0298  2.0956
 1248SOL    HW215207   2.905   1.240  15.830  1.5648  2.0073 -1.4387
 1249SOL     OW15208   0.814   1.642   6.601  0.0401 -0.0372 -0.4373
 1249SOL    HW115209   0.780   1.560   6.567  0.7142 -0.5689  0.1715
 1249SOL    HW215210   0.907   1.640   6.582  0.3869 -1.1387  1.3651
 1250SOL     OW15211   4.406   0.222   9.006 -0.4158 -0.5400  0.4253
 1250SOL    HW115212   4.342   0.291   9.024  2.1846  2.1214 -0.5191
 1250SOL    HW215213   4.396   0.167   9.084 -1.5733  0.5500  1.0561
 1251SOL     OW15214   0.681   3.172   4.581 -0.3754 -0.4042  0.4282
 1251SOL    HW115215   0.619   3.133   4.642 -0.0662 -2.0096 -0.2745
 1251SOL    HW215216   0.660   3.264   4.597 -0.1854 -0.2111 -0.4338
 1252SOL     OW15217   1.348   3.423   6.594 -0.8048  0.1589  0.0423
 1252SOL    HW115218   1.337   3.341   6.547  0.0621  0.4764 -0.7149
 1252SOL    HW215219   1.427   3.401   6.642 -1.0712  1.1816  0.9607
 1253SOL     OW15220   0.462   2.540  13.745  0.1203 -0.6596  0.2604
 1253SOL    HW115221   0.393   2.475  13.747  0.2512 -0.7944  0.4175
 1253SOL    HW215222   0.505   2.524  13.661  4.3652 -0.1769  2.3033
 1254SOL     OW15223   4.452   4.089  17.667 -0.1325  0.1129  0.1039
 1254SOL    HW115224   4.435   4.014   0.048  0.3835 -0.7651 -0.9044
 1254SOL    HW215225   4.372   4.140   0.006 -0.8741 -0.9762 -0.0783
 1255SOL     OW15226   4.579   3.615   6.357  0.2357  0.1363  0.3691
 1255SOL    HW115227   4.644   3.632   6.426  1.5208 -0.6712 -0.6299
 1255SOL    HW215228   4.501   3.643   6.405  1.3850 -0.6924  2.7316
 1256SOL     OW15229   3.743   4.645   6.985 -0.1728 -1.0640 -0.0284
 1256SOL    HW115230   3.757   0.016   7.016  1.8686 -1.5758  0.4836
 1256SOL    HW215231   3.753   4.589   7.062  0.0148  0.2795  0.9192
 1257SOL     OW15232   0.795   2.341   2.432 -0.4662  0.8952 -0.2450
 1257SOL    HW115233   0.709   2.315   2.400 -0.1836  2.1696 -2.0076
 1257SOL    HW215234   0.780   2.429   2.466  2.0036  1.4615 -0.6650
 1258SOL     OW15235   2.461   1.133   1.898 -0.1886  0.1174 -0.8818
 1258SOL    HW115236   2.515   1.099   1.826 -1.6450 -0.3077 -1.7595
 1258SOL    HW215237   2.505   1.213   1.928 -3.6524  1.3764  0.7822
 1259SOL     OW15238   3.697   1.491  14.076 -0.2178 -0.3640  0.2569
 1259SOL    HW115239   3.765   1.549  14.110 -1.1603  2.0243 -1.9499
 1259SOL    HW215240   3.687   1.433  14.151  0.4316 -0.7162  0.0681
 1260SOL     OW15241   1.115   1.704   5.261 -0.3901  0.5851 -0.5320
 1260SOL    HW115242   1.061   1.697   5.182  0.1070 -2.0443 -0.6303
 1260SOL    HW215243   1.089   1.623   5.305  0.5847  1.5821  1.8492
 1261SOL     OW15244   2.441   0.698   5.412 -0.0466  0.5275 -0.5995
 1261SOL    HW115245   2.400   0.620   5.374 -0.6145  0.9985 -0.9609
 1261SOL    HW215246   2.366   0.729   5.463  1.5555  1.6455  1.0487
 1262SOL     OW15247   2.911   4.079   4.492  0.0531 -0.1734  0.1084
 1262SOL    HW115248   2.895   3.985   4.502  1.7365 -0.6115 -1.5612
 1262SOL    HW215249   2.836   4.101   4.437 -0.2814 -2.2242 -0.2433
 1263SOL     OW15250   0.210   0.159  17.640 -0.1387 -0.8419 -0.1108
 1263SOL    HW115251   0.180   0.085  17.587 -0.5174 -0.9730  0.2949
 1263SOL    HW215252   0.303   0.138  17.653  0.2476 -0.3242 -1.9819
 1264SOL     OW15253   1.781   1.149  14.540  0.0156 -0.3600 -0.4139
 1264SOL    HW115254   1.800   1.230  14.494  3.2736  0.0545  1.6430
 1264SOL    HW215255   1.739   1.185  14.618 -0.7037 -1.8393 -0.1269
 1265SOL     OW15256   3.967   1.705   0.602 -0.1491 -0.4314 -0.1188
 1265SOL    HW115257   3.995   1.658   0.523  0.0612 -0.9373  0.2584
 1265SOL    HW215258   3.991   1.637   0.665 -0.3170 -1.5817 -1.3008
 1266SOL     OW15259   4.587   3.524   0.276 -0.2333  0.0563 -0.2089
 1266SOL    HW115260   4.678   3.523   0.306 -0.2729  2.1968 -0.0052
 1266SOL    HW215261   4.551   3.509   0.364  0.7269 -1.5450 -0.0902
 1267SOL     OW15262   2.697   4.036   3.647 -0.2423  0.4636 -0.4284
 1267SOL    HW115263   2.744   3.998   3.572  1.4370  0.6502  0.5411
 1267SOL    HW215264   2.610   4.020   3.611 -1.1271 -1.0899  2.4203
 1268SOL     OW15265   1.191   1.546  16.534  0.0634 -0.2354  0.2981
 1268SOL    HW115266   1.193   1.639  16.513 -2.6352 -1.1905 -4.1846
 1268SOL    HW215267   1.118   1.522  16.477  1.0572  0.4053 -1.2443
 1269SOL     OW15268   0.944   4.647   7.867 -0.1798  0.2527  0.2271
 1269SOL    HW115269   0.962   4.609   7.953  1.5032  2.9795  1.0698
 1269SOL    HW215270   1.027   4.648   7.819  1.8140 -1.0898  3.6709
 1270SOL     OW15271   0.877   1.467   3.622  0.2588 -0.2970  0.4425
 1270SOL    HW115272   0.934   1.394   3.646 -1.6402 -1.3358  1.8091
 1270SOL    HW215273   0.897   1.466   3.529 -0.2485 -2.5309  0.3634
 1271SOL     OW15274   4.718   2.347  12.251 -0.1189  0.5480  0.1990
 1271SOL    HW115275   4.688   2.416  12.310 -1.1995  0.8980 -0.7504
 1271SOL    HW215276   4.641   2.345  12.194 -0.6848  0.0406  0.9739
 1272SOL     OW15277   3.075   4.216   7.100  0.2400  0.0062  0.1049
 1272SOL    HW115278   3.086   4.146   7.164  1.6062  0.1995  0.0870
 1272SOL    HW215279   2.990   4.200   7.059  0.0993 -1.5298  0.9874
 1273SOL     OW15280   2.624   3.774   4.337 -0.7888 -0.3463  0.2359
 1273SOL    HW115281   2.669   3.813   4.412 -0.8176  0.3774 -0.1257
 1273SOL    HW215282   2.702   3.775   4.282  0.7134  0.8514  2.3845
 1274SOL     OW15283   2.162   0.471   0.038 -0.0408  0.9473  0.5472
 1274SOL    HW115284   2.255   0.461   0.017 -0.6289 -1.0837 -1.1001
 1274SOL    HW215285   2.138   0.387  17.674  0.7183  1.3727 -0.8042
 1275SOL     OW15286   3.101   1.229  17.054 -0.6670 -0.7409 -0.3054
 1275SOL    HW115287   3.019   1.181  17.044 -2.6137  2.7867 -1.5285
 1275SOL    HW215288   3.105   1.276  16.970 -3.8297 -1.2796 -0.7612
 1276SOL     OW15289   0.268   3.137   1.189 -0.6466  0.0908 -0.0715
 1276SOL    HW115290   0.274   3.043   1.176  0.5889  0.0479  0.8472
 1276SOL    HW215291   0.272   3.165   1.098  0.3662  0.3396  0.0449
 1277SOL     OW15292   1.517   4.514   7.410 -0.4470  0.1753 -0.2272
 1277SOL    HW115293   1.537   4.604   7.435 -3.0485  0.8948 -0.7518
 1277SOL    HW215294   1.461   4.475   7.477 -0.1909 -2.5670 -1.5805
 1278SOL     OW15295   4.703   1.673  11.199  0.0782  0.1102  0.0322
 1278SOL    HW115296   0.031   1.598  11.162 -1.0653  0.1588 -1.5245
 1278SOL    HW215297   4.661   1.621  11.267 -1.9817  0.0494 -1.2908
 1279SOL     OW15298   0.836   2.059  16.377 -0.3949  0.2215 -0.0638
 1279SOL    HW115299   0.746   2.086  16.357  0.1794  1.7423 -0.5865
 1279SOL    HW215300   0.834   1.972  16.337 -0.5538 -0.0750  0.5924
 1280SOL     OW15301   0.613   1.595   8.251 -0.3463 -0.5119  0.1355
 1280SOL    HW115302   0.584   1.506   8.228 -0.0865 -0.5906  0.1123
 1280SOL    HW215303   0.706   1.596   8.227 -0.3665 -0.8296  0.0326
 1281SOL     OW15304   0.884   1.018   7.210 -0.1909 -0.3442 -0.0266
 1281SOL    HW115305   0.963   1.062   7.178  0.3212  0.5677  2.5110
 1281SOL    HW215306   0.851   1.092   7.261 -4.8955 -0.9457 -2.2539
 1282SOL     OW15307   1.507   0.545   7.545  0.0010  0.7497 -0.3860
 1282SOL    HW115308   1.454   0.509   7.474 -0.6048  0.8591  0.0083
 1282SOL    HW215309   1.435   0.535   7.608  0.2418  0.3963 -0.1677
 1283SOL     OW15310   3.636   3.679  10.957  0.3443  0.1692 -0.0848
 1283SOL    HW115311   3.718   3.633  10.976  1.6003  1.5647 -2.0975
 1283SOL    HW215312   3.626   3.668  10.862 -0.9599 -0.1843  0.0923
 1284SOL     OW15313   3.787   1.991   7.963  0.2812  0.3760  0.2870
 1284SOL    HW115314   3.848   2.024   7.898  2.7070 -1.8096  1.4699
 1284SOL    HW215315   3.784   2.066   8.023  0.0155  0.1171  0.5991
 1285SOL     OW15316   0.238   0.685   5.195 -0.0857  0.4667  0.1238
 1285SOL    HW115317   0.258   0.608   5.249  0.3521  0.6484  0.2203
 1285SOL    HW215318   0.231   0.657   5.104 -1.8368 -0.0731  0.4208
 1286SOL     OW15319   1.275   3.031   5.284  0.0761 -0.2372  0.0881
 1286SOL    HW115320   1.222   3.106   5.256 -1.0366 -1.7414 -1.7631
 1286SOL    HW215321   1.220   3.003   5.358 -2.1695 -0.4552 -1.6729
 1287SOL     OW15322   2.610   1.016   8.327 -0.8175 -0.0179  0.9098
 1287SOL    HW115323   2.701   1.046   8.329 -0.5922 -0.6046 -0.8550
 1287SOL    HW215324   2.603   0.971   8.411  0.5634 -1.3078  0.3296
 1288SOL     OW15325   0.538   3.603   8.153  0.2586 -0.6586  0.3437
 1288SOL    HW115326   0.585   3.611   8.237 -2.3159  1.0929  1.6187
 1288SOL    HW215327   0.497   3.689   8.159  3.3873  0.9060 -0.3943
 1289SOL     OW15328   0.091   0.172   9.131  0.2990 -0.3097  0.1098
 1289SOL    HW115329   0.123   0.129   9.051  0.9007 -0.0215  0.1907
 1289SOL    HW215330   0.010   0.124   9.144 -0.7419  2.0094  2.2833
 1290SOL     OW15331   4.143   4.326   1.786 -0.1645 -0.2216 -0.1078
 1290SOL    HW115332   4.125   4.400   1.844  0.4383 -0.1960  0.0427
 1290SOL    HW215333   4.073   4.326   1.720  1.9421 -1.4754 -2.3446
 1291SOL     OW15334   3.931   1.755  10.193  0.3048 -0.1849  0.2825
 1291SOL    HW115335   4.021   1.751  10.160  0.3555 -0.7111  0.4765
 1291SOL    HW215336   3.943   1.782  10.284  1.4829 -1.7583  0.6007
 1292SOL     OW15337   0.512   4.394   7.002 -0.0418 -0.0725 -0.6299
 1292SOL    HW115338   0.522   4.480   7.040  1.9186 -0.3678 -0.4695
 1292SOL    HW215339   0.418   4.382   7.011  0.1433 -1.3536 -0.4079
 1293SOL     OW15340   1.498   1.163   5.173 -0.1712  0.1659 -0.3932
 1293SOL    HW115341   1.494   1.202   5.260 -2.7441  0.3066 -0.5770
 1293SOL    HW215342   1.418   1.112   5.163  0.1844 -0.6060  0.6439
 1294SOL     OW15343   3.977   2.959   5.823  0.0204 -0.1981  0.7643
 1294SOL    HW115344   3.925   2.886   5.788 -0.4985  0.8912 -0.7237
 1294SOL    HW215345   3.905   3.021   5.816 -0.2791 -0.7300 -0.8902
 1295SOL     OW15346   1.025   0.875   2.113  0.4062 -0.1881 -0.4181
 1295SOL    HW115347   0.958   0.841   2.172 -0.7386  0.9572 -1.0482
 1295SOL    HW215348   1.101   0.824   2.140 -0.8679 -1.2696  1.1603
 1296SOL     OW15349   1.016   2.057   3.316  0.2510  0.0302 -0.3758
 1296SOL    HW115350   0.947   2.009   3.362  0.9325 -1.0475 -0.4692
 1296SOL    HW215351   1.068   2.093   3.388 -1.2929  0.1993  0.6692
 1297SOL     OW15352   2.460   0.190   2.933  0.2431  0.5079 -0.1257
 1297SOL    HW115353   2.553   0.172   2.943  0.0118 -0.4436  0.3429
 1297SOL    HW215354   2.429   0.167   3.021 -2.2080  0.5420 -0.9724
 1298SOL     OW15355   4.268   4.175   4.816 -0.5380 -0.5166  0.2382
 1298SOL    HW115356   4.323   4.103   4.848  0.1755 -0.7136 -1.4080
 1298SOL    HW215357   4.290   4.253   4.866  0.5113  0.8471 -2.3338
 1299SOL     OW15358   3.581   0.983  10.862  0.3708  0.5365  0.1543
 1299SOL    HW115359   3.653   0.960  10.803  3.2919  0.8693  3.5233
 1299SOL    HW215360   3.632   1.012  10.938 -0.6080  1.8724  0.3074
 1300SOL     OW15361   3.726   3.458   5.853 -0.1261  0.2957  0.4973
 1300SOL    HW115362   3.749   3.538   5.806 -0.3046  0.9715  1.5463
 1300SOL    HW215363   3.813   3.423   5.870  1.8197  3.9007 -2.1762
 1301SOL     OW15364   2.102   0.445   3.297  0.6700 -0.5892  0.0714
 1301SOL    HW115365   2.107   0.497   3.217  0.0533 -1.5855 -0.6164
 1301SOL    HW215366   2.180   0.468   3.347  0.1325  1.2215  0.0700
 1302SOL     OW15367   0.688   4.392   5.782 -0.6759 -0.2883  0.4625
 1302SOL    HW115368   0.619   4.375   5.718  1.0271  2.0769 -2.0352
 1302SOL    HW215369   0.676   4.318   5.841 -0.8585 -0.9621 -0.4077
 1303SOL     OW15370   0.787   1.533  15.247  0.3014 -0.6554  0.1319
 1303SOL    HW115371   0.788   1.485  15.164 -0.4057 -1.4372  0.5770
 1303SOL    HW215372   0.881   1.532  15.268  0.4805 -1.2352 -0.7191
 1304SOL     OW15373   0.895   1.743   0.650 -0.2793  0.8790  0.2588
 1304SOL    HW115374   0.852   1.783   0.726 -0.0709  1.6060 -0.0050
 1304SOL    HW215375   0.982   1.724   0.685 -0.6590 -0.9155  0.2249
 1305SOL     OW15376   1.933   3.498   1.313  0.2158 -0.2355 -0.1706
 1305SOL    HW115377   1.867   3.430   1.303  1.0279 -0.7179 -2.0645
 1305SOL    HW215378   1.982   3.462   1.387 -0.8399 -0.6608  0.3200
 1306SOL     OW15379   0.102   3.172  15.109 -0.0566 -0.0248 -0.1442
 1306SOL    HW115380   0.149   3.117  15.047 -0.4537 -0.1669 -0.3223
 1306SOL    HW215381   0.176   3.183  15.167  0.0609  3.1245 -0.8934
 1307SOL     OW15382   4.244   4.295   2.428 -0.2936 -0.1515  0.1935
 1307SOL    HW115383   4.294   4.242   2.491 -2.2838 -2.4886 -0.1916
 1307SOL    HW215384   4.166   4.305   2.482 -0.0653  2.3741  0.0412
 1308SOL     OW15385   4.156   3.135   0.540  0.3778 -0.3900 -1.3731
 1308SOL    HW115386   4.220   3.143   0.470  2.3100  2.0691  0.7235
 1308SOL    HW215387   4.194   3.070   0.600 -2.4097 -0.0397  0.7547
 1309SOL     OW15388   2.847   4.067  12.843 -0.0901  0.5643  0.1506
 1309SOL    HW115389   2.889   4.150  12.866 -0.8906  0.8006  0.7682
 1309SOL    HW215390   2.754   4.089  12.842 -0.0828  0.5507 -0.8966
 1310SOL     OW15391   2.912   0.341   8.164  0.2523  0.9437 -0.3610
 1310SOL    HW115392   2.877   0.421   8.125  3.4320  0.7000 -3.6408
 1310SOL    HW215393   3.005   0.347   8.142  0.1802  2.0367 -0.3840
 1311SOL     OW15394   3.971   2.086   7.816  0.3628 -0.4449 -0.0316
 1311SOL    HW115395   4.034   2.014   7.810  3.0466  2.0619 -1.3108
 1311SOL    HW215396   4.024   2.166   7.814  0.9695 -0.7503  2.6336
 1312SOL     OW15397   1.382   2.104   7.724  0.1511 -0.8750  0.5062
 1312SOL    HW115398   1.389   2.060   7.639  2.1875  0.0835  0.1944
 1312SOL    HW215399   1.318   2.056   7.778 -0.5517 -0.9443 -0.3829
 1313SOL     OW15400   0.524   4.179   7.651  0.6006  0.2242 -0.4642
 1313SOL    HW115401   0.526   4.258   7.704  0.2366  0.8440 -1.3721
 1313SOL    HW215402   0.528   4.116   7.723  1.0561 -0.8185 -1.3951
 1314SOL     OW15403   1.211   3.948  12.543  0.1135  0.0603 -0.0942
 1314SOL    HW115404   1.246   4.026  12.585  1.4459  0.6415 -2.2778
 1314SOL    HW215405   1.166   3.984  12.467  0.8928 -0.5897 -0.8714
 1315SOL     OW15406   2.987   0.030  11.698 -0.4747 -0.3430  0.0367
 1315SOL    HW115407   2.954   0.036  11.608 -0.6644  3.4198  0.3569
 1315SOL    HW215408   2.917   0.079  11.741 -1.4652 -1.1163 -0.7144
 1316SOL     OW15409   2.390   3.884   4.204 -0.2723 -0.2606 -0.2382
 1316SOL    HW115410   2.426   3.959   4.250 -0.5957  0.5435 -1.3069
 1316SOL    HW215411   2.432   3.806   4.241 -1.7547 -0.7184  0.4548
 1317SOL     OW15412   2.904   3.371   3.453  0.8249 -0.1956 -0.2366
 1317SOL    HW115413   2.877   3.282   3.474 -2.0819  0.9747  1.0467
 1317SOL    HW215414   2.863   3.422   3.523  0.2714  2.0661 -2.1908
 1318SOL     OW15415   0.904   1.821  16.202 -0.0097 -0.5093  0.1773
 1318SOL    HW115416   0.884   1.850  16.113  1.2656 -1.1404 -0.3146
 1318SOL    HW215417   0.997   1.818  16.183  0.2687  1.1425  1.2524
 1319SOL     OW15418   4.185   0.046   3.215 -0.0006  0.1432  0.1037
 1319SOL    HW115419   4.182   4.687   3.158  2.5203 -0.1499  0.3412
 1319SOL    HW215420   4.207   0.013   3.302 -0.3528 -0.4579 -0.0366
 1320SOL     OW15421   1.564   4.197  14.991 -0.2440 -0.4776  0.1904
 1320SOL    HW115422   1.519   4.243  14.920  0.4644 -2.4103 -1.4944
 1320SOL    HW215423   1.510   4.118  14.999  0.3893 -0.6971  2.4629
 1321SOL     OW15424   0.648   0.624   4.792  0.7197  0.6337  0.1842
 1321SOL    HW115425   0.693   0.649   4.712  0.1506  0.2082 -0.2758
 1321SOL    HW215426   0.556   0.646   4.775  1.0737  2.1791  0.2730
 1322SOL     OW15427   3.590   2.188   4.426  0.0287  0.2929  0.0496
 1322SOL    HW115428   3.684   2.203   4.435  0.0207 -0.2361  1.0229
 1322SOL    HW215429   3.569   2.151   4.512  3.5125  0.3966  0.9207
 1323SOL     OW15430   3.107   2.535  14.685 -0.5718  0.4955  0.3331
 1323SOL    HW115431   3.169   2.463  14.675 -1.6408 -0.2956 -0.5563
 1323SOL    HW215432   3.085   2.559  14.595 -0.0017  1.7906  0.5376
 1324SOL     OW15433   1.045   3.744   8.848  0.3963  0.0276  0.2089
 1324SOL    HW115434   1.074   3.822   8.894 -0.6880 -0.7743  2.2375
 1324SOL    HW215435   1.082   3.681   8.910  1.3871  1.0297  0.6532
 1325SOL     OW15436   0.526   1.080   3.400 -0.0929  0.9261 -0.0270
 1325SOL    HW115437   0.525   1.157   3.343  1.0143  1.7726  1.0884
 1325SOL    HW215438   0.600   1.097   3.458  1.0914 -2.4142 -0.5578
 1326SOL     OW15439   2.580   2.545  10.071 -0.0134 -0.1884 -0.0980
 1326SOL    HW115440   2.672   2.522  10.060  0.0554  0.2452 -0.4451
 1326SOL    HW215441   2.568   2.520  10.163 -2.3346 -0.1179 -0.3664
 1327SOL     OW15442   4.468   2.271  10.453  0.3131 -0.3708 -0.6215
 1327SOL    HW115443   4.493   2.209  10.384 -2.7209 -2.4909  0.1817
 1327SOL    HW215444   4.379   2.242  10.472  0.4876 -1.3001 -1.1992
 1328SOL     OW15445   4.195   0.313   4.016  0.0354  0.2235 -0.3341
 1328SOL    HW115446   4.215   0.354   4.100 -2.1679  3.2071 -1.2549
 1328SOL    HW215447   4.131   0.376   3.982 -0.1739  0.5984  0.7695
 1329SOL     OW15448   4.460   1.247  14.756 -0.0581 -0.0005 -0.1585
 1329SOL    HW115449   4.514   1.187  14.706 -0.3377  0.6598 -1.2394
 1329SOL    HW215450   4.372   1.221  14.729  0.1273 -0.6335 -0.1366
 1330SOL     OW15451   2.036   4.046   6.421  0.2414 -0.0984 -0.3374
 1330SOL    HW115452   2.078   4.057   6.506 -1.6843 -2.0738  0.8740
 1330SOL    HW215453   1.945   4.059   6.447  0.5623  0.9736  0.2702
 1331SOL     OW15454   4.158   2.657   1.052 -0.1420  0.6228  0.1744
 1331SOL    HW115455   4.220   2.587   1.072 -1.1686 -0.9904 -2.3807
 1331SOL    HW215456   4.205   2.738   1.073 -0.1448  0.6973 -0.1145
 1332SOL     OW15457   2.659   3.740  15.635  0.0666  0.0944 -0.0802
 1332SOL    HW115458   2.706   3.673  15.585  0.3780  1.2385 -1.3242
 1332SOL    HW215459   2.660   3.815  15.575 -3.0475  0.7989  0.7636
 1333SOL     OW15460   1.838   1.346  17.390  0.2301 -0.1269  0.0138
 1333SOL    HW115461   1.774   1.326  17.458 -1.0804 -1.7400 -1.7218
 1333SOL    HW215462   1.820   1.440  17.389 -2.5411 -0.6740 -1.8058
 1334SOL     OW15463   0.837   4.247   4.346 -0.0652 -0.0018 -0.0597
 1334SOL    HW115464   0.783   4.326   4.339 -2.7201 -1.8252 -0.1049
 1334SOL    HW215465   0.898   4.270   4.416 -2.1292  0.5776  1.5423
 1335SOL     OW15466   1.390   1.457  14.575  0.6055  0.4546 -0.0375
 1335SOL    HW115467   1.354   1.370  14.557  1.0008 -0.1615  2.1634
 1335SOL    HW215468   1.354   1.514  14.506  1.3465  2.3573  1.1338
 1336SOL     OW15469   0.216   4.102   6.589  0.1541  0.2224 -0.1286
 1336SOL    HW115470   0.287   4.159   6.560 -1.1807  1.2889 -1.2995
 1336SOL    HW215471   0.181   4.172   6.644  1.4122  1.8298 -1.3899
 1337SOL     OW15472   1.709   3.496   4.361  0.5853  0.9751 -0.1931
 1337SOL    HW115473   1.785   3.553   4.348 -0.3861  2.7272  1.9212
 1337SOL    HW215474   1.638   3.558   4.372 -1.8517 -1.8935  0.3656
 1338SOL     OW15475   2.874   2.149   2.385 -0.6002 -0.1286 -0.7662
 1338SOL    HW115476   2.792   2.199   2.393 -1.1123 -0.6631 -2.7263
 1338SOL    HW215477   2.918   2.181   2.307 -0.6398 -0.1367 -0.7919
 1339SOL     OW15478   2.012   1.373   9.252  0.1219  0.3092  0.1697
 1339SOL    HW115479   2.041   1.460   9.224 -0.5670  0.4539 -0.0966
 1339SOL    HW215480   2.095   1.327   9.242  1.3546  2.6528 -0.6125
 1340SOL     OW15481   4.426   2.919  11.245  0.1799 -0.2258 -0.2136
 1340SOL    HW115482   4.442   2.836  11.200  0.2746  0.5558 -1.6257
 1340SOL    HW215483   4.405   2.970  11.167 -1.5892  0.1470  0.5181
 1341SOL     OW15484   0.805   4.081   8.500 -0.2982  0.2486  0.0662
 1341SOL    HW115485   0.800   4.056   8.593 -0.5162 -0.4589 -0.1375
 1341SOL    HW215486   0.776   4.007   8.447 -0.7669 -0.0681  0.7537
 1342SOL     OW15487   0.184   3.651   7.749  0.5700  0.5212 -0.2810
 1342SOL    HW115488   0.279   3.664   7.751  0.5914  0.0199  1.6031
 1342SOL    HW215489   0.153   3.704   7.675 -0.9175  1.0056  0.7123
 1343SOL     OW15490   3.899   2.800   4.435 -0.5327  0.2156 -0.8225
 1343SOL    HW115491   3.812   2.787   4.472 -0.0278  1.1455  0.6480
 1343SOL    HW215492   3.945   2.857   4.496  0.9669  0.2404 -1.9778
 1344SOL     OW15493   3.145   1.113   4.939 -0.2655  0.2321 -0.0342
 1344SOL    HW115494   3.234   1.118   4.905 -0.2871  2.1452  0.1859
 1344SOL    HW215495   3.133   1.031   4.988 -1.0785 -0.5571 -1.5400
 1345SOL     OW15496   4.457   1.728   5.031  0.5558 -0.5675 -0.1991
 1345SOL    HW115497   4.466   1.694   5.120  0.9688 -1.8132 -0.7212
 1345SOL    HW215498   4.461   1.650   4.976 -0.0252 -0.3276 -0.5910
 1346SOL     OW15499   4.626   2.835   3.174  0.4499 -0.2957 -0.1966
 1346SOL    HW115500   4.648   2.886   3.253 -1.9966  1.0836 -0.4260
 1346SOL    HW215501   4.701   2.846   3.116 -0.3568 -4.1113 -1.9681
 1347SOL     OW15502   4.717   2.722  11.348  0.1119 -0.0958  0.6775
 1347SOL    HW115503   0.057   2.646  11.345  0.5186  0.2225  0.4724
 1347SOL    HW215504   4.714   2.753  11.257 -0.8514  2.4618  1.5968
 1348SOL     OW15505   0.764   1.635   4.704  0.6600  0.3548 -0.5190
 1348SOL    HW115506   0.781   1.720   4.745  1.3862  0.3276 -0.7487
 1348SOL    HW215507   0.811   1.651   4.622  2.3787 -0.5405  0.2901
 1349SOL     OW15508   1.869   4.263   7.334 -0.1352 -0.4252 -0.1215
 1349SOL    HW115509   1.804   4.199   7.363 -0.4182  0.1213  0.4541
 1349SOL    HW215510   1.943   4.209   7.305  0.1217 -0.4254  0.5322
 1350SOL     OW15511   3.972   1.118   4.574  0.1727  0.6567 -0.2105
 1350SOL    HW115512   4.037   1.049   4.586  2.3484  2.6096 -0.7560
 1350SOL    HW215513   3.977   1.179   4.648  1.6738  0.0818  0.1652
 1351SOL     OW15514   3.395   3.379   6.125 -0.3129  0.1641  0.7238
 1351SOL    HW115515   3.426   3.389   6.215  2.2221 -0.3046 -0.1139
 1351SOL    HW215516   3.344   3.298   6.119  0.5498 -0.3837  0.8697
 1352SOL     OW15517   1.992   4.041   4.751 -0.3235 -0.6383  0.5493
 1352SOL    HW115518   2.030   3.955   4.732 -2.1177 -0.8774 -1.9470
 1352SOL    HW215519   2.057   4.088   4.803  0.5621 -0.5191 -0.6696
 1353SOL     OW15520   4.378   0.050  13.680 -0.0281  0.3978 -0.3520
 1353SOL    HW115521   4.447   0.102  13.719  1.3002 -1.3171 -0.3964
 1353SOL    HW215522   4.300   0.078  13.728 -1.1839  1.2459 -2.6984
 1354SOL     OW15523   4.621   1.129   4.461  0.6068 -0.3186 -0.4211
 1354SOL    HW115524   4.618   1.191   4.534 -2.1663  0.1843 -0.9584
 1354SOL    HW215525   4.561   1.059   4.487  0.2997 -0.1992 -0.8054
 1355SOL     OW15526   0.595   2.989   8.345 -0.9046 -0.7497  0.3517
 1355SOL    HW115527   0.533   3.025   8.282 -0.3836  0.8596  0.7687
 1355SOL    HW215528   0.576   2.895   8.339 -1.8635 -0.5466  0.2369
 1356SOL     OW15529   3.629   0.062   9.661  0.2016  0.5673 -0.1360
 1356SOL    HW115530   3.674   0.056   9.746  1.2244 -0.1113 -0.7214
 1356SOL    HW215531   3.593   0.151   9.662  0.4934  0.6815  0.4235
 1357SOL     OW15532   1.071   2.992   5.450  0.5460  0.1240  0.6538
 1357SOL    HW115533   1.028   2.909   5.430  1.2681 -0.5156  1.7145
 1357SOL    HW215534   1.050   3.006   5.542 -0.1422  1.0460  0.3521
 1358SOL     OW15535   4.548   4.059   3.256  0.2115  0.0449  0.3634
 1358SOL    HW115536   4.533   3.966   3.276 -0.7308  0.3477  1.0339
 1358SOL    HW215537   4.578   4.054   3.165 -0.7902  0.6670  0.0064
 1359SOL     OW15538   0.387   0.555   6.301  0.2247 -0.3073 -0.8610
 1359SOL    HW115539   0.302   0.588   6.328  0.2237 -1.3363  0.3575
 1359SOL    HW215540   0.415   0.541   6.391 -0.2253 -3.7435 -1.2314
 1360SOL     OW15541   1.480   1.928   6.078 -0.2375  0.7776  0.1940
 1360SOL    HW115542   1.394   1.886   6.081  0.1185  0.0379  0.0006
 1360SOL    HW215543   1.510   1.907   5.990 -0.5250  0.8576  0.0773
 1361SOL     OW15544   3.819   1.587   7.897  0.6846 -0.5900 -0.3481
 1361SOL    HW115545   3.868   1.509   7.870  1.8757  0.3368 -0.8009
 1361SOL    HW215546   3.852   1.655   7.839 -0.0211  0.4919  0.5168
 1362SOL     OW15547   2.058   0.899   3.180 -0.0163  0.3201 -0.7990
 1362SOL    HW115548   2.083   0.922   3.091 -2.2307 -2.4556 -2.1646
 1362SOL    HW215549   2.144   0.882   3.218  0.0348  0.5394 -0.8221
 1363SOL     OW15550   1.083   3.722   7.869  0.1653  0.0538  0.0945
 1363SOL    HW115551   0.991   3.739   7.849  0.1968  0.0705 -0.0337
 1363SOL    HW215552   1.108   3.815   7.874 -2.1844  0.7919 -1.5934
 1364SOL     OW15553   3.053   0.607   5.054 -0.2643 -0.3420  0.4012
 1364SOL    HW115554   3.070   0.545   5.125  0.8021  0.1375  0.5639
 1364SOL    HW215555   3.080   0.571   4.970 -0.4151 -0.1288  0.2614
 1365SOL     OW15556   2.863   2.123   5.599 -0.1636  0.7968  0.4036
 1365SOL    HW115557   2.959   2.126   5.596 -0.1488 -1.7772 -1.4209
 1365SOL    HW215558   2.840   2.202   5.550  2.7947  0.2557 -1.8525
 1366SOL     OW15559   0.459   1.715  12.845  0.7820 -0.4599 -0.2857
 1366SOL    HW115560   0.450   1.781  12.914  0.4361 -0.8462  0.0341
 1366SOL    HW215561   0.475   1.778  12.774 -4.4310  1.8891  0.5813
 1367SOL     OW15562   2.188   1.144   2.475  0.2689  0.3568 -0.2307
 1367SOL    HW115563   2.245   1.118   2.547 -1.6816 -2.1695  0.3994
 1367SOL    HW215564   2.128   1.070   2.485 -0.7981  1.1288 -0.9120
 1368SOL     OW15565   4.658   2.991   7.520  0.4208 -0.6666 -0.4400
 1368SOL    HW115566   0.005   3.048   7.560 -0.0346 -0.7791  0.4584
 1368SOL    HW215567   4.676   2.898   7.538 -0.7306 -0.8478 -0.2491
 1369SOL     OW15568   3.113   2.862  12.210  0.4558 -0.0302 -0.2815
 1369SOL    HW115569   3.038   2.803  12.194 -0.3466  0.7085  0.8178
 1369SOL    HW215570   3.162   2.823  12.137 -0.5865 -1.7890 -0.0652
 1370SOL     OW15571   4.364   2.181   5.160 -0.2783  0.5571  0.3236
 1370SOL    HW115572   4.341   2.271   5.182  0.3138  1.4425 -2.7861
 1370SOL    HW215573   4.459   2.182   5.154 -0.3485  0.4118 -0.8399
 1371SOL     OW15574   0.859   3.511   8.555 -0.8172  0.0786 -0.2866
 1371SOL    HW115575   0.861   3.451   8.480  1.4236 -0.9327  0.5917
 1371SOL    HW215576   0.920   3.461   8.609 -0.6417  1.9461  1.2419
 1372SOL     OW15577   4.199   2.581   6.514 -0.3697  0.0067  0.6897
 1372SOL    HW115578   4.285   2.622   6.522 -0.9537  1.6508 -1.4292
 1372SOL    HW215579   4.144   2.650   6.477  1.1825  1.3165  0.8220
 1373SOL     OW15580   1.156   3.796   3.598 -0.2348  0.0038 -0.7322
 1373SOL    HW115581   1.192   3.762   3.516  1.6042  0.3729 -0.0811
 1373SOL    HW215582   1.065   3.811   3.575 -0.8327  0.0020  1.6636
 1374SOL     OW15583   2.300   0.605  15.844  0.3141 -0.3339 -0.1523
 1374SOL    HW115584   2.353   0.622  15.766  2.3249 -0.2460  1.2240
 1374SOL    HW215585   2.247   0.528  15.821 -0.6797  0.6021 -0.9749
 1375SOL     OW15586   2.697   2.757  11.639  0.3509 -0.5716 -0.5204
 1375SOL    HW115587   2.607   2.724  11.646 -0.3216  1.3446 -0.0523
 1375SOL    HW215588   2.698   2.766  11.543  0.7292  1.2892 -0.3472
 1376SOL     OW15589   4.662   0.612   0.766 -0.1352  0.1897 -0.4461
 1376SOL    HW115590   0.024   0.602   0.816  0.0449 -0.7247 -0.9194
 1376SOL    HW215591   4.638   0.688   0.819  1.8771 -0.5254  1.4848
 1377SOL     OW15592   2.905   3.361   2.612 -0.3360 -0.3245  0.6848
 1377SOL    HW115593   2.984   3.310   2.594 -0.0380  1.1900 -2.3286
 1377SOL    HW215594   2.943   3.439   2.651 -1.6584  0.4610  0.4121
 1378SOL     OW15595   0.518   2.607  15.424  0.0173  0.3445  0.0569
 1378SOL    HW115596   0.525   2.596  15.329  0.3171 -0.8780  0.2244
 1378SOL    HW215597   0.428   2.638  15.434  0.1431  1.1003 -1.0739
 1379SOL     OW15598   2.553   0.792   3.758 -0.0696 -0.1359 -0.9491
 1379SOL    HW115599   2.478   0.761   3.707  2.0434  0.0387 -4.1410
 1379SOL    HW215600   2.555   0.722   3.824 -2.1405  0.4853 -0.2241
 1380SOL     OW15601   3.800   1.568   2.261 -0.2059 -0.6285  0.4793
 1380SOL    HW115602   3.714   1.529   2.245 -0.6058 -0.2335  1.6252
 1380SOL    HW215603   3.778   1.652   2.302 -3.1593 -0.9959 -0.3581
 1381SOL     OW15604   2.867   1.648   6.465  0.1678  0.0708  0.2673
 1381SOL    HW115605   2.913   1.579   6.418  0.2963  0.2679  0.1042
 1381SOL    HW215606   2.901   1.730   6.429 -0.5725  0.1866 -0.1757
 1382SOL     OW15607   3.152   0.308  12.557  0.6378 -0.4227 -0.0913
 1382SOL    HW115608   3.246   0.293  12.562  0.4723 -1.4791 -0.0357
 1382SOL    HW215609   3.152   0.381  12.495 -1.5911  0.9983  1.6192
 1383SOL     OW15610   0.642   1.398   6.826 -0.2616  0.2441  0.3773
 1383SOL    HW115611   0.661   1.307   6.847  0.2030  0.5750  1.4090
 1383SOL    HW215612   0.605   1.429   6.908  0.1364  0.0240  0.6376
 1384SOL     OW15613   2.048   1.811   2.334  1.0775 -0.1494  0.2105
 1384SOL    HW115614   1.979   1.769   2.386  1.8519  0.1679  1.4764
 1384SOL    HW215615   2.116   1.820   2.401  0.0223 -1.8321  1.4998
 1385SOL     OW15616   1.139   4.115   5.540  0.3154 -0.0770 -0.0158
 1385SOL    HW115617   1.161   4.027   5.571  0.2037 -0.2890 -0.5426
 1385SOL    HW215618   1.213   4.170   5.562 -0.7762  0.7779  1.5536
 1386SOL     OW15619   2.347   3.329   2.901 -0.5066  0.0046 -0.6781
 1386SOL    HW115620   2.306   3.281   2.972  2.1386 -0.9675  0.1930
 1386SOL    HW215621   2.333   3.417   2.937 -0.5393  0.5444 -1.9932
 1387SOL     OW15622   3.325   3.234   8.405  0.0638  0.3545 -0.2238
 1387SOL    HW115623   3.303   3.241   8.498 -3.9478  2.9513 -1.3528
 1387SOL    HW215624   3.351   3.323   8.382  1.7369  0.2873  1.3698
 1388SOL     OW15625   2.590   0.599   7.028  0.2026 -0.1496 -0.1187
 1388SOL    HW115626   2.636   0.591   7.112  1.0360  1.8629 -0.3756
 1388SOL    HW215627   2.506   0.630   7.062  0.4134 -0.9035  1.0756
 1389SOL     OW15628   0.307   1.610   8.687 -0.8428  0.1276  0.0029
 1389SOL    HW115629   0.269   1.593   8.773  1.2870 -0.7516  0.7561
 1389SOL    HW215630   0.318   1.704   8.696  0.5033 -0.0169 -0.1303
 1390SOL     OW15631   2.416   1.190   7.475 -0.1064 -0.9054  0.0536
 1390SOL    HW115632   2.361   1.266   7.457  2.5019  0.8714 -0.3112
 1390SOL    HW215633   2.473   1.225   7.544  0.4449 -1.1343 -0.2898
 1391SOL     OW15634   0.255   0.204   6.069  0.3596 -0.5104 -0.3536
 1391SOL    HW115635   0.295   0.190   6.155  1.2387  3.4266 -0.1406
 1391SOL    HW215636   0.323   0.237   6.010  0.4226 -1.0093 -0.5598
 1392SOL     OW15637   1.860   2.523   2.619 -0.8101 -0.1644  0.1421
 1392SOL    HW115638   1.779   2.561   2.587 -0.5166  0.7625  0.4982
 1392SOL    HW215639   1.899   2.600   2.659  2.1400 -0.9039 -1.3161
 1393SOL     OW15640   2.606   1.136  10.436 -0.2373  0.0157 -0.1044
 1393SOL    HW115641   2.614   1.041  10.428  0.5807  0.1674 -1.1912
 1393SOL    HW215642   2.641   1.170  10.353 -2.3678 -0.0550 -1.0290
 1394SOL     OW15643   1.877   2.640   8.117  0.0982  0.1317  0.8120
 1394SOL    HW115644   1.784   2.663   8.113  0.1149  0.0481 -0.0549
 1394SOL    HW215645   1.877   2.574   8.187  2.8210 -1.3990 -0.6340
 1395SOL     OW15646   2.672   3.649  11.504 -0.2208 -0.3427 -0.1774
 1395SOL    HW115647   2.608   3.697  11.451 -1.9669 -0.4280  1.8744
 1395SOL    HW215648   2.671   3.566  11.456 -0.0892  0.4362 -1.5415
 1396SOL     OW15649   0.677   2.423   8.676 -0.0717 -0.1393  0.0592
 1396SOL    HW115650   0.673   2.458   8.765 -1.7730  0.4307 -0.2352
 1396SOL    HW215651   0.623   2.344   8.677  0.3587 -0.4335 -0.1339
 1397SOL     OW15652   3.735   3.452  16.770 -0.0525  0.2100 -0.3099
 1397SOL    HW115653   3.661   3.395  16.749  0.8974 -1.7835  1.7393
 1397SOL    HW215654   3.706   3.486  16.855 -0.2385  0.1193 -0.3372
 1398SOL     OW15655   2.165   1.118   8.574  0.2407  0.0026  0.3730
 1398SOL    HW115656   2.129   1.043   8.526  2.7785 -0.5014 -0.7556
 1398SOL    HW215657   2.236   1.151   8.518 -1.8933  2.5364 -0.8501
 1399SOL     OW15658   0.985   3.266  15.051  0.5398  0.2394 -0.3279
 1399SOL    HW115659   0.939   3.349  15.067  1.9431  0.9208  0.2109
 1399SOL    HW215660   1.037   3.263  15.131  1.2431 -2.6908 -0.8991
 1400SOL     OW15661   4.035   3.045   7.482 -0.4280 -0.0974  0.0140
 1400SOL    HW115662   4.080   3.110   7.537 -0.1671 -1.5827  1.5623
 1400SOL    HW215663   3.989   2.988   7.544  0.1627 -1.9549 -1.2594
 1401SOL     OW15664   0.614   0.125   2.609  0.3037 -0.0494 -0.4940
 1401SOL    HW115665   0.530   0.111   2.653 -0.4376  2.6165 -1.0493
 1401SOL    HW215666   0.618   0.217   2.582  0.8230 -0.9753 -3.5554
 1402SOL     OW15667   0.198   0.003  14.746 -0.0305  0.4236  0.3307
 1402SOL    HW115668   0.278   4.707  14.796 -0.1269  2.0432  0.9103
 1402SOL    HW215669   0.216   4.666  14.669  0.9210 -2.5095  2.6297
 1403SOL     OW15670   0.164   3.440   3.798  0.7269  0.1118 -0.7955
 1403SOL    HW115671   0.205   3.500   3.736  1.1729 -0.0328 -0.6471
 1403SOL    HW215672   0.148   3.503   3.868  0.4477 -1.4258  0.5251
 1404SOL     OW15673   4.119   2.359  12.015  0.1604  0.7046  0.5063
 1404SOL    HW115674   4.064   2.411  11.957 -0.4085 -0.2060  0.2247
 1404SOL    HW215675   4.189   2.417  12.045  1.7408 -1.3803  0.9157
 1405SOL     OW15676   0.105   0.651   7.152  0.2034 -0.2246 -0.2536
 1405SOL    HW115677   0.168   0.709   7.195 -0.8100 -1.3414  2.6933
 1405SOL    HW215678   0.058   0.614   7.227  0.1683 -0.9753 -0.6462
 1406SOL     OW15679   1.730   3.401   5.199  0.3249  0.3789 -0.3393
 1406SOL    HW115680   1.821   3.383   5.220  0.3207  0.3150 -0.3768
 1406SOL    HW215681   1.712   3.342   5.126 -1.8771 -2.2131  2.3009
 1407SOL     OW15682   2.905   2.670   9.968  0.5300  0.3017  0.7901
 1407SOL    HW115683   2.878   2.584  10.000 -0.1632 -0.3597 -1.5984
 1407SOL    HW215684   2.906   2.715  10.053 -0.8601 -0.3762  1.1612
 1408SOL     OW15685   4.293   3.831  17.600  0.0748  0.7956 -0.1129
 1408SOL    HW115686   4.374   3.784  17.580 -1.5600 -0.8589 -2.8509
 1408SOL    HW215687   4.269   3.783   0.004  0.4658  1.6935  0.5380
 1409SOL     OW15688   3.077   0.983   2.300  0.1992 -0.0858  0.2809
 1409SOL    HW115689   3.153   1.003   2.354 -0.7597  0.6094  1.3735
 1409SOL    HW215690   3.116   0.939   2.225 -0.7756  3.5273 -2.3686
 1410SOL     OW15691   2.898   0.285   8.759 -0.0340  0.0374 -0.3523
 1410SOL    HW115692   2.880   0.368   8.716  1.8783  0.3573 -0.5412
 1410SOL    HW215693   2.829   0.291   8.825  1.6018  2.2127  1.1580
 1411SOL     OW15694   0.732   0.961   1.411 -0.5062  0.7309  0.3151
 1411SOL    HW115695   0.795   0.954   1.483 -0.3896  2.8507  0.4150
 1411SOL    HW215696   0.779   1.008   1.343  1.7906 -2.5116 -0.3382
 1412SOL     OW15697   2.065   1.619   4.586 -0.2859  0.1247 -0.4324
 1412SOL    HW115698   1.969   1.623   4.585 -0.3940 -1.6172  1.8276
 1412SOL    HW215699   2.076   1.589   4.676 -0.9994 -1.1082 -0.7594
 1413SOL     OW15700   2.561   4.512   4.667 -0.4649  0.2810 -0.0282
 1413SOL    HW115701   2.564   4.516   4.762  1.4834 -2.3886  0.0198
 1413SOL    HW215702   2.598   4.597   4.642 -1.0251  0.4220 -0.3719
 1414SOL     OW15703   3.958   1.517  16.405 -0.1661 -0.0476 -0.1644
 1414SOL    HW115704   3.868   1.519  16.372  0.3452 -0.4801 -1.5695
 1414SOL    HW215705   4.005   1.571  16.342  0.5392  0.2558  0.6130
 1415SOL     OW15706   1.023   2.389  17.389  0.1475 -0.4132  0.1969
 1415SOL    HW115707   0.959   2.321  17.411 -0.2277 -0.5026 -1.1487
 1415SOL    HW215708   0.970   2.468  17.385 -0.1155 -0.7183 -2.7447
 1416SOL     OW15709   4.335   2.687   1.319 -0.5796  0.1441  0.4655
 1416SOL    HW115710   4.301   2.627   1.252 -1.3569 -0.0993  1.0748
 1416SOL    HW215711   4.426   2.661   1.332  0.0923  1.8060 -0.9204
 1417SOL     OW15712   4.456   1.848   5.804 -0.0651 -0.1604 -0.9029
 1417SOL    HW115713   4.509   1.908   5.751  0.4954  0.8845  0.8368
 1417SOL    HW215714   4.402   1.908   5.857  1.0858 -1.2748  1.5108
 1418SOL     OW15715   3.015   2.711   8.119 -0.3358  0.5600  0.0171
 1418SOL    HW115716   3.096   2.700   8.070 -0.2266 -0.3954  0.4263
 1418SOL    HW215717   2.990   2.628   8.158  0.2082 -0.3280 -1.5487
 1419SOL     OW15718   3.079   0.275  17.201 -0.4712  0.1822  0.2353
 1419SOL    HW115719   3.027   0.291  17.281 -0.3325 -1.1615  0.5926
 1419SOL    HW215720   3.165   0.260  17.239 -1.0551  1.8438  2.2889
 1420SOL     OW15721   2.179   1.969   6.314 -0.1129  0.2758 -0.2629
 1420SOL    HW115722   2.124   1.965   6.236 -1.2475 -0.3931  0.5753
 1420SOL    HW215723   2.257   1.923   6.283 -0.8656 -0.6426 -0.7833
 1421SOL     OW15724   3.920   2.382   3.956 -0.5157 -0.8529  0.7206
 1421SOL    HW115725   3.974   2.341   3.888 -0.3946 -0.6707  0.7061
 1421SOL    HW215726   3.965   2.374   4.040  0.3723 -2.0364  0.1383
 1422SOL     OW15727   3.662   1.205   3.311  0.2620 -0.3121  0.2602
 1422SOL    HW115728   3.613   1.156   3.245  1.3549 -0.1229 -0.7038
 1422SOL    HW215729   3.664   1.141   3.382 -1.2746 -0.5565  0.0809
 1423SOL     OW15730   1.408   3.967  14.995 -0.0215 -0.1555  0.1536
 1423SOL    HW115731   1.346   3.895  15.002 -0.0690 -0.0519  0.8338
 1423SOL    HW215732   1.353   4.039  15.026  0.2788 -1.2516  3.2457
 1424SOL     OW15733   0.990   1.420   6.851  0.2100  0.5930 -0.1173
 1424SOL    HW115734   0.986   1.364   6.929 -1.0393  1.3427  0.3649
 1424SOL    HW215735   0.991   1.503   6.898  1.3690  1.2208 -1.2652
 1425SOL     OW15736   3.518   2.353  15.833 -0.0098 -0.8834  0.4899
 1425SOL    HW115737   3.465   2.312  15.901  0.9821 -2.0520  0.5603
 1425SOL    HW215738   3.598   2.369  15.884  0.9310 -0.0165 -1.2574
 1426SOL     OW15739   2.400   2.605   6.659  0.4247 -0.0328  0.2549
 1426SOL    HW115740   2.362   2.518   6.674 -3.2837  1.5256 -0.1127
 1426SOL    HW215741   2.345   2.652   6.721  0.9641  0.9588 -0.0222
 1427SOL     OW15742   4.384   2.390   8.462  0.2124 -0.1820 -0.1761
 1427SOL    HW115743   4.447   2.442   8.511  0.6266 -0.0497 -0.8469
 1427SOL    HW215744   4.444   2.324   8.427 -1.7986 -1.0533 -1.9514
 1428SOL     OW15745   1.619   3.505   6.354 -0.0063  0.2614  0.6389
 1428SOL    HW115746   1.710   3.507   6.324  0.7990  0.1627  3.1278
 1428SOL    HW215747   1.573   3.430   6.316 -2.2430  2.6754 -1.4864
 1429SOL     OW15748   4.331   1.901   0.734 -0.5681  0.2209  0.1365
 1429SOL    HW115749   4.253   1.923   0.684 -0.9655 -2.0621 -0.2226
 1429SOL    HW215750   4.339   1.809   0.709 -0.4659  0.7249 -1.6699
 1430SOL     OW15751   2.486   1.416  13.357  0.0773 -0.3726 -0.3419
 1430SOL    HW115752   2.394   1.388  13.360  0.4880 -1.5502  1.2939
 1430SOL    HW215753   2.480   1.492  13.415 -1.1678 -0.2688 -0.6071
 1431SOL     OW15754   2.397   4.504  14.280  0.5015 -0.2618  0.1386
 1431SOL    HW115755   2.334   4.447  14.237  0.5724 -0.4277  0.2548
 1431SOL    HW215756   2.472   4.444  14.284 -0.1958 -1.2597 -1.7556
 1432SOL     OW15757   4.136   1.981   0.943  0.2649 -0.0406 -0.0585
 1432SOL    HW115758   4.060   2.020   0.900 -0.6172 -1.3632  0.3075
 1432SOL    HW215759   4.182   1.959   0.862 -0.8064 -0.2624 -0.6018
 1433SOL     OW15760   1.379   1.684  10.366  0.0092  0.4281  0.2177
 1433SOL    HW115761   1.341   1.757  10.415 -1.6590 -0.0274 -0.4208
 1433SOL    HW215762   1.322   1.610  10.387  0.0741  0.9689  2.3610
 1434SOL     OW15763   0.701   0.823   9.095 -0.0848  0.5543 -0.4090
 1434SOL    HW115764   0.737   0.765   9.162 -2.0525 -1.6526 -1.2559
 1434SOL    HW215765   0.614   0.838   9.131 -0.2376  0.4256 -0.7249
 1435SOL     OW15766   2.154   2.945   1.426  0.5228 -0.5561 -0.1924
 1435SOL    HW115767   2.058   2.938   1.426  0.5260 -0.6000  0.7337
 1435SOL    HW215768   2.178   2.854   1.410 -0.6669 -0.6329 -1.6004
 1436SOL     OW15769   4.529   0.461   1.979 -0.0292 -0.2713 -0.0044
 1436SOL    HW115770   4.503   0.370   1.962 -0.2138  0.3998 -3.4336
 1436SOL    HW215771   4.593   0.448   2.048 -2.5308  1.2526  2.6069
 1437SOL     OW15772   0.083   3.786  16.333  0.1717 -0.0854  0.7059
 1437SOL    HW115773   0.066   3.692  16.332  1.9770 -0.4361  2.6637
 1437SOL    HW215774   0.055   3.794  16.424 -3.6920  0.5777 -0.5176
 1438SOL     OW15775   2.386   4.367   1.716 -0.4660  0.5219  0.4896
 1438SOL    HW115776   2.363   4.343   1.626  1.5063 -1.0128  0.4070
 1438SOL    HW215777   2.317   4.433   1.729  0.5892  1.9478 -1.2034
 1439SOL     OW15778   4.030   4.511  12.423 -0.6943 -0.0625  0.3610
 1439SOL    HW115779   4.120   4.501  12.452 -0.2121 -1.3380 -1.5883
 1439SOL    HW215780   3.999   4.597  12.451  1.7554  1.2221 -0.9540
 1440SOL     OW15781   0.992   3.186   2.997  0.1753  0.3220 -0.8599
 1440SOL    HW115782   1.042   3.264   2.974  1.2929  0.5970  2.5138
 1440SOL    HW215783   1.044   3.158   3.072 -3.0342 -3.7724 -0.1310
 1441SOL     OW15784   3.636   2.712   6.251  0.0239 -0.3104  0.0063
 1441SOL    HW115785   3.658   2.627   6.289 -2.0774 -0.1504  1.5659
 1441SOL    HW215786   3.551   2.685   6.216 -0.9592  0.8618  1.4956
 1442SOL     OW15787   2.434   1.828   3.450  0.4614  0.0125 -0.1371
 1442SOL    HW115788   2.462   1.747   3.494  0.3108  0.7013  1.2284
 1442SOL    HW215789   2.501   1.887   3.486  0.2161 -0.6610  1.4599
 1443SOL     OW15790   0.571   2.298  15.415 -0.0795 -0.0072 -0.9198
 1443SOL    HW115791   0.541   2.365  15.477 -0.7669  0.5732 -1.8794
 1443SOL    HW215792   0.486   2.305  15.371 -0.1860  2.1747 -0.3855
 1444SOL     OW15793   1.203   1.778  14.923  0.1049  0.0852  0.2398
 1444SOL    HW115794   1.219   1.707  14.861 -0.1173  0.9778 -0.8604
 1444SOL    HW215795   1.130   1.746  14.975  0.6744 -2.4352 -0.5078
 1445SOL     OW15796   3.427   4.374   4.098  0.0775  0.0508 -0.5084
 1445SOL    HW115797   3.468   4.296   4.060  2.0250  1.8380 -2.0551
 1445SOL    HW215798   3.349   4.384   4.043 -0.4620  0.2440  0.2864
 1446SOL     OW15799   1.634   1.732   8.805 -0.3114 -0.3979 -0.1828
 1446SOL    HW115800   1.540   1.717   8.818 -0.1217 -1.1327  0.2909
 1446SOL    HW215801   1.664   1.732   8.896 -0.7202 -1.1152 -0.0467
 1447SOL     OW15802   0.073   4.280   6.732 -0.3997  0.0195  0.2048
 1447SOL    HW115803   0.015   4.255   6.660 -1.4732  2.9648  0.0582
 1447SOL    HW215804   0.033   4.356   6.774  0.7644 -0.1839  1.6962
 1448SOL     OW15805   1.440   0.319   3.418  0.6280 -0.2549  0.5253
 1448SOL    HW115806   1.399   0.392   3.371  3.6612  0.9467 -0.2833
 1448SOL    HW215807   1.518   0.352   3.463 -0.5407  2.6712  0.3978
 1449SOL     OW15808   1.700   2.319   3.871  0.2657 -0.5457 -0.3243
 1449SOL    HW115809   1.743   2.368   3.941  3.1002 -1.7212 -1.2691
 1449SOL    HW215810   1.686   2.387   3.805 -1.5827  0.2488  0.8863
 1450SOL     OW15811   0.955   0.770   7.782 -0.1129 -0.1639  0.0153
 1450SOL    HW115812   0.942   0.693   7.725  0.0827 -0.1068 -0.1049
 1450SOL    HW215813   0.864   0.800   7.787  0.3464  1.3806 -0.8315
 1451SOL     OW15814   4.350   2.873   8.288  0.8136  0.3407  0.0676
 1451SOL    HW115815   4.335   2.824   8.369 -0.1495  1.7079  0.7169
 1451SOL    HW215816   4.358   2.962   8.321 -1.5488  0.9830 -1.1189
 1452SOL     OW15817   2.347   1.639   6.590 -0.4512  0.1348  1.0592
 1452SOL    HW115818   2.262   1.672   6.617 -0.4928 -0.2817  1.4542
 1452SOL    HW215819   2.326   1.578   6.519  0.2424  1.4055 -0.2239
 1453SOL     OW15820   2.802   4.128   2.790 -0.0328 -0.5626 -0.2159
 1453SOL    HW115821   2.872   4.100   2.731 -1.0482 -0.4797 -1.4663
 1453SOL    HW215822   2.797   4.221   2.768 -1.3368 -0.6135 -0.1562
 1454SOL     OW15823   1.004   0.794   4.847  0.1955 -0.3365  0.3629
 1454SOL    HW115824   1.029   0.705   4.823  0.4668  0.3253 -1.7860
 1454SOL    HW215825   1.094   0.827   4.859 -0.5003  1.8574 -0.3805
 1455SOL     OW15826   0.076   4.648   0.354  0.4102 -0.6409 -0.1679
 1455SOL    HW115827   0.124   4.684   0.428 -3.2759  0.1816  1.8518
 1455SOL    HW215828   0.070   0.006   0.295  0.1823  0.9862  1.9641
 1456SOL     OW15829   2.715   1.288  17.186  0.0744  0.2237  0.1367
 1456SOL    HW115830   2.751   1.294  17.098  1.1659  0.9325  0.6353
 1456SOL    HW215831   2.789   1.325  17.234 -0.6548 -0.1314  1.5397
 1457SOL     OW15832   1.465   3.799   8.786  0.0660 -0.2858  0.5346
 1457SOL    HW115833   1.399   3.744   8.828  2.2769 -1.2780  2.7552
 1457SOL    HW215834   1.404   3.842   8.727  0.6398  1.3183  1.1043
 1458SOL     OW15835   0.759   3.092  14.900 -0.8393 -0.7549 -0.0009
 1458SOL    HW115836   0.694   3.069  14.967 -0.5416 -4.0646 -0.8331
 1458SOL    HW215837   0.734   3.058  14.814  0.1054  0.0409 -0.5844
 1459SOL     OW15838   3.258   3.270  10.729 -0.6815 -0.0089  0.2619
 1459SOL    HW115839   3.336   3.217  10.711 -0.5469 -0.0486  0.9703
 1459SOL    HW215840   3.183   3.215  10.707 -1.3245  1.0784 -0.2842
 1460SOL     OW15841   3.143   3.591   8.470  0.0543  0.5664  0.1996
 1460SOL    HW115842   3.050   3.587   8.446 -0.1000 -2.4598  1.2148
 1460SOL    HW215843   3.141   3.591   8.566  1.1419  1.3868  0.2233
 1461SOL     OW15844   0.297   1.788  13.380  0.1319 -0.0755  0.0089
 1461SOL    HW115845   0.218   1.804  13.432 -0.9916  2.1384 -2.3749
 1461SOL    HW215846   0.316   1.696  13.397 -1.5987 -0.1791  1.3873
 1462SOL     OW15847   3.801   1.910   5.550 -0.0968 -0.5981 -0.0401
 1462SOL    HW115848   3.880   1.922   5.498 -0.3373  3.3545  0.4870
 1462SOL    HW215849   3.774   2.001   5.567 -0.3312 -0.8021  0.6870
 1463SOL     OW15850   4.515   1.237   6.019 -0.9088  0.9216 -0.2934
 1463SOL    HW115851   4.607   1.230   5.993 -0.2910  0.7451  1.9769
 1463SOL    HW215852   4.484   1.227   5.929 -0.5313  0.7685 -0.4078
 1464SOL     OW15853   3.662   2.773   5.594 -0.1744 -0.5328 -0.2189
 1464SOL    HW115854   3.723   2.817   5.535  0.2973 -1.8513 -0.7229
 1464SOL    HW215855   3.723   2.737   5.658  0.8934 -1.1360 -1.5983
 1465SOL     OW15856   3.133   1.856  13.040  0.4404 -0.3347 -0.2822
 1465SOL    HW115857   3.174   1.917  12.979  1.7594 -0.5355  0.4033
 1465SOL    HW215858   3.154   1.777  12.990  0.6598  0.2749 -1.1522
 1466SOL     OW15859   2.041   4.639  15.261 -0.0697  0.1998 -0.1392
 1466SOL    HW115860   2.093   4.648  15.181  1.9027 -2.3794  0.8588
 1466SOL    HW215861   1.963   4.600  15.222  0.0400 -0.1135 -0.0419
 1467SOL     OW15862   4.096   3.940  16.116  0.4427 -0.2687  0.2114
 1467SOL    HW115863   4.073   3.918  16.025 -2.3848  0.3612  0.7804
 1467SOL    HW215864   4.094   3.856  16.162 -0.8492 -0.2365  0.2047
 1468SOL     OW15865   2.342   1.001  11.164 -0.4163 -0.2248  0.8637
 1468SOL    HW115866   2.353   1.056  11.242  1.2954  1.1680 -0.3585
 1468SOL    HW215867   2.299   1.062  11.105  2.0467  0.5526 -0.1432
 1469SOL     OW15868   0.813   4.693  14.891 -0.2693  0.1476 -0.1105
 1469SOL    HW115869   0.907   4.704  14.880 -0.3190  0.3512 -0.3279
 1469SOL    HW215870   0.783   0.033  14.822  0.4646  1.4746  0.6985
 1470SOL     OW15871   3.284   2.396   8.199  0.3752  0.0037  0.2653
 1470SOL    HW115872   3.281   2.483   8.159 -0.0839 -0.1999 -0.1499
 1470SOL    HW215873   3.199   2.400   8.243  0.6066 -0.7384  0.7679
 1471SOL     OW15874   3.062   0.209  10.035 -0.0282 -0.1407  0.3051
 1471SOL    HW115875   3.039   0.161   9.955 -0.9876 -1.6110  1.4568
 1471SOL    HW215876   3.149   0.175  10.057 -0.4692 -0.9537  0.8267
 1472SOL     OW15877   3.415   1.325  13.066  0.4878  0.0618  0.6235
 1472SOL    HW115878   3.392   1.335  12.973  4.0655  0.4301 -0.2148
 1472SOL    HW215879   3.415   1.230  13.072 -3.6420  0.0170  0.0544
 1473SOL     OW15880   4.639   0.186  16.260  0.2016 -0.1975 -0.2236
 1473SOL    HW115881   4.695   0.202  16.185 -1.5356  0.7113 -1.3330
 1473SOL    HW215882   4.631   0.090  16.259  1.2612 -0.2898  0.0576
 1474SOL     OW15883   2.508   2.175  17.022 -0.0470 -0.0642  0.6196
 1474SOL    HW115884   2.596   2.151  16.993  0.0465  2.5801 -1.2779
 1474SOL    HW215885   2.481   2.086  17.043  1.4015 -1.5395 -3.7138
 1475SOL     OW15886   3.998   1.188   2.802 -0.1734 -0.2796  0.0529
 1475SOL    HW115887   4.029   1.172   2.713 -0.4694 -1.6341  0.1995
 1475SOL    HW215888   4.000   1.283   2.794  1.0069 -0.2559  0.5686
 1476SOL     OW15889   2.691   1.780  12.990 -0.4793 -0.1951  0.1774
 1476SOL    HW115890   2.702   1.803  12.898  0.5643 -2.0558 -0.1739
 1476SOL    HW215891   2.690   1.684  12.989  0.4787 -0.2071  1.0119
 1477SOL     OW15892   2.929   3.489   6.981  0.2594 -0.0931 -0.0022
 1477SOL    HW115893   2.925   3.457   7.071 -0.9516 -1.0012 -0.3743
 1477SOL    HW215894   2.884   3.415   6.939 -0.9043  1.2617 -1.1711
 1478SOL     OW15895   1.075   1.923   4.339 -0.3715 -0.2483 -0.3826
 1478SOL    HW115896   0.982   1.937   4.353 -0.2603  0.0114  0.0586
 1478SOL    HW215897   1.110   1.896   4.424  0.0649 -0.7664 -0.7234
 1479SOL     OW15898   3.863   2.515  16.354  0.1853 -0.0176 -0.1318
 1479SOL    HW115899   3.931   2.465  16.309  0.0106  1.4453 -2.0637
 1479SOL    HW215900   3.898   2.598  16.322 -0.7117 -0.5738 -2.5762
 1480SOL     OW15901   2.141   1.012   6.496  0.3601 -0.6570 -0.3410
 1480SOL    HW115902   2.117   0.938   6.440  1.4459 -0.9676 -0.3996
 1480SOL    HW215903   2.093   1.083   6.454  0.2253 -1.6595 -1.8629
 1481SOL     OW15904   3.950   0.627  14.337 -0.1369 -0.0193 -0.4251
 1481SOL    HW115905   3.987   0.539  14.341  0.4841  0.2466 -0.3322
 1481SOL    HW215906   3.861   0.605  14.310  0.3124 -1.5438 -0.7102
 1482SOL     OW15907   1.409   2.191   6.185 -0.0172  0.0423 -0.2240
 1482SOL    HW115908   1.489   2.163   6.142  0.4130  0.0498  0.5663
 1482SOL    HW215909   1.349   2.150   6.123  1.3107 -2.3379  0.0760
 1483SOL     OW15910   1.511   3.159   0.442  0.2366 -0.4265  0.0413
 1483SOL    HW115911   1.547   3.124   0.361 -0.9162 -1.6732  0.0834
 1483SOL    HW215912   1.524   3.083   0.499  0.0971 -0.0385  0.5897
 1484SOL     OW15913   2.015   0.957   6.955  0.1724  0.4187 -0.0958
 1484SOL    HW115914   2.028   0.903   6.877 -1.6826 -1.7106  1.0766
 1484SOL    HW215915   1.950   0.907   7.004  1.4767 -2.5379 -1.4107
 1485SOL     OW15916   0.837   0.125  14.610  0.4497 -0.7480  0.4172
 1485SOL    HW115917   0.831   0.089  14.522 -0.3417 -1.1282  0.6278
 1485SOL    HW215918   0.918   0.176  14.618  0.3308 -0.8384  2.2643
 1486SOL     OW15919   3.777   0.858   5.738 -0.1892  0.2982 -0.7223
 1486SOL    HW115920   3.816   0.783   5.693  1.9861  1.7876 -1.3325
 1486SOL    HW215921   3.694   0.825   5.773 -2.4456  1.4016 -5.1281
 1487SOL     OW15922   3.939   4.630   6.782  0.3620  0.5428 -0.0268
 1487SOL    HW115923   3.872   4.629   6.714  1.1535  0.0238 -0.7904
 1487SOL    HW215924   3.877   4.611   6.853  1.1880  2.5769  1.2308
 1488SOL     OW15925   3.987   0.569   7.077  0.3266  0.1147 -0.0529
 1488SOL    HW115926   3.912   0.543   7.023 -0.2701  0.4610  0.6173
 1488SOL    HW215927   4.058   0.537   7.021  0.8046  0.8938  0.1109
 1489SOL     OW15928   3.256   3.996   3.529  0.4022 -0.4847  0.7134
 1489SOL    HW115929   3.315   4.022   3.600 -0.5134  1.0162  0.9423
 1489SOL    HW215930   3.269   4.075   3.476  1.3620 -1.9335 -1.2159
 1490SOL     OW15931   2.122   3.048   8.987  0.2020  0.3885 -0.1346
 1490SOL    HW115932   2.158   3.131   9.019 -1.3659  1.0718 -0.1728
 1490SOL    HW215933   2.043   3.083   8.946 -0.0849  0.4524  0.4697
 1491SOL     OW15934   2.863   1.634   8.082 -0.2233  0.7674  0.2304
 1491SOL    HW115935   2.779   1.664   8.117 -1.2449 -2.7008  0.7149
 1491SOL    HW215936   2.880   1.711   8.027 -0.9884  1.4436  0.9500
 1492SOL     OW15937   2.529   4.716   9.289  0.2040  0.4949  0.2942
 1492SOL    HW115938   2.437   4.690   9.280  0.1617  1.1056 -1.0671
 1492SOL    HW215939   2.569   4.629   9.292  0.8192  0.7759  0.2670
 1493SOL     OW15940   0.651   2.200   2.945 -0.1633  0.4942  0.4793
 1493SOL    HW115941   0.690   2.287   2.936  0.6229  0.2138  1.2622
 1493SOL    HW215942   0.570   2.224   2.991 -1.9609 -2.1559 -1.2498
 1494SOL     OW15943   1.186   3.146   8.297 -0.2780 -0.4330  0.3398
 1494SOL    HW115944   1.161   3.080   8.363 -0.8836  0.0319  0.5739
 1494SOL    HW215945   1.136   3.110   8.224 -1.6106 -0.6970  1.3695
 1495SOL     OW15946   4.055   1.163   8.255  0.0631  0.4359 -0.5929
 1495SOL    HW115947   4.032   1.098   8.321 -1.0307  1.7179  0.2785
 1495SOL    HW215948   4.074   1.238   8.311  0.3508  0.4423 -0.6995
 1496SOL     OW15949   1.062   1.427   5.320  0.3876 -0.0110 -0.2894
 1496SOL    HW115950   1.119   1.449   5.394  2.2568  0.6581 -1.8906
 1496SOL    HW215951   0.984   1.399   5.367 -1.3980  1.3021 -2.4518
 1497SOL     OW15952   0.652   3.185   6.232 -0.4076  0.6252 -0.3545
 1497SOL    HW115953   0.747   3.187   6.230 -0.3208 -2.0287  0.8214
 1497SOL    HW215954   0.633   3.243   6.158  5.0419  0.2349 -2.0608
 1498SOL     OW15955   0.136   4.706   5.910 -1.0530  0.4629 -0.2954
 1498SOL    HW115956   0.163   0.072   5.947  1.1913 -1.0970  1.6806
 1498SOL    HW215957   0.140   4.650   5.987  1.8623  0.5520 -0.3742
 1499SOL     OW15958   3.579   1.530   5.466 -0.3202  0.2945 -0.6614
 1499SOL    HW115959   3.668   1.496   5.472 -1.0004 -1.2500  0.7842
 1499SOL    HW215960   3.588   1.622   5.490  1.1260 -0.4062  1.4221
 1500SOL     OW15961   4.573   1.357  16.720 -0.1053  0.0800  0.8497
 1500SOL    HW115962   4.564   1.285  16.783 -1.2136 -1.4577 -1.0175
 1500SOL    HW215963   4.490   1.358  16.672  0.0941 -1.7120  0.4460
 1501SOL     OW15964   3.635   0.674  10.612  0.0869  0.1950 -0.2936
 1501SOL    HW115965   3.572   0.719  10.555 -0.2760  1.3309  0.9953
 1501SOL    HW215966   3.608   0.582  10.600  1.4030 -0.2571  0.3067
 1502SOL     OW15967   0.349   4.089   1.645 -0.2096  0.4668  0.0798
 1502SOL    HW115968   0.420   4.076   1.582 -2.7155  0.6954 -2.7407
 1502SOL    HW215969   0.333   3.996   1.665  0.2966  0.4144  0.2510
 1503SOL     OW15970   0.112   3.773   8.409  0.5381  0.0923 -0.2132
 1503SOL    HW115971   0.091   3.827   8.486  0.6816 -1.3867  0.8612
 1503SOL    HW215972   0.190   3.730   8.442  0.1332 -1.0269 -0.7237
 1504SOL     OW15973   2.977   1.367  10.648 -0.0836  0.2390 -0.2076
 1504SOL    HW115974   2.996   1.460  10.659  0.9931 -0.3441  2.8754
 1504SOL    HW215975   2.983   1.335  10.738 -3.6996  0.1317  0.0004
 1505SOL     OW15976   2.976   3.090   9.101  0.4587 -0.1174  0.0141
 1505SOL    HW115977   3.070   3.077   9.107  0.5205  0.2169 -0.2624
 1505SOL    HW215978   2.961   3.091   9.007 -2.1786 -0.3445  0.4147
 1506SOL     OW15979   1.640   4.376  10.036 -0.2809 -0.6229 -0.3631
 1506SOL    HW115980   1.626   4.353   9.944  1.0267 -1.2500 -0.4060
 1506SOL    HW215981   1.729   4.341  10.040 -0.1096 -0.3051 -1.5264
 1507SOL     OW15982   2.923   3.255   2.251  0.1946 -0.1496  0.2119
 1507SOL    HW115983   2.986   3.249   2.323  0.8408 -3.2783 -0.5683
 1507SOL    HW215984   2.891   3.344   2.260 -2.6645 -1.0765 -0.7903
 1508SOL     OW15985   3.162   0.843   9.215  0.4481 -0.6206 -0.0159
 1508SOL    HW115986   3.081   0.836   9.265 -0.4840  2.3340 -1.1536
 1508SOL    HW215987   3.207   0.914   9.261 -0.5161 -0.0743  0.0637
 1509SOL     OW15988   0.541   3.488   2.079 -0.0334  0.1138 -0.1899
 1509SOL    HW115989   0.630   3.468   2.050  0.6541 -0.5092  2.3990
 1509SOL    HW215990   0.505   3.402   2.103 -0.7309  0.2036 -0.8833
 1510SOL     OW15991   3.036   3.807   5.826  0.1399 -0.4871 -0.1547
 1510SOL    HW115992   3.077   3.721   5.819  0.5086 -0.3332  0.1288
 1510SOL    HW215993   2.971   3.792   5.894 -0.1569 -1.6423 -0.6958
 1511SOL     OW15994   4.116   3.416   6.696  0.1727  0.5073 -0.3497
 1511SOL    HW115995   4.109   3.329   6.737 -1.5805  1.3294  1.1157
 1511SOL    HW215996   4.204   3.417   6.659 -0.1186 -2.9849 -1.1879
 1512SOL     OW15997   2.599   1.387  14.916  0.3510 -0.2830 -0.0118
 1512SOL    HW115998   2.539   1.401  14.843  1.0610  2.5379 -0.0615
 1512SOL    HW215999   2.613   1.475  14.952  0.7198 -0.0360 -0.7593
 1513SOL     OW16000   1.776   4.030   7.468  0.1439 -0.1325  0.4126
 1513SOL    HW116001   1.726   3.952   7.443  0.0452  0.1563 -0.2841
 1513SOL    HW216002   1.856   3.997   7.508 -1.0676 -0.6257  2.4120
 1514SOL     OW16003   0.560   1.687  11.644 -0.5887 -0.3000 -0.5298
 1514SOL    HW116004   0.649   1.724  11.646 -0.3633 -0.7974 -1.3481
 1514SOL    HW216005   0.577   1.597  11.673 -0.2405 -0.6888 -1.9476
 1515SOL     OW16006   2.566   0.383   4.195  0.4956 -0.2240  0.1955
 1515SOL    HW116007   2.487   0.334   4.219 -0.9756  1.8483 -0.4517
 1515SOL    HW216008   2.574   0.452   4.261 -0.9382  0.9657 -0.8870
 1516SOL     OW16009   4.169   2.715   1.702 -0.3696  0.5829 -0.4217
 1516SOL    HW116010   4.190   2.717   1.796  1.5631 -1.8488 -0.8123
 1516SOL    HW216011   4.250   2.685   1.661  0.4697 -1.0960  2.4035
 1517SOL     OW16012   0.255   4.034  11.418 -0.0801  0.2389 -0.0857
 1517SOL    HW116013   0.230   3.951  11.459 -1.4380 -0.3260 -2.1161
 1517SOL    HW216014   0.337   4.039  11.468 -0.5355 -0.9734  0.8028
 1518SOL     OW16015   1.438   1.496   0.901 -0.7621  0.1950 -0.5021
 1518SOL    HW116016   1.427   1.441   0.824  2.1436  2.0832 -2.2287
 1518SOL    HW216017   1.452   1.426   0.966 -2.7515  1.5423  1.3839
 1519SOL     OW16018   4.100   2.862   0.447 -0.4196 -0.4406  0.6592
 1519SOL    HW116019   4.169   2.911   0.402  0.7869 -2.9729 -0.3140
 1519SOL    HW216020   4.041   2.930   0.479 -0.5562  1.3193 -3.2528
 1520SOL     OW16021   0.453   0.708   1.504  0.2754  0.0574  0.1855
 1520SOL    HW116022   0.499   0.626   1.523  1.3753  1.3543  3.1795
 1520SOL    HW216023   0.385   0.706   1.571  0.1612 -1.7297  0.0265
 1521SOL     OW16024   4.436   0.826   8.529 -0.4081  0.0543 -0.3666
 1521SOL    HW116025   4.467   0.738   8.550  1.7926  0.6231 -1.1913
 1521SOL    HW216026   4.427   0.868   8.615 -0.5817  1.7501 -1.2112
 1522SOL     OW16027   3.422   0.746   1.072 -0.5214 -0.4655  0.5669
 1522SOL    HW116028   3.434   0.777   1.161  0.4339 -1.1256  0.6786
 1522SOL    HW216029   3.502   0.781   1.031 -0.3832  0.5475  1.7130
 1523SOL     OW16030   4.463   1.386   7.456 -0.1412  0.4130 -0.0233
 1523SOL    HW116031   4.496   1.311   7.506 -1.0164 -0.2204 -0.3873
 1523SOL    HW216032   4.545   1.435   7.458  0.1447 -0.0335 -0.9884
 1524SOL     OW16033   1.439   2.414   1.459 -0.0264 -0.1907 -0.3211
 1524SOL    HW116034   1.358   2.413   1.407 -0.4123 -1.2378  0.2979
 1524SOL    HW216035   1.469   2.504   1.447  0.7132 -0.1978  1.5163
 1525SOL     OW16036   2.808   3.880   8.157 -0.1585  0.6968 -0.2473
 1525SOL    HW116037   2.872   3.950   8.145 -1.5754  1.8510 -1.1054
 1525SOL    HW216038   2.739   3.910   8.097 -2.8017 -1.3936  1.8095
 1526SOL     OW16039   0.044   2.089   8.254  0.2062 -0.0166 -0.2642
 1526SOL    HW116040   0.105   2.139   8.200 -0.3914 -0.3436 -1.2444
 1526SOL    HW216041   0.035   2.004   8.211  2.3468  0.6247 -1.9802
 1527SOL     OW16042   3.211   1.865   4.808 -0.5843 -0.1593  0.2444
 1527SOL    HW116043   3.253   1.800   4.865 -0.4333  1.3882  1.8792
 1527SOL    HW216044   3.121   1.846   4.832 -0.3269  0.3052  1.5314
 1528SOL     OW16045   1.434   4.475   3.075 -0.9963 -0.3659 -0.2556
 1528SOL    HW116046   1.492   4.551   3.084 -0.9821 -0.5750  1.3064
 1528SOL    HW216047   1.436   4.450   2.982 -1.6487  0.9528 -0.6253
 1529SOL     OW16048   2.397   0.108   4.724  0.2216  0.0015  0.2309
 1529SOL    HW116049   2.318   0.141   4.682  1.0408  0.6158 -0.8369
 1529SOL    HW216050   2.441   0.075   4.646  0.7859 -0.5024  0.7617
 1530SOL     OW16051   1.759   1.421   2.697 -0.5267  0.1911  0.1751
 1530SOL    HW116052   1.682   1.476   2.689  1.4429  2.5867 -2.4879
 1530SOL    HW216053   1.802   1.411   2.612 -0.6686  1.4691 -0.0367
 1531SOL     OW16054   4.101   3.898  13.528  0.0359 -0.4532  0.4127
 1531SOL    HW116055   4.080   3.990  13.546 -2.6562 -0.9690 -0.0569
 1531SOL    HW216056   4.031   3.854  13.577  0.7215 -0.2090  1.6174
 1532SOL     OW16057   1.745   1.888  10.098  0.0183  0.0810  0.3731
 1532SOL    HW116058   1.723   1.977  10.126  1.7007  0.1104  1.5964
 1532SOL    HW216059   1.694   1.833  10.158 -1.9144 -0.0896 -1.3977
 1533SOL     OW16060   3.927   2.779  16.247 -0.1554  0.1484  0.6380
 1533SOL    HW116061   3.842   2.807  16.214  0.0813 -0.2900 -0.3368
 1533SOL    HW216062   3.934   2.815  16.335 -1.8742 -1.6660  1.5207
 1534SOL     OW16063   1.587   3.567  11.766 -0.1572  0.1874  0.0200
 1534SOL    HW116064   1.538   3.500  11.719  3.2711 -2.2869  0.0047
 1534SOL    HW216065   1.519   3.601  11.825 -0.5609 -1.6773  0.6175
 1535SOL     OW16066   3.670   4.075   7.528  0.6085  0.4557  0.2411
 1535SOL    HW116067   3.626   4.008   7.581 -1.7682  0.3907 -1.8515
 1535SOL    HW216068   3.761   4.057   7.552  0.8135  0.8336 -0.2631
 1536SOL     OW16069   0.110   3.617  15.779 -0.4169  0.4737 -0.8275
 1536SOL    HW116070   0.128   3.654  15.865 -0.4960  1.4886 -1.2452
 1536SOL    HW216071   0.059   3.540  15.802 -3.5924  2.6082 -0.7339
 1537SOL     OW16072   1.273   4.120  11.820 -0.0278 -0.0155 -0.5825
 1537SOL    HW116073   1.255   4.135  11.728  0.1305  2.2370 -0.2536
 1537SOL    HW216074   1.203   4.173  11.859  2.0306  0.5186  2.4314
 1538SOL     OW16075   3.833   3.668   7.277 -0.1756  0.1137  0.7089
 1538SOL    HW116076   3.923   3.661   7.244 -0.4858 -0.7770  0.0534
 1538SOL    HW216077   3.789   3.589   7.244 -0.2033  1.0659 -1.5095
 1539SOL     OW16078   2.969   1.540   7.649 -0.1180  0.5295  0.0184
 1539SOL    HW116079   2.968   1.627   7.610 -1.5600  0.4036 -0.2089
 1539SOL    HW216080   2.990   1.556   7.741  0.0202  2.0910 -0.2894
 1540SOL     OW16081   2.389   3.807  14.952 -0.3889 -0.2267 -0.1050
 1540SOL    HW116082   2.361   3.825  14.862  1.3950 -1.6726 -0.9625
 1540SOL    HW216083   2.313   3.830  15.005 -0.3824 -0.5816  0.0582
 1541SOL     OW16084   0.870   1.685   3.395  0.1686 -0.4392  0.4698
 1541SOL    HW116085   0.820   1.746   3.449  0.6270  1.4955 -1.2865
 1541SOL    HW216086   0.806   1.614   3.392  0.0292 -0.2919 -0.1269
 1542SOL     OW16087   1.571   3.705   6.708 -0.3095  0.3904 -0.0088
 1542SOL    HW116088   1.481   3.729   6.685  0.0998  2.1658  0.2490
 1542SOL    HW216089   1.584   3.720   6.802  3.1011 -0.5018 -0.3450
 1543SOL     OW16090   1.409   2.927   4.041  0.4032  0.2723  0.3306
 1543SOL    HW116091   1.333   2.925   3.983  0.3284 -0.0836  0.4383
 1543SOL    HW216092   1.412   3.018   4.070  1.0386  0.0198  1.0519
 1544SOL     OW16093   2.278   4.321   1.478 -0.2141 -0.2025  0.1905
 1544SOL    HW116094   2.188   4.351   1.492 -0.4905 -0.8973 -0.1211
 1544SOL    HW216095   2.267   4.270   1.398 -2.1519  0.8439 -0.2171
 1545SOL     OW16096   3.285   2.907   8.854  0.0868 -0.0555 -0.5908
 1545SOL    HW116097   3.253   2.963   8.924  0.0793 -0.2117 -0.4687
 1545SOL    HW216098   3.360   2.956   8.820 -0.0869 -0.1642 -1.1296
 1546SOL     OW16099   3.902   3.745  10.180 -0.6396  0.8753  0.3393
 1546SOL    HW116100   3.952   3.787  10.111  2.3464 -1.4106  1.1293
 1546SOL    HW216101   3.954   3.771  10.256  0.4398  1.3106 -0.5595
 1547SOL     OW16102   0.135   1.195   5.488 -0.5261 -0.4124  0.8385
 1547SOL    HW116103   0.200   1.191   5.558 -0.2686  0.6092  0.6510
 1547SOL    HW216104   0.122   1.287   5.467 -0.7727 -0.9177 -1.2073
 1548SOL     OW16105   2.632   2.356   4.706  0.2062 -0.1716 -0.0812
 1548SOL    HW116106   2.559   2.314   4.751 -0.1181  0.9987  0.4621
 1548SOL    HW216107   2.665   2.279   4.659  0.9063 -0.4510  0.8769
 1549SOL     OW16108   2.917   0.773   9.001 -0.7377  0.1512 -0.0807
 1549SOL    HW116109   2.947   0.731   9.082 -2.9503 -0.6985  0.2881
 1549SOL    HW216110   2.898   0.864   9.026  0.5232  0.2881  0.3913
 1550SOL     OW16111   3.695   0.018   6.714  0.0679  0.1053  0.7019
 1550SOL    HW116112   3.667   0.089   6.655 -0.6616 -1.4979 -0.8832
 1550SOL    HW216113   3.684   0.047   6.805  4.2321  1.4697  0.7620
 1551SOL     OW16114   0.604   0.856   6.042 -0.7347 -0.4993 -0.7165
 1551SOL    HW116115   0.678   0.891   6.091 -1.5811 -1.5999  1.3553
 1551SOL    HW216116   0.633   0.765   6.050 -2.1392 -1.1613 -3.2725
 1552SOL     OW16117   2.855   3.384   7.475 -0.0009 -0.2053 -0.1441
 1552SOL    HW116118   2.771   3.377   7.518  0.0695  2.7910  0.4911
 1552SOL    HW216119   2.892   3.299   7.500  0.4942 -0.0628 -0.3927
 1553SOL     OW16120   0.319   1.418   5.875  0.2660 -0.6523  0.1848
 1553SOL    HW116121   0.400   1.377   5.906  1.6653  1.8273 -0.2499
 1553SOL    HW216122   0.273   1.449   5.953 -3.2467 -0.4523 -1.9583
 1554SOL     OW16123   0.968   4.673   5.397  0.6394  0.1579  0.4026
 1554SOL    HW116124   1.033   4.710   5.457  2.8766  0.8272 -2.4146
 1554SOL    HW216125   0.894   4.640   5.448  1.0797  0.0234  0.9592
 1555SOL     OW16126   3.119   2.094   6.335 -0.3472  0.3736  0.2165
 1555SOL    HW116127   3.179   2.141   6.393  0.5558  0.5606 -0.8630
 1555SOL    HW216128   3.100   2.164   6.273  0.9006  1.1228  0.6845
 1556SOL     OW16129   4.305   2.490  13.805  0.0386 -0.0380 -0.9956
 1556SOL    HW116130   4.296   2.397  13.783 -2.1064 -0.9884  4.0687
 1556SOL    HW216131   4.335   2.518  13.719  0.2471 -0.0105 -0.9122
 1557SOL     OW16132   1.906   1.164   3.167  0.2631  0.4769 -0.1181
 1557SOL    HW116133   1.975   1.119   3.217  0.0589  1.9627  1.5062
 1557SOL    HW216134   1.959   1.194   3.094  1.5344 -0.9432  0.2178
 1558SOL     OW16135   0.415   3.258   2.183  0.2372 -0.4526  0.0467
 1558SOL    HW116136   0.344   3.206   2.146  0.8713 -0.4355 -1.1612
 1558SOL    HW216137   0.378   3.289   2.266  0.2136 -0.2029 -0.0560
 1559SOL     OW16138   3.755   0.112  10.418  0.2133  0.9340  0.0385
 1559SOL    HW116139   3.735   0.205  10.413 -0.7651  0.7327  0.2296
 1559SOL    HW216140   3.850   0.116  10.403  0.3592  2.9105  1.5117
 1560SOL     OW16141   3.576   0.183  16.454  0.4846 -0.7161 -0.1182
 1560SOL    HW116142   3.567   0.126  16.378  1.0613 -0.1204 -0.6397
 1560SOL    HW216143   3.670   0.197  16.469  0.2898  2.7123 -2.0134
 1561SOL     OW16144   2.309   4.420   2.697 -0.1420 -0.5130 -0.1711
 1561SOL    HW116145   2.243   4.365   2.655  0.4789 -1.0281 -0.4623
 1561SOL    HW216146   2.255   4.475   2.754 -0.6506 -0.2604 -0.8936
 1562SOL     OW16147   3.566   0.899   9.346  0.0029  0.0417  0.2538
 1562SOL    HW116148   3.480   0.931   9.371 -0.5186 -0.4222 -0.9382
 1562SOL    HW216149   3.598   0.856   9.426 -0.7294  1.4550  1.2978
 1563SOL     OW16150   1.244   3.775   0.115 -0.1127  0.3277 -0.2121
 1563SOL    HW116151   1.224   3.801   0.204 -0.8042 -0.4107 -0.1453
 1563SOL    HW216152   1.159   3.741   0.086 -0.1388  1.0970 -1.0595
 1564SOL     OW16153   1.429   1.489   8.235  0.3934  0.1587  0.3909
 1564SOL    HW116154   1.360   1.448   8.183  1.2789 -1.2505  0.3142
 1564SOL    HW216155   1.464   1.559   8.181  0.5254 -0.1708  0.0526
 1565SOL     OW16156   0.676   2.215   8.170 -0.1380  0.1450  0.0344
 1565SOL    HW116157   0.650   2.300   8.134 -0.3378 -0.0708 -0.3386
 1565SOL    HW216158   0.663   2.222   8.264  1.1336 -0.3275  0.2356
 1566SOL     OW16159   4.619   0.262   1.029 -0.1582 -0.2124  0.1429
 1566SOL    HW116160   4.590   0.316   0.955 -0.9997 -0.8872 -0.0149
 1566SOL    HW216161   4.549   0.279   1.092 -1.2058  1.0142 -1.3497
 1567SOL     OW16162   3.339   1.045  13.107 -0.3529 -0.6049  0.0033
 1567SOL    HW116163   3.370   0.956  13.126 -0.6149 -1.1460 -2.0784
 1567SOL    HW216164   3.255   1.031  13.063 -0.9820 -0.0104  1.0137
 1568SOL     OW16165   3.101   3.795   2.320  0.0118  0.2922 -0.4270
 1568SOL    HW116166   3.153   3.739   2.261 -0.6434 -1.5708  0.8008
 1568SOL    HW216167   3.171   3.818   2.381 -0.9662  2.0056  0.0295
 1569SOL     OW16168   4.042   2.987  14.517  0.5101 -0.6294  0.3481
 1569SOL    HW116169   4.122   2.956  14.558  1.3080  2.0123  0.8298
 1569SOL    HW216170   3.995   2.990  14.600 -2.0066  0.7540 -1.1087
 1570SOL     OW16171   4.542   1.291   3.617  0.4216  0.4522  0.2394
 1570SOL    HW116172   4.501   1.371   3.583  1.4831  0.9311  0.0591
 1570SOL    HW216173   4.596   1.269   3.541 -2.1699 -0.1485 -1.4112
 1571SOL     OW16174   2.525   0.891   2.809 -0.3094  0.0056  0.2931
 1571SOL    HW116175   2.478   0.845   2.740 -1.8804  2.1271 -0.0389
 1571SOL    HW216176   2.588   0.936   2.752 -0.6932 -1.3805 -1.2310
 1572SOL     OW16177   3.833   3.013   1.560  0.4702  0.4802 -0.6431
 1572SOL    HW116178   3.830   3.092   1.506  0.4685  2.5543  2.3682
 1572SOL    HW216179   3.907   2.966   1.521  2.8762  1.7285  2.4381
 1573SOL     OW16180   3.377   2.906   0.437 -0.3593 -0.0486 -0.0411
 1573SOL    HW116181   3.333   2.852   0.503 -0.8340 -2.5150 -2.3519
 1573SOL    HW216182   3.467   2.878   0.450 -0.5438 -0.8229 -0.3945
 1574SOL     OW16183   3.289   0.578   5.847 -0.0595 -0.6360 -0.3055
 1574SOL    HW116184   3.212   0.634   5.856  1.3888  1.1793  0.5672
 1574SOL    HW216185   3.298   0.534   5.931  0.7993  0.4668  0.1679
 1575SOL     OW16186   2.175   3.722   1.467  0.1746 -0.0661  0.5908
 1575SOL    HW116187   2.252   3.701   1.414  0.6903 -0.9175  1.6725
 1575SOL    HW216188   2.136   3.635   1.472 -0.4808  0.0328 -2.5937
 1576SOL     OW16189   4.420   4.122   1.386  0.0465  0.2088 -0.7614
 1576SOL    HW116190   4.362   4.131   1.310  0.2793 -0.9937 -1.0751
 1576SOL    HW216191   4.351   4.128   1.453  1.2984 -1.8248  0.7140
 1577SOL     OW16192   0.514   3.960   8.555  0.0149  0.0201  0.3250
 1577SOL    HW116193   0.586   3.991   8.610  0.3135  0.9186 -0.5797
 1577SOL    HW216194   0.464   4.041   8.555  1.8300  1.1396  0.8727
 1578SOL     OW16195   2.507   0.722   6.762  0.4702 -0.3700  0.2115
 1578SOL    HW116196   2.579   0.767   6.718 -0.0359  0.4230  0.1997
 1578SOL    HW216197   2.558   0.654   6.806  0.5796 -1.0833 -1.0030
 1579SOL     OW16198   0.887   0.609   1.369  0.2299 -0.0568 -0.6017
 1579SOL    HW116199   0.865   0.680   1.310  1.7782  2.1504  1.4932
 1579SOL    HW216200   0.848   0.639   1.450  0.0367  0.8516 -1.0346
 1580SOL     OW16201   1.201   4.563   2.784  0.0176 -0.0160 -0.1763
 1580SOL    HW116202   1.167   4.501   2.718 -0.4288 -1.1957  1.1690
 1580SOL    HW216203   1.291   4.568   2.751  1.0281 -1.7548  2.3105
 1581SOL     OW16204   3.702   0.668   7.900  0.1273 -0.4564  0.3635
 1581SOL    HW116205   3.755   0.659   7.820 -1.9848  1.7762 -1.2935
 1581SOL    HW216206   3.767   0.661   7.970 -0.2675  1.1025  0.8951
 1582SOL     OW16207   2.185   2.074   4.826 -0.0986 -1.1475  0.1106
 1582SOL    HW116208   2.161   2.009   4.892  0.9570 -1.5813  0.0751
 1582SOL    HW216209   2.178   2.030   4.741 -0.3640  0.2946 -0.6043
 1583SOL     OW16210   0.432   3.615   0.193  0.2229  0.3601 -0.2685
 1583SOL    HW116211   0.401   3.705   0.181  0.0331 -0.0849 -3.2475
 1583SOL    HW216212   0.388   3.571   0.120 -1.0910  0.4615  0.4520
 1584SOL     OW16213   3.307   0.045   4.275 -0.1992  1.0350  0.1147
 1584SOL    HW116214   3.251   0.095   4.215  0.1170  1.3353  0.0748
 1584SOL    HW216215   3.319   0.097   4.354  0.9796  1.0043 -0.0534
 1585SOL     OW16216   3.944   3.227   0.239 -0.4508 -0.0970  0.2739
 1585SOL    HW116217   4.020   3.225   0.181 -1.1683 -1.4983 -0.6131
 1585SOL    HW216218   3.952   3.320   0.262 -1.5704 -0.0845  0.6210
 1586SOL     OW16219   3.307   0.097   3.693  0.8415  0.0727 -0.0879
 1586SOL    HW116220   3.294   0.018   3.641  1.2835 -0.8578  1.2075
 1586SOL    HW216221   3.217   0.112   3.722  1.1997  1.2925  0.4013
 1587SOL     OW16222   4.684   1.261   9.189  0.2169 -0.4255  0.0651
 1587SOL    HW116223   4.700   1.345   9.147 -4.0818 -0.0377 -0.8405
 1587SOL    HW216224   0.036   1.205   9.155  2.0049  2.2796 -0.7316
 1588SOL     OW16225   1.281   1.201  15.456  0.2309  0.0842 -0.8552
 1588SOL    HW116226   1.287   1.295  15.473 -1.4883  0.2379 -1.1365
 1588SOL    HW216227   1.198   1.190  15.410 -0.9614 -0.3606  1.3741
 1589SOL     OW16228   1.163   3.733   4.728 -0.2330  0.0988  0.6381
 1589SOL    HW116229   1.249   3.741   4.770  0.2387 -2.1627  0.1205
 1589SOL    HW216230   1.179   3.732   4.634 -0.0393 -0.6765  0.6816
 1590SOL     OW16231   3.915   4.632   4.791 -0.4777 -0.2730  0.5906
 1590SOL    HW116232   3.939   4.667   4.877  1.6520  1.7256 -0.8186
 1590SOL    HW216233   3.953   4.544   4.783  1.3677  0.4785  1.0712
 1591SOL     OW16234   3.437   4.663   6.626 -0.3608  0.1297  0.0616
 1591SOL    HW116235   3.455   0.012   6.560  0.1742 -0.4634 -0.3914
 1591SOL    HW216236   3.513   4.605   6.627  0.8049  1.6772  0.4031
 1592SOL     OW16237   2.402   1.389   4.945 -0.2162  0.2647  0.1371
 1592SOL    HW116238   2.319   1.346   4.925 -0.3611 -0.1776  1.6914
 1592SOL    HW216239   2.449   1.308   4.925 -0.9657 -0.1436  0.0496
 1593SOL     OW16240   0.197   2.744   2.740 -0.1749  0.3699 -0.3492
 1593SOL    HW116241   0.169   2.820   2.691  2.3954  1.3096 -0.3844
 1593SOL    HW216242   0.148   2.675   2.696  1.8775 -1.9778  0.9663
 1594SOL     OW16243   1.275   3.775   8.148 -0.0672 -0.4460  0.0026
 1594SOL    HW116244   1.219   3.738   8.080 -2.2521  1.3632  0.8130
 1594SOL    HW216245   1.204   3.782   8.212 -1.3940 -2.0143 -1.2717
 1595SOL     OW16246   1.505   1.737   5.041  0.3544  0.5807 -0.8626
 1595SOL    HW116247   1.563   1.667   5.012 -0.5332 -1.3380  1.9674
 1595SOL    HW216248   1.553   1.757   5.121  0.9908 -2.0464 -0.5867
 1596SOL     OW16249   3.501   0.203   8.766 -0.1275  0.1918 -0.3091
 1596SOL    HW116250   3.524   0.130   8.823  1.5973  1.4944  0.6610
 1596SOL    HW216251   3.502   0.273   8.832  3.3686 -0.2006  0.0211
 1597SOL     OW16252   1.741   4.159   5.475  0.0299  0.2494  0.5796
 1597SOL    HW116253   1.740   4.183   5.567 -1.7974  0.7845  0.4053
 1597SOL    HW216254   1.688   4.226   5.433 -0.4492 -0.4747  0.0134
 1598SOL     OW16255   1.352   0.796  10.862  0.7051 -0.0311 -0.3219
 1598SOL    HW116256   1.290   0.866  10.842 -0.2124 -1.5014 -2.5595
 1598SOL    HW216257   1.294   0.720  10.868 -1.3110  1.3263 -2.3569
 1599SOL     OW16258   1.590   0.083   8.498 -0.3713  0.4014 -0.0462
 1599SOL    HW116259   1.531   0.023   8.543 -0.0788  0.2949  0.1864
 1599SOL    HW216260   1.574   0.054   8.408 -0.3288 -2.1609  0.7852
 1600SOL     OW16261   2.627   1.916   3.620  0.1690  0.4209 -0.4840
 1600SOL    HW116262   2.667   1.868   3.693 -0.1895  1.4905  0.4226
 1600SOL    HW216263   2.554   1.948   3.674  0.2636 -1.0798  0.5645
 1601SOL     OW16264   3.862   3.751   6.689  0.1345 -0.7302  0.2175
 1601SOL    HW116265   3.840   3.843   6.671 -0.4643 -1.1074 -1.0129
 1601SOL    HW216266   3.817   3.731   6.771 -0.8400  0.4544 -0.0257
 1602SOL     OW16267   3.807   1.689   9.930  0.6300  0.2444  0.0592
 1602SOL    HW116268   3.843   1.692  10.019 -1.2918 -1.0827  0.8847
 1602SOL    HW216269   3.746   1.621   9.960 -0.0333  0.8968  0.1873
 1603SOL     OW16270   0.519   0.820   1.277  0.3408  0.0185  0.2128
 1603SOL    HW116271   0.595   0.877   1.292  0.1810  0.2164  0.2593
 1603SOL    HW216272   0.493   0.787   1.363 -0.1742 -0.9280 -0.3029
 1604SOL     OW16273   3.551   3.442  14.256 -0.1617  0.0405 -0.3075
 1604SOL    HW116274   3.487   3.375  14.282 -0.3811  0.6901  0.8166
 1604SOL    HW216275   3.626   3.384  14.245 -0.0995 -0.1846  1.1809
 1605SOL     OW16276   3.005   1.471   6.324 -0.1022 -0.1070 -0.0305
 1605SOL    HW116277   3.061   1.455   6.400 -1.2303  1.3815  1.1279
 1605SOL    HW216278   3.036   1.407   6.261  1.7890 -0.3139  1.0986
 1606SOL     OW16279   3.274   2.820  11.966  0.2332 -0.2766 -0.1259
 1606SOL    HW116280   3.347   2.865  12.007 -1.6240 -0.3987  3.2848
 1606SOL    HW216281   3.312   2.808  11.879 -1.6901  1.8388 -1.2616
 1607SOL     OW16282   1.024   4.160   9.607  0.1418 -0.3053  0.1730
 1607SOL    HW116283   1.002   4.253   9.604  0.5959 -0.1782  0.8016
 1607SOL    HW216284   0.962   4.125   9.671  2.0109 -1.7634  1.1855
 1608SOL     OW16285   3.077   0.395   8.443  0.0400 -0.1764  0.2178
 1608SOL    HW116286   3.157   0.425   8.487  0.4453  0.9806 -1.2943
 1608SOL    HW216287   3.038   0.474   8.405 -1.0339 -0.5836  0.4821
 1609SOL     OW16288   3.878   1.476   2.752  0.0948  0.1449  0.0648
 1609SOL    HW116289   3.935   1.536   2.798  1.2399 -0.2258 -0.8660
 1609SOL    HW216290   3.929   1.460   2.672 -1.6568 -0.7608 -0.8959
 1610SOL     OW16291   3.113   0.062   2.720 -0.2478  0.2167 -1.1725
 1610SOL    HW116292   3.081   0.071   2.809 -2.0452  2.1687 -2.0250
 1610SOL    HW216293   3.105   4.686   2.705  0.3584 -0.0657  0.3137
 1611SOL     OW16294   2.351   1.937   8.499 -0.1994  1.0062  0.5282
 1611SOL    HW116295   2.386   1.853   8.529  1.2962  1.7021  0.7684
 1611SOL    HW216296   2.428   1.986   8.529 -0.1409  1.7057 -0.7813
 1612SOL     OW16297   1.339   4.657   7.918  0.5323 -0.3541 -0.4968
 1612SOL    HW116298   1.272   4.694   7.861 -2.1465 -0.6372  2.4486
 1612SOL    HW216299   1.417   4.684   7.869  0.8893 -0.9459 -0.2550
 1613SOL     OW16300   1.624   1.165   3.104  0.1732 -0.2207 -0.0141
 1613SOL    HW116301   1.717   1.152   3.118 -0.1130  0.6135  2.6347
 1613SOL    HW216302   1.611   1.257   3.128 -0.7161 -0.2672 -0.3141
 1614SOL     OW16303   2.358   3.540   5.209  0.0027 -0.0860 -0.2821
 1614SOL    HW116304   2.296   3.495   5.153 -0.8006  1.5280 -0.7043
 1614SOL    HW216305   2.298   3.563   5.280 -0.5856  1.6111 -1.3264
 1615SOL     OW16306   2.848   3.451  11.125  0.0460  0.4469  0.0234
 1615SOL    HW116307   2.864   3.401  11.045  1.1054  1.2456 -0.2693
 1615SOL    HW216308   2.771   3.407  11.163 -0.3811  0.8736 -0.3520
 1616SOL     OW16309   0.840   0.453  15.921  0.2559 -0.6064  0.1628
 1616SOL    HW116310   0.800   0.535  15.949  0.3368 -1.2245  2.1308
 1616SOL    HW216311   0.914   0.446  15.981  1.6685  1.2818 -1.3735
 1617SOL     OW16312   0.359   0.589   9.819 -0.1815  0.4063 -0.3369
 1617SOL    HW116313   0.412   0.569   9.742 -1.8091 -1.6416 -0.9252
 1617SOL    HW216314   0.361   0.506   9.866  1.2085  1.2771  1.1457
 1618SOL     OW16315   1.267   0.800  16.071  0.0393 -0.3203 -0.2702
 1618SOL    HW116316   1.337   0.751  16.114 -1.2888 -0.4966  1.6775
 1618SOL    HW216317   1.319   0.828  15.995  1.1256  1.9133  1.2796
 1619SOL     OW16318   3.235   2.516   7.717 -0.3102 -1.2634  0.1480
 1619SOL    HW116319   3.315   2.547   7.675 -1.6581  1.0365 -0.7297
 1619SOL    HW216320   3.171   2.578   7.682 -0.4853 -1.0343  0.8573
 1620SOL     OW16321   3.413   0.971   8.456 -0.5986 -0.4176 -0.4634
 1620SOL    HW116322   3.360   0.895   8.480 -1.3139 -0.4024 -1.9922
 1620SOL    HW216323   3.487   0.932   8.410  1.1126  2.0094  0.2379
 1621SOL     OW16324   1.720   0.647   7.707  0.2958 -0.0390 -0.3480
 1621SOL    HW116325   1.748   0.560   7.738  1.7962 -0.3454 -2.5730
 1621SOL    HW216326   1.679   0.613   7.628  3.6222 -3.5451 -0.6288
 1622SOL     OW16327   1.116   1.080   0.299 -0.2449 -0.0523 -0.2084
 1622SOL    HW116328   1.199   1.049   0.264  0.7967  0.9477  1.3899
 1622SOL    HW216329   1.077   1.097   0.214  0.0797  0.7880 -0.1870
 1623SOL     OW16330   3.976   4.171  13.932 -0.2869  0.7203  0.0792
 1623SOL    HW116331   3.930   4.087  13.923 -0.9207  0.8990  1.5745
 1623SOL    HW216332   3.995   4.197  13.842  0.9111 -2.4478 -0.5641
 1624SOL     OW16333   3.981   4.123   2.132 -0.0349 -0.1617 -0.0958
 1624SOL    HW116334   3.941   4.142   2.217  1.4022 -0.0880  0.5642
 1624SOL    HW216335   4.071   4.148   2.151 -0.1417 -0.4552  0.7971
 1625SOL     OW16336   2.539   4.338   7.186  0.3561 -0.4061  0.2571
 1625SOL    HW116337   2.635   4.336   7.193  0.4051  1.5052  0.1907
 1625SOL    HW216338   2.533   4.251   7.146 -0.8640  0.0282 -0.5048
 1626SOL     OW16339   0.060   4.590   5.585 -0.3480  0.0518 -0.4724
 1626SOL    HW116340   0.061   4.651   5.659 -2.0235  0.2862 -0.6253
 1626SOL    HW216341   0.126   4.527   5.613  1.5226  1.1884 -2.3916
 1627SOL     OW16342   4.338   0.009   6.153  0.3139 -0.5901 -0.0797
 1627SOL    HW116343   4.243   0.011   6.140  0.6981  0.6531 -2.6467
 1627SOL    HW216344   4.349   4.638   6.188 -0.3330 -0.8407 -0.5178
 1628SOL     OW16345   0.967   3.111   4.302 -0.0857 -0.1482 -0.2767
 1628SOL    HW116346   1.004   3.142   4.219  2.3692  1.7750  1.5322
 1628SOL    HW216347   0.906   3.043   4.272 -1.5252  0.3612  1.4705
 1629SOL     OW16348   2.019   2.668  14.668  0.2628 -0.5836  0.8191
 1629SOL    HW116349   2.100   2.703  14.704  1.2189 -0.4777 -1.4308
 1629SOL    HW216350   2.047   2.641  14.580 -0.2295  1.2043  0.1086
 1630SOL     OW16351   4.025   2.491   0.777  0.1823 -0.1018  0.0647
 1630SOL    HW116352   3.935   2.515   0.800  0.4955  1.1962 -0.0943
 1630SOL    HW216353   4.032   2.525   0.688  0.2954 -1.2199 -0.3552
 1631SOL     OW16354   0.552   3.742   0.848  0.0299  0.5794  0.5577
 1631SOL    HW116355   0.598   3.769   0.927 -0.1899  0.2292  0.8020
 1631SOL    HW216356   0.486   3.685   0.888 -0.8059  1.4489  0.4239
 1632SOL     OW16357   2.273   4.091   3.059 -0.6457  0.6813 -0.1007
 1632SOL    HW116358   2.207   4.160   3.072 -1.2257 -0.4241  2.8322
 1632SOL    HW216359   2.282   4.094   2.964  0.8003 -0.6366 -0.0002
 1633SOL     OW16360   3.811   0.451  13.022 -0.0392 -0.2574 -0.2908
 1633SOL    HW116361   3.771   0.522  12.971  1.6927  1.2759  0.5031
 1633SOL    HW216362   3.896   0.432  12.981  1.1858  0.8035  1.7523
 1634SOL     OW16363   4.369   1.944   1.709  0.0767 -0.3667  0.0426
 1634SOL    HW116364   4.397   1.940   1.618 -2.2880  0.0195 -0.6899
 1634SOL    HW216365   4.351   2.035   1.733 -0.6088 -0.4632 -0.1201
 1635SOL     OW16366   1.072   2.015  14.934 -0.1448 -0.4239 -0.0281
 1635SOL    HW116367   1.132   2.068  14.880 -1.4665  1.5790  0.4804
 1635SOL    HW216368   1.122   1.933  14.933  0.3771 -0.0918 -1.9570
 1636SOL     OW16369   0.491   3.198  14.069  0.1112 -0.2475 -0.3914
 1636SOL    HW116370   0.511   3.105  14.059 -0.1917 -0.3534 -0.0231
 1636SOL    HW216371   0.483   3.216  14.163  1.1018  2.3688 -0.8079
 1637SOL     OW16372   0.580   2.783   1.971  0.1777 -0.4139  0.7411
 1637SOL    HW116373   0.558   2.826   2.054 -0.5073  1.1088 -0.2302
 1637SOL    HW216374   0.668   2.820   1.965  1.0990 -2.6820  0.1945
 1638SOL     OW16375   2.602   4.396   4.208  0.5633  0.0238 -0.0173
 1638SOL    HW116376   2.605   4.391   4.112  0.0843 -1.7789  0.0567
 1638SOL    HW216377   2.612   4.490   4.225  1.5115 -0.1685  0.5346
 1639SOL     OW16378   4.293   1.152  12.017 -0.8270  0.2219  0.1914
 1639SOL    HW116379   4.242   1.076  11.990  0.2998 -0.7648  0.8372
 1639SOL    HW216380   4.341   1.120  12.094 -0.5800 -1.2090 -0.5583
 1640SOL     OW16381   3.889   2.980  17.318 -0.2963 -0.0983 -0.1562
 1640SOL    HW116382   3.795   2.965  17.317 -0.1499 -0.9571 -0.5711
 1640SOL    HW216383   3.913   2.902  17.268 -0.6019 -0.2862 -0.0118
 1641SOL     OW16384   4.070   4.595   9.361 -0.0079  0.0012  0.4364
 1641SOL    HW116385   4.080   4.683   9.397  1.9950 -0.9538  2.1761
 1641SOL    HW216386   4.093   4.620   9.271 -0.8172  0.8447  0.4648
 1642SOL     OW16387   2.839   0.361   5.022 -0.9606 -0.0516 -0.3521
 1642SOL    HW116388   2.787   0.394   4.949 -0.9116  0.6565 -0.0720
 1642SOL    HW216389   2.837   0.431   5.088  0.3312  0.5821 -0.9905
 1643SOL     OW16390   1.447   3.184   8.266  0.0219 -0.2193  0.0823
 1643SOL    HW116391   1.459   3.155   8.357 -2.8403  0.4581  0.6826
 1643SOL    HW216392   1.352   3.180   8.266  0.1315 -2.9701 -0.6221
 1644SOL     OW16393   1.865   3.986   8.200 -0.3089  0.6602  0.1519
 1644SOL    HW116394   1.869   3.956   8.109 -0.5114  0.3663  0.2410
 1644SOL    HW216395   1.958   3.980   8.221 -0.5610 -1.8176  0.5858
 1645SOL     OW16396   3.338   3.844   0.967  0.0035  0.1826  0.1196
 1645SOL    HW116397   3.393   3.767   0.953 -0.3724  0.1233 -1.0291
 1645SOL    HW216398   3.376   3.906   0.904 -2.6026  0.7605 -0.8940
 1646SOL     OW16399   2.309   1.562   3.346 -0.2572 -0.2698  0.2873
 1646SOL    HW116400   2.232   1.508   3.366 -0.9806  0.9640  0.8707
 1646SOL    HW216401   2.377   1.511   3.389  1.8331  2.1498 -0.1501
 1647SOL     OW16402   0.502   0.061   5.873  0.0507 -0.4003  1.1747
 1647SOL    HW116403   0.548   0.071   5.790  0.5796 -0.2608  1.4872
 1647SOL    HW216404   0.477   0.153   5.882 -1.5118 -0.6151 -0.7340
 1648SOL     OW16405   0.070   4.328   8.486  0.0832  0.1096  0.2660
 1648SOL    HW116406   0.105   4.385   8.555 -0.8164 -1.5656  2.1057
 1648SOL    HW216407   0.101   4.378   8.411 -0.7391 -0.6226 -0.5529
 1649SOL     OW16408   3.096   3.699  14.617 -0.8695 -0.0487  0.0638
 1649SOL    HW116409   3.108   3.623  14.559 -0.1165 -0.2125  0.4425
 1649SOL    HW216410   3.074   3.660  14.701 -0.1517  1.7965  1.1201
 1650SOL     OW16411   3.785   0.388   3.888  0.4716 -0.4573  0.0711
 1650SOL    HW116412   3.876   0.412   3.869 -0.2778 -0.0355 -2.8539
 1650SOL    HW216413   3.790   0.304   3.843  2.2335 -1.1089  1.4314
 1651SOL     OW16414   0.965   1.951   2.220  0.0218  0.3068  0.4424
 1651SOL    HW116415   1.044   1.897   2.215  0.0329  0.2110  1.8133
 1651SOL    HW216416   0.935   1.928   2.307 -0.5877 -0.9446 -0.1067
 1652SOL     OW16417   3.925   1.604  10.624  0.8680 -0.2896 -0.2356
 1652SOL    HW116418   3.900   1.648  10.706  3.1595 -1.7002  1.2423
 1652SOL    HW216419   3.937   1.679  10.566 -0.5249  1.7634  2.1142
 1653SOL     OW16420   2.387   4.484   6.758  0.3232  0.0578  0.2040
 1653SOL    HW116421   2.328   4.408   6.751 -0.1504  0.6935 -2.7704
 1653SOL    HW216422   2.457   4.473   6.693 -0.0820 -0.4390 -0.1510
 1654SOL     OW16423   2.602   1.091   3.154  0.1780 -0.6873 -0.1849
 1654SOL    HW116424   2.658   1.026   3.111  0.1926 -0.8018  0.0014
 1654SOL    HW216425   2.613   1.167   3.099  0.3412 -0.0203  0.7668
 1655SOL     OW16426   2.014   1.942  10.076 -0.3952  0.0926 -0.5932
 1655SOL    HW116427   1.920   1.930  10.092 -0.1747  0.6393  1.0340
 1655SOL    HW216428   2.020   1.913   9.985 -0.0134 -2.6133  0.3113
 1656SOL     OW16429   2.304   3.250   3.586  0.4198 -0.1866  0.2110
 1656SOL    HW116430   2.293   3.252   3.681 -0.1340 -0.9982  0.1654
 1656SOL    HW216431   2.299   3.155   3.575 -2.6769  0.4396 -3.5445
 1657SOL     OW16432   3.814   3.825  12.392  0.0814 -0.6754 -0.2090
 1657SOL    HW116433   3.879   3.764  12.357  0.1377 -1.5082  1.3758
 1657SOL    HW216434   3.870   3.893  12.430  1.0715 -0.3441 -2.2534
 1658SOL     OW16435   0.928   2.011  13.652 -0.4311 -0.0699  0.2948
 1658SOL    HW116436   0.856   2.073  13.642 -0.7121 -0.2510  1.1773
 1658SOL    HW216437   0.978   2.048  13.725  0.2890 -0.3439 -0.0544
 1659SOL     OW16438   1.604   3.299   2.900 -0.1163 -0.2908  0.3678
 1659SOL    HW116439   1.663   3.270   2.970  0.5970  0.2160 -0.0363
 1659SOL    HW216440   1.601   3.394   2.908 -0.6056 -0.4236  1.8974
 1660SOL     OW16441   4.360   3.238  12.789  0.7391 -0.1343 -0.0715
 1660SOL    HW116442   4.355   3.334  12.789 -0.0492 -0.1800  1.6488
 1660SOL    HW216443   4.428   3.224  12.854  0.8753  1.8475  0.2397
 1661SOL     OW16444   1.185   0.370   8.730  0.0029  0.4155 -0.1367
 1661SOL    HW116445   1.137   0.289   8.744 -1.4806  0.8961 -2.4203
 1661SOL    HW216446   1.226   0.381   8.815 -0.5235  1.0210  0.0417
 1662SOL     OW16447   3.431   1.999  14.590  0.1477 -0.7821  0.4144
 1662SOL    HW116448   3.366   1.929  14.597 -0.9335 -0.0719 -2.1038
 1662SOL    HW216449   3.473   1.976  14.507 -0.2126 -2.9433  0.8338
 1663SOL     OW16450   4.513   3.739  16.934  0.0019 -0.2225 -0.6245
 1663SOL    HW116451   4.518   3.656  16.887 -2.3709 -1.1795  0.8027
 1663SOL    HW216452   4.451   3.781  16.874  1.3466 -0.6667 -2.3134
 1664SOL     OW16453   3.395   0.567   5.587 -0.3106  0.0225 -0.2761
 1664SOL    HW116454   3.352   0.567   5.673 -3.7114 -2.0984 -2.0018
 1664SOL    HW216455   3.315   0.580   5.535  0.3980  2.3608 -0.8007
 1665SOL     OW16456   3.892   2.180   2.938 -0.3341 -0.5660  0.2984
 1665SOL    HW116457   3.919   2.205   3.027  0.6785 -0.8200  0.0585
 1665SOL    HW216458   3.860   2.264   2.904 -0.3920  1.0230  4.2600
 1666SOL     OW16459   2.600   3.242   8.141 -0.0436  0.5894 -0.1188
 1666SOL    HW116460   2.555   3.180   8.084  1.0874 -1.5861  1.3175
 1666SOL    HW216461   2.527   3.304   8.149  1.1653  2.1229 -1.1483
 1667SOL     OW16462   3.588   4.611   3.711  0.1334  0.2794  0.3549
 1667SOL    HW116463   3.639   4.689   3.689  0.8154  0.0708  1.2402
 1667SOL    HW216464   3.633   4.595   3.794 -0.1681  0.3678  0.5343
 1668SOL     OW16465   0.368   0.030   8.634  0.3149 -0.5671 -0.3935
 1668SOL    HW116466   0.385   0.058   8.724 -0.2420 -1.1447 -0.1091
 1668SOL    HW216467   0.412   0.101   8.587  1.0949 -0.8943 -0.1489
 1669SOL     OW16468   1.570   2.161   8.494 -0.1454 -0.7532 -0.2132
 1669SOL    HW116469   1.584   2.173   8.588 -2.9396 -0.3501  0.1302
 1669SOL    HW216470   1.585   2.067   8.485  1.0022 -0.5334 -0.6198
 1670SOL     OW16471   0.447   3.369  14.747  0.1807  0.0951 -0.1345
 1670SOL    HW116472   0.362   3.355  14.704  0.3105 -1.2748  0.0562
 1670SOL    HW216473   0.450   3.287  14.796 -1.6497 -0.4074 -0.8419
 1671SOL     OW16474   4.187   3.051   4.955  0.4618  0.0326 -0.5737
 1671SOL    HW116475   4.220   2.972   4.911 -1.6621 -0.6146 -0.9722
 1671SOL    HW216476   4.159   3.102   4.879  3.2121  1.6669 -0.4805
 1672SOL     OW16477   3.525   1.055  11.569 -0.6664 -0.0503  0.4285
 1672SOL    HW116478   3.580   1.006  11.507  0.7053  0.7256  1.0183
 1672SOL    HW216479   3.561   1.028  11.653  0.0783 -2.4475 -0.6348
 1673SOL     OW16480   4.098   1.089  17.150 -0.6794  0.6594 -0.4967
 1673SOL    HW116481   4.135   1.041  17.223 -1.2117 -1.9058 -1.9004
 1673SOL    HW216482   4.004   1.072  17.149 -0.6166  0.2856  0.0838
 1674SOL     OW16483   4.068   0.852   6.396  0.5238 -0.0525  0.0202
 1674SOL    HW116484   4.106   0.766   6.412 -1.9581 -0.6114  2.9251
 1674SOL    HW216485   4.129   0.909   6.443  0.7874  0.1387 -0.5508
 1675SOL     OW16486   0.365   3.941   8.335 -0.0769 -0.0879  0.2125
 1675SOL    HW116487   0.453   3.977   8.334 -0.5962  1.2139  1.5255
 1675SOL    HW216488   0.370   3.890   8.416 -0.0405 -1.2466 -0.5184
 1676SOL     OW16489   0.342   3.391   4.398  0.2197 -0.5364 -0.5137
 1676SOL    HW116490   0.386   3.430   4.323 -0.6805 -1.2116 -1.3927
 1676SOL    HW216491   0.380   3.442   4.469  0.0677 -0.0895 -0.7489
 1677SOL     OW16492   0.975   4.464   7.021 -0.5744 -0.5197  0.5344
 1677SOL    HW116493   0.902   4.479   6.961  1.1113  0.9881 -1.1558
 1677SOL    HW216494   0.959   4.536   7.082 -1.0103  0.2306 -0.4743
 1678SOL     OW16495   4.239   0.097   4.667 -0.1980  0.0085  0.2021
 1678SOL    HW116496   4.210   0.115   4.756  0.0073 -0.2665  0.3264
 1678SOL    HW216497   4.331   0.078   4.686 -0.6619 -0.3342  2.1250
 1679SOL     OW16498   2.518   2.538  10.887  0.2854  0.2421 -0.5521
 1679SOL    HW116499   2.443   2.483  10.863  0.6467 -0.0548 -1.0148
 1679SOL    HW216500   2.499   2.629  10.868  1.4224  0.5552 -0.2049
 1680SOL     OW16501   2.709   1.421   1.680  1.1630 -0.2235  0.0891
 1680SOL    HW116502   2.675   1.424   1.590  2.0827 -4.0490 -0.3974
 1680SOL    HW216503   2.628   1.454   1.718  2.1239  0.8538  1.2050
 1681SOL     OW16504   2.262   3.660   6.728 -0.5781 -0.3148 -0.1712
 1681SOL    HW116505   2.216   3.696   6.805  0.8921  0.7767  0.1883
 1681SOL    HW216506   2.307   3.583   6.761  0.5753  1.2544  1.9240
 1682SOL     OW16507   0.687   2.205   7.336 -0.0997  0.4310 -0.3000
 1682SOL    HW116508   0.709   2.254   7.416  1.0235 -1.7219  0.7104
 1682SOL    HW216509   0.633   2.273   7.296  3.1034  1.8108 -2.1843
 1683SOL     OW16510   0.200   4.328   6.100  0.6086  0.5946  0.2769
 1683SOL    HW116511   0.189   4.293   6.189 -0.6443 -1.1654 -0.5876
 1683SOL    HW216512   0.147   4.261   6.057  0.0347  1.3740 -0.2311
 1684SOL     OW16513   0.374   2.780  17.339 -0.4540  0.0438 -0.0781
 1684SOL    HW116514   0.385   2.778  17.244  1.5887 -1.9372  0.1806
 1684SOL    HW216515   0.294   2.727  17.335 -1.1207  1.0177  0.4455
 1685SOL     OW16516   2.978   3.348   0.802  0.3457  0.1577  0.2442
 1685SOL    HW116517   2.990   3.282   0.871 -1.2747 -0.5380 -0.1433
 1685SOL    HW216518   3.064   3.390   0.803  1.1961 -1.5607 -0.7751
 1686SOL     OW16519   1.050   2.188  16.887 -0.4226 -0.1221 -0.2519
 1686SOL    HW116520   1.133   2.189  16.935 -0.7011  0.2080  0.2251
 1686SOL    HW216521   1.047   2.266  16.832 -1.1476 -1.4504 -2.1150
 1687SOL     OW16522   0.218   0.331   3.624 -0.2252  0.5616  0.0384
 1687SOL    HW116523   0.296   0.322   3.570 -0.8486  0.9845 -0.9297
 1687SOL    HW216524   0.165   0.382   3.563 -0.5783 -1.8188 -1.6382
 1688SOL     OW16525   0.027   2.409  12.628  0.1288  0.1878 -0.4685
 1688SOL    HW116526   0.096   2.349  12.598 -2.2053 -2.8745  0.3015
 1688SOL    HW216527   4.680   2.403  12.558 -0.0813  0.0635 -0.2634
 1689SOL     OW16528   1.793   0.446   1.574 -0.7797  0.9644  1.0353
 1689SOL    HW116529   1.750   0.528   1.596 -2.1785  0.1261  1.4575
 1689SOL    HW216530   1.738   0.412   1.503 -0.1860  1.8714  0.1371
 1690SOL     OW16531   4.021   4.170  13.672  0.1429 -0.1572 -0.0546
 1690SOL    HW116532   4.115   4.151  13.673  0.2911  0.5782  0.3928
 1690SOL    HW216533   4.028   4.255  13.628  0.4088 -1.1471 -1.8928
 1691SOL     OW16534   1.700   1.411   4.502  0.5152  0.3971  0.3788
 1691SOL    HW116535   1.747   1.484   4.543  1.6333 -0.7657  1.1648
 1691SOL    HW216536   1.768   1.345   4.493 -0.0720  0.0234 -1.3305
 1692SOL     OW16537   3.643   2.813   3.134 -0.0372  0.1721  0.3621
 1692SOL    HW116538   3.564   2.762   3.119  0.0204  0.1477  0.1493
 1692SOL    HW216539   3.639   2.830   3.228  2.1459 -0.1880  0.5073
 1693SOL     OW16540   1.318   0.947  14.478  0.0981  0.1364 -1.0145
 1693SOL    HW116541   1.364   0.866  14.457 -0.2791 -0.6788  1.3664
 1693SOL    HW216542   1.300   0.978  14.389 -0.3595  0.7367 -0.7141
 1694SOL     OW16543   3.980   3.635  15.276 -0.3707  0.3093  0.3166
 1694SOL    HW116544   4.047   3.701  15.294 -1.1673  0.7894  1.4568
 1694SOL    HW216545   4.026   3.558  15.309 -0.3488  1.6306  3.3188
 1695SOL     OW16546   0.898   0.534   4.976  0.1480 -0.3113 -0.1635
 1695SOL    HW116547   0.933   0.572   5.057 -1.8448  1.5069 -0.1537
 1695SOL    HW216548   0.894   0.608   4.916  0.3158  0.7815  1.1765
 1696SOL     OW16549   2.434   2.648   7.967  0.7261 -0.2161 -0.2557
 1696SOL    HW116550   2.391   2.564   7.951  0.1533  0.0387 -0.0525
 1696SOL    HW216551   2.361   2.710   7.971  0.4646 -0.4640 -1.1357
 1697SOL     OW16552   4.233   3.808   4.677 -0.3418 -0.3351 -0.5154
 1697SOL    HW116553   4.323   3.802   4.710 -1.3365  2.2343  2.6565
 1697SOL    HW216554   4.254   3.770   4.592 -1.5738 -1.2887 -0.3962
 1698SOL     OW16555   3.110   0.732   6.047  0.1686 -0.1961  0.3915
 1698SOL    HW116556   3.067   0.817   6.036 -2.2060 -1.4332  0.1308
 1698SOL    HW216557   3.198   0.754   6.079  0.8466 -0.4267 -1.2541
 1699SOL     OW16558   2.714   3.197   5.742 -0.0181  0.2614  0.1531
 1699SOL    HW116559   2.746   3.284   5.721 -1.7178  0.0904 -3.0929
 1699SOL    HW216560   2.686   3.161   5.658 -1.4245  0.5240  0.4991
 1700SOL     OW16561   1.103   0.142   7.028  0.1691  0.2830 -0.3559
 1700SOL    HW116562   1.146   0.080   6.970 -0.2120 -2.3210  2.1063
 1700SOL    HW216563   1.166   0.213   7.039  2.8816 -2.1381 -0.4600
 1701SOL     OW16564   1.253   3.102   6.789 -0.3471  0.2204 -0.4038
 1701SOL    HW116565   1.227   3.166   6.855 -1.4146 -1.7260  1.0933
 1701SOL    HW216566   1.320   3.056   6.841 -1.7524 -1.2327  0.1319
 1702SOL     OW16567   0.341   4.673   2.374  0.0628  0.1806  0.4478
 1702SOL    HW116568   0.434   4.668   2.396  0.1388 -0.7228 -0.0984
 1702SOL    HW216569   0.334   4.600   2.312  0.6423 -1.0763  1.8906
 1703SOL     OW16570   0.331   2.780   1.793  0.2040  0.1407  0.7880
 1703SOL    HW116571   0.423   2.759   1.806  0.1254 -1.3644 -1.1372
 1703SOL    HW216572   0.322   2.870   1.825 -0.7822 -0.5361  2.4179
 1704SOL     OW16573   4.197   0.012   8.256 -0.1594 -0.0850  0.3824
 1704SOL    HW116574   4.179   4.640   8.230  0.2208 -0.1403  0.3068
 1704SOL    HW216575   4.115   0.057   8.239  0.0835 -0.4744 -1.8099
 1705SOL     OW16576   0.558   2.530   4.403 -0.0428  0.1106  0.2156
 1705SOL    HW116577   0.486   2.585   4.373 -0.2085 -0.5015 -0.5039
 1705SOL    HW216578   0.616   2.597   4.439  0.2540  0.1628 -0.3684
 1706SOL     OW16579   0.450   4.311   5.962 -0.3215  0.0480  0.1438
 1706SOL    HW116580   0.371   4.330   6.012 -0.2951 -0.3204  0.3269
 1706SOL    HW216581   0.419   4.257   5.888  0.7876  2.4867 -2.0882
 1707SOL     OW16582   3.077   0.684   9.601  0.0145  0.5441  0.1816
 1707SOL    HW116583   3.130   0.609   9.629 -3.3784 -1.1654  2.0359
 1707SOL    HW216584   3.092   0.755   9.663  0.9482 -0.0432  0.6242
 1708SOL     OW16585   3.873   1.529   1.906 -0.1320  0.4511 -0.0799
 1708SOL    HW116586   3.866   1.444   1.861 -0.7775  0.7539 -0.5476
 1708SOL    HW216587   3.901   1.599   1.847 -0.5175 -0.7507 -1.7018
 1709SOL     OW16588   1.042   0.879   7.391 -0.0361 -0.7095 -0.4554
 1709SOL    HW116589   1.021   0.792   7.426 -2.0112 -0.7968 -1.8550
 1709SOL    HW216590   0.961   0.902   7.344 -0.2137  0.4178  0.3815
 1710SOL     OW16591   3.764   4.534   3.899 -0.1918  0.0222  0.3224
 1710SOL    HW116592   3.744   4.544   3.992  1.3904 -0.1565  0.6857
 1710SOL    HW216593   3.800   4.445   3.902  0.0118  0.1294  1.2311
 1711SOL     OW16594   3.009   2.214  13.467 -0.3369  0.1075  0.0497
 1711SOL    HW116595   3.091   2.170  13.492 -1.3078 -1.3154  0.6864
 1711SOL    HW216596   2.961   2.147  13.419  1.6171  0.0131 -1.8259
 1712SOL     OW16597   3.664   3.831  12.618  0.0155 -0.0356 -0.3619
 1712SOL    HW116598   3.708   3.843  12.534  0.9346  5.0787  0.8756
 1712SOL    HW216599   3.739   3.844  12.676 -1.2422 -0.6234  1.4118
 1713SOL     OW16600   4.005   1.553   8.234 -0.4429  0.6958  0.0467
 1713SOL    HW116601   4.059   1.632   8.225 -0.6446  0.5331 -2.6681
 1713SOL    HW216602   3.922   1.575   8.191 -1.2334  1.1639  1.7937
 1714SOL     OW16603   4.178   0.647  17.386 -0.5367 -0.4695  0.0832
 1714SOL    HW116604   4.203   0.557  17.405  0.7947 -0.3484 -1.0474
 1714SOL    HW216605   4.087   0.653  17.415 -1.1471  1.0097 -2.1325
 1715SOL     OW16606   3.029   0.561   3.057 -0.2195  0.1820 -0.3910
 1715SOL    HW116607   2.943   0.528   3.083 -0.4607 -0.3156 -1.8706
 1715SOL    HW216608   3.080   0.492   3.098 -0.6143  2.0462  3.2944
 1716SOL     OW16609   3.176   4.695   8.612 -0.1613 -0.1680 -0.0840
 1716SOL    HW116610   3.177   4.697   8.708 -0.5596 -2.3075 -0.0236
 1716SOL    HW216611   3.094   0.019   8.586  0.1211  0.8326  0.6286
 1717SOL     OW16612   3.946   4.293   7.821 -0.2817  0.0058 -0.0437
 1717SOL    HW116613   3.872   4.319   7.875 -0.7758  0.5900 -1.0074
 1717SOL    HW216614   4.023   4.340   7.853 -0.4107 -0.1238  0.4569
 1718SOL     OW16615   4.081   2.008  15.508  0.4880 -0.5844 -0.2852
 1718SOL    HW116616   4.097   2.037  15.418 -1.1878 -0.2876 -0.5007
 1718SOL    HW216617   4.137   1.931  15.511  2.1966  0.7633  2.0620
 1719SOL     OW16618   0.103   3.806   5.700 -0.8252 -0.2339 -0.6262
 1719SOL    HW116619   0.097   3.745   5.774  0.1741 -0.2824 -0.5866
 1719SOL    HW216620   0.134   3.752   5.627  0.3596  0.3329 -0.5362
 1720SOL     OW16621   4.371   2.332  16.562 -0.0586 -0.4331 -0.5088
 1720SOL    HW116622   4.310   2.270  16.522  0.6016 -0.9907 -0.6579
 1720SOL    HW216623   4.334   2.418  16.542  2.7103  0.7154 -0.6942
 1721SOL     OW16624   0.648   1.277   4.918 -0.0448 -0.2081  0.6534
 1721SOL    HW116625   0.582   1.305   4.854  1.5716 -2.8259 -2.1415
 1721SOL    HW216626   0.718   1.301   4.856 -0.7686 -0.5852 -0.3167
 1722SOL     OW16627   1.520   0.431   7.009 -0.1992 -0.2479  0.1987
 1722SOL    HW116628   1.605   0.467   6.985 -0.3174 -1.2990 -1.7221
 1722SOL    HW216629   1.487   0.516   7.039 -0.3382 -0.1658 -0.1834
 1723SOL     OW16630   0.209   3.828  11.598 -0.8521  0.0738 -0.2370
 1723SOL    HW116631   0.167   3.751  11.636 -1.1254 -0.3188 -1.3484
 1723SOL    HW216632   0.244   3.858  11.682 -2.4879 -1.3782  0.9586
 1724SOL     OW16633   0.218   3.816   6.442 -0.6929 -0.6744 -0.2802
 1724SOL    HW116634   0.305   3.844   6.469 -1.4714 -0.5449  2.0590
 1724SOL    HW216635   0.179   3.901   6.461 -1.7181 -0.5506 -2.9079
 1725SOL     OW16636   4.001   2.425   9.577 -0.6900 -0.5976  0.3538
 1725SOL    HW116637   3.961   2.439   9.662 -0.6754  1.9323 -0.0487
 1725SOL    HW216638   3.926   2.380   9.539 -0.5878 -0.9907  0.6159
 1726SOL     OW16639   1.949   1.959   4.083  0.1736  0.3548  0.0420
 1726SOL    HW116640   2.042   1.949   4.062  0.3672  0.0442  1.0272
 1726SOL    HW216641   1.923   1.915   4.002  0.3644 -1.6820  1.0938
 1727SOL     OW16642   0.302   4.333   7.539 -0.4219 -0.0384 -0.5534
 1727SOL    HW116643   0.237   4.264   7.527  1.9053 -2.0563 -1.7688
 1727SOL    HW216644   0.376   4.279   7.569 -0.8790 -1.3303 -1.7199
 1728SOL     OW16645   2.835   4.532   6.249 -0.3801  0.5242 -0.0622
 1728SOL    HW116646   2.854   4.440   6.268 -0.0771  0.4650 -0.6423
 1728SOL    HW216647   2.741   4.534   6.263 -0.2667  1.1873  0.6059
 1729SOL     OW16648   3.457   4.114  16.119 -0.4268  0.0190  0.1902
 1729SOL    HW116649   3.426   4.040  16.067  0.6615 -0.6697  0.5324
 1729SOL    HW216650   3.395   4.113  16.192 -0.0768  1.9586  0.5103
 1730SOL     OW16651   4.629   2.376   6.643 -0.2659 -0.0069  0.5670
 1730SOL    HW116652   4.649   2.452   6.588 -0.4900  2.1378  3.4506
 1730SOL    HW216653   4.581   2.421   6.711 -2.3666 -0.5730 -0.5390
 1731SOL     OW16654   4.425   4.622   5.623  0.1019  0.5811  0.3185
 1731SOL    HW116655   4.483   4.645   5.696  2.3063  0.2185 -1.3333
 1731SOL    HW216656   4.482   4.601   5.549 -0.6467 -0.2173 -0.0448
 1732SOL     OW16657   2.665   0.432   2.541  0.3359  0.2005 -0.0626
 1732SOL    HW116658   2.639   0.411   2.631 -0.0464 -3.0394 -0.9279
 1732SOL    HW216659   2.693   0.523   2.540 -1.0479  0.6322 -0.5620
 1733SOL     OW16660   2.212   4.516  12.268 -0.9269 -0.2366 -0.3687
 1733SOL    HW116661   2.269   4.444  12.294 -0.6774  0.8067  1.9821
 1733SOL    HW216662   2.201   4.569  12.347 -0.5841 -1.3136  0.3959
 1734SOL     OW16663   2.429   2.308   5.135 -0.4644  0.1364 -0.1010
 1734SOL    HW116664   2.477   2.391   5.128  0.4606 -0.3515  0.4953
 1734SOL    HW216665   2.350   2.332   5.087 -0.9224 -0.3594  0.4155
 1735SOL     OW16666   1.243   4.049   4.865 -0.8430  0.1284 -0.1162
 1735SOL    HW116667   1.219   3.976   4.921 -0.7049  0.3542  0.2356
 1735SOL    HW216668   1.268   4.115   4.930  0.8114  0.1679 -0.7934
 1736SOL     OW16669   3.934   1.782   3.123  0.4948  0.4909  0.2503
 1736SOL    HW116670   3.983   1.864   3.120  1.6396 -0.2268 -0.9250
 1736SOL    HW216671   3.911   1.776   3.216 -2.5251 -1.9744 -0.6367
 1737SOL     OW16672   3.992   0.474  10.901  0.0331  0.0018 -0.0380
 1737SOL    HW116673   3.934   0.422  10.846 -0.2558  0.8506 -0.5239
 1737SOL    HW216674   3.959   0.440  10.985 -0.6004 -0.1899 -0.3651
 1738SOL     OW16675   2.745   3.442   4.161 -0.5020 -0.2867 -0.1930
 1738SOL    HW116676   2.809   3.445   4.232 -2.9191 -1.9712  2.0982
 1738SOL    HW216677   2.762   3.529   4.124  1.6349 -0.4432  0.4157
 1739SOL     OW16678   3.559   2.090   6.355 -0.1448  0.2555 -0.2299
 1739SOL    HW116679   3.556   2.029   6.280 -2.6154  1.0614 -0.7952
 1739SOL    HW216680   3.613   2.038   6.415  0.0490  1.7329  0.8461
 1740SOL     OW16681   3.028   3.516  15.576 -0.5122  0.4474  0.4648
 1740SOL    HW116682   2.941   3.516  15.535 -0.6981  0.4655  0.8653
 1740SOL    HW216683   3.081   3.572  15.519 -0.6166 -1.0953 -1.1551
 1741SOL     OW16684   1.811   1.637   8.094  0.0728  0.5202  0.0956
 1741SOL    HW116685   1.782   1.654   8.183  0.6734 -1.1780  0.6228
 1741SOL    HW216686   1.855   1.553   8.110 -1.0285  0.1306  1.0453
 1742SOL     OW16687   4.038   2.670  13.735  0.0628  0.1795  0.0518
 1742SOL    HW116688   4.100   2.742  13.745 -0.0796  0.0379  1.9394
 1742SOL    HW216689   4.080   2.616  13.668 -1.3146 -0.5676 -0.2102
 1743SOL     OW16690   2.606   1.671   2.921  0.3948 -0.1484  0.1354
 1743SOL    HW116691   2.622   1.671   3.016  1.5390 -1.4565 -0.0646
 1743SOL    HW216692   2.541   1.602   2.908  0.6644 -0.1767 -1.0232
 1744SOL     OW16693   3.037   2.792   0.968  0.3893 -0.2928  0.1467
 1744SOL    HW116694   3.017   2.803   0.875 -0.3219  0.8693  0.4301
 1744SOL    HW216695   2.982   2.717   0.988  0.4886 -0.3412  0.2405
 1745SOL     OW16696   2.180   0.525  10.650 -0.2771  0.4741  0.2186
 1745SOL    HW116697   2.226   0.551  10.570  0.1195  0.0696  0.3168
 1745SOL    HW216698   2.255   0.545  10.707 -0.1526 -0.9402  0.5391
 1746SOL     OW16699   1.913   4.487   9.787  0.0913 -0.0444  0.2293
 1746SOL    HW116700   1.864   4.564   9.757  2.0665  0.6582 -1.2818
 1746SOL    HW216701   1.846   4.420   9.784  0.9494 -0.8576 -0.9191
 1747SOL     OW16702   3.446   4.578   6.977  0.7335  0.4705 -0.3463
 1747SOL    HW116703   3.413   4.498   6.936  1.9261 -1.3277  2.2602
 1747SOL    HW216704   3.494   4.547   7.054  3.5441  0.5439 -2.0563
 1748SOL     OW16705   2.218   2.882   6.638 -0.4560 -0.6285  0.2041
 1748SOL    HW116706   2.184   2.851   6.722  0.0730  1.0015  1.0220
 1748SOL    HW216707   2.261   2.961   6.671 -2.6536  0.1101  1.2606
 1749SOL     OW16708   3.289   0.090   6.208 -0.4237 -0.0456  0.3082
 1749SOL    HW116709   3.201   0.090   6.244 -1.6739 -0.5752 -2.7844
 1749SOL    HW216710   3.341   0.105   6.287  1.1103 -1.9894 -0.3144
 1750SOL     OW16711   2.397   2.051  12.968  0.5082 -0.5603  0.6616
 1750SOL    HW116712   2.407   2.144  12.949 -0.5838 -1.1745 -2.9152
 1750SOL    HW216713   2.309   2.027  12.937 -0.9755  6.0523 -0.3106
 1751SOL     OW16714   4.493   3.799  10.363  0.2396  0.4216 -0.3613
 1751SOL    HW116715   4.494   3.827  10.455  0.1685  0.7411 -0.4587
 1751SOL    HW216716   4.444   3.716  10.363  0.7280  0.1330 -1.4049
 1752SOL     OW16717   1.879   2.881   9.727  0.1509  0.6338  0.3686
 1752SOL    HW116718   1.953   2.846   9.776  0.6006  0.6938 -0.2536
 1752SOL    HW216719   1.850   2.953   9.783 -0.5986  0.2548  0.4596
 1753SOL     OW16720   3.050   2.422   8.749 -0.3011  0.5032 -0.3194
 1753SOL    HW116721   3.096   2.503   8.725 -0.8609  1.0592  0.4836
 1753SOL    HW216722   3.116   2.379   8.802 -0.6609  0.1844 -0.1305
 1754SOL     OW16723   3.317   1.473   6.207  0.6270 -0.1140  0.0644
 1754SOL    HW116724   3.399   1.489   6.253  1.2392  0.7431 -1.3157
 1754SOL    HW216725   3.292   1.385   6.236  0.6249 -0.4036 -0.8116
 1755SOL     OW16726   4.000   0.921  13.198 -0.2233 -0.2653  0.0229
 1755SOL    HW116727   4.015   0.826  13.199 -1.8775 -0.5255 -0.4115
 1755SOL    HW216728   3.905   0.921  13.200 -0.2028  1.5557  0.6253
 1756SOL     OW16729   1.773   0.964   6.355 -0.4379 -1.0262  0.1479
 1756SOL    HW116730   1.837   1.029   6.325 -1.4835 -0.8017 -1.6164
 1756SOL    HW216731   1.779   0.896   6.288  0.6071  1.7354 -2.5917
 1757SOL     OW16732   1.563   4.481   4.815  0.1059  0.6477 -0.7879
 1757SOL    HW116733   1.548   4.461   4.723  2.0513 -0.0172 -0.9744
 1757SOL    HW216734   1.658   4.472   4.818 -0.1758 -2.3248 -1.0381
 1758SOL     OW16735   3.316   1.987   7.815 -0.4136 -0.0098  0.0007
 1758SOL    HW116736   3.406   1.982   7.784  0.0128 -0.2710  1.2969
 1758SOL    HW216737   3.338   1.951   7.901  1.0185 -0.9073 -0.7463
 1759SOL     OW16738   0.325   0.719   1.105 -0.4833  0.0243  0.0513
 1759SOL    HW116739   0.275   0.795   1.136  0.8569  0.4196  1.2307
 1759SOL    HW216740   0.403   0.729   1.159  1.1861 -0.8220 -2.1753
 1760SOL     OW16741   4.104   4.630  17.018  0.4358  0.6018  0.3663
 1760SOL    HW116742   4.015   4.628  17.052 -1.1193  1.7440 -3.6514
 1760SOL    HW216743   4.132   4.539  17.009  1.1243  0.9514 -1.1481
 1761SOL     OW16744   4.539   4.036   6.215 -0.5939  0.7064  0.7470
 1761SOL    HW116745   4.480   4.111   6.214  0.6237  1.6531 -0.1767
 1761SOL    HW216746   4.534   4.005   6.305 -2.9308 -2.3350 -0.4335
 1762SOL     OW16747   0.119   3.880  12.295 -0.2577 -0.1046  0.3091
 1762SOL    HW116748   0.136   3.975  12.293 -1.1163  0.0698  0.9836
 1762SOL    HW216749   0.092   3.872  12.204  0.3246 -2.1749  0.3275
 1763SOL     OW16750   3.401   4.623  13.278  0.5575 -0.2058  0.5639
 1763SOL    HW116751   3.449   4.669  13.347  0.8225 -1.3713  1.1641
 1763SOL    HW216752   3.321   4.674  13.274 -0.8290 -2.4355 -0.1789
 1764SOL     OW16753   2.359   2.326   3.431  0.2102  0.2966  0.7822
 1764SOL    HW116754   2.395   2.405   3.472  0.7442  0.6366 -0.3425
 1764SOL    HW216755   2.422   2.258   3.454  0.4344  0.9884  2.1739
 1765SOL     OW16756   2.775   4.698   1.602 -0.4515  0.5752 -0.1611
 1765SOL    HW116757   2.826   4.676   1.680  0.3845 -0.3446 -0.9814
 1765SOL    HW216758   2.841   0.026   1.550  1.8117 -0.2336  2.0331
 1766SOL     OW16759   1.935   2.242   6.538  0.0857 -0.2380  0.4306
 1766SOL    HW116760   1.910   2.161   6.495 -1.8543  0.7523 -0.3075
 1766SOL    HW216761   1.865   2.302   6.511  1.2287  0.6531 -0.6255
 1767SOL     OW16762   2.583   0.522  14.911 -0.0581 -0.2727  0.0032
 1767SOL    HW116763   2.672   0.545  14.936  0.0360 -0.5358 -0.0921
 1767SOL    HW216764   2.541   0.596  14.955 -0.3639 -1.3078  1.4584
 1768SOL     OW16765   1.145   0.069   3.766  0.1942 -0.3404 -0.6210
 1768SOL    HW116766   1.222   0.104   3.813 -0.2749 -1.8205  1.2643
 1768SOL    HW216767   1.167   0.102   3.679 -1.3370  0.5305 -0.6737
 1769SOL     OW16768   2.765   3.284   5.328  0.3069  0.2088 -0.0080
 1769SOL    HW116769   2.792   3.352   5.266 -4.0353  0.6251 -1.3991
 1769SOL    HW216770   2.671   3.293   5.316  0.3892  0.7103 -0.3019
 1770SOL     OW16771   1.309   3.485   8.439 -0.4395 -0.3126 -0.1467
 1770SOL    HW116772   1.306   3.492   8.534 -0.6451  2.1609 -0.3244
 1770SOL    HW216773   1.331   3.393   8.448  1.1916 -0.1383 -2.3130
 1771SOL     OW16774   0.137   1.064   9.082  0.4333 -0.0568  0.4381
 1771SOL    HW116775   0.134   0.981   9.035  0.4054  0.4708 -0.4947
 1771SOL    HW216776   0.144   1.117   9.003 -1.7437 -0.1642  0.1687
 1772SOL     OW16777   0.750   2.300   0.336 -0.0216 -0.5727 -0.0258
 1772SOL    HW116778   0.842   2.304   0.364  0.5139 -0.3906 -1.7668
 1772SOL    HW216779   0.711   2.251   0.408 -1.0000  1.8503  1.0836
 1773SOL     OW16780   0.835   1.655   8.463  0.0338 -0.4815  0.3594
 1773SOL    HW116781   0.916   1.610   8.439  1.4711  1.1368  2.1709
 1773SOL    HW216782   0.863   1.745   8.480  3.6871 -1.9454  1.9993
 1774SOL     OW16783   3.180   4.008   3.963  0.8677  0.5427 -0.4523
 1774SOL    HW116784   3.180   3.914   3.980 -1.2426  0.4675 -0.7905
 1774SOL    HW216785   3.142   4.052   4.040  1.8572  2.1766 -0.8988
 1775SOL     OW16786   2.293   2.047   7.158  0.3125  0.2562  0.3835
 1775SOL    HW116787   2.280   2.002   7.241  0.0940 -0.6062 -0.1183
 1775SOL    HW216788   2.263   1.987   7.090 -0.6597 -0.6093  1.5919
 1776SOL     OW16789   1.461   1.017  14.937  0.2346 -0.4572  0.8857
 1776SOL    HW116790   1.438   0.951  15.003 -1.2316  0.2750  1.1062
 1776SOL    HW216791   1.495   0.967  14.863 -0.2517  0.0395  0.3319
 1777SOL     OW16792   2.636   4.652   5.648  0.2479  0.1976  0.3302
 1777SOL    HW116793   2.660   4.654   5.741  1.0488 -0.4985  0.1304
 1777SOL    HW216794   2.695   4.715   5.606 -0.4860  2.1842  2.2738
 1778SOL     OW16795   4.053   0.704  10.756 -0.7585 -0.3498 -0.1834
 1778SOL    HW116796   4.031   0.634  10.817 -0.3539  0.9752  1.4808
 1778SOL    HW216797   4.139   0.731  10.787 -0.8372 -2.6676  2.0680
 1779SOL     OW16798   1.947   2.249  14.882 -0.2086  0.3248  0.5391
 1779SOL    HW116799   1.942   2.344  14.895 -0.4070  0.2749  0.8422
 1779SOL    HW216800   1.902   2.245  14.798 -1.5567  0.0683  1.2836
 1780SOL     OW16801   1.541   2.977   8.804  0.0448 -0.4245  0.0188
 1780SOL    HW116802   1.595   3.038   8.754  1.0406  0.4441  2.1945
 1780SOL    HW216803   1.487   3.039   8.853  0.8874  1.5614 -1.5435
 1781SOL     OW16804   1.718   4.536   8.056 -0.0733 -0.5501  0.3113
 1781SOL    HW116805   1.693   4.478   8.128 -1.5891 -1.4816 -0.9705
 1781SOL    HW216806   1.778   4.485   8.002 -1.9507 -0.7434 -1.5894
 1782SOL     OW16807   2.053   1.969   3.047 -0.0326 -0.5168  0.2982
 1782SOL    HW116808   1.996   1.930   2.981  1.0434 -1.3794 -0.1281
 1782SOL    HW216809   2.078   1.893   3.099  2.1087  0.3417  0.5547
 1783SOL     OW16810   1.918   0.391   5.210  0.7404  0.2231  0.1708
 1783SOL    HW116811   1.956   0.470   5.247 -1.8887  1.3486  0.4243
 1783SOL    HW216812   1.826   0.417   5.204 -0.4045 -3.7569  0.3641
 1784SOL     OW16813   1.215   4.577   7.473  0.4014  0.6906  0.2732
 1784SOL    HW116814   1.200   4.484   7.452  0.9433  0.8070 -0.6355
 1784SOL    HW216815   1.236   4.605   7.384  0.8412 -1.1683 -0.2112
 1785SOL     OW16816   0.720   2.136   5.170 -0.4158  0.1984 -0.0126
 1785SOL    HW116817   0.780   2.088   5.227 -0.5531  0.8432  0.6794
 1785SOL    HW216818   0.654   2.167   5.231  0.3117 -1.0907  1.4172
 1786SOL     OW16819   1.153   3.092  11.089 -0.3651  0.3927  0.5485
 1786SOL    HW116820   1.151   3.076  11.183  0.2247  2.0432  0.8336
 1786SOL    HW216821   1.227   3.153  11.084 -0.0706 -0.0713 -0.8177
 1787SOL     OW16822   0.789   2.646   4.907  0.6977  0.2576  0.1906
 1787SOL    HW116823   0.796   2.701   4.829 -0.1950 -1.9202 -1.4413
 1787SOL    HW216824   0.849   2.696   4.962  0.7562  0.1205  0.2532
 1788SOL     OW16825   1.188   2.157  12.112  0.1157 -0.2678  0.4918
 1788SOL    HW116826   1.098   2.145  12.082 -0.1876 -0.9931  1.7007
 1788SOL    HW216827   1.200   2.251  12.117 -1.2068 -0.0644 -0.1342
 1789SOL     OW16828   3.559   0.805   4.659  0.3761  0.3530  0.5754
 1789SOL    HW116829   3.584   0.713   4.662  2.2073  0.7862 -0.9732
 1789SOL    HW216830   3.589   0.838   4.744 -0.0658  1.1096  0.4344
 1790SOL     OW16831   4.381   4.406   1.225 -0.1914 -0.2811 -0.5090
 1790SOL    HW116832   4.420   4.487   1.192 -0.8429  0.4028  0.3958
 1790SOL    HW216833   4.292   4.408   1.191 -0.6664 -1.2702  0.6938
 1791SOL     OW16834   0.959   2.377   9.023  0.0795  0.1356 -0.4884
 1791SOL    HW116835   0.874   2.416   9.001 -0.7428 -2.3250 -1.6499
 1791SOL    HW216836   1.009   2.434   8.965 -0.5026 -0.0816 -1.2037
 1792SOL     OW16837   2.392   3.378   1.564 -0.1477 -0.1152 -0.3051
 1792SOL    HW116838   2.349   3.300   1.529  2.2822 -0.5647 -2.3139
 1792SOL    HW216839   2.382   3.451   1.502  1.8388 -1.3016 -2.0311
 1793SOL     OW16840   1.036   0.515   8.935 -0.6071  0.0322  0.3228
 1793SOL    HW116841   1.072   0.550   8.854  1.0181 -1.0646  0.5681
 1793SOL    HW216842   1.063   0.589   8.988  2.5717 -0.5766 -0.4310
 1794SOL     OW16843   2.498   2.845  14.911 -0.6333 -0.2420  0.1744
 1794SOL    HW116844   2.527   2.783  14.844 -0.9612  0.0367 -0.2249
 1794SOL    HW216845   2.546   2.807  14.985  2.2742 -1.7535 -2.4915
 1795SOL     OW16846   0.204   3.120   8.337  0.1309  0.3846 -0.1028
 1795SOL    HW116847   0.134   3.153   8.394 -2.9529 -2.1060 -2.4288
 1795SOL    HW216848   0.178   3.032   8.311 -2.4933  0.4779  2.1811
 1796SOL     OW16849   4.646   4.001  10.587 -0.0565 -0.1584 -0.3985
 1796SOL    HW116850   4.555   3.979  10.570 -0.3980  0.3295  0.8071
 1796SOL    HW216851   4.660   3.946  10.663 -1.0205  1.0144  0.6286
 1797SOL     OW16852   1.477   2.773  13.039  0.5063 -0.6462  0.1776
 1797SOL    HW116853   1.414   2.718  12.993  0.7454 -0.7671 -0.0052
 1797SOL    HW216854   1.547   2.712  13.064  1.7402  0.6887  0.0128
 1798SOL     OW16855   4.632   3.374   7.460  0.2640 -0.3310  0.5089
 1798SOL    HW116856   4.702   3.427   7.423  0.7917 -1.1134  0.3901
 1798SOL    HW216857   4.614   3.421   7.541  1.0527 -2.1830  1.7717
 1799SOL     OW16858   0.467   4.341  11.834 -0.0981 -0.2929 -0.0076
 1799SOL    HW116859   0.396   4.348  11.770 -0.9377  3.5430  1.3215
 1799SOL    HW216860   0.540   4.376  11.783 -2.3653  3.1833 -0.9344
 1800SOL     OW16861   1.575   4.350   5.770  0.0696 -0.3122 -0.4385
 1800SOL    HW116862   1.568   4.444   5.756 -1.1717 -0.1772  1.0453
 1800SOL    HW216863   1.669   4.348   5.753  0.3172 -0.3514  0.9419
 1801SOL     OW16864   4.481   3.249   8.894 -0.2898  0.2799 -0.2019
 1801SOL    HW116865   4.561   3.296   8.920 -1.2125  0.8009  1.6971
 1801SOL    HW216866   4.451   3.234   8.984  0.1981  1.5066  0.1687
 1802SOL     OW16867   1.827   4.428   8.526 -0.0186  0.9970 -0.3207
 1802SOL    HW116868   1.763   4.420   8.597 -0.1541  1.5953 -0.3769
 1802SOL    HW216869   1.847   4.335   8.513 -0.6971  0.6168  1.3245
 1803SOL     OW16870   1.983   0.622   7.527 -0.0594 -0.2031  0.5901
 1803SOL    HW116871   2.005   0.532   7.549 -2.0370 -0.2916  2.1472
 1803SOL    HW216872   1.899   0.607   7.483  0.4934  1.6363 -1.1202
 1804SOL     OW16873   1.627   2.655   2.513  0.3523  0.0771  0.2703
 1804SOL    HW116874   1.691   2.645   2.443 -0.9820 -0.1965 -0.9120
 1804SOL    HW216875   1.548   2.661   2.460  1.1154  0.5024 -0.8118
 1805SOL     OW16876   0.938   1.307   7.084  0.6130  0.5350  0.8863
 1805SOL    HW116877   1.021   1.273   7.118  0.2185  0.6800  2.0047
 1805SOL    HW216878   0.888   1.308   7.166 -0.2535  0.9074  0.3476
 1806SOL     OW16879   3.565   0.857   2.740 -0.2869  0.0059 -0.6617
 1806SOL    HW116880   3.633   0.916   2.709  0.8928  0.3362  2.6165
 1806SOL    HW216881   3.500   0.923   2.761  0.5142  0.3043  0.8769
 1807SOL     OW16882   0.875   2.202   2.647  0.0026 -0.3460 -0.0553
 1807SOL    HW116883   0.851   2.260   2.575  2.7697  2.3610  1.1834
 1807SOL    HW216884   0.922   2.265   2.702 -0.0649  1.0782 -1.6304
 1808SOL     OW16885   1.783   3.006   6.548  0.2977  0.0838 -0.1306
 1808SOL    HW116886   1.767   2.996   6.642 -0.1655 -0.1393 -0.2361
 1808SOL    HW216887   1.727   2.937   6.513 -1.4409  1.3414  0.1838
 1809SOL     OW16888   3.219   4.643   5.485 -0.2021  0.1418  0.3336
 1809SOL    HW116889   3.258   4.578   5.544 -2.0199 -2.8888 -1.7997
 1809SOL    HW216890   3.165   4.690   5.548 -0.5111  0.9043 -0.5131
 1810SOL     OW16891   2.104   0.961   2.929 -0.0532  0.5523 -0.3607
 1810SOL    HW116892   2.054   0.996   2.856 -1.2571 -0.4226 -0.0091
 1810SOL    HW216893   2.147   0.883   2.893 -2.0502  0.1366 -1.8284
 1811SOL     OW16894   3.159   3.421   3.621 -0.0334 -0.0133 -0.8429
 1811SOL    HW116895   3.077   3.448   3.579 -1.0771 -1.8897 -0.0376
 1811SOL    HW216896   3.202   3.506   3.629  0.6945 -0.6314  1.7558
 1812SOL     OW16897   3.588   2.802   4.449  0.0811 -0.3147 -0.2751
 1812SOL    HW116898   3.595   2.734   4.383 -1.2411  1.6435 -2.4351
 1812SOL    HW216899   3.521   2.763   4.505  0.7739 -0.5288  0.4074
 1813SOL     OW16900   2.955   3.606  15.844  0.0831  0.0806  0.5038
 1813SOL    HW116901   2.999   3.587  15.761  1.1114 -1.3168  1.3663
 1813SOL    HW216902   3.010   3.672  15.886 -1.1430  0.3636  1.6837
 1814SOL     OW16903   3.134   2.916   5.073 -0.0722  0.0170 -0.3180
 1814SOL    HW116904   3.082   2.996   5.076  1.1353  0.8000 -0.4392
 1814SOL    HW216905   3.186   2.943   5.149 -0.0811  1.7789 -0.9496
 1815SOL     OW16906   3.728   2.292   5.849 -0.2420 -0.0464 -0.4426
 1815SOL    HW116907   3.786   2.285   5.773  1.4756 -1.9369  1.0418
 1815SOL    HW216908   3.782   2.306   5.926 -0.4535  0.6137 -0.4177
 1816SOL     OW16909   2.811   3.813   4.532  0.4962  0.3310  0.8930
 1816SOL    HW116910   2.866   3.740   4.505  0.6751 -0.2049  2.7224
 1816SOL    HW216911   2.794   3.786   4.622  0.4975 -1.1455  0.4390
 1817SOL     OW16912   0.713   4.658   2.434 -0.3078 -0.8729  0.4131
 1817SOL    HW116913   0.671   0.007   2.488 -1.2131 -0.7638 -0.4170
 1817SOL    HW216914   0.805   4.680   2.452 -0.9529  0.0750  2.4661
 1818SOL     OW16915   2.125   2.787   6.395  0.2721 -0.0605 -0.1944
 1818SOL    HW116916   2.158   2.828   6.475  1.3929 -0.8736 -0.2451
 1818SOL    HW216917   2.113   2.696   6.423  0.0776 -0.2831 -0.9951
 1819SOL     OW16918   4.291   3.123  16.172  0.4515 -0.3019 -0.0416
 1819SOL    HW116919   4.295   3.128  16.076  1.4212 -1.0436 -0.0446
 1819SOL    HW216920   4.382   3.142  16.195  0.7281 -1.6745  0.0166
 1820SOL     OW16921   4.004   3.501   1.465  0.1292 -0.6145 -0.0568
 1820SOL    HW116922   4.027   3.517   1.557 -2.3735  3.1359 -0.0516
 1820SOL    HW216923   4.057   3.568   1.421 -1.7185 -0.1650 -1.6205
 1821SOL     OW16924   4.168   3.567  12.234 -0.4307  0.7323 -0.3117
 1821SOL    HW116925   4.077   3.597  12.230  0.1990  2.8228  0.9963
 1821SOL    HW216926   4.203   3.621  12.164 -2.7970  3.3890  0.5654
 1822SOL     OW16927   0.045   3.510  16.712  0.4362 -0.7927 -0.4955
 1822SOL    HW116928   4.686   3.488  16.765 -0.9705 -0.2586 -2.3214
 1822SOL    HW216929   0.044   3.429  16.661 -2.3185 -1.6253  0.8668
 1823SOL     OW16930   2.381   4.332   2.230 -0.1392  0.6300 -0.0503
 1823SOL    HW116931   2.384   4.273   2.156 -1.9758  1.3871 -0.7349
 1823SOL    HW216932   2.439   4.397   2.190  1.0984  0.0897  0.8747
 1824SOL     OW16933   1.901   2.521   5.404  0.2885 -0.3128  0.6380
 1824SOL    HW116934   1.866   2.589   5.463 -2.4028 -2.0224  1.0262
 1824SOL    HW216935   1.888   2.559   5.317  1.4335 -0.5359  0.3708
 1825SOL     OW16936   1.172   1.045  16.103  0.1796  0.4730  0.0458
 1825SOL    HW116937   1.198   0.953  16.098 -2.5874 -0.3463  0.7257
 1825SOL    HW216938   1.081   1.045  16.072 -0.1406  1.4504  1.0157
 1826SOL     OW16939   0.368   2.342   6.551  0.2479  0.5908 -0.2909
 1826SOL    HW116940   0.451   2.388   6.554  0.2257  0.5422  1.2725
 1826SOL    HW216941   0.378   2.259   6.598  1.3713 -0.4645 -2.4136
 1827SOL     OW16942   2.839   3.389   4.542 -0.3406 -0.1606 -0.1441
 1827SOL    HW116943   2.844   3.402   4.636 -1.6743 -1.0675  0.0428
 1827SOL    HW216944   2.882   3.471   4.518  1.8805 -1.3432 -0.2435
 1828SOL     OW16945   1.419   3.309   0.648 -0.6955  0.1185  0.2675
 1828SOL    HW116946   1.436   3.225   0.690  0.6039 -0.8216 -2.1213
 1828SOL    HW216947   1.449   3.298   0.557 -1.6615  0.2472 -0.0660
 1829SOL     OW16948   3.083   2.927   4.121  0.1068 -0.2968  0.2830
 1829SOL    HW116949   3.123   2.889   4.200  1.4310  0.0383 -0.2275
 1829SOL    HW216950   3.113   2.878   4.045  2.3277 -0.6491  1.3753
 1830SOL     OW16951   4.038   0.741   8.759 -0.3058  0.6811 -0.2504
 1830SOL    HW116952   3.954   0.776   8.730  0.1045  1.7756 -0.1050
 1830SOL    HW216953   4.014   0.684   8.831  0.5450 -0.0895 -0.5744
 1831SOL     OW16954   0.062   4.163  15.934  0.0238 -0.1755 -0.3350
 1831SOL    HW116955   0.112   4.228  15.983 -0.2121 -0.6356  0.5095
 1831SOL    HW216956   0.106   4.154  15.850  0.7940 -0.8720  0.1481
 1832SOL     OW16957   0.857   3.562   9.299 -1.0398 -0.0483 -0.1050
 1832SOL    HW116958   0.880   3.636   9.243 -1.5512  0.6894  0.6554
 1832SOL    HW216959   0.892   3.595   9.381 -0.7797 -0.0430 -0.2182
 1833SOL     OW16960   4.596   1.658  13.239  0.2697 -0.0622  0.3802
 1833SOL    HW116961   4.684   1.654  13.275  0.6627 -0.0162 -0.5796
 1833SOL    HW216962   4.600   1.741  13.193 -2.4134  0.8477  1.7565
 1834SOL     OW16963   0.342   2.638  11.265 -0.0287  0.3167  0.1567
 1834SOL    HW116964   0.370   2.698  11.334  3.1494  0.2807 -1.0852
 1834SOL    HW216965   0.402   2.658  11.193 -1.5345 -1.3397 -1.5669
 1835SOL     OW16966   0.655   1.959   7.169 -0.0574 -0.2082  0.5753
 1835SOL    HW116967   0.686   2.012   7.243 -1.6933  2.5050 -0.6820
 1835SOL    HW216968   0.561   1.974   7.161 -0.0192  0.2369  0.9732
 1836SOL     OW16969   2.577   4.318   2.614 -0.2715  0.0923 -0.0085
 1836SOL    HW116970   2.483   4.333   2.610 -0.1661  1.3455  2.2269
 1836SOL    HW216971   2.573   4.223   2.625 -1.3828 -0.0774 -1.7960
 1837SOL     OW16972   0.734   4.512  14.536 -0.4469 -0.1733  0.0568
 1837SOL    HW116973   0.823   4.535  14.562 -0.5206 -2.7859  2.7020
 1837SOL    HW216974   0.747   4.506  14.442  1.0480  0.5667  0.2174
 1838SOL     OW16975   0.755   3.030  15.299 -0.4138 -0.3843  0.5721
 1838SOL    HW116976   0.722   3.084  15.371  2.5544 -1.2007  2.5692
 1838SOL    HW216977   0.689   3.045  15.232  0.3026  1.3619  0.2735
 1839SOL     OW16978   0.488   4.201   9.860 -0.5331 -0.1247  0.0838
 1839SOL    HW116979   0.441   4.218   9.778  2.1396  2.3515 -0.9636
 1839SOL    HW216980   0.450   4.261   9.924  0.4675  2.5947 -1.8478
 1840SOL     OW16981   0.626   2.127   5.436  0.1442 -0.1093  0.4646
 1840SOL    HW116982   0.673   2.049   5.466  2.3541  1.1382  0.2717
 1840SOL    HW216983   0.571   2.145   5.512  0.3829 -0.0220  0.6183
 1841SOL     OW16984   0.483   4.150  16.269  0.4081  0.0505 -0.5675
 1841SOL    HW116985   0.571   4.113  16.271 -0.3943 -1.7187  2.4679
 1841SOL    HW216986   0.431   4.073  16.294  0.2202  0.9465  1.7454
 1842SOL     OW16987   2.391   1.790  10.654 -0.1098 -0.3273  0.1439
 1842SOL    HW116988   2.309   1.835  10.631 -0.2604  0.4155  2.1550
 1842SOL    HW216989   2.374   1.804  10.747 -1.4209  0.6512 -0.2504
 1843SOL     OW16990   3.442   0.635   7.163  0.1668 -0.1184  0.0344
 1843SOL    HW116991   3.444   0.662   7.071 -1.8674  1.6393  0.5107
 1843SOL    HW216992   3.529   0.663   7.191 -0.6691  2.8675 -0.4458
 1844SOL     OW16993   4.518   1.215   8.540 -0.5985  0.2183  0.3454
 1844SOL    HW116994   4.485   1.152   8.603  0.8507 -0.9415 -0.0434
 1844SOL    HW216995   4.545   1.156   8.469 -1.7688  0.0493  0.0514
 1845SOL     OW16996   2.953   4.554   3.602 -0.1296  0.7950  0.3799
 1845SOL    HW116997   2.900   4.548   3.681  0.0236 -0.7464  0.3674
 1845SOL    HW216998   2.901   4.623   3.560 -1.5834  0.9763  2.5329
 1846SOL     OW16999   2.875   3.897  12.501  0.2895  0.1425  0.1790
 1846SOL    HW117000   2.968   3.892  12.478  0.8419 -0.4132  2.4941
 1846SOL    HW217001   2.838   3.877  12.415  1.1193 -2.8234  0.5084
 1847SOL     OW17002   2.446   0.891  10.923  0.8223 -0.1020 -0.2161
 1847SOL    HW117003   2.409   0.904  11.011  2.0687  1.6394  0.0570
 1847SOL    HW217004   2.524   0.840  10.947  1.0220 -0.2251 -1.1457
 1848SOL     OW17005   1.154   2.957   3.928  0.2785 -0.4209 -0.1393
 1848SOL    HW117006   1.125   3.033   3.977 -1.7465 -1.3267  0.0462
 1848SOL    HW217007   1.087   2.889   3.938  0.5248 -0.5832  0.3873
 1849SOL     OW17008   3.746   3.744   8.721 -0.3625  0.0835 -0.3711
 1849SOL    HW117009   3.671   3.686   8.733 -1.0592  1.0946  0.2221
 1849SOL    HW217010   3.712   3.833   8.707  1.0939  0.6514 -0.2719
 1850SOL     OW17011   3.612   0.855   6.990  0.0611 -0.0064 -0.5195
 1850SOL    HW117012   3.534   0.910   6.987  0.1170  0.2056  1.9917
 1850SOL    HW217013   3.635   0.851   6.897  1.8858 -1.7756  0.0026
 1851SOL     OW17014   0.132   3.364   8.141  0.5252  0.6474 -0.4487
 1851SOL    HW117015   0.062   3.299   8.129 -0.4649  1.4300  1.0619
 1851SOL    HW217016   0.102   3.419   8.213  3.0644  2.1573 -0.5583
 1852SOL     OW17017   3.890   4.252   4.218  0.3876  0.2792  0.2037
 1852SOL    HW117018   3.851   4.298   4.292  1.8496  1.8469 -0.0049
 1852SOL    HW217019   3.981   4.241   4.245 -0.3038 -2.0131  1.7049
 1853SOL     OW17020   3.380   4.220   6.168 -0.3953  0.3528  0.0394
 1853SOL    HW117021   3.388   4.265   6.083  1.7518  1.5526  0.8830
 1853SOL    HW217022   3.431   4.145   6.138 -1.7125 -0.9708  1.1005
 1854SOL     OW17023   3.612   3.882   3.335  0.0448 -0.0025  0.1022
 1854SOL    HW117024   3.573   3.954   3.286 -4.0767 -1.6062  1.0296
 1854SOL    HW217025   3.537   3.833   3.369  0.1080  0.7586  1.3518
 1855SOL     OW17026   3.076   2.204   3.187 -0.1430 -0.5483  0.3433
 1855SOL    HW117027   3.168   2.182   3.172  0.1750  1.1726 -0.3082
 1855SOL    HW217028   3.074   2.246   3.273 -1.1360 -0.5946  0.3393
 1856SOL     OW17029   1.582   4.354  10.930  0.5086 -0.2026 -0.2597
 1856SOL    HW117030   1.614   4.412  10.999 -1.3294  0.5242 -0.0380
 1856SOL    HW217031   1.641   4.383  10.860  0.4807 -1.6632 -0.9059
 1857SOL     OW17032   3.841   1.069   8.828 -0.0742 -0.1043  0.0472
 1857SOL    HW117033   3.833   1.132   8.756  1.2359  1.1006  0.9624
 1857SOL    HW217034   3.818   0.990   8.778 -1.8436  0.8099 -0.5711
 1858SOL     OW17035   0.197   3.442  12.522  0.2029 -0.2646  0.0011
 1858SOL    HW117036   0.183   3.468  12.431  0.1264 -2.5136 -0.6268
 1858SOL    HW217037   0.210   3.529  12.559  0.6235  0.1091 -1.0370
 1859SOL     OW17038   3.785   3.027   3.108  0.2897 -0.0092 -0.2266
 1859SOL    HW117039   3.772   3.082   3.185  0.5757  0.1721 -0.3059
 1859SOL    HW217040   3.734   2.950   3.131 -0.5958  0.8695  0.7630
 1860SOL     OW17041   1.156   2.305   4.154 -0.6407  0.0114 -0.1099
 1860SOL    HW117042   1.133   2.372   4.218 -0.8720  0.9072 -1.1354
 1860SOL    HW217043   1.212   2.355   4.094  1.0336 -0.4570  1.0551
 1861SOL     OW17044   3.608   2.828  13.847 -0.2275  0.4844  0.2798
 1861SOL    HW117045   3.578   2.818  13.937 -1.1611  1.1901  0.0435
 1861SOL    HW217046   3.667   2.753  13.846 -1.8212 -0.7840  1.3902
 1862SOL     OW17047   3.010   1.852  13.332  0.3061  0.1551  0.2073
 1862SOL    HW117048   2.943   1.919  13.344  0.5952  0.3799  0.5882
 1862SOL    HW217049   3.045   1.859  13.244 -2.3070 -0.1160 -0.8424
 1863SOL     OW17050   1.043   1.881   5.966 -0.0692 -0.3010 -0.2092
 1863SOL    HW117051   1.067   1.973   5.954 -1.1574  0.1194  0.7758
 1863SOL    HW217052   1.116   1.847   6.019  0.2166  0.2042 -0.2747
 1864SOL     OW17053   0.014   2.021   7.172  0.6210  0.3953 -1.0686
 1864SOL    HW117054   0.055   2.090   7.120  0.4113  1.4314  0.1399
 1864SOL    HW217055   4.659   1.986   7.120 -1.1124  1.3984  0.6857
 1865SOL     OW17056   1.444   1.197   8.097 -0.4183 -0.0522  0.4052
 1865SOL    HW117057   1.533   1.179   8.067 -1.7135 -1.2498 -2.7421
 1865SOL    HW217058   1.439   1.292   8.092  1.9242 -0.0001 -0.9059
 1866SOL     OW17059   0.078   3.575   3.104  0.4158  0.6714 -0.0944
 1866SOL    HW117060   0.012   3.635   3.138  0.6849  0.5476  0.6611
 1866SOL    HW217061   0.097   3.602   3.015 -1.4837 -0.6598 -0.9127
 1867SOL     OW17062   3.187   1.884  14.532  0.2982 -0.2155  0.3980
 1867SOL    HW117063   3.207   1.950  14.465 -2.2446  0.4126  0.2582
 1867SOL    HW217064   3.132   1.939  14.588  0.5867  1.1853 -0.6814
 1868SOL     OW17065   2.362   1.941   6.800 -0.7032  0.1266  0.0101
 1868SOL    HW117066   2.270   1.968   6.793 -0.9651 -0.6622  0.3954
 1868SOL    HW217067   2.410   2.018   6.768 -0.1484 -0.8799 -1.6160
 1869SOL     OW17068   0.992   3.828   6.191  0.2918 -0.3500 -0.3277
 1869SOL    HW117069   0.903   3.839   6.157 -0.0784  2.3449  1.4957
 1869SOL    HW217070   1.035   3.768   6.130 -0.6494 -1.3748  0.0036
 1870SOL     OW17071   2.566   2.604   5.164  0.9419 -0.0799  0.3862
 1870SOL    HW117072   2.652   2.577   5.197  0.0569 -1.3131  1.6342
 1870SOL    HW217073   2.577   2.586   5.070  0.8005  2.3074 -0.0968
 1871SOL     OW17074   4.673   3.064   8.674  0.4874  0.3072  0.1746
 1871SOL    HW117075   0.050   3.050   8.671  0.6888  1.5483  1.2232
 1871SOL    HW217076   4.665   3.127   8.603  1.2406 -0.8456 -0.9579
 1872SOL     OW17077   0.092   3.190  12.586  0.0697  0.0789  0.1719
 1872SOL    HW117078   4.715   3.192  12.596 -0.3203 -3.6792 -2.7717
 1872SOL    HW217079   0.108   3.284  12.589 -1.6486  0.4763 -2.6746
 1873SOL     OW17080   3.620   0.328   1.894  0.0755 -0.4593 -0.6597
 1873SOL    HW117081   3.693   0.374   1.852  1.6037  0.6102  3.1130
 1873SOL    HW217082   3.545   0.360   1.844 -0.4209  1.3159  1.1938
 1874SOL     OW17083   2.845   2.984  14.774  0.6024  0.3906  0.5184
 1874SOL    HW117084   2.750   2.979  14.762  0.6992 -3.4501  1.3978
 1874SOL    HW217085   2.865   2.899  14.814  2.2025  1.3447  1.7467
 1875SOL     OW17086   1.530   3.339   5.837 -0.1392  0.5090 -0.3347
 1875SOL    HW117087   1.552   3.400   5.767  0.0468  1.0577  0.2075
 1875SOL    HW217088   1.609   3.316   5.886 -0.7703 -0.0878  0.4069
 1876SOL     OW17089   1.864   1.003  15.263  0.0194  0.0456  0.6062
 1876SOL    HW117090   1.852   1.000  15.358 -0.6243 -0.5644  0.5032
 1876SOL    HW217091   1.862   0.910  15.245  2.6290 -0.1603  1.2724
 1877SOL     OW17092   3.358   4.224   7.319 -0.8360 -0.2326 -0.3347
 1877SOL    HW117093   3.393   4.258   7.237  1.4513 -1.5210  0.0964
 1877SOL    HW217094   3.283   4.283   7.325  0.8951  2.0026 -0.5105
 1878SOL     OW17095   1.097   0.712   2.711  0.0739  0.5937 -0.4100
 1878SOL    HW117096   1.027   0.728   2.648  0.9292  1.6695 -1.0871
 1878SOL    HW217097   1.040   0.731   2.785 -1.1065  1.4734 -1.5519
 1879SOL     OW17098   3.948   4.221   4.560  0.1235 -0.3315 -0.1273
 1879SOL    HW117099   4.008   4.292   4.582 -0.0233  0.7666 -3.2749
 1879SOL    HW217100   3.995   4.144   4.590 -2.0193 -1.5138  0.1749
 1880SOL     OW17101   2.965   4.677   1.812 -0.0081  0.2411  0.3934
 1880SOL    HW117102   2.968   4.634   1.897  0.7071 -2.5351 -1.0509
 1880SOL    HW217103   3.006   4.614   1.753 -0.7920  0.2169 -0.1300
 1881SOL     OW17104   0.700   4.178   2.019 -0.4475  0.6241 -0.4743
 1881SOL    HW117105   0.781   4.181   1.969 -1.2217  1.2844 -1.6796
 1881SOL    HW217106   0.633   4.183   1.951 -1.8311 -1.3924  0.7545
 1882SOL     OW17107   4.326   1.209   7.886  0.2595  0.4003 -0.1231
 1882SOL    HW117108   4.352   1.198   7.978  1.5063  1.7563 -0.3228
 1882SOL    HW217109   4.278   1.292   7.879 -0.6805 -0.1371 -0.0951
 1883SOL     OW17110   4.434   0.259  16.423  0.1736  0.1998  0.1829
 1883SOL    HW117111   4.499   0.235  16.356  0.1069 -0.0596  0.2098
 1883SOL    HW217112   4.441   0.184  16.482 -0.2617 -0.8782 -1.1388
 1884SOL     OW17113   4.364   1.179   3.220  0.2220  0.0642 -0.3568
 1884SOL    HW117114   4.396   1.190   3.131 -0.2290 -0.9101 -0.6398
 1884SOL    HW217115   4.384   1.263   3.262 -1.2736  1.0718 -1.6694
 1885SOL     OW17116   3.071   3.089   5.478  0.1315 -0.1252  0.4896
 1885SOL    HW117117   3.014   3.067   5.552  2.5939  2.7671  3.2517
 1885SOL    HW217118   3.154   3.048   5.502 -0.1947 -0.1469  1.5528
 1886SOL     OW17119   0.293   2.653   2.130 -0.4504  0.3912  0.0715
 1886SOL    HW117120   0.307   2.746   2.144  0.4035  0.2454  0.2187
 1886SOL    HW217121   0.252   2.621   2.210 -1.0549 -1.8984 -1.1581
 1887SOL     OW17122   3.678   3.670   5.435 -0.1025 -0.5436  0.1324
 1887SOL    HW117123   3.675   3.751   5.485  2.8305 -0.5259  0.2667
 1887SOL    HW217124   3.597   3.624   5.458 -0.3464 -0.0816  0.1905
 1888SOL     OW17125   4.241   3.008   3.192 -0.2933  1.3114  0.5468
 1888SOL    HW117126   4.223   3.018   3.286  0.8909 -0.5646  0.9762
 1888SOL    HW217127   4.163   3.040   3.146 -1.6791 -3.2272 -0.2217
 1889SOL     OW17128   2.725   0.951   0.956  0.2808  0.2892  0.2511
 1889SOL    HW117129   2.692   0.882   1.013  1.6652 -0.1225  0.5662
 1889SOL    HW217130   2.654   0.972   0.896 -0.4223 -0.0383  0.9621
 1890SOL     OW17131   2.194   0.502   9.097  0.1294  0.4967 -0.0190
 1890SOL    HW117132   2.179   0.580   9.151  0.8631  0.2049  0.6173
 1890SOL    HW217133   2.286   0.485   9.117  0.8975  4.1386 -0.3280
 1891SOL     OW17134   3.805   0.746   0.650  0.6338  0.6609 -0.7244
 1891SOL    HW117135   3.823   0.660   0.613  2.5415  0.3956  0.7913
 1891SOL    HW217136   3.894   0.779   0.666  0.2807 -0.0098  2.6281
 1892SOL     OW17137   2.801   1.195   2.065  0.6072 -0.1727 -0.6090
 1892SOL    HW117138   2.801   1.106   2.029 -0.5996 -1.1459  1.7198
 1892SOL    HW217139   2.718   1.197   2.114  1.1763  0.2717  0.3416
 1893SOL     OW17140   1.899   1.173   5.732 -0.4161  0.4238  0.0100
 1893SOL    HW117141   1.963   1.220   5.678  1.0435 -2.1461 -0.5433
 1893SOL    HW217142   1.814   1.203   5.700 -1.0641 -1.9206 -0.4650
 1894SOL     OW17143   4.255   3.459   8.835  1.0395  0.0923  0.0961
 1894SOL    HW117144   4.289   3.539   8.876  3.1147 -0.3268 -0.7886
 1894SOL    HW217145   4.310   3.390   8.872  1.2024  0.9807  1.5112
 1895SOL     OW17146   2.438   2.959   3.227 -0.2310 -0.2478 -0.6437
 1895SOL    HW117147   2.359   2.916   3.196 -1.3048  1.0293  0.3161
 1895SOL    HW217148   2.445   2.921   3.314 -0.6817  0.7820 -0.1555
 1896SOL     OW17149   2.867   4.714   1.183  0.0533 -0.1483  0.0565
 1896SOL    HW117150   2.851   4.623   1.208 -2.2588 -0.4548 -2.5676
 1896SOL    HW217151   2.940   4.706   1.122  0.4402 -0.1920  0.5282
 1897SOL     OW17152   2.612   2.750  15.138  0.4033  0.0261 -0.3309
 1897SOL    HW117153   2.687   2.693  15.122 -1.2365 -1.7443 -1.7885
 1897SOL    HW217154   2.557   2.692  15.190 -0.8889  0.7626 -0.8465
 1898SOL     OW17155   1.089   4.469   6.197 -0.0709  0.0447 -0.7914
 1898SOL    HW117156   1.181   4.444   6.203  0.4915  1.8472 -1.8379
 1898SOL    HW217157   1.092   4.539   6.262  1.0746 -2.0996  1.4198
 1899SOL     OW17158   3.424   3.128  14.023 -0.5616  0.6123 -0.1468
 1899SOL    HW117159   3.490   3.063  14.049 -0.1044  0.6584 -1.1772
 1899SOL    HW217160   3.409   3.168  14.109  2.1298 -0.5546  0.8898
 1900SOL     OW17161   0.343   2.835   4.600  0.4244  0.1622 -0.2462
 1900SOL    HW117162   0.417   2.778   4.581  0.4433  0.4985 -1.1442
 1900SOL    HW217163   0.381   2.914   4.563 -0.0487 -0.2074 -1.5172
 1901SOL     OW17164   0.333   3.519  17.617 -0.0496  0.6499  0.0758
 1901SOL    HW117165   0.386   3.552  17.544 -2.3705 -0.1331 -1.9689
 1901SOL    HW217166   0.258   3.577  17.603 -1.7905 -1.6459  0.0202
 1902SOL     OW17167   0.883   3.261   5.667  0.1061  0.1441 -0.3764
 1902SOL    HW117168   0.977   3.267   5.680 -0.0777  3.7668 -0.8086
 1902SOL    HW217169   0.865   3.181   5.715  1.7655 -0.8858 -1.4811
 1903SOL     OW17170   4.561   3.532   7.686 -0.3349 -0.1903 -0.2877
 1903SOL    HW117171   4.611   3.520   7.766 -0.9583  0.0210  0.1312
 1903SOL    HW217172   4.516   3.613   7.712 -0.1146  0.1382 -0.9180
 1904SOL     OW17173   4.050   1.919   1.215 -0.1911 -0.3393  0.1960
 1904SOL    HW117174   4.117   1.897   1.280 -2.7273 -2.1966  2.1822
 1904SOL    HW217175   4.096   1.930   1.132 -0.7106 -1.9942 -0.3121
 1905SOL     OW17176   3.613   1.635   1.963 -0.2787  0.6267 -0.0750
 1905SOL    HW117177   3.706   1.611   1.962 -0.4517 -0.0529 -0.3559
 1905SOL    HW217178   3.585   1.598   1.879  2.8784  0.8769 -1.2235
 1906SOL     OW17179   3.560   3.311  11.870 -0.9476  0.7631 -0.1626
 1906SOL    HW117180   3.631   3.369  11.898 -0.6993  0.0566  0.6665
 1906SOL    HW217181   3.491   3.327  11.934 -0.1455  0.0748  0.8710
 1907SOL     OW17182   2.055   2.771   0.554  0.3679  0.1212  0.2389
 1907SOL    HW117183   2.035   2.798   0.643  0.0247  2.3070 -0.4818
 1907SOL    HW217184   1.975   2.724   0.532  1.1970  0.1508 -2.8311
 1908SOL     OW17185   0.028   4.418   4.452 -0.5260  0.2449  0.0018
 1908SOL    HW117186   4.678   4.356   4.479 -0.4770 -0.5746 -1.7294
 1908SOL    HW217187   4.717   4.452   4.368  2.2505  0.3850 -0.9079
 1909SOL     OW17188   3.461   3.115  15.463  0.0252 -0.2497  0.3384
 1909SOL    HW117189   3.407   3.088  15.537  1.4562 -1.2619  1.0134
 1909SOL    HW217190   3.519   3.184  15.497 -0.8226 -0.1195  1.5362
 1910SOL     OW17191   0.420   0.794   2.707 -0.4572  0.1901 -0.2448
 1910SOL    HW117192   0.476   0.748   2.770 -1.4074 -0.8313 -0.1369
 1910SOL    HW217193   0.347   0.732   2.703 -0.2811 -0.0357  0.0491
 1911SOL     OW17194   2.401   0.593   9.834  0.1590 -0.2856  0.2156
 1911SOL    HW117195   2.338   0.654   9.795  0.9219 -0.7411 -1.7202
 1911SOL    HW217196   2.480   0.645   9.817 -0.4722  1.3516  2.2459
 1912SOL     OW17197   0.831   1.483   8.759 -0.2742  0.4413 -0.0862
 1912SOL    HW117198   0.833   1.563   8.706  1.7663  0.4432  0.0000
 1912SOL    HW217199   0.871   1.417   8.702 -1.4834 -0.6717  0.3561
 1913SOL     OW17200   1.476   3.369   7.798 -0.0278 -0.0090 -0.8738
 1913SOL    HW117201   1.431   3.319   7.866 -0.3738  0.7950 -0.5101
 1913SOL    HW217202   1.418   3.444   7.788 -3.0307 -1.7723  3.4432
 1914SOL     OW17203   4.062   0.280   3.145 -0.1278 -0.4020 -0.1174
 1914SOL    HW117204   4.103   0.197   3.169 -0.3203 -0.5152 -0.1846
 1914SOL    HW217205   4.128   0.300   3.079 -0.1181 -1.6856 -0.4863
 1915SOL     OW17206   2.517   1.071   6.151  0.1070  0.0740 -0.0927
 1915SOL    HW117207   2.456   1.028   6.212 -0.3657 -0.5444 -1.0040
 1915SOL    HW217208   2.470   1.053   6.069 -1.0482 -1.1807  0.8456
 1916SOL     OW17209   1.892   3.253   5.745  0.0197  0.5146  0.3673
 1916SOL    HW117210   1.812   3.260   5.797  0.6361  0.0539  1.3547
 1916SOL    HW217211   1.862   3.241   5.654  0.8292 -1.5462  0.3815
 1917SOL     OW17212   3.749   1.973   0.692 -0.4006  0.3290  0.4007
 1917SOL    HW117213   3.748   1.888   0.648 -1.0692  0.6608 -0.2275
 1917SOL    HW217214   3.667   2.009   0.659 -1.1864 -1.4708  0.4170
 1918SOL     OW17215   2.360   1.030   6.875 -0.2047 -0.1561  0.2660
 1918SOL    HW117216   2.333   1.083   6.799 -0.6192  0.8717  1.1247
 1918SOL    HW217217   2.281   1.037   6.929 -0.3073  0.4600  0.0404
 1919SOL     OW17218   1.009   1.976  10.930 -0.0665  0.3426 -0.0220
 1919SOL    HW117219   1.012   2.039  10.858  1.8630 -1.3618 -1.4589
 1919SOL    HW217220   1.050   2.028  10.999 -0.3483  0.1781  0.2708
 1920SOL     OW17221   4.515   1.153   7.588  0.0676  0.2250 -0.8999
 1920SOL    HW117222   4.576   1.080   7.582 -0.1541 -0.1337  1.2538
 1920SOL    HW217223   4.551   1.170   7.675  1.3584 -1.2339 -1.1474
 1921SOL     OW17224   0.663   4.449   4.372 -0.3658  0.2365  0.6446
 1921SOL    HW117225   0.711   4.467   4.291 -1.7973 -1.6938 -0.6598
 1921SOL    HW217226   0.581   4.497   4.355  0.1533  0.7450 -0.4188
 1922SOL     OW17227   2.012   1.495   3.695 -0.8558  0.2412 -0.0655
 1922SOL    HW117228   1.921   1.470   3.682 -1.0750 -0.2442  2.4062
 1922SOL    HW217229   2.046   1.447   3.620  0.4233  0.1881  0.5435
 1923SOL     OW17230   1.444   0.856   4.465 -0.3693  0.1777  0.4863
 1923SOL    HW117231   1.363   0.806   4.466  0.1513 -0.7029 -1.8815
 1923SOL    HW217232   1.407   0.944   4.461 -0.2141  0.2740  1.1201
 1924SOL     OW17233   1.802   1.085   6.625  0.1445  0.1811  0.4566
 1924SOL    HW117234   1.814   1.049   6.537 -3.1292  1.4444 -0.4964
 1924SOL    HW217235   1.750   1.016   6.665 -1.7202  0.0864 -2.1691
 1925SOL     OW17236   0.697   3.589   6.421  0.2553  0.0537 -0.1687
 1925SOL    HW117237   0.641   3.521   6.457 -1.8489  0.2806 -3.0222
 1925SOL    HW217238   0.755   3.611   6.494  1.6905 -0.6476 -1.0763
 1926SOL     OW17239   2.779   1.867  17.563  0.5348 -0.1325  0.2561
 1926SOL    HW117240   2.870   1.887  17.543 -0.0439  0.2884 -1.9393
 1926SOL    HW217241   2.771   1.771  17.560  2.6535 -0.3505  1.3943
 1927SOL     OW17242   2.578   4.519  12.379 -0.5707  0.0254 -0.3836
 1927SOL    HW117243   2.602   4.612  12.379 -3.2296  0.7344 -0.0077
 1927SOL    HW217244   2.640   4.493  12.447  1.0922 -0.6874 -2.1980
 1928SOL     OW17245   1.611   1.298   5.689  0.1532 -1.1011 -0.5023
 1928SOL    HW117246   1.568   1.351   5.757 -0.3274 -3.0881  0.7281
 1928SOL    HW217247   1.590   1.210   5.720  0.1484 -0.7138  0.5956
 1929SOL     OW17248   0.126   4.686   8.903 -0.2170 -0.1146 -0.0246
 1929SOL    HW117249   0.209   4.643   8.926 -0.0421  0.0896 -0.2651
 1929SOL    HW217250   0.061   4.625   8.936  0.1916  0.1185  1.2030
 1930SOL     OW17251   0.368   4.217  15.062  0.2980 -0.3668 -0.2840
 1930SOL    HW117252   0.429   4.188  14.993  1.5793 -1.8504  1.4786
 1930SOL    HW217253   0.392   4.168  15.141 -1.8954 -0.5792  0.2561
 1931SOL     OW17254   2.014   3.377   5.080  0.0715  0.2095 -0.6011
 1931SOL    HW117255   1.995   3.290   5.045  0.1427  0.4902 -1.3287
 1931SOL    HW217256   2.061   3.356   5.161  1.5593  3.8095 -0.5330
 1932SOL     OW17257   0.837   0.422  16.245  0.3203 -0.9490 -0.4103
 1932SOL    HW117258   0.927   0.436  16.216  0.1386 -0.3801 -0.7089
 1932SOL    HW217259   0.799   0.497  16.199  0.2101  0.3328  1.8063
 1933SOL     OW17260   3.323   2.646   7.263  0.2468 -0.2213  0.2926
 1933SOL    HW117261   3.347   2.702   7.188 -1.0764 -0.4019 -0.2682
 1933SOL    HW217262   3.406   2.609   7.294  0.5055  0.6823  0.6621
 1934SOL     OW17263   3.748   1.506  10.430  0.5004 -0.1166 -0.4950
 1934SOL    HW117264   3.811   1.530  10.497  1.1049 -0.1325 -1.0570
 1934SOL    HW217265   3.681   1.573  10.447  1.4749  0.8458 -0.4699
 1935SOL     OW17266   0.809   1.223  15.411 -0.0124 -0.4310 -0.5499
 1935SOL    HW117267   0.875   1.199  15.345  0.7916  1.9585 -0.6114
 1935SOL    HW217268   0.855   1.204  15.493 -0.4280  0.1696 -0.1812
 1936SOL     OW17269   0.267   2.558  11.645 -0.1500  0.5923  0.5291
 1936SOL    HW117270   0.347   2.512  11.669 -0.1308  0.0625 -0.5414
 1936SOL    HW217271   0.234   2.509  11.570 -1.8070  0.7942  1.1481
 1937SOL     OW17272   0.290   4.226   9.666 -0.0339 -0.0781 -0.1337
 1937SOL    HW117273   0.217   4.282   9.691  0.5388 -0.1412  1.7251
 1937SOL    HW217274   0.245   4.150   9.629 -1.9558  0.8213  0.3265
 1938SOL     OW17275   1.327   3.459   5.981  0.0703  0.3535 -1.1026
 1938SOL    HW117276   1.353   3.550   5.971 -0.4970  0.8680  2.2074
 1938SOL    HW217277   1.399   3.408   5.944 -0.5217 -1.7008  0.5891
 1939SOL     OW17278   4.448   3.087  14.197 -0.0384  0.4150  0.4138
 1939SOL    HW117279   4.451   3.019  14.265  0.0843 -0.9202 -0.9393
 1939SOL    HW217280   4.424   3.169  14.240 -3.1225 -0.9152  1.2334
 1940SOL     OW17281   4.699   3.003   1.768 -0.3142  0.1209 -0.4079
 1940SOL    HW117282   0.048   3.058   1.807 -2.2934  1.9518  0.3509
 1940SOL    HW217283   4.703   2.923   1.820 -1.8091 -0.6327 -1.4293
 1941SOL     OW17284   2.886   3.574  16.949  0.0034 -0.0498  0.2338
 1941SOL    HW117285   2.857   3.611  16.866 -0.1634  1.2691  0.8784
 1941SOL    HW217286   2.952   3.639  16.973 -0.5779  0.6963 -0.2043
 1942SOL     OW17287   2.790   4.290   9.380  0.3597 -0.7762 -0.2665
 1942SOL    HW117288   2.840   4.364   9.345 -1.3337 -0.1431 -1.3766
 1942SOL    HW217289   2.735   4.263   9.306 -1.6027 -0.9370  1.2597
 1943SOL     OW17290   1.397   0.189   7.012  0.3860  0.0761 -0.1059
 1943SOL    HW117291   1.406   0.172   7.106 -1.0605  1.4654  0.2871
 1943SOL    HW217292   1.440   0.274   7.018 -0.5814  0.4880  1.0544
 1944SOL     OW17293   2.526   4.058   2.049 -0.4409  0.4251  0.0078
 1944SOL    HW117294   2.563   3.995   1.987  1.3381  0.8375  0.6731
 1944SOL    HW217295   2.526   4.136   1.992  0.7205  0.0352 -0.5228
 1945SOL     OW17296   4.468   0.458  16.025  0.4284 -0.7599  0.0910
 1945SOL    HW117297   4.446   0.516  16.097 -1.7807  2.8893 -3.5233
 1945SOL    HW217298   4.560   0.484  16.017  0.7901 -1.1336  3.2069
 1946SOL     OW17299   0.176   4.611  17.170  0.7507  0.1077 -0.0733
 1946SOL    HW117300   0.203   4.702  17.179  1.7193 -0.2783  1.0021
 1946SOL    HW217301   0.231   4.571  17.238 -0.9742  2.2267  2.5739
 1947SOL     OW17302   3.632   0.148  15.327 -0.3210  0.5592 -0.0515
 1947SOL    HW117303   3.619   0.053  15.324  3.1573  0.0696  0.4045
 1947SOL    HW217304   3.726   0.151  15.309 -0.6964 -0.5141 -2.3015
 1948SOL     OW17305   3.590   2.254   0.484  0.5321 -0.4066  0.0017
 1948SOL    HW117306   3.592   2.318   0.555  1.3330  0.3017 -0.6571
 1948SOL    HW217307   3.558   2.173   0.526 -0.8148  0.7568  1.2267
 1949SOL     OW17308   3.102   1.747   4.521  0.2009 -0.3329  0.1026
 1949SOL    HW117309   3.189   1.724   4.490  0.3006  2.5479 -1.7349
 1949SOL    HW217310   3.131   1.796   4.599 -0.8757  0.8052 -0.2067
 1950SOL     OW17311   4.198   1.141   9.984  0.2283 -0.1844  0.1803
 1950SOL    HW117312   4.189   1.138  10.079  1.3745  1.3663  0.3197
 1950SOL    HW217313   4.228   1.050   9.979  0.2877 -0.2064  0.9447
 1951SOL     OW17314   2.368   1.048   4.610  0.5001  0.2262  0.6334
 1951SOL    HW117315   2.428   1.038   4.684  2.1385 -1.2736 -0.8861
 1951SOL    HW217316   2.363   1.142   4.596 -1.2451  0.2201  1.1809
 1952SOL     OW17317   0.519   2.198   8.687  0.0059  0.0693  0.5058
 1952SOL    HW117318   0.495   2.107   8.704 -0.6995 -0.1236 -1.6089
 1952SOL    HW217319   0.470   2.246   8.754 -0.8862 -0.3303  0.1213
 1953SOL     OW17320   4.690   4.287   3.357  0.4906 -0.4982 -0.3964
 1953SOL    HW117321   4.646   4.208   3.325  2.4611 -2.3551  1.4643
 1953SOL    HW217322   4.625   4.325   3.416  0.2512 -0.3975 -0.7274
 1954SOL     OW17323   4.215   3.079   3.792  0.0032  0.1867  0.1458
 1954SOL    HW117324   4.258   3.086   3.707  0.8545  1.6558  0.6983
 1954SOL    HW217325   4.290   3.110   3.843  1.2472 -1.4906 -0.6758
 1955SOL     OW17326   1.082   2.167  10.738  0.2030  0.2485  0.2706
 1955SOL    HW117327   1.028   2.246  10.745 -0.8408 -0.3018 -1.6440
 1955SOL    HW217328   1.052   2.124  10.658 -0.8821  2.3723 -0.4730
 1956SOL     OW17329   2.656   0.812   5.873 -0.3241 -0.4317  0.1957
 1956SOL    HW117330   2.665   0.772   5.959  0.6766 -2.9339 -1.0652
 1956SOL    HW217331   2.626   0.741   5.816  1.6133 -0.3480 -0.9243
 1957SOL     OW17332   1.644   3.175   6.250 -0.2674 -0.4999  0.7460
 1957SOL    HW117333   1.678   3.228   6.322 -0.5303  0.9927 -0.2384
 1957SOL    HW217334   1.563   3.226   6.240  0.1140 -0.3670 -1.5369
 1958SOL     OW17335   2.718   0.086   2.976 -0.5778  0.1436 -0.1538
 1958SOL    HW117336   2.777   0.130   3.037 -1.2218  0.4507  0.2450
 1958SOL    HW217337   2.720   4.717   3.016  2.2496  1.1748  2.0037
 1959SOL     OW17338   0.205   3.123   7.384  0.4228 -0.3401  0.0864
 1959SOL    HW117339   0.212   3.029   7.397  0.6741 -0.2482  0.6411
 1959SOL    HW217340   0.159   3.158   7.461 -0.2677 -0.6033 -0.2011
 1960SOL     OW17341   3.590   2.037  14.787 -0.1094  0.7699 -0.0439
 1960SOL    HW117342   3.535   2.032  14.709  0.8249  1.6578 -0.7647
 1960SOL    HW217343   3.521   2.057  14.851  0.5501 -3.4394  1.9353
 1961SOL     OW17344   1.625   1.904   3.161  0.2100 -0.7041 -0.0327
 1961SOL    HW117345   1.663   1.907   3.249  0.1904 -1.1575 -0.0057
 1961SOL    HW217346   1.660   1.987   3.128 -0.7306 -0.0293  0.6830
 1962SOL     OW17347   3.601   0.640   5.827 -0.2771  0.0996 -0.0667
 1962SOL    HW117348   3.540   0.640   5.753  1.6415  0.7770 -1.6534
 1962SOL    HW217349   3.577   0.559   5.872  1.4416 -0.3916 -0.0368
 1963SOL     OW17350   0.568   3.796   7.221  0.7185  0.4572  0.0569
 1963SOL    HW117351   0.547   3.710   7.258  0.8651  0.9094  1.2038
 1963SOL    HW217352   0.622   3.833   7.291  2.3226  0.4221 -1.1709
 1964SOL     OW17353   2.488   0.096   6.626 -0.3322  0.0838  0.0901
 1964SOL    HW117354   2.489   0.091   6.722 -2.9247 -0.5121  0.0864
 1964SOL    HW217355   2.395   0.115   6.612 -0.1839 -0.0364 -1.0673
 1965SOL     OW17356   2.482   0.983   5.738 -0.0261  0.0883 -0.2939
 1965SOL    HW117357   2.468   1.067   5.782  1.3052 -1.1503  2.5029
 1965SOL    HW217358   2.544   0.939   5.796  0.9051  1.6727 -0.1022
 1966SOL     OW17359   2.535   4.549  15.632  0.2144  0.3963  0.7688
 1966SOL    HW117360   2.584   4.621  15.671  1.2614  0.5727 -0.8717
 1966SOL    HW217361   2.611   4.491  15.643 -1.1868 -1.1370  2.4814
 1967SOL     OW17362   1.343   2.328   3.524 -0.1354 -0.2331  0.4797
 1967SOL    HW117363   1.251   2.311   3.544 -0.3649  0.5541  0.0961
 1967SOL    HW217364   1.378   2.248   3.564 -0.7396 -0.9004 -0.3186
 1968SOL     OW17365   2.190   0.037  17.125  0.1634 -0.6014 -0.1632
 1968SOL    HW117366   2.273   0.079  17.149  0.0648 -1.2819  1.3709
 1968SOL    HW217367   2.158   0.108  17.070  1.2827 -0.7661 -1.0302
 1969SOL     OW17368   0.558   4.347   6.333  0.2456  0.3974  0.1384
 1969SOL    HW117369   0.642   4.387   6.311 -1.7036  3.0366 -2.4955
 1969SOL    HW217370   0.569   4.272   6.274  0.5027 -1.1961  2.1816
 1970SOL     OW17371   3.041   4.196  11.438 -0.0069  0.3497  0.3128
 1970SOL    HW117372   3.062   4.127  11.502 -1.7378  1.7362  2.3756
 1970SOL    HW217373   3.047   4.156  11.351  0.3219 -1.1578  1.0219
 1971SOL     OW17374   3.660   3.770   5.943 -0.3806  0.3554 -0.6415
 1971SOL    HW117375   3.698   3.694   5.898 -1.0134  0.2648 -1.0251
 1971SOL    HW217376   3.567   3.747   5.944  0.1226 -1.7198 -0.6751
 1972SOL     OW17377   2.146   1.449   3.918  0.0338 -0.5205  0.1041
 1972SOL    HW117378   2.147   1.354   3.926 -1.7122 -0.5035  0.4975
 1972SOL    HW217379   2.095   1.468   3.839 -0.4114  0.5926  0.6530
 1973SOL     OW17380   1.829   3.038   3.998  0.1517 -0.0906 -0.0719
 1973SOL    HW117381   1.855   3.121   4.039 -0.2092  0.1790 -0.3887
 1973SOL    HW217382   1.902   2.991   4.037  0.9168  0.1006 -1.2477
 1974SOL     OW17383   3.487   2.779   1.153 -0.1978  0.5065 -0.6050
 1974SOL    HW117384   3.392   2.789   1.164 -0.2540 -0.2272 -0.4747
 1974SOL    HW217385   3.519   2.867   1.130 -0.5205  0.1033 -2.6035
 1975SOL     OW17386   3.607   3.543  17.075  0.4061 -0.3556 -0.0710
 1975SOL    HW117387   3.612   3.594  17.156  0.0688 -1.7291  0.8107
 1975SOL    HW217388   3.628   3.457  17.109  0.3462 -0.6572 -0.7996
 1976SOL     OW17389   2.406   4.523  12.070  0.1676 -0.0920  0.0866
 1976SOL    HW117390   2.317   4.491  12.079  0.4481 -1.4113 -1.9448
 1976SOL    HW217391   2.411   4.610  12.111 -1.1994  0.8232 -1.6954
 1977SOL     OW17392   2.866   3.960  14.236  0.3602  0.0711 -0.1802
 1977SOL    HW117393   2.902   4.027  14.295  1.9401 -0.4883 -0.5133
 1977SOL    HW217394   2.775   3.972  14.264  0.5986  0.4552  0.4374
 1978SOL     OW17395   4.348   0.602   3.848 -0.4432 -0.7291  0.2538
 1978SOL    HW117396   4.433   0.575   3.882 -0.4176 -3.6258 -2.1111
 1978SOL    HW217397   4.357   0.697   3.840  0.6694 -0.7064  1.8446
 1979SOL     OW17398   3.110   1.605  10.706  0.1382 -0.0866 -0.4158
 1979SOL    HW117399   3.143   1.611  10.616 -2.5284  0.4269 -1.3599
 1979SOL    HW217400   3.092   1.698  10.720 -0.3551 -0.1029 -0.9764
 1980SOL     OW17401   1.347   2.294   2.543  0.0063  0.4062  0.2529
 1980SOL    HW117402   1.284   2.258   2.480 -1.8564 -1.0784  2.9574
 1980SOL    HW217403   1.427   2.246   2.523 -2.1833 -3.5440  1.0970
 1981SOL     OW17404   3.547   0.106  17.252  0.1696  0.7381  0.2887
 1981SOL    HW117405   3.600   0.161  17.194  0.6801 -0.9712 -0.8567
 1981SOL    HW217406   3.625   0.066  17.291  0.8079  1.6304 -0.0534
 1982SOL     OW17407   4.390   2.552   4.446 -0.1513 -0.3312 -0.0413
 1982SOL    HW117408   4.296   2.547   4.463 -0.2004 -0.0723 -0.2235
 1982SOL    HW217409   4.403   2.645   4.467 -1.0311  0.1558 -1.6680
 1983SOL     OW17410   3.476   1.049   4.573 -0.3903  0.1197 -0.5022
 1983SOL    HW117411   3.552   1.077   4.522  0.0425  1.1778  0.7303
 1983SOL    HW217412   3.504   0.961   4.599  1.5381  0.9626  0.2677
 1984SOL     OW17413   1.656   1.627   4.005  1.0025 -0.0720 -0.3927
 1984SOL    HW117414   1.603   1.705   3.988 -0.6497 -1.4188 -1.4197
 1984SOL    HW217415   1.747   1.648   3.982  0.8997  2.6765  1.7076
 1985SOL     OW17416   2.320   0.744   6.936 -0.2090  0.3461 -0.4221
 1985SOL    HW117417   2.390   0.754   6.870 -0.9113  3.5005 -0.7090
 1985SOL    HW217418   2.245   0.782   6.890 -0.1416  0.9374 -0.0449
 1986SOL     OW17419   1.772   3.100   4.765  0.8459  1.2927  0.5117
 1986SOL    HW117420   1.688   3.065   4.735  0.2736  2.2214  1.0294
 1986SOL    HW217421   1.808   3.131   4.682 -0.0797 -0.8668 -0.6778
 1987SOL     OW17422   3.746   0.760   6.084  0.0665  0.2285  0.2764
 1987SOL    HW117423   3.663   0.778   6.039  0.2808  0.1155 -0.1711
 1987SOL    HW217424   3.751   0.851   6.113  1.6158  1.3024 -3.2611
 1988SOL     OW17425   2.203   1.147   6.168  0.3122 -0.0824 -0.2411
 1988SOL    HW117426   2.225   1.082   6.101  2.1607  1.8345 -1.4943
 1988SOL    HW217427   2.228   1.228   6.123  0.1824  0.6858  1.0747
 1989SOL     OW17428   2.357   1.965   3.206 -0.0528 -0.7617  0.0866
 1989SOL    HW117429   2.370   1.971   3.301 -0.0765 -0.2744  0.0556
 1989SOL    HW217430   2.416   2.034   3.177 -1.6410  1.1554  1.4443
 1990SOL     OW17431   3.243   2.489   1.134  0.0101  0.1369  0.5594
 1990SOL    HW117432   3.272   2.563   1.081  2.2285 -2.4033 -1.7308
 1990SOL    HW217433   3.300   2.508   1.208  0.2046  1.0829  0.1688
 1991SOL     OW17434   1.444   4.359   7.774  0.3934  0.1068 -0.0912
 1991SOL    HW117435   1.478   4.446   7.793 -0.7952  0.3307  1.0063
 1991SOL    HW217436   1.508   4.317   7.717 -0.1419  0.4654 -0.9572
 1992SOL     OW17437   0.072   4.385   3.053 -0.4395  0.1979  0.3662
 1992SOL    HW117438   0.037   4.312   3.104 -0.5282  0.6264  0.9121
 1992SOL    HW217439   0.064   4.457   3.116 -0.9163  1.4078 -1.0759
 1993SOL     OW17440   2.772   2.097   4.319  0.2394 -0.6815 -0.6314
 1993SOL    HW117441   2.783   2.190   4.337  1.2807 -0.5116 -2.2074
 1993SOL    HW217442   2.818   2.091   4.236 -0.3873 -1.3455 -0.9289
 1994SOL     OW17443   1.735   2.036   9.156  0.1465 -0.7728  0.3463
 1994SOL    HW117444   1.655   2.089   9.146  0.0419 -0.8849  0.6062
 1994SOL    HW217445   1.694   1.954   9.182 -0.5962 -0.1685  1.0887
 1995SOL     OW17446   0.983   0.116   9.207  0.3411  0.3269 -0.3456
 1995SOL    HW117447   1.040   0.191   9.220 -0.0935  1.1195 -2.9842
 1995SOL    HW217448   0.974   0.077   9.294  0.2957 -0.3556 -0.6568
 1996SOL     OW17449   4.028   3.172   3.144  0.1397  0.8919  0.1794
 1996SOL    HW117450   3.957   3.111   3.125  1.7387 -0.8379 -0.2302
 1996SOL    HW217451   3.997   3.239   3.083 -2.2678  0.2144  0.6373
 1997SOL     OW17452   0.435   2.452   3.834 -0.2455 -0.3655 -0.3023
 1997SOL    HW117453   0.472   2.488   3.914  0.8510 -0.4703 -0.7704
 1997SOL    HW217454   0.506   2.393   3.810  1.0709  0.3757  1.7651
 1998SOL     OW17455   0.142   3.187   5.584 -0.6525  0.2529  0.3413
 1998SOL    HW117456   0.168   3.249   5.652 -0.6359  0.2328  0.3534
 1998SOL    HW217457   0.227   3.164   5.545 -0.8699 -2.0606  1.1817
 1999SOL     OW17458   2.121   0.455   7.743  0.0448  0.4951  0.4405
 1999SOL    HW117459   2.046   0.406   7.776  0.1530 -1.2019 -1.8602
 1999SOL    HW217460   2.110   0.427   7.652  0.7501 -0.5577  0.6885
 2000SOL     OW17461   4.160   3.964   1.461  0.2969 -0.6475 -0.1190
 2000SOL    HW117462   4.075   3.929   1.488  0.1316 -0.0404  0.1448
 2000SOL    HW217463   4.201   3.896   1.407  1.0926  0.8627 -1.4309
 2001SOL     OW17464   3.034   0.306  16.950  0.7657 -0.3696  0.7214
 2001SOL    HW117465   3.070   0.232  16.901  0.5718 -0.0271  0.0511
 2001SOL    HW217466   3.046   0.282  17.041 -0.3628 -0.3043  0.8902
 2002SOL     OW17467   1.694   3.780   7.377  0.1405  0.7355 -0.0410
 2002SOL    HW117468   1.772   3.771   7.321 -0.1087 -0.7357 -0.1532
 2002SOL    HW217469   1.624   3.758   7.316 -1.2409 -0.2740  1.9367
 2003SOL     OW17470   3.554   4.367   6.538 -0.5435 -0.4874 -0.0796
 2003SOL    HW117471   3.593   4.382   6.624 -0.7743 -0.6819  0.0631
 2003SOL    HW217472   3.520   4.279   6.556 -1.4924 -0.2249 -0.5870
 2004SOL     OW17473   3.877   1.388   8.924 -0.1026 -0.8856  0.0710
 2004SOL    HW117474   3.921   1.355   8.846  1.0098  1.0405 -0.1317
 2004SOL    HW217475   3.820   1.458   8.890 -0.3606 -0.5239  1.2448
 2005SOL     OW17476   4.069   0.148  10.273  0.4233 -0.0066  0.3890
 2005SOL    HW117477   4.129   0.106  10.212  1.1139  2.0873 -0.4003
 2005SOL    HW217478   4.127   0.170  10.346 -0.1533 -0.9955  1.1424
 2006SOL     OW17479   1.228   3.500   9.352 -0.2369  0.0268  0.1459
 2006SOL    HW117480   1.205   3.589   9.327  1.3333 -0.6433 -3.6907
 2006SOL    HW217481   1.171   3.479   9.425 -1.2408  0.9760 -0.3664
 2007SOL     OW17482   2.286   1.950   4.345  0.8222  0.4235 -0.0087
 2007SOL    HW117483   2.259   1.858   4.348  0.0998  0.6299 -0.5824
 2007SOL    HW217484   2.377   1.937   4.316  0.3616  2.5362 -2.3509
 2008SOL     OW17485   4.143   3.170   6.835 -0.3996  0.4112  0.3751
 2008SOL    HW117486   4.174   3.129   6.916  0.0426  3.8643  1.9488
 2008SOL    HW217487   4.228   3.171   6.790 -0.9323  0.7650 -0.6166
 2009SOL     OW17488   4.449   2.643   0.875 -0.4767  0.5184  0.1008
 2009SOL    HW117489   4.532   2.687   0.893 -0.1813 -0.1460  0.3561
 2009SOL    HW217490   4.482   2.566   0.828 -0.9308  2.2458 -3.1006
 2010SOL     OW17491   4.529   1.341  13.016 -0.2303 -0.0100 -0.1622
 2010SOL    HW117492   4.579   1.419  12.990  1.8909 -1.3775 -0.1553
 2010SOL    HW217493   4.461   1.340  12.949 -1.0179 -1.6880  0.6747
 2011SOL     OW17494   4.619   2.751  17.343 -0.1618  0.2766 -0.5178
 2011SOL    HW117495   4.633   2.657  17.338  1.2342  0.3842  1.0927
 2011SOL    HW217496   4.674   2.779  17.270  0.2970  0.0128 -0.2746
 2012SOL     OW17497   4.578   4.453   3.576  0.3395 -0.4942  0.0861
 2012SOL    HW117498   4.573   4.392   3.650 -0.6118  2.8746  2.7951
 2012SOL    HW217499   4.512   4.519   3.599  2.2486  1.2944  0.3918
 2013SOL     OW17500   2.583   3.568   5.928 -0.1444 -0.0356 -0.0779
 2013SOL    HW117501   2.620   3.611   6.004 -0.9650  0.0285  0.2880
 2013SOL    HW217502   2.496   3.607   5.941 -0.0197  0.1104  0.2867
 2014SOL     OW17503   3.590   3.658   1.435 -0.3914 -0.3463 -0.5379
 2014SOL    HW117504   3.649   3.681   1.507  0.6068  1.1219 -1.8242
 2014SOL    HW217505   3.553   3.572   1.455  3.1176 -1.9343 -0.8596
 2015SOL     OW17506   1.036   1.684   2.401 -0.3458 -0.0400  0.1453
 2015SOL    HW117507   1.086   1.727   2.331 -0.4041  1.2827  0.9287
 2015SOL    HW217508   0.973   1.754   2.416 -0.6295 -0.7008  1.9448
 2016SOL     OW17509   1.165   3.077   8.715  0.9115 -0.1568  0.6440
 2016SOL    HW117510   1.074   3.063   8.742  0.8475  0.1612  0.5990
 2016SOL    HW217511   1.172   3.021   8.638  0.1380  0.4583  0.1275
 2017SOL     OW17512   2.304   1.725   7.642 -0.0459 -0.0609  0.3821
 2017SOL    HW117513   2.226   1.776   7.664 -0.4703 -0.4875 -0.1267
 2017SOL    HW217514   2.335   1.695   7.727 -0.0187 -0.2471  0.3066
 2018SOL     OW17515   0.596   2.072  16.273 -0.2661 -0.4054 -0.2480
 2018SOL    HW117516   0.548   2.155  16.263 -2.0999 -1.2175  1.9453
 2018SOL    HW217517   0.563   2.042  16.188  1.0065  0.2585 -0.9888
 2019SOL     OW17518   0.057   4.282   2.175 -0.1391 -0.1474  0.1292
 2019SOL    HW117519   4.687   4.273   2.137  0.2890  0.7491 -1.1012
 2019SOL    HW217520   0.105   4.218   2.122 -0.2152 -0.1887  0.1096
 2020SOL     OW17521   1.867   3.403   3.987  0.2152 -0.2952  0.1301
 2020SOL    HW117522   1.867   3.372   4.077 -1.0247  2.1358  0.9691
 2020SOL    HW217523   1.775   3.424   3.969  0.1770 -0.4139  0.1824
 2021SOL     OW17524   3.934   1.590   8.644 -0.0551 -0.0730 -0.3825
 2021SOL    HW117525   3.996   1.630   8.704  1.5610  1.4332 -3.0483
 2021SOL    HW217526   3.978   1.609   8.561 -0.4767  1.2716 -0.2994
 2022SOL     OW17527   1.732   2.779   0.119 -0.1140 -0.6583 -0.6347
 2022SOL    HW117528   1.637   2.763   0.120 -0.0916 -0.8419 -1.4539
 2022SOL    HW217529   1.726   2.853   0.058  2.0659 -0.0242 -0.0769
 2023SOL     OW17530   1.431   2.076   3.508  0.3248 -0.0119 -0.0111
 2023SOL    HW117531   1.409   2.109   3.421 -1.3213 -2.8110 -0.6658
 2023SOL    HW217532   1.519   2.043   3.491  1.5996  2.1412  2.4538
 2024SOL     OW17533   4.384   2.971   8.789  0.2937 -0.8045  0.2342
 2024SOL    HW117534   4.414   2.918   8.863 -0.3304  0.2595  1.2604
 2024SOL    HW217535   4.450   3.039   8.798 -2.0297  1.5126 -0.3786
 2025SOL     OW17536   1.681   4.306   3.487 -0.2057  0.2263 -0.1013
 2025SOL    HW117537   1.610   4.301   3.424 -2.0365 -0.5448  2.0147
 2025SOL    HW217538   1.649   4.360   3.559  0.8764  0.9071 -0.1292
 2026SOL     OW17539   3.529   2.483  10.125  0.2163 -0.1915  0.2332
 2026SOL    HW117540   3.573   2.541  10.187  1.0024 -0.6023  0.0572
 2026SOL    HW217541   3.445   2.486  10.170 -0.7246 -1.0566 -1.5006
 2027SOL     OW17542   0.537   2.097   6.353  0.6112 -0.3841  0.1817
 2027SOL    HW117543   0.546   2.159   6.281  2.1638  2.3856  2.7281
 2027SOL    HW217544   0.628   2.103   6.385  0.7376 -1.0797 -0.0468
 2028SOL     OW17545   2.875   1.944   9.920  0.0514 -0.1588 -0.6253
 2028SOL    HW117546   2.922   1.995   9.853 -0.6237  0.7806 -0.3932
 2028SOL    HW217547   2.799   1.917   9.869 -1.2448  0.1744  1.1295
 2029SOL     OW17548   1.062   2.490   6.587  0.2256  0.1430  0.7530
 2029SOL    HW117549   1.082   2.518   6.498 -1.1222  0.6329  0.6056
 2029SOL    HW217550   1.117   2.553   6.633 -1.3563  1.0617  1.3966
 2030SOL     OW17551   3.780   3.925   4.550 -0.3574 -0.1958  0.5458
 2030SOL    HW117552   3.727   3.873   4.611 -0.9678  0.7935  0.8661
 2030SOL    HW217553   3.863   3.932   4.597 -0.1582 -1.6786  0.4211
 2031SOL     OW17554   2.693   1.548  11.943 -0.9027  0.2114 -0.0355
 2031SOL    HW117555   2.638   1.606  11.891 -1.9314 -0.1397  0.6551
 2031SOL    HW217556   2.731   1.504  11.867 -0.9187 -0.4169  0.3175
 2032SOL     OW17557   2.886   2.534   7.556  0.1935 -0.4244 -0.2394
 2032SOL    HW117558   2.901   2.541   7.651  1.5691  0.7625 -0.5412
 2032SOL    HW217559   2.915   2.620   7.527 -0.6370 -0.0997 -0.0979
 2033SOL     OW17560   2.511   4.002   7.188 -0.4029 -0.4590  0.2331
 2033SOL    HW117561   2.588   3.960   7.150  1.0937  0.4153  2.3350
 2033SOL    HW217562   2.495   3.949   7.266 -0.6389 -1.8130 -0.7488
 2034SOL     OW17563   0.939   3.154   4.654 -0.4374  0.1406  0.5013
 2034SOL    HW117564   0.849   3.165   4.622 -0.0599 -0.1043 -0.6447
 2034SOL    HW217565   0.981   3.234   4.621  1.6275 -1.2672 -0.2492
 2035SOL     OW17566   2.558   4.636   1.479 -0.2987 -0.1698  0.4312
 2035SOL    HW117567   2.568   4.541   1.474 -1.3617 -0.2134 -1.2761
 2035SOL    HW217568   2.637   4.665   1.523 -0.9289  1.9715  0.1430
 2036SOL     OW17569   1.314   3.032   4.488  0.0352  0.6137  0.2467
 2036SOL    HW117570   1.300   3.125   4.471  0.9203  0.8050  0.5335
 2036SOL    HW217571   1.360   3.022   4.571  1.1725  0.3271 -0.4274
 2037SOL     OW17572   2.384   3.551  10.120 -0.3011  0.6654 -0.0533
 2037SOL    HW117573   2.465   3.581  10.162  0.8483 -1.4860 -0.7072
 2037SOL    HW217574   2.405   3.562  10.027 -2.1589  2.2213 -0.2771
 2038SOL     OW17575   4.245   2.709  13.983 -0.7965 -0.1781  0.5810
 2038SOL    HW117576   4.260   2.626  13.937 -0.4781 -0.5133  1.2871
 2038SOL    HW217577   4.172   2.745  13.933 -0.0170  0.9709  0.2552
 2039SOL     OW17578   0.666   0.900   8.172 -0.3813  0.4322  0.2328
 2039SOL    HW117579   0.693   0.912   8.263  0.0674  1.3524 -0.0228
 2039SOL    HW217580   0.705   0.980   8.136  0.7380  0.6860  1.9685
 2040SOL     OW17581   1.293   3.324  17.033 -0.2556  0.4019  0.0048
 2040SOL    HW117582   1.323   3.375  17.107  0.0241  0.9691 -0.4970
 2040SOL    HW217583   1.212   3.364  17.001 -0.2551  0.2569 -0.1815
 2041SOL     OW17584   2.113   3.310   6.927  0.2519 -0.2760 -0.1107
 2041SOL    HW117585   2.150   3.262   6.853  1.3147 -1.1971  1.0005
 2041SOL    HW217586   2.038   3.266   6.967  0.1400  0.8360  0.8967
 2042SOL     OW17587   1.862   1.689   7.281 -0.1295  0.5929 -0.6476
 2042SOL    HW117588   1.898   1.754   7.342 -0.3088  0.0767  0.0174
 2042SOL    HW217589   1.923   1.622   7.310 -0.8113  0.7862  1.2694
 2043SOL     OW17590   1.248   3.986   4.082 -0.1899  0.2682  0.6840
 2043SOL    HW117591   1.339   3.977   4.110  0.5359  1.5029 -1.2919
 2043SOL    HW217592   1.272   4.018   3.995  0.9459  0.5427  1.0946
 2044SOL     OW17593   2.538   4.194   6.684 -0.3153  0.5008  0.7544
 2044SOL    HW117594   2.465   4.168   6.741 -1.7651  0.8403 -0.9503
 2044SOL    HW217595   2.525   4.131   6.613  1.7918  2.1415 -1.0589
 2045SOL     OW17596   1.907   2.828   2.410 -0.1760  0.0906  0.2231
 2045SOL    HW117597   1.865   2.747   2.379 -0.0721  0.5819 -1.2204
 2045SOL    HW217598   1.915   2.877   2.328  2.6847  2.2681  1.8221
 2046SOL     OW17599   3.680   1.741   9.131  0.2833  0.3530  0.1403
 2046SOL    HW117600   3.762   1.735   9.179 -1.1071  0.9290  2.5601
 2046SOL    HW217601   3.648   1.655   9.158  1.9663 -0.3941 -0.2576
 2047SOL     OW17602   3.631   3.409  12.917 -0.5756 -0.3146  0.0636
 2047SOL    HW117603   3.707   3.376  12.868 -0.6678  1.7679 -1.5153
 2047SOL    HW217604   3.591   3.328  12.947 -0.3761 -0.6914 -0.6828
 2048SOL     OW17605   4.505   1.390  13.352 -0.0841 -0.6855  0.6646
 2048SOL    HW117606   4.594   1.426  13.347 -0.2215 -0.0762  2.6460
 2048SOL    HW217607   4.515   1.308  13.305  2.1921 -0.3478  0.5577
 2049SOL     OW17608   0.432   0.041   9.175 -0.3829 -0.4078 -0.4788
 2049SOL    HW117609   0.525   0.023   9.185 -0.3380 -0.2160 -0.5489
 2049SOL    HW217610   0.420   0.105   9.245 -2.5892 -0.5224 -0.7458
 2050SOL     OW17611   3.529   3.052   7.446  0.1241 -0.1124  0.4135
 2050SOL    HW117612   3.499   3.055   7.355  1.5675 -2.2123 -0.1442
 2050SOL    HW217613   3.610   3.001   7.448 -0.2560 -0.7226  0.4226
 2051SOL     OW17614   1.307   2.062   4.180  0.0273  0.6573 -0.2329
 2051SOL    HW117615   1.250   2.138   4.180 -0.2016  0.4852 -0.4265
 2051SOL    HW217616   1.392   2.107   4.182  0.0688  0.6098 -0.9456
 2052SOL     OW17617   0.265   0.764   5.907 -0.0785 -0.4304 -0.3771
 2052SOL    HW117618   0.327   0.713   5.960  1.6770 -0.2168 -2.2024
 2052SOL    HW217619   0.190   0.767   5.965  0.6252  1.6775  0.4209
 2053SOL     OW17620   0.579   0.018   0.665 -0.1086 -0.3349  0.3035
 2053SOL    HW117621   0.558   4.645   0.685  2.4059 -0.6912  1.2991
 2053SOL    HW217622   0.670   0.016   0.695  0.0935 -0.2562 -0.3197
 2054SOL     OW17623   3.749   2.008   3.941  0.1157 -0.0705 -0.3985
 2054SOL    HW117624   3.725   2.043   4.026 -1.4153 -1.0179 -0.4426
 2054SOL    HW217625   3.838   1.974   3.949  0.5186  0.5826 -1.9329
 2055SOL     OW17626   4.209   1.279  15.003  0.0182 -0.2585 -0.2440
 2055SOL    HW117627   4.264   1.201  15.017  2.0740  1.1483 -0.3768
 2055SOL    HW217628   4.118   1.250  15.006 -0.0138 -0.4072 -2.3961
 2056SOL     OW17629   3.377   2.252   3.760 -0.5461 -1.0651 -0.1129
 2056SOL    HW117630   3.471   2.231   3.755 -0.4798 -0.4711 -1.3119
 2056SOL    HW217631   3.340   2.187   3.820 -1.3720  1.4148  2.0350
 2057SOL     OW17632   3.808   4.398   7.601  0.0070  0.8602 -0.2975
 2057SOL    HW117633   3.811   4.482   7.647  3.2638  0.0384  1.0227
 2057SOL    HW217634   3.849   4.335   7.661  1.7954 -1.0660 -3.4929
 2058SOL     OW17635   0.512   3.587   1.276  0.3754 -0.3448 -0.2098
 2058SOL    HW117636   0.591   3.543   1.306 -0.3052  0.5352  2.8667
 2058SOL    HW217637   0.454   3.583   1.352 -0.4208 -0.8197 -0.8320
 2059SOL     OW17638   1.473   3.308   7.374  0.7201 -0.1912  0.2693
 2059SOL    HW117639   1.478   3.267   7.287 -2.3069  1.6749 -0.8089
 2059SOL    HW217640   1.548   3.367   7.374 -0.8329  1.7808 -0.5610
 2060SOL     OW17641   3.698   2.692  10.734  0.3973  0.2751 -0.2981
 2060SOL    HW117642   3.738   2.618  10.780 -0.9216  0.5343  1.2460
 2060SOL    HW217643   3.683   2.657  10.646 -0.7723 -0.3628  0.1508
 2061SOL     OW17644   1.375   1.174   6.447 -0.2659 -0.7357  0.2601
 2061SOL    HW117645   1.304   1.211   6.394  1.2549 -0.5135 -1.6015
 2061SOL    HW217646   1.397   1.090   6.406 -0.4380 -0.8133  0.3212
 2062SOL     OW17647   0.912   3.171   6.231 -0.3301  0.2352 -0.1648
 2062SOL    HW117648   0.997   3.198   6.197  0.5900 -0.5868  1.4892
 2062SOL    HW217649   0.909   3.210   6.318  2.3375  0.9591 -0.3856
 2063SOL     OW17650   1.818   0.370  16.367 -0.5358  0.0194  0.6873
 2063SOL    HW117651   1.766   0.331  16.437 -1.0289  1.8938  1.3667
 2063SOL    HW217652   1.750   0.425  16.330  1.1047  2.6552  1.5949
 2064SOL     OW17653   2.834   2.538   6.813 -0.3663  0.2269  0.3493
 2064SOL    HW117654   2.771   2.533   6.741  1.1286 -0.2484 -0.9163
 2064SOL    HW217655   2.787   2.482   6.874 -1.7117 -0.5575 -1.4245
 2065SOL     OW17656   4.316   2.351  10.178 -0.2074 -0.4242 -0.3024
 2065SOL    HW117657   4.244   2.288  10.183  1.7435 -2.6319 -0.1096
 2065SOL    HW217658   4.395   2.297  10.180  0.9554  1.2062 -1.9615
 2066SOL     OW17659   0.556   3.646   2.305  0.4923 -0.5547  0.0564
 2066SOL    HW117660   0.598   3.718   2.257  1.2010 -1.0963 -0.1446
 2066SOL    HW217661   0.556   3.579   2.237 -1.7546 -0.5458  0.0736
 2067SOL     OW17662   1.653   2.484   8.582  0.3793  0.2428  0.2783
 2067SOL    HW117663   1.668   2.574   8.612  3.0018  0.2232 -0.9824
 2067SOL    HW217664   1.745   2.458   8.582  0.1006 -0.7342 -0.2717
 2068SOL     OW17665   1.019   3.477   6.318 -0.4373  0.6790 -0.4492
 2068SOL    HW117666   1.031   3.476   6.223  1.0148 -2.2285 -0.2118
 2068SOL    HW217667   0.936   3.524   6.326 -0.2258  1.1627 -1.1182
 2069SOL     OW17668   3.316   1.569  13.182  0.2162 -0.0058 -0.4044
 2069SOL    HW117669   3.347   1.480  13.169 -0.5313 -0.5577  1.6001
 2069SOL    HW217670   3.249   1.573  13.114 -1.2328 -1.9662  0.9187
 2070SOL     OW17671   0.897   4.648   7.196 -0.0447  0.6198 -0.4941
 2070SOL    HW117672   0.878   4.598   7.275 -0.4412 -0.0298 -0.9913
 2070SOL    HW217673   0.900   0.021   7.225 -1.1125  1.1984 -2.1970
 2071SOL     OW17674   2.715   2.954  15.289  0.0661  0.3236 -0.4660
 2071SOL    HW117675   2.803   2.916  15.283  0.1928  0.4972  0.3662
 2071SOL    HW217676   2.665   2.877  15.316  1.6737 -0.6144 -0.1871
 2072SOL     OW17677   1.325   3.220   1.747  0.3782 -0.5419 -0.5271
 2072SOL    HW117678   1.382   3.143   1.748  0.8308 -0.2026  0.0898
 2072SOL    HW217679   1.391   3.287   1.766  0.0192 -0.2488 -0.2951
 2073SOL     OW17680   2.917   2.349   5.443  0.1581 -0.0201  0.6943
 2073SOL    HW117681   3.010   2.372   5.444  0.1535 -0.0924  2.7303
 2073SOL    HW217682   2.880   2.429   5.404  3.2938  1.6906  1.2345
 2074SOL     OW17683   2.429   1.321  11.982  0.3310 -0.0772 -0.8220
 2074SOL    HW117684   2.461   1.282  11.901  2.7210  0.7259 -0.2685
 2074SOL    HW217685   2.466   1.267  12.052 -3.3110 -0.8276  0.5186
 2075SOL     OW17686   3.479   2.081   1.299  0.5476  0.0111  0.4587
 2075SOL    HW117687   3.503   2.071   1.391  0.7889 -2.4053  0.1314
 2075SOL    HW217688   3.421   2.157   1.302  0.1006 -0.2946 -0.4579
 2076SOL     OW17689   0.520   2.814  16.322 -0.1892 -0.3564 -0.5276
 2076SOL    HW117690   0.512   2.832  16.228 -2.6022  2.7040  0.2523
 2076SOL    HW217691   0.471   2.892  16.351 -0.6707 -0.0773 -2.1112
 2077SOL     OW17692   1.095   3.302   5.249 -0.0389  0.4958 -0.5469
 2077SOL    HW117693   1.053   3.388   5.249 -0.1724  0.4281  0.7717
 2077SOL    HW217694   1.179   3.319   5.292 -0.3673  2.0793 -0.5077
 2078SOL     OW17695   0.930   1.476   1.469 -0.0635 -0.3602  0.3746
 2078SOL    HW117696   0.839   1.480   1.499 -1.0639  1.4943 -2.9282
 2078SOL    HW217697   0.972   1.486   1.554 -1.8838 -0.6603  1.3278
 2079SOL     OW17698   0.053   4.640   3.158  0.4272 -0.0525  0.0739
 2079SOL    HW117699   0.078   4.682   3.240  0.9348 -1.5431  0.6773
 2079SOL    HW217700   4.676   4.634   3.164  0.6049 -0.1427  3.0059
 2080SOL     OW17701   0.668   2.132  10.578 -0.3725 -0.1542 -0.0725
 2080SOL    HW117702   0.762   2.126  10.562  0.0954 -1.1515  3.0970
 2080SOL    HW217703   0.663   2.182  10.659 -1.6222 -0.7757  0.2353
 2081SOL     OW17704   4.099   3.956   3.544 -0.0071 -0.4941  0.2654
 2081SOL    HW117705   4.061   3.893   3.483  0.8116 -0.8244  0.0910
 2081SOL    HW217706   4.128   4.024   3.484  0.8609  0.8099  2.1493
 2082SOL     OW17707   3.213   4.145   9.324  0.2678 -0.1995 -0.0076
 2082SOL    HW117708   3.184   4.161   9.413 -1.3540  1.4234 -0.8349
 2082SOL    HW217709   3.293   4.097   9.345 -1.7183 -3.1736  0.8056
 2083SOL     OW17710   4.344   4.049   3.716 -0.2520 -0.0272  0.1831
 2083SOL    HW117711   4.353   3.973   3.774  0.5057 -0.7509 -0.8810
 2083SOL    HW217712   4.365   4.006   3.633  2.3975 -0.0994  0.8705
 2084SOL     OW17713   2.166   3.011   9.532 -0.4917  0.3865 -0.5694
 2084SOL    HW117714   2.099   2.995   9.465 -1.2877  2.5611 -0.2548
 2084SOL    HW217715   2.234   3.052   9.478 -1.2658 -0.0376 -1.8730
 2085SOL     OW17716   2.439   1.237   8.319 -0.3129  0.4979 -0.4113
 2085SOL    HW117717   2.504   1.168   8.336  0.9929  1.2325 -2.4250
 2085SOL    HW217718   2.360   1.183   8.321  0.0081  0.0798  1.4204
 2086SOL     OW17719   4.053   3.790   8.694 -0.1343  0.3691 -0.1412
 2086SOL    HW117720   4.038   3.775   8.788 -0.0243  0.2782 -0.1388
 2086SOL    HW217721   3.978   3.745   8.656  1.1320 -1.0231 -0.9784
 2087SOL     OW17722   4.624   0.524   6.196  0.2765 -0.1784  0.4299
 2087SOL    HW117723   4.643   0.437   6.161 -1.2035 -0.1826 -0.3518
 2087SOL    HW217724   4.545   0.547   6.147  2.4217  2.8379 -1.5687
 2088SOL     OW17725   1.115   3.457  10.087 -0.3554  0.4056 -0.0288
 2088SOL    HW117726   1.159   3.535  10.121  0.0763 -0.6960  1.9436
 2088SOL    HW217727   1.028   3.489  10.113 -0.2208 -0.9405  2.0821
 2089SOL     OW17728   0.777   4.466   4.103  0.4784  0.1000 -0.5090
 2089SOL    HW117729   0.799   4.556   4.078  0.2125  0.6550  1.2796
 2089SOL    HW217730   0.856   4.416   4.081 -0.1450 -0.8134 -0.6958
 2090SOL     OW17731   0.919   1.366  15.967  0.0673  0.5067 -0.5378
 2090SOL    HW117732   0.938   1.272  15.959  1.0137  0.6349  0.2197
 2090SOL    HW217733   0.835   1.380  15.923  0.4812 -1.2965 -1.8909
 2091SOL     OW17734   4.203   3.876   5.096  0.1210 -0.4581  0.1463
 2091SOL    HW117735   4.190   3.959   5.049  1.0130 -0.0200  0.6788
 2091SOL    HW217736   4.278   3.836   5.051  0.7595  0.3987  0.4502
 2092SOL     OW17737   4.253   1.162   7.466 -0.0416  0.0960 -0.2862
 2092SOL    HW117738   4.330   1.195   7.513 -2.6628  0.7928  3.4918
 2092SOL    HW217739   4.281   1.070   7.463  1.6934  0.5518  1.6434
 2093SOL     OW17740   4.639   4.610   4.942  0.8657  0.1370  0.2551
 2093SOL    HW117741   4.571   4.638   5.004  0.4378  1.3670 -0.7672
 2093SOL    HW217742   0.007   4.640   4.970  1.9254 -0.9662 -1.8445
 2094SOL     OW17743   2.795   0.633   9.540  0.0452 -0.2806 -0.1050
 2094SOL    HW117744   2.775   0.675   9.624  2.7310  1.9764 -0.5840
 2094SOL    HW217745   2.887   0.612   9.558  0.8358  0.2120 -3.6724
 2095SOL     OW17746   1.953   1.391   7.853  0.0988  0.4088 -0.0321
 2095SOL    HW117747   1.877   1.337   7.872  1.0888 -1.7118 -2.2248
 2095SOL    HW217748   1.982   1.428   7.937  2.2352 -2.3919  0.4437
 2096SOL     OW17749   2.994   4.228   5.580  0.1448 -0.3449  0.3770
 2096SOL    HW117750   2.975   4.270   5.663 -1.9241  1.9835 -1.2895
 2096SOL    HW217751   2.938   4.150   5.579  3.8014 -2.9996  2.1010
 2097SOL     OW17752   3.265   2.569   4.524  0.5804  0.6378 -0.1956
 2097SOL    HW117753   3.350   2.533   4.549 -0.6988 -1.2774  1.3547
 2097SOL    HW217754   3.276   2.663   4.539 -0.6409  0.2499  3.0387
 2098SOL     OW17755   2.400   4.381   7.418 -0.6102 -0.2647  0.2021
 2098SOL    HW117756   2.447   4.355   7.339 -0.4523  1.2719 -0.2206
 2098SOL    HW217757   2.428   4.312   7.477 -0.6942  0.5271  1.1721
 2099SOL     OW17758   1.040   3.773   8.285  0.2324  0.0075 -0.5608
 2099SOL    HW117759   0.976   3.702   8.289  0.3364 -0.0621 -0.1382
 2099SOL    HW217760   1.039   3.802   8.376 -0.1532  0.0128 -0.5652
 2100SOL     OW17761   0.710   2.038  12.605  1.0088 -0.2639 -0.0754
 2100SOL    HW117762   0.804   2.037  12.584  1.1775 -2.5118  0.7438
 2100SOL    HW217763   0.699   1.997  12.691  0.1285 -1.7139 -0.8832
 2101SOL     OW17764   3.633   0.817  17.218 -0.2358  0.1323  0.4558
 2101SOL    HW117765   3.665   0.822  17.308  1.6311  0.3922 -0.2166
 2101SOL    HW217766   3.585   0.899  17.214 -2.5437 -1.2011  1.3156
 2102SOL     OW17767   0.106   0.128   5.243 -0.0679  0.4900 -0.2859
 2102SOL    HW117768   0.097   0.218   5.212 -2.6889  0.6684  1.0026
 2102SOL    HW217769   0.161   0.144   5.319 -0.2730  0.4645 -0.1345
 2103SOL     OW17770   3.537   3.410  11.117 -0.1668  0.0118  0.0575
 2103SOL    HW117771   3.578   3.395  11.202 -2.1805 -0.6681  0.9184
 2103SOL    HW217772   3.606   3.397  11.052  1.2534  1.2359  1.3365
 2104SOL     OW17773   4.651   2.829   0.355  0.4402  0.0840 -0.4551
 2104SOL    HW117774   4.665   2.743   0.314  1.6386  0.4707 -0.8644
 2104SOL    HW217775   4.559   2.845   0.334  0.1856 -0.5248  0.1792
 2105SOL     OW17776   1.302   1.895   4.585 -0.0923  0.4233  0.8478
 2105SOL    HW117777   1.321   1.847   4.666  1.2787 -1.4899 -0.5802
 2105SOL    HW217778   1.225   1.945   4.612 -1.5385 -0.2280 -2.0801
 2106SOL     OW17779   0.956   3.513  14.362  0.5093  0.7083 -0.3716
 2106SOL    HW117780   0.923   3.596  14.396 -2.7029  0.6787 -3.4107
 2106SOL    HW217781   0.966   3.534  14.269  0.4159 -1.9289 -0.9876
 2107SOL     OW17782   0.978   4.506  11.228 -0.2015 -0.2474  0.3755
 2107SOL    HW117783   1.015   4.450  11.159 -1.0330 -1.1827  0.6978
 2107SOL    HW217784   1.008   4.591  11.195  0.9670 -0.8653 -0.1611
 2108SOL     OW17785   1.367   0.278  17.033  0.1885  0.1537 -0.1680
 2108SOL    HW117786   1.423   0.333  16.978 -1.0376 -0.2261 -1.8262
 2108SOL    HW217787   1.424   0.201  17.041  1.3685  1.1373  0.8038
 2109SOL     OW17788   0.174   2.997   0.353  0.5200  0.5225  0.7385
 2109SOL    HW117789   0.166   3.017   0.259 -1.3749 -1.0015  0.5627
 2109SOL    HW217790   0.100   2.937   0.364  2.2476 -1.4298  1.4884
 2110SOL     OW17791   0.992   4.105  17.393 -0.3615  0.1308 -0.2383
 2110SOL    HW117792   1.003   4.026  17.447 -1.9727 -0.9974 -1.5673
 2110SOL    HW217793   0.989   4.065  17.307 -2.4472 -1.4685  0.5744
 2111SOL     OW17794   3.820   2.364   6.144 -0.5020 -0.0314 -0.1879
 2111SOL    HW117795   3.888   2.417   6.103  2.1015 -0.3147  3.7769
 2111SOL    HW217796   3.831   2.404   6.231  0.5108 -0.1992 -0.2389
 2112SOL     OW17797   3.546   1.858   7.694  0.1240 -0.0161  0.1704
 2112SOL    HW117798   3.458   1.847   7.659  1.1381  0.8704 -2.6657
 2112SOL    HW217799   3.571   1.766   7.703  1.0472  0.4253  2.2223
 2113SOL     OW17800   0.938   0.847  14.466  0.1981 -0.0917 -0.9055
 2113SOL    HW117801   0.866   0.855  14.403  0.7202 -2.1627 -1.7740
 2113SOL    HW217802   0.988   0.785  14.414  1.5395  0.7996 -0.6656
 2114SOL     OW17803   3.772   2.342   8.401  0.6876  0.6555  0.7640
 2114SOL    HW117804   3.743   2.427   8.433  0.4593 -0.0266  2.3760
 2114SOL    HW217805   3.848   2.331   8.459  1.6798  0.5370 -0.5755
 2115SOL     OW17806   3.334   1.211   3.744 -0.4866 -0.0026  0.2613
 2115SOL    HW117807   3.257   1.236   3.795 -1.7667 -0.4127 -1.4567
 2115SOL    HW217808   3.394   1.214   3.818  2.5214 -0.6627 -2.1724
 2116SOL     OW17809   2.433   4.397   7.839 -0.5363  1.0800  0.1321
 2116SOL    HW117810   2.400   4.361   7.921 -0.6137  1.2465  0.1733
 2116SOL    HW217811   2.507   4.336   7.836 -1.2475  0.1185  2.6390
 2117SOL     OW17812   0.845   3.082   2.461  0.2300 -0.2196  0.2502
 2117SOL    HW117813   0.755   3.062   2.486  0.2955 -0.9526 -0.0837
 2117SOL    HW217814   0.882   3.135   2.532  0.4270 -0.4932  0.3523
 2118SOL     OW17815   4.065   2.185   8.132  0.5781  0.1584  0.4141
 2118SOL    HW117816   4.051   2.100   8.174 -0.1837  0.4591  0.7620
 2118SOL    HW217817   4.069   2.235   8.213  1.9312 -0.1627  0.5592
 2119SOL     OW17818   3.880   2.717  12.580 -0.2329 -0.7366  0.0745
 2119SOL    HW117819   3.833   2.644  12.620 -2.5273  0.2414 -0.8279
 2119SOL    HW217820   3.967   2.683  12.562  1.2198  2.1047  1.5950
 2120SOL     OW17821   0.868   0.899   3.443 -0.3993  0.0730 -0.2483
 2120SOL    HW117822   0.854   0.877   3.535  0.2030 -0.6425 -0.3238
 2120SOL    HW217823   0.830   0.985   3.459  1.1096  1.2563 -3.0594
 2121SOL     OW17824   2.879   2.477   9.729 -0.2191  0.2761  0.1097
 2121SOL    HW117825   2.900   2.539   9.799  0.4320 -0.4239  0.5330
 2121SOL    HW217826   2.828   2.533   9.671 -1.5976 -0.7878  0.2734
 2122SOL     OW17827   1.339   2.000   1.939 -0.5484  0.2357 -0.7746
 2122SOL    HW117828   1.284   1.924   1.960  1.3306 -0.9534 -0.1903
 2122SOL    HW217829   1.304   2.022   1.852  0.1885  2.1175 -0.5909
 2123SOL     OW17830   0.611   0.806  14.764 -0.2891 -0.2606  0.0249
 2123SOL    HW117831   0.611   0.866  14.689  0.0362  0.8771  0.9389
 2123SOL    HW217832   0.520   0.811  14.794  0.2817 -0.2276  1.7154
 2124SOL     OW17833   1.381   2.321   8.884  0.4460  0.2683  0.1590
 2124SOL    HW117834   1.357   2.365   8.802 -0.4237 -0.8494 -0.1860
 2124SOL    HW217835   1.304   2.265   8.892  0.5928  0.2478  1.4571
 2125SOL     OW17836   1.226   0.919   3.479 -0.1312 -0.0754  0.4090
 2125SOL    HW117837   1.216   0.961   3.394 -2.6546  1.4314  1.4532
 2125SOL    HW217838   1.170   0.979   3.528 -2.4456 -0.6809 -1.5350
 2126SOL     OW17839   0.276   0.311   0.888  0.1818  0.0476 -0.0889
 2126SOL    HW117840   0.271   0.231   0.941 -0.5989 -1.3271 -2.2610
 2126SOL    HW217841   0.188   0.311   0.849 -0.0365  0.7975  0.3862
 2127SOL     OW17842   2.960   1.665   2.994  0.3151 -0.0760 -0.1032
 2127SOL    HW117843   2.888   1.623   3.041 -0.0205  2.0213  1.2403
 2127SOL    HW217844   3.015   1.591   2.969  1.5853  1.5834 -2.2549
 2128SOL     OW17845   1.636   1.620   3.306  0.2539 -0.1429 -0.1866
 2128SOL    HW117846   1.627   1.663   3.391 -1.3755  0.3999 -0.6305
 2128SOL    HW217847   1.569   1.665   3.254  0.4659  0.3932  0.0022
 2129SOL     OW17848   3.262   1.592   8.212 -0.3145 -0.2961 -0.1702
 2129SOL    HW117849   3.353   1.584   8.185 -0.5811 -1.2184 -0.7887
 2129SOL    HW217850   3.226   1.659   8.152 -0.0326 -0.5678 -0.6379
 2130SOL     OW17851   3.149   0.227   9.216 -0.3582  0.4671 -0.1456
 2130SOL    HW117852   3.162   0.139   9.180  0.3518  0.2444  0.6508
 2130SOL    HW217853   3.160   0.284   9.140 -0.2019  0.4735 -0.1187
 2131SOL     OW17854   2.889   3.811  12.750 -0.2557  0.2830  0.2600
 2131SOL    HW117855   2.877   3.847  12.662  1.5766  1.4946  0.4979
 2131SOL    HW217856   2.871   3.893  12.796 -2.7491 -0.1030 -0.0412
 2132SOL     OW17857   2.386   0.144   7.853 -0.0732  0.1193 -0.5616
 2132SOL    HW117858   2.413   0.213   7.793 -2.0057  2.4096  1.1982
 2132SOL    HW217859   2.301   0.182   7.876  0.2507  0.6846 -0.3122
 2133SOL     OW17860   1.185   2.133   8.916 -0.5311 -0.6079 -0.4812
 2133SOL    HW117861   1.193   2.122   8.821  1.2180 -3.5859  0.0132
 2133SOL    HW217862   1.090   2.128   8.927 -0.5854  1.1237 -0.1511
 2134SOL     OW17863   1.722   1.974   8.245  0.1703 -0.1127 -0.3751
 2134SOL    HW117864   1.769   1.978   8.328 -0.2754 -0.3980 -0.1064
 2134SOL    HW217865   1.781   1.926   8.187  1.0261  2.1918 -1.3874
 2135SOL     OW17866   3.510   3.167   8.807  0.6422  0.6629  0.3363
 2135SOL    HW117867   3.554   3.093   8.849  1.5810 -0.4765 -2.6316
 2135SOL    HW217868   3.580   3.231   8.817 -0.2395  1.1693  3.2499
 2136SOL     OW17869   0.775   1.181   6.910 -0.0608 -0.1334  0.1743
 2136SOL    HW117870   0.797   1.233   6.988 -1.8751  1.1637 -0.1606
 2136SOL    HW217871   0.849   1.122   6.902  0.0736 -0.1656  1.6642
 2137SOL     OW17872   0.015   0.047  10.291 -0.0722  0.1939 -0.5054
 2137SOL    HW117873   4.694   0.042  10.378  2.2711  0.0002  0.5235
 2137SOL    HW217874   0.065   4.685  10.304 -0.2365 -0.0614 -1.4201
 2138SOL     OW17875   3.843   0.962   7.987  0.3523  0.1860  0.3182
 2138SOL    HW117876   3.811   1.046   8.021 -0.1533 -0.8291  2.3647
 2138SOL    HW217877   3.770   0.906   8.014  1.6008 -1.1992  0.7843
 2139SOL     OW17878   0.164   4.717   3.391 -0.0645  0.4252 -0.4263
 2139SOL    HW117879   0.141   0.009   3.484 -0.7732  0.1388 -0.5731
 2139SOL    HW217880   0.259   4.704   3.390 -0.2482 -0.9681 -0.0376
 2140SOL     OW17881   1.460   3.010  13.906  0.0810 -0.1193  0.0070
 2140SOL    HW117882   1.380   3.054  13.879  0.9249  1.2393 -0.2400
 2140SOL    HW217883   1.438   2.989  13.997 -1.8136  0.7326 -0.2478
 2141SOL     OW17884   0.891   4.056   3.863  0.2522  0.6512  0.1604
 2141SOL    HW117885   0.841   4.114   3.805 -0.7005 -0.6785 -0.3539
 2141SOL    HW217886   0.894   4.114   3.939 -1.0581 -0.6855  1.2087
 2142SOL     OW17887   3.986   2.600   8.219  0.0706  0.4058  0.3420
 2142SOL    HW117888   3.982   2.637   8.307 -0.8180 -3.4830  1.9263
 2142SOL    HW217889   4.012   2.509   8.234  2.3473  0.6744 -1.9407
 2143SOL     OW17890   0.325   3.428   7.926  0.3703  0.0953  0.3190
 2143SOL    HW117891   0.252   3.436   7.988  0.8961  1.6501  0.7426
 2143SOL    HW217892   0.395   3.391   7.980  0.0973  0.9862  1.2918
 2144SOL     OW17893   0.764   3.424  16.263  0.0364 -0.0854 -0.0775
 2144SOL    HW117894   0.703   3.431  16.189 -0.3350  2.5316  0.4667
 2144SOL    HW217895   0.829   3.357  16.241 -1.4790 -0.8330 -2.2603
 2145SOL     OW17896   1.612   1.105   3.910 -0.4494  0.0065 -0.1435
 2145SOL    HW117897   1.615   1.194   3.875  0.9000  0.2663  0.6572
 2145SOL    HW217898   1.550   1.128   3.980 -1.2238 -2.2793 -0.0779
 2146SOL     OW17899   4.570   0.100   0.029 -0.5546  0.1964 -0.1058
 2146SOL    HW117900   4.629   0.025   0.029 -1.3921 -0.4596 -0.0785
 2146SOL    HW217901   4.623   0.167   0.073 -0.9354  0.4731 -0.0628
 2147SOL     OW17902   3.494   4.393  14.874  0.0507  0.4125 -0.4608
 2147SOL    HW117903   3.523   4.468  14.927  0.7943 -1.4522  1.7930
 2147SOL    HW217904   3.495   4.323  14.940  1.8119 -0.2310 -1.1811
 2148SOL     OW17905   2.686   1.523  12.852 -0.4064 -0.0808  0.0846
 2148SOL    HW117906   2.594   1.498  12.845 -0.6381  0.5290  1.0286
 2148SOL    HW217907   2.692   1.590  12.784 -2.0358 -0.1953 -0.1683
 2149SOL     OW17908   0.483   0.530   9.298 -0.8359  0.4202 -0.5662
 2149SOL    HW117909   0.435   0.594   9.351  0.8932  0.7286  0.6026
 2149SOL    HW217910   0.454   0.564   9.214  1.0207  1.1296 -0.9073
 2150SOL     OW17911   2.714   4.221   8.537 -0.3513 -0.2820  0.0441
 2150SOL    HW117912   2.620   4.229   8.519 -0.6407 -0.5054  1.4258
 2150SOL    HW217913   2.743   4.227   8.446  0.4613  0.1722  0.3386
 2151SOL     OW17914   1.195   0.968   2.667 -0.8847 -0.2175  0.4661
 2151SOL    HW117915   1.157   0.880   2.662 -4.1031  1.0328  3.2952
 2151SOL    HW217916   1.129   1.022   2.623  2.5617  0.8120 -3.3930
 2152SOL     OW17917   0.856   0.687   1.019 -0.0150 -0.9539 -0.0276
 2152SOL    HW117918   0.914   0.747   1.066 -0.7047  0.0221 -0.4095
 2152SOL    HW217919   0.888   0.692   0.929  0.5357 -1.8653  0.1220
 2153SOL     OW17920   1.160   1.800  16.138  0.6053  0.0223 -0.5831
 2153SOL    HW117921   1.148   1.816  16.044  0.2662  1.7629 -0.2465
 2153SOL    HW217922   1.221   1.727  16.144  1.8366  0.9754 -1.4517
 2154SOL     OW17923   4.429   2.422   7.378  0.0248  0.7610  0.4990
 2154SOL    HW117924   4.438   2.329   7.360 -0.8136  0.6450  0.6456
 2154SOL    HW217925   4.383   2.451   7.299 -0.8666  1.2109  1.1723
 2155SOL     OW17926   3.995   1.692   1.088  0.2815 -0.1511 -0.2153
 2155SOL    HW117927   3.920   1.731   1.044  0.3578 -1.9289 -1.9129
 2155SOL    HW217928   4.025   1.767   1.139  1.4847 -0.1244 -0.9512
 2156SOL     OW17929   1.805   2.897   5.151  0.1564  0.3910  0.0797
 2156SOL    HW117930   1.837   2.846   5.225 -0.0728 -2.9742 -2.1615
 2156SOL    HW217931   1.882   2.948   5.127  1.2279  0.2426  3.2598
 2157SOL     OW17932   3.390   0.438   0.773  0.0088 -0.2586  0.2455
 2157SOL    HW117933   3.452   0.510   0.778  0.5626 -0.6911 -0.4568
 2157SOL    HW217934   3.445   0.369   0.812  3.5785  1.3615 -2.0008
 2158SOL     OW17935   4.523   3.683   0.830 -0.0091 -0.1503  0.2286
 2158SOL    HW117936   4.570   3.765   0.849 -1.5045  0.7935 -0.0953
 2158SOL    HW217937   4.584   3.618   0.864  0.8057  0.9652  0.9119
 2159SOL     OW17938   1.346   4.453   5.002 -0.1302  0.3042 -0.4674
 2159SOL    HW117939   1.426   4.435   4.952  0.9236  1.2161  0.8739
 2159SOL    HW217940   1.357   4.548   5.002  0.8472  0.1940 -2.1296
 2160SOL     OW17941   0.827   2.227  17.169  0.2201  0.0634 -0.1281
 2160SOL    HW117942   0.850   2.156  17.229  2.6765  0.8254 -0.1830
 2160SOL    HW217943   0.848   2.185  17.085 -0.0369 -1.8518  0.7668
 2161SOL     OW17944   3.982   2.051   2.577 -0.4734 -0.3817 -0.2938
 2161SOL    HW117945   4.036   2.065   2.655 -1.5313  0.8426  0.2154
 2161SOL    HW217946   3.948   1.964   2.598  0.1747 -1.3212 -3.1236
 2162SOL     OW17947   1.633   0.066  13.609 -0.0845 -0.1067 -0.2881
 2162SOL    HW117948   1.628   4.715  13.543 -1.1258  0.0392 -0.3601
 2162SOL    HW217949   1.631   0.007  13.685 -0.8937  0.1376 -0.1195
 2163SOL     OW17950   2.667   0.660   6.101  0.4421 -0.3429 -0.4740
 2163SOL    HW117951   2.663   0.665   6.197  0.6537  1.6394 -0.5599
 2163SOL    HW217952   2.756   0.627   6.094  0.2187 -0.7639 -1.2147
 2164SOL     OW17953   2.172   0.314   1.073  0.2556 -0.0503 -0.0554
 2164SOL    HW117954   2.139   0.401   1.095 -0.1953 -0.5375  1.1931
 2164SOL    HW217955   2.250   0.315   1.127  0.2576  1.1683 -0.0780
 2165SOL     OW17956   0.117   3.995   0.252 -0.0079 -0.4135  0.5473
 2165SOL    HW117957   0.178   3.946   0.307  0.4217  0.6583  1.0244
 2165SOL    HW217958   0.046   4.020   0.310  0.5678  0.1561  1.0177
 2166SOL     OW17959   4.564   2.417  16.333 -0.3850 -0.0673  0.0520
 2166SOL    HW117960   4.516   2.358  16.392 -0.5566 -0.0362 -0.0562
 2166SOL    HW217961   4.516   2.393  16.253 -0.3512 -3.5430  1.0843
 2167SOL     OW17962   2.529   0.390   6.816 -0.7962  0.5320 -0.4440
 2167SOL    HW117963   2.550   0.441   6.894  1.8529 -0.1771 -0.6948
 2167SOL    HW217964   2.435   0.371   6.823 -0.3482 -1.4043  0.4186
 2168SOL     OW17965   0.985   3.040   9.041  0.4079  0.3414 -0.1596
 2168SOL    HW117966   1.006   2.954   9.077 -0.0693  1.8357  3.6611
 2168SOL    HW217967   0.903   3.027   8.993  2.0488 -3.0090 -2.0549
 2169SOL     OW17968   0.599   1.872   8.392 -0.6214  0.0552 -0.5063
 2169SOL    HW117969   0.531   1.824   8.345  0.4681 -0.8594 -1.1589
 2169SOL    HW217970   0.627   1.806   8.456 -1.2843 -1.1345 -1.4347
 2170SOL     OW17971   2.288   0.115  12.307 -0.2735  0.1601  0.2355
 2170SOL    HW117972   2.279   0.042  12.368 -2.3122  0.3814  0.1925
 2170SOL    HW217973   2.320   0.188  12.361  0.5517 -0.2189  0.2593
 2171SOL     OW17974   1.951   2.761   2.811 -0.0578 -0.2660 -0.0158
 2171SOL    HW117975   1.898   2.816   2.753 -0.4802 -0.0660  0.5678
 2171SOL    HW217976   1.896   2.705   2.865 -2.7542  0.6235 -1.8369
 2172SOL     OW17977   0.943   0.454   2.110  0.0526 -0.1474  0.0522
 2172SOL    HW117978   0.909   0.510   2.180 -1.4853 -0.1597 -0.6963
 2172SOL    HW217979   1.029   0.435   2.147  0.0893  0.3458  0.2246
 2173SOL     OW17980   3.647   1.307   6.487  0.4985  0.2846  0.2957
 2173SOL    HW117981   3.583   1.240   6.513 -0.2860  0.6482 -0.6776
 2173SOL    HW217982   3.717   1.305   6.551  0.8707  2.3862 -0.0196
 2174SOL     OW17983   4.393   4.629  12.053 -0.0384 -0.1070  0.0047
 2174SOL    HW117984   4.443   4.608  12.132  3.6255  1.9485 -1.7653
 2174SOL    HW217985   4.446   4.599  11.979 -0.8149  0.0118 -0.6089
 2175SOL     OW17986   3.982   3.147   3.888  0.5688 -0.3970  0.1501
 2175SOL    HW117987   4.073   3.130   3.865  0.9461  0.9581  0.7002
 2175SOL    HW217988   3.936   3.081   3.835 -2.1073  2.9000 -1.6385
 2176SOL     OW17989   0.085   3.492  16.338 -0.5539 -0.3609 -0.4391
 2176SOL    HW117990   0.179   3.477  16.326 -0.7540 -2.8034  1.0559
 2176SOL    HW217991   0.074   3.443  16.420 -4.5556  1.3910  0.0387
 2177SOL     OW17992   2.632   0.414  16.862  0.7239 -0.4182 -0.5906
 2177SOL    HW117993   2.550   0.443  16.901  0.9257  1.5205 -1.6200
 2177SOL    HW217994   2.677   0.377  16.938  0.3695  0.7330  0.1694
 2178SOL     OW17995   0.024   4.443   2.736  0.3076 -0.3784 -0.0366
 2178SOL    HW117996   4.668   4.465   2.792  0.3256 -0.1174 -0.1124
 2178SOL    HW217997   0.032   4.349   2.751  1.5261  0.0171  1.7546
 2179SOL     OW17998   0.704   1.209   3.773 -0.2561 -0.1034 -0.7020
 2179SOL    HW117999   0.740   1.242   3.856 -0.9669  0.8320 -0.7588
 2179SOL    HW218000   0.616   1.195   3.808 -0.7067 -0.0712 -1.8211
 2180SOL     OW18001   0.089   0.647   6.753 -0.2436  0.4975  0.1756
 2180SOL    HW118002   0.070   0.583   6.685 -0.5974 -1.0273  1.7174
 2180SOL    HW218003   0.167   0.609   6.794 -0.8199  0.4572  1.2348
 2181SOL     OW18004   3.677   0.668   3.509 -0.1263 -0.1110 -0.1134
 2181SOL    HW118005   3.653   0.577   3.493  1.4293 -0.3304 -1.2427
 2181SOL    HW218006   3.766   0.645   3.538  0.9247  0.8366 -2.5206
 2182SOL     OW18007   0.220   0.346  13.645  0.0090 -0.3902 -0.2964
 2182SOL    HW118008   0.213   0.251  13.635  0.3206 -0.4586  0.1389
 2182SOL    HW218009   0.192   0.369  13.556 -0.4902  0.7487  0.1478
 2183SOL     OW18010   0.837   1.306   4.040  0.2859 -0.3954 -0.0423
 2183SOL    HW118011   0.808   1.376   4.098  2.5620  1.1171 -0.7359
 2183SOL    HW218012   0.808   1.231   4.093  1.1805  1.0189  2.4028
 2184SOL     OW18013   3.922   4.180   6.524 -0.6797 -0.6105  0.4120
 2184SOL    HW118014   3.871   4.098   6.526  0.5484 -1.3967 -0.5397
 2184SOL    HW218015   3.941   4.193   6.431  0.1272 -0.6532  0.5755
 2185SOL     OW18016   0.190   2.406   3.998  0.3397  0.5772 -0.1710
 2185SOL    HW118017   0.214   2.313   4.000  1.3482  0.7897 -2.2259
 2185SOL    HW218018   0.272   2.428   3.954 -0.1149 -0.0462 -1.3292
 2186SOL     OW18019   3.589   3.907  12.251  0.1710 -0.2426  0.1075
 2186SOL    HW118020   3.569   3.835  12.191  2.2785  0.5194 -1.4861
 2186SOL    HW218021   3.661   3.878  12.307  1.5828 -0.5405 -1.8347
 2187SOL     OW18022   4.016   4.161   7.063 -0.4935 -0.4451  0.0815
 2187SOL    HW118023   3.939   4.105   7.067  0.4771 -1.7440  0.5590
 2187SOL    HW218024   4.051   4.126   6.981  1.8594 -0.3495  1.0631
 2188SOL     OW18025   3.454   4.683   4.050 -0.1639 -0.9217  0.2923
 2188SOL    HW118026   3.399   4.710   4.122 -0.7980  1.4687 -1.0867
 2188SOL    HW218027   3.536   4.673   4.098  0.2057  0.1672 -0.1112
 2189SOL     OW18028   0.258   2.811  11.491 -0.2847 -0.4377  0.1063
 2189SOL    HW118029   0.346   2.807  11.455 -1.0806 -0.8152 -1.8033
 2189SOL    HW218030   0.205   2.828  11.414 -3.0445 -2.8966  1.4693
 2190SOL     OW18031   2.590   3.510   6.512 -0.4892  0.1239 -0.4174
 2190SOL    HW118032   2.552   3.593   6.483 -0.8564  0.4582  0.9788
 2190SOL    HW218033   2.685   3.522   6.506 -0.5001 -0.0495 -0.9050
 2191SOL     OW18034   3.497   3.340   4.871  0.0662  0.0009  0.7731
 2191SOL    HW118035   3.412   3.312   4.837 -0.0981  1.1608  0.2137
 2191SOL    HW218036   3.565   3.281   4.838 -1.3770 -1.3450  0.1917
 2192SOL     OW18037   2.486   1.658  11.762  0.0047 -0.3378  0.0852
 2192SOL    HW118038   2.403   1.683  11.802 -0.4032 -1.6266  0.0484
 2192SOL    HW218039   2.473   1.662  11.667  0.4620 -0.2252  0.0252
 2193SOL     OW18040   2.044   0.805   6.314 -0.4325  0.4898  0.6320
 2193SOL    HW118041   2.013   0.867   6.249  0.6095 -1.2324 -1.5047
 2193SOL    HW218042   2.121   0.779   6.263  0.0092 -0.1013  1.6036
 2194SOL     OW18043   0.655   3.053   3.351 -0.5044  0.1700  0.0941
 2194SOL    HW118044   0.706   3.123   3.392  0.7143 -0.1028 -0.9428
 2194SOL    HW218045   0.616   3.009   3.426 -1.4143 -0.3036 -0.6563
 2195SOL     OW18046   3.655   1.022   2.254  0.0437 -0.1403 -0.1091
 2195SOL    HW118047   3.597   0.946   2.259 -0.4909  0.0289 -3.9921
 2195SOL    HW218048   3.710   1.002   2.179 -0.9436  2.4875 -1.5658
 2196SOL     OW18049   0.312   3.824   0.054  0.1766 -0.3248 -0.6437
 2196SOL    HW118050   0.377   3.860  17.670 -0.2579 -1.3881 -1.7503
 2196SOL    HW218051   0.233   3.866   0.020  1.4360  0.5145 -2.5172
 2197SOL     OW18052   2.777   0.263   8.420 -0.1000  0.6487  0.3272
 2197SOL    HW118053   2.861   0.246   8.463  0.0978 -1.1389 -0.7477
 2197SOL    HW218054   2.803   0.292   8.332  2.2928 -0.6969  0.6045
 2198SOL     OW18055   1.175   1.623  10.024 -0.4400  0.4761 -0.7840
 2198SOL    HW118056   1.114   1.620  10.098 -0.8528  2.8610 -1.0232
 2198SOL    HW218057   1.248   1.666  10.068  1.5045 -2.0062 -1.6095
 2199SOL     OW18058   2.488   0.897  13.000  0.4821 -0.1750 -0.0479
 2199SOL    HW118059   2.562   0.934  12.951 -0.8020  1.6490 -0.6105
 2199SOL    HW218060   2.452   0.984  13.021  2.5532  0.9885 -1.2953
 2200SOL     OW18061   2.619   2.783   7.738 -0.1441 -0.2103 -0.3430
 2200SOL    HW118062   2.616   2.710   7.676 -0.4010 -0.0727 -0.4928
 2200SOL    HW218063   2.556   2.748   7.802 -0.1475  1.1140  0.3755
 2201SOL     OW18064   1.919   4.482   7.501  0.0112  0.3221  0.0693
 2201SOL    HW118065   1.997   4.505   7.451  0.6163 -0.8423  0.4736
 2201SOL    HW218066   1.889   4.402   7.457  0.9815 -0.8411  1.5540
 2202SOL     OW18067   3.949   0.413   7.335  0.2498  0.1877  0.7753
 2202SOL    HW118068   3.960   0.342   7.398 -0.3337 -0.6702 -0.0999
 2202SOL    HW218069   4.030   0.407   7.284  0.0314 -1.7086  0.6466
 2203SOL     OW18070   3.501   3.870   7.622  0.2873 -0.1104 -0.1350
 2203SOL    HW118071   3.466   3.783   7.606 -0.4516 -0.0941  1.3521
 2203SOL    HW218072   3.445   3.921   7.564  0.4211 -0.0643 -0.2235
 2204SOL     OW18073   4.584   2.365   0.711  0.3752 -0.3785  0.4035
 2204SOL    HW118074   4.520   2.295   0.726 -1.9693  1.6069 -0.4429
 2204SOL    HW218075   4.580   2.360   0.615 -1.0769 -3.0124  0.5911
 2205SOL     OW18076   3.007   3.593   4.466 -0.1015  0.1812  0.2368
 2205SOL    HW118077   3.031   3.543   4.387  0.0716 -0.0747  0.4519
 2205SOL    HW218078   3.094   3.617   4.497  0.5522 -1.0081 -0.6358
 2206SOL     OW18079   1.531   0.369  16.270 -0.3127  0.0401 -0.9299
 2206SOL    HW118080   1.530   0.462  16.291  1.0881 -0.3871  0.9527
 2206SOL    HW218081   1.526   0.326  16.356  0.8922  1.5876 -0.0987
 2207SOL     OW18082   0.224   1.264   7.408  0.2713 -0.3133 -0.1611
 2207SOL    HW118083   0.235   1.191   7.348 -0.7586 -1.3851  0.9294
 2207SOL    HW218084   0.314   1.292   7.418 -0.0881  0.3881  1.1845
 2208SOL     OW18085   3.977   3.424  16.828 -0.9093  0.3169  0.0798
 2208SOL    HW118086   3.889   3.406  16.794 -0.0263 -0.1138 -1.9350
 2208SOL    HW218087   3.978   3.372  16.909  0.7640 -0.3578 -0.3823
 2209SOL     OW18088   1.550   3.784   5.680 -0.7161  0.3954  0.0747
 2209SOL    HW118089   1.542   3.870   5.720 -1.7078  0.5225 -0.4066
 2209SOL    HW218090   1.614   3.804   5.612 -1.1908  1.4194 -0.0645
 2210SOL     OW18091   0.114   2.218   8.554  0.2423 -0.7061 -0.2552
 2210SOL    HW118092   0.173   2.214   8.478  0.1905  2.6677 -0.4710
 2210SOL    HW218093   0.094   2.126   8.568 -2.0798 -0.3520 -1.2367
 2211SOL     OW18094   1.806   3.580  11.567 -0.3937  0.3348  0.5980
 2211SOL    HW118095   1.724   3.562  11.614 -0.1633 -0.9296  0.5217
 2211SOL    HW218096   1.846   3.494  11.551  0.0087  0.3137  1.6919
 2212SOL     OW18097   2.845   3.858   2.602  0.2895  0.3692 -0.1703
 2212SOL    HW118098   2.904   3.784   2.610  1.5949  1.4373  0.1270
 2212SOL    HW218099   2.911   3.927   2.597  2.1037 -1.4052 -0.3062
 2213SOL     OW18100   0.610   1.695   4.048 -0.0382 -0.0763 -0.3214
 2213SOL    HW118101   0.554   1.760   4.092  0.0391  0.0595 -0.4252
 2213SOL    HW218102   0.697   1.727   4.073  0.3047 -1.4728  0.2868
 2214SOL     OW18103   3.347   1.912   5.419  0.0924  0.3362 -0.4648
 2214SOL    HW118104   3.338   1.857   5.342  2.6704  0.0399 -0.5418
 2214SOL    HW218105   3.434   1.881   5.445 -0.7795 -2.7865 -1.2660
 2215SOL     OW18106   2.638   1.789   9.188  0.4119  0.1346  0.0204
 2215SOL    HW118107   2.634   1.882   9.210 -0.1188  0.2858 -0.7228
 2215SOL    HW218108   2.673   1.805   9.100  0.7913 -0.6684  0.0274
 2216SOL     OW18109   1.095   0.866   8.138 -0.0711 -0.7417  0.0004
 2216SOL    HW118110   1.165   0.909   8.187 -0.6414  0.2654 -0.0698
 2216SOL    HW218111   1.037   0.942   8.142  0.4672 -0.3755  0.7247
 2217SOL     OW18112   3.989   4.550   2.909 -0.4631  0.9947 -0.8041
 2217SOL    HW118113   4.000   4.645   2.915 -0.0942  1.0569 -2.4484
 2217SOL    HW218114   4.024   4.524   2.824  2.3006 -1.6574  1.1413
 2218SOL     OW18115   4.461   3.285   8.612  0.0858 -0.3505  0.1602
 2218SOL    HW118116   4.453   3.306   8.705  0.5300  0.2260  0.0671
 2218SOL    HW218117   4.553   3.304   8.592 -0.1547  1.1724  0.4762
 2219SOL     OW18118   4.623   3.901   1.140 -0.1151  0.5537 -0.8274
 2219SOL    HW118119   4.665   3.875   1.058  1.0332 -3.3649  1.0009
 2219SOL    HW218120   4.579   3.981   1.111 -0.6279  1.1248  1.5242
 2220SOL     OW18121   1.424   3.814  12.990 -0.4870 -0.5693  0.4108
 2220SOL    HW118122   1.360   3.776  13.049 -0.7072  0.4795  0.8474
 2220SOL    HW218123   1.446   3.901  13.024  1.0937 -0.6276 -0.4545
 2221SOL     OW18124   2.006   3.432   0.806 -0.0369  0.2144 -0.1057
 2221SOL    HW118125   1.999   3.525   0.787  0.7423  0.7479  2.2702
 2221SOL    HW218126   2.055   3.433   0.888  2.3339 -2.8182 -1.4943
 2222SOL     OW18127   4.706   2.719   5.895 -0.3645 -0.0053  0.0665
 2222SOL    HW118128   4.633   2.781   5.893 -0.7696 -0.5257 -0.9614
 2222SOL    HW218129   4.682   2.667   5.819  1.8529  1.5523 -1.6926
 2223SOL     OW18130   1.933   0.193  16.157 -0.2505  0.0259 -0.2702
 2223SOL    HW118131   1.914   0.224  16.246  0.4635 -3.5384  1.1156
 2223SOL    HW218132   1.926   0.282  16.121  1.1792 -0.1667 -1.0296
 2224SOL     OW18133   1.383   2.000  10.001  0.0014 -0.2560  0.7985
 2224SOL    HW118134   1.406   1.911  10.026 -0.6881 -0.9133 -0.9238
 2224SOL    HW218135   1.393   2.032  10.091  2.5065  0.4091  0.3044
 2225SOL     OW18136   1.802   0.950   7.391  0.6290  0.1979 -0.0296
 2225SOL    HW118137   1.814   0.930   7.483  1.6659  3.1630  0.4719
 2225SOL    HW218138   1.870   1.016   7.379 -1.1375  1.7322 -1.7112
 2226SOL     OW18139   2.621   1.958   0.667 -0.0940  0.2231 -0.0267
 2226SOL    HW118140   2.532   1.971   0.699 -0.3101 -0.2393 -0.4246
 2226SOL    HW218141   2.607   1.928   0.577 -1.7105  1.8406 -0.2954
 2227SOL     OW18142   2.509   3.815   8.833  0.1886 -0.4010  0.4497
 2227SOL    HW118143   2.577   3.869   8.793 -0.3697 -0.3948 -0.4956
 2227SOL    HW218144   2.489   3.762   8.756  0.4479  2.2635 -1.4403
 2228SOL     OW18145   2.836   4.301  11.599 -0.0140  0.0191  0.6843
 2228SOL    HW118146   2.823   4.219  11.647 -0.1943 -0.3014  0.0925
 2228SOL    HW218147   2.872   4.279  11.513  0.9950  2.5112  0.4799
 2229SOL     OW18148   3.187   3.398  13.319 -0.5531 -0.6648 -0.3824
 2229SOL    HW118149   3.131   3.456  13.267 -2.9362 -2.7396 -0.1451
 2229SOL    HW218150   3.218   3.461  13.385 -0.6315 -1.1075  0.0771
 2230SOL     OW18151   4.585   0.844  10.766 -0.2922 -0.0328 -0.3617
 2230SOL    HW118152   4.515   0.881  10.821  0.5497  1.3162 -0.2122
 2230SOL    HW218153   4.556   0.753  10.765 -0.9727  0.1947 -1.5346
 2231SOL     OW18154   0.164   2.326  11.502  0.3172 -0.6718  0.2487
 2231SOL    HW118155   0.187   2.303  11.412 -1.9328 -0.8607 -0.2919
 2231SOL    HW218156   0.202   2.256  11.555  0.8778  0.2615  1.0817
 2232SOL     OW18157   3.370   1.702   4.480 -0.1442  0.0267 -0.1193
 2232SOL    HW118158   3.410   1.617   4.498 -1.2882  0.0357  2.4410
 2232SOL    HW218159   3.425   1.760   4.533  2.4760 -1.1529 -1.5747
 2233SOL     OW18160   3.199   0.756   7.171 -0.2868  0.1111  0.8583
 2233SOL    HW118161   3.281   0.713   7.195 -0.5243 -1.1950 -0.7213
 2233SOL    HW218162   3.199   0.838   7.221 -2.8757  0.9430 -0.5159
 2234SOL     OW18163   3.411   4.277  13.142  0.1281 -0.7271 -0.2394
 2234SOL    HW118164   3.341   4.257  13.205  0.8171 -1.2727  0.3512
 2234SOL    HW218165   3.390   4.224  13.065 -2.4167 -0.9474  0.5904
 2235SOL     OW18166   0.748   0.189   9.072 -0.4771  0.2919  0.7959
 2235SOL    HW118167   0.790   0.275   9.073  0.5799 -0.2287  1.3550
 2235SOL    HW218168   0.817   0.142   9.119 -0.0930 -0.7634 -0.8466
 2236SOL     OW18169   3.229   0.747   4.304  0.0773  0.0482  0.1558
 2236SOL    HW118170   3.230   0.817   4.369 -0.0412 -0.3233  0.5597
 2236SOL    HW218171   3.319   0.725   4.280 -0.8360 -0.7784 -2.5583
 2237SOL     OW18172   0.233   0.047   1.298 -0.2185  0.6342  0.3128
 2237SOL    HW118173   0.193   4.679   1.311 -0.5453  0.4909 -1.6975
 2237SOL    HW218174   0.230   0.081   1.387 -0.3532 -1.1175  0.9948
 2238SOL     OW18175   4.017   2.784   1.468 -0.4064 -0.2975  0.2516
 2238SOL    HW118176   3.946   2.725   1.442 -0.7859  0.6164 -0.8064
 2238SOL    HW218177   4.046   2.738   1.547  0.8084  0.6515  0.3618
 2239SOL     OW18178   4.053   4.123   2.602  0.1407 -0.4000  0.3310
 2239SOL    HW118179   3.999   4.096   2.528 -1.7372  1.9553  0.8370
 2239SOL    HW218180   4.047   4.218   2.588  1.0637 -0.2956  0.6047
 2240SOL     OW18181   3.128   3.563   8.783  0.2148  0.4582  0.8658
 2240SOL    HW118182   3.095   3.474   8.775  2.4292 -0.4437  1.7358
 2240SOL    HW218183   3.049   3.617   8.773 -1.0172 -1.0386  2.5404
 2241SOL     OW18184   3.113   4.530   0.239  0.5997 -0.1554  0.1999
 2241SOL    HW118185   3.080   4.445   0.209 -2.0104  1.0830 -0.4359
 2241SOL    HW218186   3.075   4.591   0.176  0.2418  0.7885  1.3111
 2242SOL     OW18187   3.225   4.641  11.743 -0.2655 -0.0938 -0.0851
 2242SOL    HW118188   3.148   4.682  11.705 -0.1025 -0.0300 -0.3490
 2242SOL    HW218189   3.208   4.550  11.718  2.7736 -0.4129 -0.9984
 2243SOL     OW18190   0.186   0.991   6.813 -0.0224  0.0728  0.2348
 2243SOL    HW118191   0.178   1.066   6.873 -3.8710  0.6245 -0.9498
 2243SOL    HW218192   0.095   0.975   6.786 -0.4764 -0.5057  2.1161
 2244SOL     OW18193   3.702   1.434  16.298 -0.0117  0.3586  0.4071
 2244SOL    HW118194   3.689   1.362  16.360 -1.9217  0.6052  0.3009
 2244SOL    HW218195   3.614   1.454  16.264  0.1871  0.5868  0.0268
 2245SOL     OW18196   0.008   0.127  12.615 -0.0354 -0.1876  0.1939
 2245SOL    HW118197   0.005   0.106  12.522  1.7201  0.3743  0.0021
 2245SOL    HW218198   4.702   0.042  12.652 -0.7911 -0.0156  0.0852
 2246SOL     OW18199   0.854   4.136   3.068 -0.5442 -0.2313 -0.3249
 2246SOL    HW118200   0.871   4.139   3.163 -1.3708  0.2379 -0.1932
 2246SOL    HW218201   0.938   4.155   3.026 -1.2814  0.3447 -1.5168
 2247SOL     OW18202   1.982   0.373   4.755  0.2776 -0.3720  0.2045
 2247SOL    HW118203   1.999   0.466   4.746  2.6176 -0.6913  1.2900
 2247SOL    HW218204   1.894   0.367   4.791  0.5061  2.6803  1.2462
 2248SOL     OW18205   1.488   1.230   3.493 -0.2325 -0.1849 -0.1370
 2248SOL    HW118206   1.450   1.303   3.541 -0.6247 -1.5930  1.7162
 2248SOL    HW218207   1.491   1.163   3.562 -0.7105  0.7650  0.8116
 2249SOL     OW18208   2.201   3.049   7.263 -0.1134  0.1757 -0.3073
 2249SOL    HW118209   2.228   2.962   7.232 -0.7271  0.6305 -2.1452
 2249SOL    HW218210   2.106   3.039   7.268 -0.0316 -1.2915 -1.3874
 2250SOL     OW18211   2.648   3.192   4.458  0.1790 -0.2768  0.0484
 2250SOL    HW118212   2.702   3.269   4.476  0.6279 -0.2967 -1.2346
 2250SOL    HW218213   2.718   3.127   4.455 -0.3902 -1.0047  2.4328
 2251SOL     OW18214   3.156   2.871   2.254  0.4448  0.9927 -0.0229
 2251SOL    HW118215   3.224   2.928   2.219  0.1154 -0.3024 -2.7594
 2251SOL    HW218216   3.080   2.927   2.239 -0.5076 -0.0186  1.0109
 2252SOL     OW18217   1.513   4.120   7.237 -0.0980 -0.0293 -0.0021
 2252SOL    HW118218   1.565   4.074   7.171  3.2999  0.1113  2.5652
 2252SOL    HW218219   1.508   4.212   7.212 -1.8674  0.1514  0.9979
 2253SOL     OW18220   2.861   1.168  15.012  0.0145  0.5601  0.1111
 2253SOL    HW118221   2.818   1.211  14.938 -1.5174 -1.6184 -0.2714
 2253SOL    HW218222   2.888   1.083  14.978 -0.1304  0.7220 -0.4115
 2254SOL     OW18223   1.905   1.670   6.516  0.4137  0.2728  0.1735
 2254SOL    HW118224   1.994   1.695   6.541  0.3666  0.1672  0.4442
 2254SOL    HW218225   1.906   1.589   6.567  0.7299 -0.4351 -0.9435
 2255SOL     OW18226   1.412   1.652  15.882 -0.2134  0.3271 -0.4010
 2255SOL    HW118227   1.484   1.621  15.826  1.6784  1.8690  1.1553
 2255SOL    HW218228   1.466   1.708  15.937 -1.8185  0.2702  1.2155
 2256SOL     OW18229   1.573   2.114   2.304 -0.3192 -0.0044 -0.3418
 2256SOL    HW118230   1.601   2.205   2.311  0.6226 -0.2038 -1.6074
 2256SOL    HW218231   1.540   2.121   2.215  1.2522 -1.6206 -1.0429
 2257SOL     OW18232   3.337   4.620  10.830  1.0249  0.0071 -0.2206
 2257SOL    HW118233   3.359   4.646  10.741 -1.2982  1.5103 -0.3388
 2257SOL    HW218234   3.261   4.567  10.809  0.5937 -0.5117  2.6577
 2258SOL     OW18235   3.455   1.808   2.106  0.1137  0.1287 -0.4853
 2258SOL    HW118236   3.523   1.866   2.139  0.1822 -0.2858  0.1096
 2258SOL    HW218237   3.492   1.779   2.023  0.5821  1.2805 -0.6781
 2259SOL     OW18238   3.204   2.476   5.145  0.1396  0.4040  0.4967
 2259SOL    HW118239   3.198   2.419   5.068  2.2606  0.3352  0.3662
 2259SOL    HW218240   3.266   2.545   5.122  0.8070  0.6523  3.0459
 2260SOL     OW18241   0.737   4.217   6.908  0.3172  0.8719  0.0385
 2260SOL    HW118242   0.668   4.265   6.954 -2.0623 -2.5626  0.0513
 2260SOL    HW218243   0.750   4.145   6.969 -1.3619  0.2478 -0.3485
 2261SOL     OW18244   4.595   3.211   8.174  0.4982 -0.0798  0.2800
 2261SOL    HW118245   4.533   3.154   8.219  0.3784  0.8146  1.2481
 2261SOL    HW218246   4.580   3.184   8.083  0.5623 -2.3488  0.9354
 2262SOL     OW18247   1.475   2.229   6.465 -0.1664 -0.3095 -0.1098
 2262SOL    HW118248   1.436   2.203   6.381 -1.4541  1.0737  0.0703
 2262SOL    HW218249   1.561   2.187   6.455 -0.9785 -1.6604 -1.5029
 2263SOL     OW18250   3.256   0.680  10.688 -0.3075  0.1572  0.3514
 2263SOL    HW118251   3.282   0.705  10.777 -0.9288 -1.7066  1.0478
 2263SOL    HW218252   3.210   0.759  10.662 -1.4529  0.2172  2.5340
 2264SOL     OW18253   1.482   2.658   5.535  0.4304  0.1845 -0.5409
 2264SOL    HW118254   1.499   2.631   5.445  0.2496 -2.0610  0.1053
 2264SOL    HW218255   1.390   2.683   5.534 -0.4526 -3.0788 -1.2147
 2265SOL     OW18256   4.555   2.942   8.106 -0.3720 -0.2878  0.0297
 2265SOL    HW118257   4.538   2.927   8.013  0.8964 -1.6921  0.0398
 2265SOL    HW218258   4.470   2.925   8.145 -0.1210  0.0483  0.7365
 2266SOL     OW18259   0.220   2.590   3.134 -0.3417 -0.4818 -0.7221
 2266SOL    HW118260   0.277   2.628   3.067 -1.4857  0.5802 -1.0874
 2266SOL    HW218261   0.284   2.563   3.201  0.8089  0.3424 -1.4857
 2267SOL     OW18262   0.097   3.547   4.145  0.0460  0.1780  0.3232
 2267SOL    HW118263   0.101   3.626   4.199 -1.5753  1.3084 -1.2240
 2267SOL    HW218264   0.047   3.587   4.074  0.1440 -0.0594  0.1203
 2268SOL     OW18265   1.477   2.722   4.876 -0.3348 -0.0321 -0.1630
 2268SOL    HW118266   1.572   2.735   4.879 -0.2672 -0.4853 -0.3234
 2268SOL    HW218267   1.458   2.786   4.945  1.8751 -0.0389  0.4716
 2269SOL     OW18268   4.142   3.307   0.892  0.0984  0.1580  0.3394
 2269SOL    HW118269   4.225   3.294   0.936  0.6189 -0.2207 -0.7419
 2269SOL    HW218270   4.090   3.277   0.966  0.0257  0.9531  0.6073
 2270SOL     OW18271   1.507   1.402  10.431 -0.0919 -0.2501  0.3079
 2270SOL    HW118272   1.496   1.403  10.336  1.1851  0.5106  0.1761
 2270SOL    HW218273   1.570   1.473  10.438  0.2320 -0.2914 -2.2258
 2271SOL     OW18274   3.819   2.578  17.403 -0.0988 -0.2691  0.2729
 2271SOL    HW118275   3.725   2.570  17.386  0.3618  0.7833 -2.8053
 2271SOL    HW218276   3.857   2.626  17.329  0.7770 -2.4684 -0.6774
 2272SOL     OW18277   3.468   2.056   0.993 -0.1037  0.1923 -0.2613
 2272SOL    HW118278   3.530   2.119   1.029  1.2047 -0.8081 -0.7895
 2272SOL    HW218279   3.520   1.977   1.007 -2.3838 -1.0611  1.2941
 2273SOL     OW18280   2.173   0.658   8.435 -0.0936 -0.3334  0.2501
 2273SOL    HW118281   2.127   0.590   8.385  1.5063  0.0641 -1.7546
 2273SOL    HW218282   2.208   0.604   8.505 -0.5583  2.1087  2.3799
 2274SOL     OW18283   0.181   0.009   5.004 -0.1468  0.1198 -0.3813
 2274SOL    HW118284   0.161   0.042   5.092  2.5151 -1.5676  0.8556
 2274SOL    HW218285   0.272   4.699   5.006  0.6503  2.7236  1.0510
 2275SOL     OW18286   4.484   4.077   4.551  0.6846 -0.0027  0.5311
 2275SOL    HW118287   4.505   4.143   4.617 -2.0736  0.6522  0.7581
 2275SOL    HW218288   4.572   4.043   4.536  0.8736  0.7990 -0.2495
 2276SOL     OW18289   0.567   3.689   5.814 -0.3891 -0.3685 -0.2390
 2276SOL    HW118290   0.647   3.662   5.770  0.2285  0.2530  0.5148
 2276SOL    HW218291   0.534   3.750   5.747 -1.9428 -1.9515 -0.9193
 2277SOL     OW18292   3.934   0.501   0.544  0.2408  0.1348 -0.2383
 2277SOL    HW118293   3.958   0.557   0.471 -1.2294  2.0145  0.7237
 2277SOL    HW218294   3.980   0.418   0.531  1.1937  0.2610  2.2566
 2278SOL     OW18295   1.074   0.854   4.138  0.4189  0.4374  0.2680
 2278SOL    HW118296   1.013   0.827   4.070  0.7972 -0.8869  0.4573
 2278SOL    HW218297   1.140   0.895   4.082  1.2055  1.0054  1.6121
 2279SOL     OW18298   1.228   2.657   5.492  0.3053 -0.2891  0.3113
 2279SOL    HW118299   1.177   2.658   5.411 -1.5498  2.0474  1.5232
 2279SOL    HW218300   1.192   2.574   5.524 -0.5427 -0.3255 -0.7033
 2280SOL     OW18301   4.657   2.385  13.704 -0.3567  0.2621 -0.4422
 2280SOL    HW118302   4.660   2.290  13.716 -0.1175  0.6160  2.2297
 2280SOL    HW218303   4.562   2.383  13.689 -0.6478  0.4311  1.3876
 2281SOL     OW18304   2.160   2.750   2.468  0.2349  0.4320  0.0234
 2281SOL    HW118305   2.167   2.738   2.373 -1.6350 -2.4366  0.2329
 2281SOL    HW218306   2.068   2.773   2.476  0.2215  0.4232 -0.1111
 2282SOL     OW18307   4.709   4.225   4.164 -0.0162  0.1683  0.1597
 2282SOL    HW118308   0.027   4.144   4.200  2.6322  1.2096 -0.1519
 2282SOL    HW218309   4.618   4.199   4.146  1.2921 -2.0704 -3.3527
 2283SOL     OW18310   2.858   0.659   6.492 -0.0214 -0.1751 -0.1433
 2283SOL    HW118311   2.901   0.655   6.577  0.1966 -2.7544 -0.3769
 2283SOL    HW218312   2.848   0.754   6.486 -0.4538 -0.1754  0.5297
 2284SOL     OW18313   1.269   2.281   9.555  0.0274  0.3259 -0.2281
 2284SOL    HW118314   1.363   2.296   9.561  0.1747 -0.7222 -0.0807
 2284SOL    HW218315   1.244   2.215   9.619  3.5993 -0.5135  0.2858
 2285SOL     OW18316   0.123   3.654   8.899 -0.5957 -0.5369 -0.0574
 2285SOL    HW118317   0.195   3.676   8.840 -0.1493 -1.3876  0.1715
 2285SOL    HW218318   0.157   3.682   8.983  0.0060 -0.9184 -0.1744
 2286SOL     OW18319   1.618   2.925   6.772  0.5481  0.1025 -0.3662
 2286SOL    HW118320   1.550   2.883   6.719 -0.0599 -0.8472  1.1774
 2286SOL    HW218321   1.623   2.871   6.851 -2.4659  1.5397  0.8098
 2287SOL     OW18322   1.547   3.554   3.287 -0.9720  0.4308 -0.1174
 2287SOL    HW118323   1.477   3.565   3.351 -0.9899 -1.3279  0.1672
 2287SOL    HW218324   1.503   3.502   3.220  1.4785  0.4013 -1.7058
 2288SOL     OW18325   3.758   0.978  11.125 -0.5113 -0.8796 -0.3236
 2288SOL    HW118326   3.812   0.899  11.116  0.7794  0.0574 -0.7403
 2288SOL    HW218327   3.817   1.039  11.168  0.5650 -0.6706 -2.0690
 2289SOL     OW18328   1.307   1.986   3.839  0.3067  0.1221 -0.2982
 2289SOL    HW118329   1.232   1.964   3.895  1.1439 -0.5872  0.5428
 2289SOL    HW218330   1.318   2.079   3.858  0.3534 -0.2636  1.6687
 2290SOL     OW18331   2.975   2.825   5.734  0.0941 -0.4328  0.2775
 2290SOL    HW118332   2.973   2.894   5.800 -0.1839  3.2121 -3.5504
 2290SOL    HW218333   3.062   2.839   5.696  0.6704 -0.3100  1.6408
 2291SOL     OW18334   3.830   0.487   6.107 -0.3191 -0.8922  0.4821
 2291SOL    HW118335   3.777   0.529   6.175  0.6170 -1.7814  1.7444
 2291SOL    HW218336   3.850   0.562   6.051 -2.3976 -0.3216  0.5101
 2292SOL     OW18337   2.586   2.920   8.670  0.6022  0.0906 -0.1201
 2292SOL    HW118338   2.604   3.014   8.664 -0.3011  0.1822 -1.2631
 2292SOL    HW218339   2.656   2.888   8.613  1.0940  0.4923  0.2518
 2293SOL     OW18340   4.436   3.924   4.917 -0.3345  0.3183  0.0878
 2293SOL    HW118341   4.489   3.880   4.851 -0.1134 -1.0658  1.1843
 2293SOL    HW218342   4.500   3.926   4.989 -0.2516  1.4456 -0.0053
 2294SOL     OW18343   0.595   2.946  15.072  0.2486 -0.4211 -0.2024
 2294SOL    HW118344   0.650   2.868  15.077 -1.5807 -1.7039 -0.1011
 2294SOL    HW218345   0.523   2.913  15.126 -0.2406 -1.3283 -1.4062
 2295SOL     OW18346   2.054   2.469  15.999 -0.2438  0.0769  0.5705
 2295SOL    HW118347   2.049   2.563  15.981 -0.3466  0.1866  1.1677
 2295SOL    HW218348   2.013   2.424  15.926 -0.2740  0.8770  0.1018
 2296SOL     OW18349   0.498   1.125   7.217 -0.3820 -0.3091 -0.3673
 2296SOL    HW118350   0.417   1.082   7.244 -0.7251  0.8515  0.4625
 2296SOL    HW218351   0.558   1.062   7.260  2.4787  2.6421 -0.0274
 2297SOL     OW18352   1.260   1.537  14.801  0.2064 -0.2138 -0.0631
 2297SOL    HW118353   1.309   1.501  14.728 -0.1414 -1.6425  0.4064
 2297SOL    HW218354   1.178   1.528  14.752  0.8746 -2.7768 -0.7087
 2298SOL     OW18355   1.395   0.548   0.567 -0.8162 -0.3302 -0.4889
 2298SOL    HW118356   1.427   0.521   0.481 -0.3595  2.4359 -1.1930
 2298SOL    HW218357   1.354   0.632   0.545 -0.2159  0.4091  1.2561
 2299SOL     OW18358   4.134   2.329   6.009  0.4539 -0.0854  0.6705
 2299SOL    HW118359   4.130   2.383   6.087 -2.2988 -0.3181  0.6962
 2299SOL    HW218360   4.197   2.383   5.961  0.8915 -1.8550 -0.7620
 2300SOL     OW18361   0.184   0.595   0.904  0.0447 -0.0421 -0.5657
 2300SOL    HW118362   0.197   0.509   0.944 -1.9764 -0.4783 -0.8115
 2300SOL    HW218363   0.229   0.645   0.972 -1.0164  0.4745 -0.2300
 2301SOL     OW18364   2.190   0.977   9.162 -0.8413  0.2066 -0.4791
 2301SOL    HW118365   2.158   0.913   9.226 -4.3836  2.2764 -0.1865
 2301SOL    HW218366   2.228   0.921   9.094 -1.3082  0.4218 -0.9169
 2302SOL     OW18367   1.040   1.987   4.633  0.7733  0.0562  0.7725
 2302SOL    HW118368   0.984   2.064   4.639 -0.0675 -0.5852  1.0896
 2302SOL    HW218369   0.987   1.942   4.699  0.7710 -0.7034  0.2511
 2303SOL     OW18370   0.934   3.029   8.192  0.1229 -0.1186  0.6598
 2303SOL    HW118371   0.838   3.037   8.198  0.0967  0.5265 -0.7088
 2303SOL    HW218372   0.936   3.031   8.097  0.1023 -1.2424  0.6391
 2304SOL     OW18373   2.014   4.639   7.905  0.3043  0.9206 -0.2009
 2304SOL    HW118374   1.941   4.610   7.850  0.9060 -2.6416  0.8642
 2304SOL    HW218375   2.084   4.599   7.852  2.5303  0.3426  3.1758
 2305SOL     OW18376   4.310   2.870   0.638  0.7505 -0.2129  0.2775
 2305SOL    HW118377   4.390   2.819   0.651  2.0533  1.8643  0.5771
 2305SOL    HW218378   4.274   2.820   0.565 -1.5525 -1.5921  2.3513
 2306SOL     OW18379   0.139   0.788  16.061 -0.3266  0.3278  0.3872
 2306SOL    HW118380   0.086   0.861  16.029  0.2100  0.7540  0.4679
 2306SOL    HW218381   0.166   0.828  16.144 -0.8406  0.9549  0.2490
 2307SOL     OW18382   1.753   3.000   0.536 -0.3019 -0.0443  0.2443
 2307SOL    HW118383   1.788   3.076   0.582 -1.5582 -0.6616  2.2047
 2307SOL    HW218384   1.717   2.957   0.614 -0.3400  3.2923  2.0472
 2308SOL     OW18385   2.191   1.380   5.284 -0.1613  0.0770 -0.4113
 2308SOL    HW118386   2.176   1.458   5.338  1.7160 -1.7928  2.8266
 2308SOL    HW218387   2.283   1.392   5.263 -0.2836 -1.6267 -1.9506
 2309SOL     OW18388   0.991   0.192   7.997 -0.2164  0.1801  0.5603
 2309SOL    HW118389   0.901   0.224   8.009  0.5017  2.0952  0.8759
 2309SOL    HW218390   0.974   0.114   7.945 -0.8229  0.3728  0.4701
 2310SOL     OW18391   0.103   0.524   8.997  0.1185  0.1247  0.0739
 2310SOL    HW118392   0.158   0.467   9.051  0.0135  0.2242  0.2868
 2310SOL    HW218393   0.019   0.512   9.041 -0.6259 -1.0477 -1.6925
 2311SOL     OW18394   2.563   4.218  13.489  0.1424 -0.5797  0.3161
 2311SOL    HW118395   2.515   4.188  13.567 -1.8096  0.3253 -0.5219
 2311SOL    HW218396   2.638   4.160  13.498  1.6953  1.3980  0.0111
 2312SOL     OW18397   1.648   1.127  15.160  0.8354 -0.7155 -0.1700
 2312SOL    HW118398   1.715   1.067  15.195  1.0595  0.3288  1.2197
 2312SOL    HW218399   1.599   1.158  15.237  1.4973  0.4676 -0.2220
 2313SOL     OW18400   2.134   1.811   6.602  0.1365  0.3890 -0.0104
 2313SOL    HW118401   2.119   1.874   6.673  0.0411  0.8713 -0.4589
 2313SOL    HW218402   2.184   1.868   6.545 -0.5957 -0.2496 -1.2807
 2314SOL     OW18403   0.023   2.558   2.613 -0.0408  0.1610 -0.2778
 2314SOL    HW118404   0.021   2.467   2.582 -0.0553  0.3081 -0.7096
 2314SOL    HW218405   4.661   2.564   2.666 -0.5705 -0.6215 -0.9786
 2315SOL     OW18406   2.858   4.557   5.222 -0.2223  0.2669 -0.2263
 2315SOL    HW118407   2.850   4.560   5.317 -2.1430  1.1544 -0.4282
 2315SOL    HW218408   2.953   4.566   5.214 -0.4432  1.2569 -1.6454
 2316SOL     OW18409   1.359   2.978   7.026  0.6155  0.0092  0.1238
 2316SOL    HW118410   1.272   3.013   7.045  0.1641  0.8702 -3.6109
 2316SOL    HW218411   1.355   2.886   7.053 -1.7561  0.5442  1.6464
 2317SOL     OW18412   3.619   1.498   6.839  0.3067  0.3639  0.0165
 2317SOL    HW118413   3.684   1.512   6.907 -1.2800  0.0784  1.5699
 2317SOL    HW218414   3.598   1.407   6.859  0.4688  0.6059  1.2656
 2318SOL     OW18415   2.374   3.174   2.521 -0.0096  0.4800 -0.0066
 2318SOL    HW118416   2.394   3.248   2.464 -0.3291  0.1328 -0.5725
 2318SOL    HW218417   2.315   3.119   2.469  0.3614  1.4311 -1.4237
 2319SOL     OW18418   4.675   1.906   5.094 -0.5952  0.5038  0.0019
 2319SOL    HW118419   4.637   1.932   5.178 -0.5534  2.1031 -0.4671
 2319SOL    HW218420   4.619   1.837   5.058 -1.5882 -0.1615  2.8868
 2320SOL     OW18421   2.160   4.124  11.849 -0.1006 -0.0779  0.6022
 2320SOL    HW118422   2.253   4.143  11.862  0.1758  0.3817 -2.0194
 2320SOL    HW218423   2.145   4.187  11.778  2.2251  1.9213  1.9109
 2321SOL     OW18424   0.050   1.390   3.061  0.2768  0.0354  0.5998
 2321SOL    HW118425   0.109   1.393   3.137  0.3793  1.8299  0.4374
 2321SOL    HW218426   0.110   1.355   2.995 -0.9818  0.5813 -0.8337
 2322SOL     OW18427   0.743   0.307   6.159  0.6980 -0.2116 -0.0823
 2322SOL    HW118428   0.670   0.286   6.099 -0.1236  1.0074  0.4866
 2322SOL    HW218429   0.728   0.237   6.223  1.7263  2.0497  2.5959
 2323SOL     OW18430   2.726   2.392   2.353  0.0994 -0.5469 -0.4630
 2323SOL    HW118431   2.744   2.416   2.262 -0.2717 -1.8565 -0.8900
 2323SOL    HW218432   2.636   2.359   2.346 -0.3001  0.1530  1.5064
 2324SOL     OW18433   2.877   3.404   6.116 -0.0772 -0.0579  0.3157
 2324SOL    HW118434   2.916   3.437   6.035  1.3448 -2.2882  0.1029
 2324SOL    HW218435   2.791   3.372   6.090 -0.2326  0.9088 -0.3853
 2325SOL     OW18436   2.840   4.210   0.007 -0.1927 -0.4459 -0.3632
 2325SOL    HW118437   2.757   4.178   0.042 -0.1394 -1.2147 -0.9302
 2325SOL    HW218438   2.892   4.220   0.087 -0.5542 -4.1579  0.3505
 2326SOL     OW18439   1.656   0.848   6.676 -0.6849  0.2473 -0.1736
 2326SOL    HW118440   1.582   0.800   6.638 -0.3669 -0.5253  0.1749
 2326SOL    HW218441   1.627   0.850   6.767 -1.0470 -1.2674 -0.2476
 2327SOL     OW18442   1.773   0.418  10.453  0.2624 -0.0707  0.0233
 2327SOL    HW118443   1.681   0.408  10.477 -0.0349 -0.7072 -1.3663
 2327SOL    HW218444   1.781   0.505  10.490  0.1063  0.3930 -1.0212
 2328SOL     OW18445   0.195   3.923   3.036 -0.2478 -0.2173  0.5656
 2328SOL    HW118446   0.173   3.850   2.979 -1.1274  1.2813 -1.0060
 2328SOL    HW218447   0.129   3.991   3.025 -1.3153 -1.4546 -0.5210
 2329SOL     OW18448   1.625   4.221   2.953  0.5760  0.0530 -0.3108
 2329SOL    HW118449   1.550   4.274   2.926 -1.2940 -3.1131 -1.3133
 2329SOL    HW218450   1.658   4.225   2.863 -0.5818  0.4597 -0.7168
 2330SOL     OW18451   4.674   2.707   5.479  0.0772 -0.3514 -0.5737
 2330SOL    HW118452   4.665   2.720   5.384 -3.2369 -3.2216 -0.6554
 2330SOL    HW218453   0.009   2.629   5.495  0.2683 -0.1146 -0.0671
 2331SOL     OW18454   3.861   4.186   8.947 -0.1755  0.3415  0.2077
 2331SOL    HW118455   3.795   4.168   8.880  2.0148 -1.3488 -1.5075
 2331SOL    HW218456   3.817   4.260   8.989 -1.7677 -0.2874 -0.3647
 2332SOL     OW18457   2.957   1.553   7.219 -0.2219  0.4233  0.6717
 2332SOL    HW118458   2.904   1.542   7.298  0.5934 -1.4317  0.9392
 2332SOL    HW218459   2.952   1.649   7.220  2.5266  0.5603 -2.8155
 2333SOL     OW18460   3.184   3.544   4.705 -0.0675 -0.1082  0.3217
 2333SOL    HW118461   3.231   3.546   4.621  0.6325  0.1995  0.7192
 2333SOL    HW218462   3.180   3.633   4.739 -0.3753  0.2421 -0.6246
 2334SOL     OW18463   2.931   4.620   0.511  0.1888  0.3869 -0.1661
 2334SOL    HW118464   2.927   4.528   0.536  1.9574  0.4165  0.2247
 2334SOL    HW218465   2.881   4.612   0.429 -0.1052 -0.0727  0.0558
 2335SOL     OW18466   3.001   3.064   6.950 -0.4711 -0.2876 -0.3923
 2335SOL    HW118467   2.986   3.000   7.020  1.4294  0.3945  0.6341
 2335SOL    HW218468   2.923   3.119   6.953 -0.4862 -0.3628  0.8861
 2336SOL     OW18469   2.517   0.362   3.191 -0.1480  0.3375 -0.1725
 2336SOL    HW118470   2.562   0.281   3.216 -0.3823  0.4363  0.5750
 2336SOL    HW218471   2.474   0.383   3.274 -0.1665  0.0174 -0.0985
 2337SOL     OW18472   3.108   1.367   8.193 -0.0921 -0.3608  0.0832
 2337SOL    HW118473   3.155   1.449   8.210 -3.4839  1.9383 -1.5150
 2337SOL    HW218474   3.071   1.364   8.281 -3.8204 -0.1278 -1.4355
 2338SOL     OW18475   0.935   2.990   6.540 -0.6913  0.5044 -0.2775
 2338SOL    HW118476   0.941   3.086   6.535  1.0180  0.3588 -0.9684
 2338SOL    HW218477   0.963   2.972   6.451 -0.2614 -1.9994  0.3716
 2339SOL     OW18478   2.900   2.915   7.994 -0.5841  0.0552  0.4389
 2339SOL    HW118479   2.939   2.848   8.050 -0.8855  1.9341  2.8906
 2339SOL    HW218480   2.810   2.885   8.005  0.0503 -1.0254  2.7339
 2340SOL     OW18481   0.259   4.444  15.144  0.2350 -0.1178 -0.1324
 2340SOL    HW118482   0.295   4.362  15.110  1.6297  0.3502  0.2230
 2340SOL    HW218483   0.310   4.505  15.092 -0.4866 -0.1530 -0.8841
 2341SOL     OW18484   4.260   1.188  17.540  0.2836  0.1137 -0.6377
 2341SOL    HW118485   4.215   1.115  17.584  1.7499 -1.0743 -1.0945
 2341SOL    HW218486   4.346   1.151  17.521  0.4561 -0.5175  1.3476
 2342SOL     OW18487   0.878   2.381   5.944  0.1898 -0.5507  0.2290
 2342SOL    HW118488   0.845   2.376   6.033 -2.6039  1.3449 -0.7114
 2342SOL    HW218489   0.803   2.345   5.898  1.6102 -1.1019 -1.6739
 2343SOL     OW18490   4.262   1.600   6.743 -0.6388  0.4762 -0.0645
 2343SOL    HW118491   4.230   1.520   6.700 -1.1527  0.7103 -0.1195
 2343SOL    HW218492   4.356   1.597   6.728 -0.8117 -2.3425 -0.6308
 2344SOL     OW18493   4.383   4.409   8.403  0.2817 -0.3914 -0.0063
 2344SOL    HW118494   4.408   4.393   8.312 -0.1452  3.1821 -0.7611
 2344SOL    HW218495   4.465   4.439   8.443  1.6434 -0.9826 -2.3896
 2345SOL     OW18496   0.859   3.980   4.417  0.1514 -0.0533  0.1993
 2345SOL    HW118497   0.946   3.970   4.378 -0.5822 -4.4653 -0.2866
 2345SOL    HW218498   0.843   4.063   4.371  1.3184 -0.9629 -1.8590
 2346SOL     OW18499   0.499   4.028   3.112  0.4597 -0.2373  0.2555
 2346SOL    HW118500   0.435   3.969   3.073 -0.3695 -0.5006  2.0108
 2346SOL    HW218501   0.458   4.059   3.193  0.2243  0.0967  0.0038
 2347SOL     OW18502   3.587   0.263   6.217 -0.3795  0.0604 -0.6937
 2347SOL    HW118503   3.529   0.234   6.288  2.4292 -0.7268  1.2574
 2347SOL    HW218504   3.646   0.319   6.266 -1.0373  0.9177 -0.8922
 2348SOL     OW18505   1.006   0.925   6.003  0.6499 -0.4786  0.3582
 2348SOL    HW118506   1.040   0.836   6.002  0.5746 -0.5170  1.0538
 2348SOL    HW218507   1.079   0.986   6.007 -1.4198  2.0426 -0.5994
 2349SOL     OW18508   3.811   3.264   1.984  0.4919  0.1821 -0.2753
 2349SOL    HW118509   3.733   3.214   1.959  0.8928 -0.0820 -0.9912
 2349SOL    HW218510   3.869   3.189   1.986 -1.7756 -1.4871  2.4055
 2350SOL     OW18511   1.432   3.178   7.598 -0.0719 -0.5739 -0.1223
 2350SOL    HW118512   1.456   3.238   7.527  0.7681  1.3886  1.8059
 2350SOL    HW218513   1.458   3.232   7.673  0.8043  0.7749 -1.3986
 2351SOL     OW18514   4.046   2.184   2.200  0.2233  0.0479  0.0665
 2351SOL    HW118515   3.957   2.156   2.223 -0.1622  1.0620 -0.1891
 2351SOL    HW218516   4.095   2.105   2.177  0.3150  0.1199  0.0134
 2352SOL     OW18517   0.203   3.693   5.496 -0.4248 -0.1805 -0.3812
 2352SOL    HW118518   0.188   3.601   5.476  2.8312 -0.3829 -1.7809
 2352SOL    HW218519   0.213   3.729   5.408  3.1598  1.6276  0.7601
 2353SOL     OW18520   2.268   1.450  13.685 -0.4447  0.0007  0.1091
 2353SOL    HW118521   2.250   1.364  13.725 -0.8523 -0.9820 -2.2198
 2353SOL    HW218522   2.179   1.484  13.690 -1.4103 -2.4768 -0.4702
 2354SOL     OW18523   2.768   4.589   8.640  0.3402 -0.4914 -0.1160
 2354SOL    HW118524   2.773   4.497   8.611 -0.6579 -1.0557  1.5220
 2354SOL    HW218525   2.733   4.579   8.728  0.6876 -1.6989 -0.1036
 2355SOL     OW18526   0.844   2.803   1.086 -0.4632  0.1544 -0.0319
 2355SOL    HW118527   0.816   2.714   1.109  0.3841 -0.0636  0.1632
 2355SOL    HW218528   0.811   2.809   0.996  0.4493 -0.4925 -0.4205
 2356SOL     OW18529   1.520   4.475  11.459 -0.1041  0.1176  0.0298
 2356SOL    HW118530   1.500   4.447  11.548  0.7051 -0.4780  0.0236
 2356SOL    HW218531   1.611   4.504  11.467 -1.1472  3.4255  0.1153
 2357SOL     OW18532   3.126   0.549   4.765  1.0119 -0.0919  0.3903
 2357SOL    HW118533   3.211   0.591   4.754 -0.3001  2.6453  0.6173
 2357SOL    HW218534   3.153   0.461   4.741  0.9173  0.1035 -0.4414
 2358SOL     OW18535   1.075   2.387   5.536 -0.6189 -0.5786  0.4506
 2358SOL    HW118536   1.094   2.337   5.456 -0.4299 -0.4424  0.4091
 2358SOL    HW218537   0.985   2.360   5.555 -1.1549 -0.0455 -1.3433
 2359SOL     OW18538   3.574   2.318  15.543  0.3944  0.0394 -0.6649
 2359SOL    HW118539   3.582   2.407  15.509  2.6833 -0.0846 -0.4723
 2359SOL    HW218540   3.552   2.339  15.634 -0.7800  0.1600 -0.9814
 2360SOL     OW18541   3.101   2.414   3.381  0.4667 -0.0175 -0.6025
 2360SOL    HW118542   3.037   2.455   3.439 -0.0849 -3.2339  1.0991
 2360SOL    HW218543   3.071   2.466   3.307 -1.1465 -0.0891 -0.0005
 2361SOL     OW18544   3.280   3.847  11.496  0.4055  0.2339  0.2990
 2361SOL    HW118545   3.233   3.765  11.483 -0.0653  0.2756  1.6869
 2361SOL    HW218546   3.217   3.899  11.546 -1.5605 -1.9194  0.0443
 2362SOL     OW18547   1.357   4.568   4.392  0.6083 -0.1589  0.3741
 2362SOL    HW118548   1.365   4.562   4.487 -1.1763  0.7564  0.5835
 2362SOL    HW218549   1.337   4.660   4.375 -0.7540 -0.3070  1.1919
 2363SOL     OW18550   2.351   0.474   5.288  0.0068 -0.1287  0.8948
 2363SOL    HW118551   2.381   0.506   5.203 -0.7441 -1.4680  0.1360
 2363SOL    HW218552   2.373   0.381   5.278  0.4401 -0.1184  1.7669
 2364SOL     OW18553   3.783   2.245  16.672  0.3873  1.1462 -0.3254
 2364SOL    HW118554   3.832   2.167  16.646  0.8857  0.8731  1.4916
 2364SOL    HW218555   3.851   2.311  16.654 -0.0149  1.8113  0.5931
 2365SOL     OW18556   2.117   4.603  15.680 -0.3555  0.1773 -0.4123
 2365SOL    HW118557   2.049   4.624  15.616  0.0198 -0.1727 -0.9296
 2365SOL    HW218558   2.066   4.572  15.754 -2.0000 -0.9063 -2.0055
 2366SOL     OW18559   0.625   4.399  12.415 -0.0384  0.5172 -0.7097
 2366SOL    HW118560   0.584   4.353  12.343  0.1633 -0.0914 -0.4423
 2366SOL    HW218561   0.552   4.382  12.475 -1.0705 -0.5019 -2.2696
 2367SOL     OW18562   3.423   0.533   4.047  0.5006  0.3828 -0.0485
 2367SOL    HW118563   3.422   0.441   4.072  0.3585 -0.0750 -1.7500
 2367SOL    HW218564   3.462   0.526   3.960 -0.5986 -0.8123 -0.4472
 2368SOL     OW18565   3.374   4.607   1.316  0.7344 -0.2745  0.2072
 2368SOL    HW118566   3.350   4.515   1.327  1.4192 -0.3576  1.0657
 2368SOL    HW218567   3.383   4.613   1.221 -0.3467 -0.9679  0.0616
 2369SOL     OW18568   0.379   4.616   6.512  0.5021 -0.6562  0.0610
 2369SOL    HW118569   0.392   4.590   6.421 -0.6247 -0.8285 -0.0480
 2369SOL    HW218570   0.309   4.678   6.493  1.4779  0.8015  1.1820
 2370SOL     OW18571   3.260   3.927  16.022  0.2107  0.1605  0.0282
 2370SOL    HW118572   3.246   3.843  15.979 -0.4673  0.4974 -0.4107
 2370SOL    HW218573   3.259   3.901  16.115 -1.5610  0.7129  0.1619
 2371SOL     OW18574   0.638   2.676  14.190  0.2642 -0.2564  0.0947
 2371SOL    HW118575   0.670   2.586  14.189 -0.1586 -0.3993 -1.0441
 2371SOL    HW218576   0.555   2.676  14.238  0.4977  0.7734  0.5101
 2372SOL     OW18577   3.814   4.079  14.945  0.1283  0.0828 -0.4988
 2372SOL    HW118578   3.861   3.998  14.924 -1.8623 -1.4925  1.0985
 2372SOL    HW218579   3.881   4.136  14.981  0.1787 -0.4654  0.2777
 2373SOL     OW18580   4.042   1.637   5.729 -0.4067 -0.1945 -0.0965
 2373SOL    HW118581   4.027   1.685   5.811  0.2320 -0.0630 -0.0569
 2373SOL    HW218582   4.101   1.568   5.758  0.4184 -0.3819 -2.2597
 2374SOL     OW18583   2.056   3.937   0.547  0.5647  0.3199 -0.4517
 2374SOL    HW118584   2.012   3.954   0.631 -0.0230 -1.1482 -0.4664
 2374SOL    HW218585   2.122   4.006   0.541  0.1868  0.8319  1.1538
 2375SOL     OW18586   1.477   0.585   5.681  0.4443  0.0497  0.5374
 2375SOL    HW118587   1.498   0.677   5.692 -1.1858  0.6138 -1.1426
 2375SOL    HW218588   1.535   0.541   5.744  0.1712 -1.9528 -0.6026
 2376SOL     OW18589   2.303   0.974  10.314 -0.0053 -0.0143 -0.6493
 2376SOL    HW118590   2.230   0.939  10.262  0.1088 -0.8969 -0.2144
 2376SOL    HW218591   2.303   1.066  10.290 -0.6832  0.1652  0.0530
 2377SOL     OW18592   0.439   0.739   8.260 -0.8583  0.1181 -0.6439
 2377SOL    HW118593   0.501   0.746   8.187 -0.2198 -0.1313 -0.1182
 2377SOL    HW218594   0.483   0.793   8.325 -0.9496 -1.5723  0.8112
 2378SOL     OW18595   0.789   2.119   6.673 -0.1654  0.7530 -0.1576
 2378SOL    HW118596   0.740   2.142   6.752  0.3906 -2.6217  1.1751
 2378SOL    HW218597   0.864   2.069   6.707 -0.7859 -0.8733 -1.1740
 2379SOL     OW18598   1.306   3.137   3.734 -0.6844  0.2245 -0.0141
 2379SOL    HW118599   1.367   3.063   3.729 -0.5176  0.2825  1.1828
 2379SOL    HW218600   1.250   3.110   3.807  1.3557  1.2639  1.9345
 2380SOL     OW18601   0.889   1.635   4.456  0.0994  0.0888  0.3262
 2380SOL    HW118602   0.893   1.726   4.426 -2.1581 -0.1112 -0.5688
 2380SOL    HW218603   0.819   1.612   4.395  0.0021  1.8333 -0.2195
 2381SOL     OW18604   1.224   1.991   3.132 -0.2786 -0.5538 -0.0756
 2381SOL    HW118605   1.183   2.019   3.051  1.3851 -0.0338 -0.7408
 2381SOL    HW218606   1.152   2.013   3.191  0.8278 -1.2753  1.5440
 2382SOL     OW18607   1.985   3.097   5.019 -0.4441 -0.0418 -0.4177
 2382SOL    HW118608   2.074   3.067   5.036 -0.2281  0.8867  0.0815
 2382SOL    HW218609   2.009   3.109   4.927 -0.1665 -1.4681 -0.5305
 2383SOL     OW18610   0.804   2.548   5.432  0.3315  0.3776  0.0709
 2383SOL    HW118611   0.831   2.512   5.348  2.2966  1.9185  0.0453
 2383SOL    HW218612   0.811   2.481   5.500 -1.9716  1.0903  1.0156
 2384SOL     OW18613   0.675   4.491  15.047  0.3909  0.1881 -0.2024
 2384SOL    HW118614   0.712   4.541  14.974  0.3550  0.9224  0.2756
 2384SOL    HW218615   0.750   4.438  15.074 -0.0476  1.1260  2.8850
 2385SOL     OW18616   4.249   4.348   2.737 -0.4773 -0.0984 -0.1349
 2385SOL    HW118617   4.206   4.309   2.813  3.3549 -1.3491  1.3970
 2385SOL    HW218618   4.188   4.422   2.729 -0.0039  0.3759  0.6392
 2386SOL     OW18619   0.701   0.448  17.348  0.1303  0.4320 -0.3677
 2386SOL    HW118620   0.782   0.397  17.345 -0.6210 -0.9042  1.9571
 2386SOL    HW218621   0.702   0.484  17.259 -0.4081  1.1719 -0.0814
 2387SOL     OW18622   3.484   0.596   9.292  0.1053 -0.3601 -0.6448
 2387SOL    HW118623   3.530   0.588   9.209 -1.9882  0.2956 -1.8667
 2387SOL    HW218624   3.443   0.681   9.277 -0.2523 -0.0325  2.0668
 2388SOL     OW18625   0.849   0.984   2.914 -0.3211  0.1930 -0.1936
 2388SOL    HW118626   0.777   0.988   2.977  0.3067  1.0825  0.4802
 2388SOL    HW218627   0.895   1.047   2.970  1.0198 -0.6981 -0.3069
 2389SOL     OW18628   1.736   3.822  14.796  0.1330 -0.0309 -0.0092
 2389SOL    HW118629   1.745   3.909  14.757 -1.1804  0.2864  0.3921
 2389SOL    HW218630   1.812   3.819  14.855 -2.5044 -1.7743  3.3320
 2390SOL     OW18631   3.723   2.338  13.586  0.3266  0.4004 -0.5029
 2390SOL    HW118632   3.689   2.251  13.605  0.9563  0.5284  1.1769
 2390SOL    HW218633   3.660   2.359  13.517 -1.7346  1.8432  1.8546
 2391SOL     OW18634   3.573   1.739   9.551 -0.5895  0.5262 -0.0077
 2391SOL    HW118635   3.497   1.715   9.498 -0.7657  0.4685  0.2691
 2391SOL    HW218636   3.584   1.832   9.532 -0.3870  0.3202 -0.8693
 2392SOL     OW18637   0.129   4.448   5.256 -0.7776  0.4646  0.2120
 2392SOL    HW118638   0.135   4.436   5.161  1.3723  0.0614  0.4049
 2392SOL    HW218639   0.065   4.380   5.277  1.5133 -1.2179  1.7371
 2393SOL     OW18640   1.920   1.824   3.448 -0.5192  0.3440  0.1600
 2393SOL    HW118641   1.975   1.866   3.514  0.3290  0.5873 -0.6968
 2393SOL    HW218642   1.987   1.820   3.379 -2.6126 -0.2496 -1.8364
 2394SOL     OW18643   4.469   3.398   2.453 -0.1478  0.0593 -0.4243
 2394SOL    HW118644   4.435   3.345   2.525  2.7266  0.0847  0.9417
 2394SOL    HW218645   4.396   3.459   2.447 -0.7011 -0.5883 -0.2434
 2395SOL     OW18646   3.690   0.568  10.291  0.0604 -0.0880 -0.3131
 2395SOL    HW118647   3.785   0.560  10.300  0.2387  0.5554 -1.5774
 2395SOL    HW218648   3.664   0.657  10.314  0.1488 -0.9411  3.1901
 2396SOL     OW18649   3.722   0.488   0.954 -0.1079 -0.5896  0.2370
 2396SOL    HW118650   3.650   0.538   0.915  0.4347 -0.0941 -0.1293
 2396SOL    HW218651   3.743   0.427   0.882  1.3401 -0.3275  0.4278
 2397SOL     OW18652   1.418   1.863   4.317 -0.0234  0.3252  0.1312
 2397SOL    HW118653   1.390   1.868   4.408 -0.5048  0.2226 -0.0109
 2397SOL    HW218654   1.371   1.939   4.284 -0.9770 -0.5220 -0.4694
 2398SOL     OW18655   3.590   0.987   7.664  0.7228  0.3104 -0.1392
 2398SOL    HW118656   3.585   0.948   7.752 -0.8662  2.8122  0.8881
 2398SOL    HW218657   3.649   0.928   7.617  0.1592  0.9200 -1.6026
 2399SOL     OW18658   4.360   1.454   5.934  0.0693 -0.2344 -0.2738
 2399SOL    HW118659   4.290   1.393   5.910 -1.6531  1.0540  1.4608
 2399SOL    HW218660   4.429   1.391   5.951  0.3605  0.3364  0.6438
 2400SOL     OW18661   2.842   0.929   6.469 -0.1679 -0.8779  0.4796
 2400SOL    HW118662   2.825   1.020   6.494 -1.1201 -0.9204 -0.0316
 2400SOL    HW218663   2.813   0.926   6.378  0.3577 -0.4989  0.2929
 2401SOL     OW18664   1.588   3.196   6.860 -0.2074 -0.0708  0.3498
 2401SOL    HW118665   1.604   3.119   6.806  2.1505 -0.7313  1.9935
 2401SOL    HW218666   1.592   3.271   6.801  1.2148 -1.5102 -1.3855
 2402SOL     OW18667   0.493   1.898   2.202 -0.0640  0.1566 -0.0752
 2402SOL    HW118668   0.479   1.970   2.141 -2.1428  1.0537  1.4675
 2402SOL    HW218669   0.427   1.837   2.170  1.4810 -0.7872 -1.4946
 2403SOL     OW18670   4.612   1.093   3.815 -0.3386  0.1012 -0.9082
 2403SOL    HW118671   4.563   1.173   3.794  0.5511  0.7991 -0.3044
 2403SOL    HW218672   4.698   1.113   3.778 -1.3195 -0.7979 -3.7353
 2404SOL     OW18673   2.435   4.567   3.533  0.3231  0.1422 -0.0704
 2404SOL    HW118674   2.452   4.511   3.609 -2.5784 -1.8866 -0.8917
 2404SOL    HW218675   2.339   4.573   3.527  0.4697  0.3703 -2.1691
 2405SOL     OW18676   1.952   0.210   3.892  0.3117 -0.4177 -0.0400
 2405SOL    HW118677   1.970   0.118   3.911 -0.5520 -1.0468 -2.3518
 2405SOL    HW218678   2.036   0.253   3.907  1.0865 -1.9925  0.2078
 2406SOL     OW18679   2.590   2.227  11.105 -0.4655 -0.1279  0.2723
 2406SOL    HW118680   2.608   2.154  11.046 -0.0667  0.4503 -0.3200
 2406SOL    HW218681   2.523   2.188  11.161 -0.9197  1.5893  0.9303
 2407SOL     OW18682   2.196   3.785   8.898 -0.0800 -0.0594  0.2219
 2407SOL    HW118683   2.200   3.837   8.978 -2.5715  0.9145 -0.3141
 2407SOL    HW218684   2.237   3.703   8.927  1.6665  0.6274 -0.3301
 2408SOL     OW18685   2.932   3.659   9.144 -0.0182 -0.0061  0.0377
 2408SOL    HW118686   2.871   3.698   9.206  0.7877  1.3642 -0.0303
 2408SOL    HW218687   2.921   3.718   9.069  0.4598 -2.5101 -2.0249
 2409SOL     OW18688   0.552   1.168   7.838  0.5978  0.4570  0.0529
 2409SOL    HW118689   0.498   1.142   7.913 -0.8787  1.1233 -0.7762
 2409SOL    HW218690   0.512   1.242   7.792 -0.9625 -0.9903 -0.9298
 2410SOL     OW18691   3.344   3.460   4.483  0.1223  0.1901 -0.1103
 2410SOL    HW118692   3.400   3.403   4.430  0.4028  1.3834 -1.0968
 2410SOL    HW218693   3.380   3.541   4.447 -0.0516  0.7111  0.8970
 2411SOL     OW18694   4.394   3.181   2.672 -0.2458  0.5004 -0.7004
 2411SOL    HW118695   4.303   3.166   2.699  0.7193  0.0273  2.3597
 2411SOL    HW218696   4.432   3.106   2.720 -0.1650 -0.6995 -2.6426
 2412SOL     OW18697   1.533   4.495   1.329 -0.3663 -0.1961  0.4119
 2412SOL    HW118698   1.471   4.436   1.285  1.3983 -1.4572 -0.4278
 2412SOL    HW218699   1.570   4.434   1.393  1.3405  2.0857  1.5902
 2413SOL     OW18700   0.961   0.012   3.383 -0.3708 -0.4276  0.2294
 2413SOL    HW118701   1.023   0.023   3.456 -0.7514 -0.7774  0.6026
 2413SOL    HW218702   0.904   0.089   3.383 -1.6325 -1.3795 -0.3016
 2414SOL     OW18703   3.738   2.177  12.909  0.2897 -0.3969  0.0360
 2414SOL    HW118704   3.731   2.117  12.983 -0.0592 -1.5612 -0.9365
 2414SOL    HW218705   3.690   2.251  12.946  2.8737  0.3748  1.8772
 2415SOL     OW18706   2.791   2.953   6.012  0.1440 -0.0427 -0.0573
 2415SOL    HW118707   2.860   2.962   6.078  0.8266  2.1659 -1.0615
 2415SOL    HW218708   2.750   2.872   6.043 -0.8803  0.3744 -0.2939
 2416SOL     OW18709   0.240   0.850   3.850  0.2801 -0.2416  0.3562
 2416SOL    HW118710   0.238   0.804   3.933  0.1189 -0.8028  0.0405
 2416SOL    HW218711   0.237   0.778   3.787  0.4403  1.6334 -1.8013
 2417SOL     OW18712   4.024   1.533  16.675  0.5588  0.0714 -0.3166
 2417SOL    HW118713   4.012   1.528  16.581  0.2227 -0.6197 -0.2340
 2417SOL    HW218714   3.958   1.599  16.699 -0.7225 -0.9184 -1.1830
 2418SOL     OW18715   4.278   2.452   1.884  0.6045  0.1847 -0.1110
 2418SOL    HW118716   4.277   2.539   1.923 -0.0298  1.8677 -3.8903
 2418SOL    HW218717   4.282   2.473   1.791 -1.4758 -1.1597 -0.5069
 2419SOL     OW18718   3.552   4.316   5.274 -0.3654  0.4969  0.1277
 2419SOL    HW118719   3.485   4.373   5.235  0.3167  0.6279 -0.8530
 2419SOL    HW218720   3.564   4.252   5.205  2.0792  0.9108  0.1563
 2420SOL     OW18721   1.280   1.948   7.077 -1.3993 -0.3536  0.7470
 2420SOL    HW118722   1.315   1.939   6.989  3.5105 -0.1322  2.6823
 2420SOL    HW218723   1.267   2.043   7.073  0.7209 -0.0625  1.0250
 2421SOL     OW18724   1.405   0.236  13.643 -0.1972 -0.2215 -0.1587
 2421SOL    HW118725   1.491   0.194  13.635  0.0420 -0.0788  1.5033
 2421SOL    HW218726   1.360   0.183  13.709 -0.5637  2.0527  1.4397
 2422SOL     OW18727   3.727   2.012   4.214  0.1899  0.0401  0.3651
 2422SOL    HW118728   3.730   1.938   4.274 -1.8705 -0.5345 -0.2227
 2422SOL    HW218729   3.640   2.044   4.239  0.1990 -0.2412  0.7482
 2423SOL     OW18730   0.494   0.829   3.205  0.2814  0.8522 -0.4283
 2423SOL    HW118731   0.560   0.794   3.266  1.6825  0.6766 -2.0511
 2423SOL    HW218732   0.426   0.761   3.203 -0.2405  1.3753 -0.3004
 2424SOL     OW18733   0.541   0.380   7.450  0.0742 -0.5173  0.2074
 2424SOL    HW118734   0.589   0.432   7.515 -0.4074 -1.1327  1.0538
 2424SOL    HW218735   0.601   0.311   7.424 -0.4556 -0.7681 -0.3630
 2425SOL     OW18736   4.375   2.535   4.101 -0.5209  0.4084 -0.9428
 2425SOL    HW118737   4.366   2.443   4.073  0.1741  0.1643 -0.3463
 2425SOL    HW218738   4.290   2.551   4.141 -0.4317 -0.8133 -0.2563
 2426SOL     OW18739   2.034   0.527   1.704 -0.1198  0.8436  0.0628
 2426SOL    HW118740   2.114   0.511   1.654 -0.8977 -1.7556 -0.3966
 2426SOL    HW218741   1.965   0.486   1.652  1.4215 -1.7720  0.0405
 2427SOL     OW18742   2.443   4.346   8.575  0.1047  0.0960  0.5508
 2427SOL    HW118743   2.475   4.405   8.642  1.7192  1.0799 -1.0861
 2427SOL    HW218744   2.478   4.401   8.504  0.5305  2.8389  2.8927
 2428SOL     OW18745   4.703   2.615   7.116  0.2567 -0.2298  0.5066
 2428SOL    HW118746   4.712   2.707   7.091  1.7695 -0.3965  0.3946
 2428SOL    HW218747   4.640   2.624   7.187 -1.1970 -4.3420 -0.2464
 2429SOL     OW18748   2.215   0.183  14.441  0.1806  0.1824 -0.1876
 2429SOL    HW118749   2.236   0.204  14.532 -0.2551 -0.8911  0.1586
 2429SOL    HW218750   2.306   0.185  14.412  0.1150  2.8565 -0.1627
 2430SOL     OW18751   0.415   2.052   6.592  0.2217  0.9156 -0.3415
 2430SOL    HW118752   0.321   2.070   6.597  0.2585  1.1295 -0.4359
 2430SOL    HW218753   0.437   2.056   6.499 -2.7780 -1.1260 -1.1312
 2431SOL     OW18754   3.081   1.090   5.317 -0.5322 -0.0691  0.1223
 2431SOL    HW118755   3.133   1.033   5.260  0.2448  1.8772 -1.1193
 2431SOL    HW218756   2.997   1.076   5.275  0.8149 -1.6273 -2.0313
 2432SOL     OW18757   1.644   0.257   4.007 -0.2069 -0.2557  0.1046
 2432SOL    HW118758   1.671   0.199   4.079  1.1353  0.0854 -0.1265
 2432SOL    HW218759   1.729   0.293   3.983  0.7751 -0.1274  3.6843
 2433SOL     OW18760   1.857   4.073   5.868 -0.1054 -0.1637  0.2759
 2433SOL    HW118761   1.856   4.010   5.797  1.4566  0.2008 -0.0567
 2433SOL    HW218762   1.841   4.013   5.940  0.7295  0.3237  0.8654
 2434SOL     OW18763   4.273   2.613   5.930  1.1710 -0.2327 -0.2609
 2434SOL    HW118764   4.305   2.630   6.018  2.3661  0.2670 -0.7976
 2434SOL    HW218765   4.336   2.548   5.901  1.0792 -0.3642 -0.1633
 2435SOL     OW18766   2.960   0.766   7.597  0.0912  0.1098 -0.1184
 2435SOL    HW118767   3.055   0.758   7.605  0.1455  0.6327 -0.2307
 2435SOL    HW218768   2.922   0.702   7.657 -2.5685  0.3133 -1.5866
 2436SOL     OW18769   0.164   4.617   7.631  0.6955 -0.3283  0.4497
 2436SOL    HW118770   0.069   4.613   7.618  0.9359  0.8415 -1.6577
 2436SOL    HW218771   0.181   4.523   7.633 -1.7255 -0.7750  0.1663
 2437SOL     OW18772   3.796   3.361   6.716  0.7763 -0.1331  0.3159
 2437SOL    HW118773   3.890   3.357   6.732  0.8260 -0.1455  0.0262
 2437SOL    HW218774   3.767   3.270   6.708 -0.9431  0.3519  0.8768
 2438SOL     OW18775   1.160   0.329   3.006  0.4218 -0.4440 -0.7320
 2438SOL    HW118776   1.205   0.409   2.979 -0.3188  0.2735  0.1436
 2438SOL    HW218777   1.190   0.261   2.946 -0.1658  1.1783 -2.8938
 2439SOL     OW18778   3.335   4.219   4.920 -0.2227  0.1770 -0.1337
 2439SOL    HW118779   3.288   4.238   4.838 -1.8532 -1.0896  0.5025
 2439SOL    HW218780   3.261   4.239   4.977  1.4894  0.7681  1.8922
 2440SOL     OW18781   4.126   2.651   7.376  1.0175 -0.3607  0.1775
 2440SOL    HW118782   4.050   2.599   7.352  1.1502  0.1157 -1.2505
 2440SOL    HW218783   4.165   2.600   7.447  0.6661  0.2029  0.7783
 2441SOL     OW18784   0.769   2.736  15.101 -0.4051  0.2726 -0.4277
 2441SOL    HW118785   0.702   2.671  15.121  0.8335 -1.7750 -2.9312
 2441SOL    HW218786   0.844   2.694  15.142 -1.7993 -0.4470  1.3342
 2442SOL     OW18787   4.239   0.885   3.101  1.3289 -0.1097 -0.0912
 2442SOL    HW118788   4.307   0.940   3.062 -0.3236  2.8660  1.2193
 2442SOL    HW218789   4.177   0.876   3.029  0.3104  2.3107  0.4863
 2443SOL     OW18790   3.798   1.405   3.031 -0.2466 -0.1188 -0.1209
 2443SOL    HW118791   3.787   1.435   2.941 -1.1230  1.6323  0.5704
 2443SOL    HW218792   3.819   1.312   3.030 -0.9303 -0.2514 -1.3619
 2444SOL     OW18793   4.460   1.991   7.517 -0.1322 -0.0146  0.1187
 2444SOL    HW118794   4.463   1.928   7.590 -2.4263 -0.4093 -0.1323
 2444SOL    HW218795   4.549   1.992   7.482  0.2526  1.0944  1.1220
 2445SOL     OW18796   2.877   3.036   0.677  0.3008 -0.2309  0.7443
 2445SOL    HW118797   2.812   3.099   0.643  0.4408 -1.7944 -2.4068
 2445SOL    HW218798   2.895   2.990   0.595  0.6412 -3.0117  2.4108
 2446SOL     OW18799   0.428   4.671   3.366  0.6262 -0.6549 -0.0039
 2446SOL    HW118800   0.495   4.642   3.304  1.1877 -0.4441  0.5041
 2446SOL    HW218801   0.448   4.607   3.435  1.2134  0.4259  0.8319
 2447SOL     OW18802   0.081   0.182   8.718  0.4173 -0.0040  0.0188
 2447SOL    HW118803   4.709   0.161   8.693 -0.2938  2.0800  0.8020
 2447SOL    HW218804   0.116   0.106   8.763  2.2300  1.8320  1.6963
 2448SOL     OW18805   2.759   0.940   6.198  0.5677  0.5485 -0.1151
 2448SOL    HW118806   2.765   0.868   6.135  0.4527 -0.5399  1.1240
 2448SOL    HW218807   2.670   0.967   6.172  1.2617  0.4596 -2.6266
 2449SOL     OW18808   3.062   1.263  13.550 -0.6808  0.6789 -0.7467
 2449SOL    HW118809   3.097   1.235  13.465 -1.9762 -0.4141 -0.9252
 2449SOL    HW218810   3.034   1.178  13.584  3.5495 -0.9001 -1.1352
 2450SOL     OW18811   3.125   1.466   4.758 -0.3069  0.2872 -0.3269
 2450SOL    HW118812   3.192   1.532   4.742  1.0876 -0.3360  2.7052
 2450SOL    HW218813   3.046   1.519   4.759  0.9647  2.1867 -0.7757
 2451SOL     OW18814   0.460   4.321   5.560 -0.1972 -0.0006 -0.2913
 2451SOL    HW118815   0.417   4.406   5.555 -1.4910 -0.6066  0.4416
 2451SOL    HW218816   0.394   4.272   5.609 -0.5522 -1.6968 -2.4936
 2452SOL     OW18817   4.545   1.231   9.433 -0.5084 -0.0567  0.5142
 2452SOL    HW118818   4.620   1.231   9.373 -0.9094 -4.8322  0.0228
 2452SOL    HW218819   4.541   1.322   9.463  0.2492  0.5287 -1.1712
 2453SOL     OW18820   3.188   3.638   6.170 -0.7600 -0.1711 -0.7725
 2453SOL    HW118821   3.246   3.625   6.094  0.8716  0.4259  0.3609
 2453SOL    HW218822   3.136   3.559   6.180 -0.8071 -0.0641 -0.1945
 2454SOL     OW18823   3.146   2.029   4.321  0.3099  0.6438 -0.0313
 2454SOL    HW118824   3.083   2.035   4.392 -0.1946 -3.1200 -0.1408
 2454SOL    HW218825   3.092   2.072   4.254 -0.6492  0.2739  0.5145
 2455SOL     OW18826   4.209   2.075   7.582 -0.1819 -0.1475 -0.2253
 2455SOL    HW118827   4.218   2.167   7.606 -0.6677 -0.0876 -0.2839
 2455SOL    HW218828   4.297   2.056   7.550 -0.1634  1.6177 -1.2406
 2456SOL     OW18829   0.492   4.105   4.790  0.5330 -0.0087  0.6157
 2456SOL    HW118830   0.518   4.177   4.847  1.1899  0.9826 -0.9124
 2456SOL    HW218831   0.509   4.032   4.849  0.5719 -0.9566 -0.5523
 2457SOL     OW18832   3.460   1.918  10.674  0.0499  0.1313 -0.1553
 2457SOL    HW118833   3.445   1.991  10.615  0.9848  0.7641  0.3826
 2457SOL    HW218834   3.388   1.921  10.737  0.6382 -1.1963  0.5857
 2458SOL     OW18835   4.112   3.872  13.843 -0.0190  0.4395 -0.5723
 2458SOL    HW118836   4.019   3.856  13.831  0.0713 -1.0830  0.7324
 2458SOL    HW218837   4.148   3.816  13.774 -0.9152  1.3124 -1.7477
 2459SOL     OW18838   3.878   2.608  10.936 -0.0763  0.6632  0.6593
 2459SOL    HW118839   3.971   2.632  10.944  0.9146 -2.6311 -0.8282
 2459SOL    HW218840   3.843   2.697  10.941 -0.3106  0.5647  0.7255
 2460SOL     OW18841   1.666   3.749   2.596 -0.0333  0.5714 -0.2630
 2460SOL    HW118842   1.742   3.755   2.538 -0.6986  1.9842 -0.9913
 2460SOL    HW218843   1.699   3.806   2.666 -1.2610 -0.7312  1.3704
 2461SOL     OW18844   3.229   2.834   3.482 -0.1646  0.4298  0.1715
 2461SOL    HW118845   3.155   2.889   3.510 -0.8817 -1.4973  2.1058
 2461SOL    HW218846   3.214   2.831   3.388 -2.7962  0.3983  0.5695
 2462SOL     OW18847   4.610   1.544   0.276  0.2906  0.5007 -0.1546
 2462SOL    HW118848   4.680   1.496   0.320 -1.7553 -1.7315  0.7004
 2462SOL    HW218849   4.597   1.495   0.194  1.5494 -1.2561  0.6787
 2463SOL     OW18850   2.683   1.282   9.247  0.1598  0.0428  0.0548
 2463SOL    HW118851   2.592   1.310   9.246  0.3295  0.6427  0.8317
 2463SOL    HW218852   2.727   1.367   9.234 -1.0361  0.3055 -2.1674
 2464SOL     OW18853   1.070   1.392  10.252 -0.0163  0.6542 -0.4943
 2464SOL    HW118854   1.027   1.477  10.263 -2.2943 -0.5948  0.2245
 2464SOL    HW218855   1.047   1.356  10.338 -0.1692  0.0329 -0.7932
 2465SOL     OW18856   3.385   0.176   5.964  0.3910  0.2907  0.0303
 2465SOL    HW118857   3.420   0.099   5.918 -0.2436 -0.7993  1.3728
 2465SOL    HW218858   3.339   0.150   6.044  0.3303  2.0883  0.5744
 2466SOL     OW18859   4.423   0.731  13.046 -0.1801  0.1971  0.2447
 2466SOL    HW118860   4.500   0.674  13.037  0.4221  1.2633 -1.3973
 2466SOL    HW218861   4.399   0.714  13.137 -1.1248 -0.0943 -0.0636
 2467SOL     OW18862   2.744   1.214   7.221 -0.1282  0.4566  0.0061
 2467SOL    HW118863   2.734   1.131   7.268  0.6576  0.3323 -0.0406
 2467SOL    HW218864   2.798   1.266   7.281  2.0431 -1.7675  0.0040
 2468SOL     OW18865   2.691   0.738   9.754 -0.2354 -0.0355 -0.4531
 2468SOL    HW118866   2.694   0.712   9.846 -2.2030  1.3611 -0.0089
 2468SOL    HW218867   2.684   0.832   9.764  0.7566 -0.1440  1.2231
 2469SOL     OW18868   3.094   2.527   3.889  0.3083 -0.6406  0.3268
 2469SOL    HW118869   3.048   2.463   3.836  1.3147 -1.5915  0.5859
 2469SOL    HW218870   3.175   2.518   3.838 -1.1403  0.1324 -2.0804
 2470SOL     OW18871   1.502   2.149   9.079 -0.2854  0.5247  0.1251
 2470SOL    HW118872   1.513   2.240   9.107  0.2139  0.5393 -0.1252
 2470SOL    HW218873   1.443   2.162   9.004 -0.9985  0.1459  0.6189
 2471SOL     OW18874   1.419   2.855   5.129  0.2566  0.4149 -0.6289
 2471SOL    HW118875   1.358   2.902   5.185 -0.0517 -0.6395 -0.0901
 2471SOL    HW218876   1.459   2.933   5.089  0.1744  1.4229  1.2605
 2472SOL     OW18877   1.376   1.165  12.513  0.4178  0.6381 -0.3668
 2472SOL    HW118878   1.330   1.247  12.533  0.2075  0.0683  1.4665
 2472SOL    HW218879   1.444   1.190  12.451  2.8737  1.8695  2.8206
 2473SOL     OW18880   2.708   4.547   1.894 -0.7980  0.6547 -0.5000
 2473SOL    HW118881   2.790   4.517   1.854 -0.1524  0.2037  1.1526
 2473SOL    HW218882   2.736   4.545   1.986  0.6059 -0.1179 -0.9463
 2474SOL     OW18883   3.175   0.446   3.863 -0.7542 -0.0218  0.5702
 2474SOL    HW118884   3.163   0.539   3.887  0.7741  0.0412  1.0630
 2474SOL    HW218885   3.089   0.406   3.877  1.0346 -3.6582  1.0058
 2475SOL     OW18886   0.957   2.966  12.751  0.1771 -0.3760  0.2897
 2475SOL    HW118887   0.878   2.957  12.805  0.7314  0.4187  1.2595
 2475SOL    HW218888   0.914   3.044  12.715 -0.9936 -2.1873 -2.1716
 2476SOL     OW18889   4.687   0.853  11.840 -0.5616  0.2315  0.2278
 2476SOL    HW118890   4.650   0.837  11.927  1.2311 -1.8373  0.6154
 2476SOL    HW218891   0.025   0.776  11.832  1.9765  1.8919  1.9508
 2477SOL     OW18892   4.412   1.052  14.986  0.4406 -0.4344  0.0466
 2477SOL    HW118893   4.434   1.139  14.953 -1.5290  0.3768  0.8710
 2477SOL    HW218894   4.496   1.006  14.989  0.1235 -1.2121 -2.9979
 2478SOL     OW18895   2.053   1.300  17.615 -0.2046 -0.0940  0.4550
 2478SOL    HW118896   2.143   1.284  17.587 -0.0599  1.2746  0.1388
 2478SOL    HW218897   2.014   1.333  17.534 -1.3059 -1.5757  0.3675
 2479SOL     OW18898   4.072   3.292   8.503  0.1962  0.0258 -0.3311
 2479SOL    HW118899   4.058   3.199   8.522  0.0106 -0.1821 -1.5100
 2479SOL    HW218900   3.993   3.330   8.542  1.0929  1.7569 -0.2133
 2480SOL     OW18901   4.222   1.125  10.276  0.1177  0.1583  0.7419
 2480SOL    HW118902   4.129   1.114  10.298 -0.1103 -0.7094 -0.6320
 2480SOL    HW218903   4.255   1.201  10.322 -1.0730  0.8458  0.4613
 2481SOL     OW18904   3.620   3.406   5.115  0.5437 -0.6440  0.0534
 2481SOL    HW118905   3.686   3.468   5.087 -0.9524 -0.0969 -2.2392
 2481SOL    HW218906   3.572   3.378   5.037 -0.6309 -1.4696  1.0524
 2482SOL     OW18907   3.065   3.066   6.670 -0.0309 -0.4790  0.7883
 2482SOL    HW118908   3.038   3.075   6.762 -1.7121  1.3487  0.1214
 2482SOL    HW218909   3.129   2.997   6.688  1.4235  0.5934 -0.3389
 2483SOL     OW18910   2.974   4.607   3.300 -0.4836  0.0993 -0.4415
 2483SOL    HW118911   2.943   4.534   3.245 -0.0259 -1.1788  0.9974
 2483SOL    HW218912   3.062   4.619   3.265  0.0337 -1.6121  0.2423
 2484SOL     OW18913   3.560   1.469   9.073  0.2453  0.4424  0.6864
 2484SOL    HW118914   3.612   1.487   8.995  0.9047  0.6629  1.1742
 2484SOL    HW218915   3.583   1.377   9.082 -0.7963  0.0246 -0.9986
 2485SOL     OW18916   2.054   4.482   1.528  0.1036 -0.9390 -0.1359
 2485SOL    HW118917   2.109   4.546   1.483  0.2772 -0.5306  0.6551
 2485SOL    HW218918   1.972   4.507   1.487  0.0702  2.5739  2.0418
 2486SOL     OW18919   3.756   2.067  15.843  0.3597 -0.1596 -0.2210
 2486SOL    HW118920   3.662   2.073  15.823 -0.1244  0.2143  2.1483
 2486SOL    HW218921   3.790   2.023  15.766  0.0646 -1.8104  0.5896
 2487SOL     OW18922   0.560   3.208  16.273  0.9002 -0.7229 -0.7518
 2487SOL    HW118923   0.649   3.173  16.278  1.5103  1.1390  1.3466
 2487SOL    HW218924   0.554   3.221  16.178 -1.9042  0.1102 -0.4545
 2488SOL     OW18925   4.231   2.527   8.630  0.5393 -0.1059 -0.1886
 2488SOL    HW118926   4.156   2.474   8.658 -0.1053  0.7717 -0.2553
 2488SOL    HW218927   4.280   2.460   8.583  1.6243  0.6578 -0.1409
 2489SOL     OW18928   2.456   1.158   5.364  0.0839 -0.2432  0.5548
 2489SOL    HW118929   2.427   1.249   5.360 -2.1503 -0.9986 -0.4322
 2489SOL    HW218930   2.544   1.172   5.400  0.5982 -1.2345 -0.3261
 2490SOL     OW18931   0.639   3.731  10.325 -0.1954  0.5194  0.1878
 2490SOL    HW118932   0.596   3.686  10.253 -1.7670  0.7731  0.9708
 2490SOL    HW218933   0.567   3.760  10.380 -0.2775  2.0294 -0.7043
 2491SOL     OW18934   3.707   2.977   8.512 -0.2434  0.7263  0.2056
 2491SOL    HW118935   3.758   2.969   8.431  0.0141 -0.8742  0.5328
 2491SOL    HW218936   3.684   3.070   8.515  1.8115  1.2245  0.7143
 2492SOL     OW18937   1.191   2.060   9.706 -0.6645  0.5580  0.0679
 2492SOL    HW118938   1.095   2.063   9.712 -0.8180  0.7041 -2.7266
 2492SOL    HW218939   1.197   1.965   9.710 -1.3539  0.5459  0.9396
 2493SOL     OW18940   3.223   1.495   2.748  0.4523  0.4880 -0.1186
 2493SOL    HW118941   3.161   1.526   2.682  1.4298 -1.0840 -1.7764
 2493SOL    HW218942   3.271   1.574   2.771 -0.4303  1.4884 -1.6731
 2494SOL     OW18943   3.851   0.466   4.190 -0.1119  0.2360 -0.1888
 2494SOL    HW118944   3.869   0.372   4.187 -1.3708 -0.0264  0.6548
 2494SOL    HW218945   3.818   0.480   4.101  0.9541  1.0891 -0.4527
 2495SOL     OW18946   4.054   0.939   2.905  0.0724 -0.5306  0.0225
 2495SOL    HW118947   4.035   1.033   2.897 -0.7792 -0.6179  1.1290
 2495SOL    HW218948   3.967   0.904   2.924 -0.3119  1.4237  1.8523
 2496SOL     OW18949   1.558   4.344   4.594 -0.1284 -0.2519  0.3039
 2496SOL    HW118950   1.598   4.257   4.596  0.4075 -0.0420 -1.4376
 2496SOL    HW218951   1.543   4.344   4.499 -0.2804 -0.9875  0.3210
 2497SOL     OW18952   1.285   0.995   2.944  0.3396 -0.1863 -0.5310
 2497SOL    HW118953   1.238   1.069   2.982  1.3575 -0.7978  1.9088
 2497SOL    HW218954   1.272   1.004   2.850  0.7492 -0.9737 -0.6586
 2498SOL     OW18955   1.478   0.506  14.912  0.4747 -0.0566  0.2691
 2498SOL    HW118956   1.554   0.542  14.957 -0.0442 -0.3962  1.4123
 2498SOL    HW218957   1.523   0.445  14.854 -0.1314  0.1738 -0.4501
 2499SOL     OW18958   1.492   0.390   4.214 -0.0387 -0.3351 -0.1682
 2499SOL    HW118959   1.552   0.387   4.139 -0.4734  0.7467 -0.5561
 2499SOL    HW218960   1.550   0.433   4.277 -0.0982  0.1839 -0.4740
 2500SOL     OW18961   2.205   3.140   8.471 -0.0348  0.3573  0.0813
 2500SOL    HW118962   2.211   3.197   8.395 -1.0757  0.1881 -0.1375
 2500SOL    HW218963   2.271   3.183   8.525  1.1364 -2.0023  0.5504
 2501SOL     OW18964   0.829   2.189   0.866 -0.5529  0.0461  0.6647
 2501SOL    HW118965   0.761   2.139   0.912 -0.8038 -0.5719 -0.3709
 2501SOL    HW218966   0.901   2.197   0.929 -1.5448  1.9943  1.5433
 2502SOL     OW18967   2.301   2.167  16.850  0.3615 -0.4272  0.0061
 2502SOL    HW118968   2.383   2.185  16.897 -0.2089 -1.1218  1.2385
 2502SOL    HW218969   2.286   2.079  16.883  0.2266 -0.5923 -0.5010
 2503SOL     OW18970   0.296   0.051   2.632  0.9563 -0.6392  0.0115
 2503SOL    HW118971   0.257   0.138   2.620 -0.1569 -0.8655  1.9022
 2503SOL    HW218972   0.313   0.012   2.547  1.9537 -0.1892 -0.0031
 2504SOL     OW18973   0.428   0.724  14.494 -0.0258 -0.4225  0.2581
 2504SOL    HW118974   0.359   0.725  14.561 -0.5123 -1.6949 -0.2224
 2504SOL    HW218975   0.485   0.650  14.515  0.5232  0.3697  1.5225
 2505SOL     OW18976   3.490   2.163  10.533 -0.5998  0.2184 -0.1495
 2505SOL    HW118977   3.552   2.169  10.461 -0.2029  0.2525  0.1955
 2505SOL    HW218978   3.439   2.243  10.520 -1.7348 -0.6740 -1.1836
 2506SOL     OW18979   0.041   3.867  16.882 -0.1275 -0.2555  0.1535
 2506SOL    HW118980   0.094   3.866  16.962 -0.3512 -0.7765  0.2978
 2506SOL    HW218981   4.681   3.816  16.906 -0.4794 -0.0136 -0.4736
 2507SOL     OW18982   0.044   3.280   6.621 -0.1383 -0.1592 -0.0501
 2507SOL    HW118983   0.068   3.371   6.604 -1.7553  0.4365  0.7929
 2507SOL    HW218984   4.715   3.253   6.543 -0.3839 -0.9305  0.3664
 2508SOL     OW18985   0.371   0.579   6.807 -0.1075 -0.2948 -0.2915
 2508SOL    HW118986   0.410   0.590   6.720  0.3542 -0.9535 -0.1673
 2508SOL    HW218987   0.417   0.500   6.837  1.5222  0.5912 -0.4707
 2509SOL     OW18988   4.299   1.561   2.427 -0.2386 -0.5504 -0.1771
 2509SOL    HW118989   4.338   1.554   2.340  0.0903 -0.1146 -0.0616
 2509SOL    HW218990   4.232   1.628   2.412 -1.1718 -0.3317  4.8885
 2510SOL     OW18991   0.800   1.993   8.733  0.2342  0.6670 -0.8644
 2510SOL    HW118992   0.773   2.067   8.787  2.4509  2.3077 -2.0307
 2510SOL    HW218993   0.857   1.941   8.789  0.2756 -0.3390 -1.8501
 2511SOL     OW18994   3.060   2.480   1.998  0.2975 -0.4041 -0.2780
 2511SOL    HW118995   3.056   2.406   2.057 -0.5216 -2.4348 -2.8502
 2511SOL    HW218996   2.985   2.455   1.943  0.0135  0.4230 -0.2688
 2512SOL     OW18997   4.698   4.618  14.939 -0.1793 -0.1843 -0.9717
 2512SOL    HW118998   4.613   4.576  14.928 -0.8660  0.8287  0.3614
 2512SOL    HW218999   0.005   4.625  14.847  0.7344 -0.0549 -0.7100
 2513SOL     OW19000   2.401   4.090   8.635  0.2151 -0.3216 -0.4622
 2513SOL    HW119001   2.357   4.075   8.719 -0.5263  0.9796 -0.6293
 2513SOL    HW219002   2.412   4.185   8.639 -0.6443 -0.2469  0.0788
 2514SOL     OW19003   2.071   2.230   3.103 -0.3545  0.1981  0.0179
 2514SOL    HW119004   2.062   2.138   3.079  1.1420 -0.0083  0.2636
 2514SOL    HW219005   2.035   2.211   3.190 -1.1224 -0.7917 -0.5117
 2515SOL     OW19006   2.630   1.183   4.391  0.2830 -0.2304  0.1470
 2515SOL    HW119007   2.694   1.254   4.385 -0.1769  0.2983  1.5364
 2515SOL    HW219008   2.689   1.115   4.422  1.1327  0.3583 -0.1928
 2516SOL     OW19009   3.773   2.488   5.240  0.2496 -0.0735 -0.2833
 2516SOL    HW119010   3.867   2.492   5.253  0.1153  1.0843  0.2920
 2516SOL    HW219011   3.760   2.577   5.206 -0.6001  0.4583  1.4416
 2517SOL     OW19012   1.805   2.006   2.632  0.0802 -0.4585 -0.0229
 2517SOL    HW119013   1.731   1.958   2.594 -0.5803  1.3010 -1.0054
 2517SOL    HW219014   1.788   2.097   2.605  1.0326 -0.6083 -1.1091
 2518SOL     OW19015   2.257   1.567   5.839 -0.4063  0.5422 -0.1652
 2518SOL    HW119016   2.218   1.644   5.798 -0.5939  0.2800 -0.4740
 2518SOL    HW219017   2.334   1.599   5.886 -0.8531  0.4939  0.5995
 2519SOL     OW19018   4.467   1.164   9.804 -0.5634  0.7250 -1.0406
 2519SOL    HW119019   4.428   1.115   9.876  0.8778 -1.3679 -1.6646
 2519SOL    HW219020   4.420   1.116   9.735 -0.7268 -1.0718  0.3041
 2520SOL     OW19021   1.329   1.282   7.084 -0.4170 -0.0723 -0.4089
 2520SOL    HW119022   1.276   1.340   7.028 -0.4947  1.0492  0.8112
 2520SOL    HW219023   1.371   1.349   7.138 -1.3719  0.3905 -0.2412
 2521SOL     OW19024   4.075   3.090   4.400  0.8566 -0.4020  0.1785
 2521SOL    HW119025   4.085   3.015   4.459 -1.4801 -1.3768 -0.6992
 2521SOL    HW219026   4.078   3.043   4.316  0.9643  1.4817 -0.8729
 2522SOL     OW19027   4.040   2.920   4.633 -0.0401  0.4092  0.3817
 2522SOL    HW119028   4.040   2.867   4.713  2.3133 -0.6753 -0.3515
 2522SOL    HW219029   4.055   3.009   4.665 -1.7869 -0.5487  3.9336
 2523SOL     OW19030   3.375   2.317   7.895 -0.3165 -0.2105 -0.2467
 2523SOL    HW119031   3.325   2.386   7.854 -2.5659 -1.1525  0.9299
 2523SOL    HW219032   3.415   2.273   7.820 -1.1370 -1.5964  0.1129
 2524SOL     OW19033   1.679   2.416  11.590 -0.4272  0.2178 -1.1198
 2524SOL    HW119034   1.665   2.457  11.675  2.4612 -0.2665 -0.3888
 2524SOL    HW219035   1.619   2.341  11.598 -0.8878  0.6752 -0.3482
 2525SOL     OW19036   3.082   3.773   1.687 -0.7097 -0.4667 -0.5188
 2525SOL    HW119037   3.110   3.708   1.622  1.4383  1.6996 -1.7442
 2525SOL    HW219038   3.041   3.722   1.756 -0.4003  0.9218  0.6892
 2526SOL     OW19039   3.634   3.322  17.673  0.4660  0.2502  0.0648
 2526SOL    HW119040   3.616   3.332   0.090 -0.2881  1.5934 -0.2196
 2526SOL    HW219041   3.634   3.414  17.645 -0.6222  0.3569  0.4016
 2527SOL     OW19042   0.113   2.316   7.287 -0.5112  0.1295  0.2023
 2527SOL    HW119043   0.079   2.304   7.198 -0.1030 -2.2686  0.3710
 2527SOL    HW219044   0.179   2.384   7.272 -0.0927 -0.4979 -0.8434
 2528SOL     OW19045   3.545   4.161   3.970 -0.0423  0.2470 -0.1964
 2528SOL    HW119046   3.570   4.171   3.878 -0.6034 -1.3201 -0.5221
 2528SOL    HW219047   3.609   4.102   4.010 -0.6373  0.4689  1.0916
 2529SOL     OW19048   0.264   1.447  10.395  0.3512 -0.3849 -0.1823
 2529SOL    HW119049   0.333   1.494  10.442 -0.6731  0.9416  0.0203
 2529SOL    HW219050   0.297   1.358  10.393 -1.2470 -0.9897 -0.0357
 2530SOL     OW19051   3.351   2.530  17.238  0.0063 -0.3602  0.1419
 2530SOL    HW119052   3.299   2.570  17.168 -1.2909 -1.7014  0.3218
 2530SOL    HW219053   3.415   2.479  17.189 -0.5366 -1.3466  0.4455
 2531SOL     OW19054   3.767   2.213   8.127  0.0723  0.1578 -0.7589
 2531SOL    HW119055   3.674   2.214   8.147  0.5617  0.8365  1.5781
 2531SOL    HW219056   3.806   2.241   8.210  1.7263 -1.6646 -0.9036
 2532SOL     OW19057   1.192   3.292   6.979 -0.1870  0.3915  0.3373
 2532SOL    HW119058   1.268   3.350   6.989 -0.1757  0.5001 -0.3741
 2532SOL    HW219059   1.135   3.326   7.047  0.4676  1.0883  0.5377
 2533SOL     OW19060   4.638   0.851   6.668 -0.5069  0.6246 -0.2440
 2533SOL    HW119061   4.684   0.769   6.685 -1.0073 -0.0579 -2.1292
 2533SOL    HW219062   4.648   0.863   6.573  1.5878 -0.7661 -0.1969
 2534SOL     OW19063   3.748   2.173   5.557 -0.1085  0.2594 -0.8988
 2534SOL    HW119064   3.698   2.253   5.572  1.6474  0.9101  1.5305
 2534SOL    HW219065   3.740   2.169   5.462  2.3204 -0.3401 -1.0880
 2535SOL     OW19066   2.078   2.630   5.676 -0.0110  1.0295 -0.2825
 2535SOL    HW119067   2.011   2.655   5.739  1.9855 -0.3871  2.3820
 2535SOL    HW219068   2.144   2.678   5.726  0.6913 -1.1040  0.7988
 2536SOL     OW19069   2.221   2.608  13.261  0.0995  0.5492 -0.9482
 2536SOL    HW119070   2.245   2.665  13.334 -2.7451 -2.4320  2.3104
 2536SOL    HW219071   2.287   2.540  13.272 -0.1225  1.1354  3.7673
 2537SOL     OW19072   3.146   3.227   2.459 -0.1786 -0.0452  0.3160
 2537SOL    HW119073   3.212   3.262   2.518  1.5668 -2.4772 -0.1882
 2537SOL    HW219074   3.173   3.135   2.461 -2.7581 -0.8086 -0.2854
 2538SOL     OW19075   0.604   3.078   6.569 -0.0407  0.3354 -0.3695
 2538SOL    HW119076   0.630   2.989   6.546  2.1501  0.4363  1.7281
 2538SOL    HW219077   0.508   3.085   6.570  0.1314  2.4381  0.9792
 2539SOL     OW19078   3.235   1.409  17.595 -0.2948  0.5140 -0.5709
 2539SOL    HW119079   3.259   1.501  17.606 -0.1024  0.1877  1.6280
 2539SOL    HW219080   3.167   1.427  17.529  0.2073 -2.4385 -1.9015
 2540SOL     OW19081   1.837   0.413   6.229 -0.5049  0.5073 -0.8378
 2540SOL    HW119082   1.926   0.401   6.193  0.9124 -0.0488  2.9209
 2540SOL    HW219083   1.823   0.349   6.299  0.8197  0.3325 -0.7142
 2541SOL     OW19084   3.658   3.189   6.421 -0.4512  0.2379  0.4441
 2541SOL    HW119085   3.611   3.114   6.385 -0.2220 -0.4694  1.6424
 2541SOL    HW219086   3.743   3.173   6.381 -1.0978  0.2553 -0.9419
 2542SOL     OW19087   4.142   4.332   5.397 -0.0941  0.1068  0.6261
 2542SOL    HW119088   4.057   4.353   5.358  0.9042  0.6881 -1.2765
 2542SOL    HW219089   4.132   4.384   5.477 -2.0783  0.4056  0.1916
 2543SOL     OW19090   2.012   1.360  11.539  0.2123 -0.2186 -0.0398
 2543SOL    HW119091   2.018   1.443  11.491 -1.3392  1.1869  2.2416
 2543SOL    HW219092   2.016   1.394  11.628 -1.5883 -2.9810  1.1164
 2544SOL     OW19093   4.351   4.013  14.522  0.0712 -0.3008  0.9338
 2544SOL    HW119094   4.322   3.958  14.449 -0.5293  0.7833  0.3559
 2544SOL    HW219095   4.415   3.965  14.575 -1.5430 -1.6442  1.6342
 2545SOL     OW19096   2.791   2.688   8.540 -0.1576  0.3965  0.3789
 2545SOL    HW119097   2.785   2.687   8.636  1.6190  1.3525  0.4954
 2545SOL    HW219098   2.764   2.598   8.525 -0.3534  0.8568 -1.9294
 2546SOL     OW19099   0.571   0.318   3.237  0.0889  0.6417 -0.4207
 2546SOL    HW119100   0.645   0.379   3.234  1.0376 -0.4926 -0.2057
 2546SOL    HW219101   0.575   0.281   3.149 -1.6501 -0.2227 -0.1273
 2547SOL     OW19102   3.095   3.397  16.028 -0.1902 -0.1550  0.6814
 2547SOL    HW119103   3.011   3.386  15.984 -0.4676 -1.1080  1.4466
 2547SOL    HW219104   3.095   3.478  16.079 -1.0005 -1.0078  1.9979
 2548SOL     OW19105   2.825   0.084   4.721  0.1487  0.4787 -0.1608
 2548SOL    HW119106   2.876   0.129   4.789  0.8077  1.0503 -1.0410
 2548SOL    HW219107   2.803   0.149   4.654 -1.3063  0.8052  0.6284
 2549SOL     OW19108   1.070   4.457  11.714  0.3042 -0.3218 -0.0670
 2549SOL    HW119109   1.055   4.383  11.773  1.1184 -0.8661 -0.5442
 2549SOL    HW219110   1.091   4.416  11.630  1.5522 -1.4450  0.7994
 2550SOL     OW19111   3.708   0.793  17.471  0.2259  0.0648 -0.3140
 2550SOL    HW119112   3.678   0.773  17.560  0.2326  2.3701  0.2146
 2550SOL    HW219113   3.788   0.741  17.479 -0.1879 -0.7776 -1.7160
 2551SOL     OW19114   4.664   0.900  11.421 -0.2967  0.1321 -0.3017
 2551SOL    HW119115   4.699   0.989  11.428 -0.4626  0.0166  1.8828
 2551SOL    HW219116   4.591   0.903  11.482  1.3900  1.1104  1.6649
 2552SOL     OW19117   4.144   0.284   7.011 -0.3740 -0.0813  0.3104
 2552SOL    HW119118   4.153   0.327   7.096 -2.5855 -0.6821  0.8470
 2552SOL    HW219119   4.179   0.198   7.035 -1.1804 -0.0995  1.4186
 2553SOL     OW19120   2.930   0.031  15.720  0.4128 -0.2823 -0.6089
 2553SOL    HW119121   2.837   0.043  15.739  0.7514  0.6534  0.4361
 2553SOL    HW219122   2.932   4.706  15.634 -0.1742 -3.3766  0.9236
 2554SOL     OW19123   0.580   1.141   8.655 -0.2824 -0.4031  0.1431
 2554SOL    HW119124   0.538   1.099   8.730 -2.4416  0.4950 -0.5873
 2554SOL    HW219125   0.555   1.082   8.584  2.5558  0.3063 -1.4590
 2555SOL     OW19126   2.165   2.816   8.816 -0.1115 -0.6427 -0.0371
 2555SOL    HW119127   2.247   2.834   8.769  0.3788 -0.1077  1.0122
 2555SOL    HW219128   2.154   2.897   8.866  1.9165  0.0128 -0.6047
 2556SOL     OW19129   0.280   4.295   4.352 -0.6501  0.0105  0.1225
 2556SOL    HW119130   0.363   4.294   4.399 -1.6359 -1.4430  1.8038
 2556SOL    HW219131   0.222   4.348   4.407 -0.6155  0.2178 -0.0369
 2557SOL     OW19132   2.444   3.806   4.569 -0.0619 -0.0606  0.0872
 2557SOL    HW119133   2.350   3.803   4.552 -0.2772  3.2085  0.6009
 2557SOL    HW219134   2.489   3.824   4.486 -1.4124 -1.6304 -0.9787
 2558SOL     OW19135   2.840   2.543   5.231 -0.2468  0.0847 -0.2023
 2558SOL    HW119136   2.850   2.511   5.141 -0.5013 -0.7199  0.0594
 2558SOL    HW219137   2.872   2.633   5.231  1.7489 -0.6288  1.5804
 2559SOL     OW19138   4.223   0.688  15.908 -0.2100  0.1327  0.4281
 2559SOL    HW119139   4.196   0.615  15.962 -1.7809 -0.0427 -0.5821
 2559SOL    HW219140   4.270   0.732  15.979  0.8510 -1.5475  0.7505
 2560SOL     OW19141   0.202   3.637   9.731 -0.4692 -0.6201 -0.0864
 2560SOL    HW119142   0.139   3.707   9.748  1.6982  0.7141  2.3115
 2560SOL    HW219143   0.270   3.677   9.678 -0.2425 -1.1679 -0.2098
 2561SOL     OW19144   2.255   2.801  16.670 -0.1542  0.2552 -0.5173
 2561SOL    HW119145   2.291   2.887  16.690  0.5341 -0.1087 -0.1934
 2561SOL    HW219146   2.281   2.736  16.736  0.8238 -0.9816 -2.1117
 2562SOL     OW19147   2.366   2.507   2.081  0.1812  0.2760 -0.7034
 2562SOL    HW119148   2.373   2.411   2.083 -0.4275  0.3280  2.7914
 2562SOL    HW219149   2.406   2.525   1.996  0.4800  0.2580 -0.5668
 2563SOL     OW19150   2.840   1.577   6.739 -0.0120 -0.5196  0.2949
 2563SOL    HW119151   2.901   1.649   6.757 -0.4347  0.0757 -0.7196
 2563SOL    HW219152   2.847   1.579   6.644 -1.3719  1.9499  0.2677
 2564SOL     OW19153   3.560   4.114   5.110  0.1269  0.1947  0.2086
 2564SOL    HW119154   3.487   4.077   5.060  1.9315 -1.4942 -1.1959
 2564SOL    HW219155   3.635   4.075   5.066  2.7996  2.3349  2.9001
 2565SOL     OW19156   3.083   1.868  10.726  0.6676 -0.1695 -0.2086
 2565SOL    HW119157   3.134   1.917  10.791  0.3936 -1.0791  0.6785
 2565SOL    HW219158   3.015   1.932  10.702  0.0775 -0.3644  0.9304
 2566SOL     OW19159   0.257   0.291   3.907  0.2186 -0.3624  0.6418
 2566SOL    HW119160   0.287   0.201   3.919  1.7826 -0.0201 -0.7093
 2566SOL    HW219161   0.245   0.307   3.814 -0.8859  0.9896  1.0049
 2567SOL     OW19162   2.920   0.478   7.492  0.1356  0.0001  0.0522
 2567SOL    HW119163   2.965   0.454   7.573 -0.6539  0.4176  0.6079
 2567SOL    HW219164   2.923   0.573   7.481  1.0538  0.3658  3.4555
 2568SOL     OW19165   0.740   1.436   9.177  0.2278  0.3581 -0.3328
 2568SOL    HW119166   0.759   1.422   9.084 -0.7807 -0.1892 -0.4469
 2568SOL    HW219167   0.749   1.348   9.213  1.8926  0.8478  0.4624
 2569SOL     OW19168   2.980   2.109   7.288 -0.0327 -0.1093  0.0461
 2569SOL    HW119169   3.027   2.176   7.238 -0.8262  0.2472 -0.2265
 2569SOL    HW219170   2.979   2.132   7.381  1.1424  0.5707 -0.1121
 2570SOL     OW19171   1.993   1.513   5.923  0.4879  0.5841 -0.3094
 2570SOL    HW119172   1.936   1.495   5.848  0.0248 -4.3696  1.2140
 2570SOL    HW219173   2.079   1.507   5.881  0.8916 -0.9505  0.6975
 2571SOL     OW19174   3.147   4.654  16.315 -0.6352  0.1417 -0.4304
 2571SOL    HW119175   3.102   4.572  16.293 -1.5025  0.5113 -0.0138
 2571SOL    HW219176   3.101   4.714  16.256  0.1150  2.6214  1.5045
 2572SOL     OW19177   1.279   3.043   2.825  0.1135 -0.0854  0.2102
 2572SOL    HW119178   1.196   3.011   2.791 -0.6291  0.5805  1.3670
 2572SOL    HW219179   1.259   3.135   2.845 -1.9378 -0.1466 -1.5373
 2573SOL     OW19180   0.295   1.797   6.417 -0.1233  0.7100  0.1622
 2573SOL    HW119181   0.254   1.879   6.442 -1.9456 -0.0568 -0.2833
 2573SOL    HW219182   0.273   1.739   6.490  0.1811  2.0735  1.3354
 2574SOL     OW19183   0.637   3.839   4.318  0.2259  0.3909  0.0690
 2574SOL    HW119184   0.722   3.876   4.343 -0.8344  0.3648  3.5872
 2574SOL    HW219185   0.626   3.874   4.229 -0.9304  0.9320  0.4389
 2575SOL     OW19186   3.531   0.688  16.373 -0.4101  0.4686  0.2587
 2575SOL    HW119187   3.572   0.766  16.409 -1.0870  0.9571 -0.0421
 2575SOL    HW219188   3.547   0.623  16.442 -0.3908 -0.2612 -0.4267
 2576SOL     OW19189   3.642   4.029  16.424  0.3600 -0.1078 -0.1039
 2576SOL    HW119190   3.626   4.122  16.440  1.3981  0.1894 -0.8477
 2576SOL    HW219191   3.665   4.037  16.332  1.0440  0.8625  0.1487
 2577SOL     OW19192   0.971   1.242  16.900  0.4932 -0.2830 -0.4702
 2577SOL    HW119193   0.900   1.272  16.958  0.7352 -1.4072  0.3892
 2577SOL    HW219194   0.946   1.152  16.881 -1.1639  0.1964 -0.6163
 2578SOL     OW19195   4.283   3.458  16.933 -0.1357  0.0997  0.7210
 2578SOL    HW119196   4.235   3.497  17.006 -1.3787  1.0512 -0.5909
 2578SOL    HW219197   4.207   3.435  16.880  1.2446 -2.8952  0.0058
 2579SOL     OW19198   0.055   1.081  10.375  0.3210  0.0670  0.3434
 2579SOL    HW119199   0.006   1.057  10.296 -1.0807  0.5117  1.0814
 2579SOL    HW219200   0.009   1.160  10.399  1.2127  0.3404  1.1443
 2580SOL     OW19201   2.133   0.795   7.979 -0.4209  0.0771  0.2489
 2580SOL    HW119202   2.140   0.891   7.973  2.4080 -0.0623  1.6868
 2580SOL    HW219203   2.038   0.785   7.988 -0.3756  1.4205  2.3543
 2581SOL     OW19204   0.610   4.531   8.826  0.2439  0.1910 -0.0704
 2581SOL    HW119205   0.594   4.445   8.866  1.3242  0.5739  1.1579
 2581SOL    HW219206   0.657   4.573   8.897  1.4800  0.8337 -1.2799
 2582SOL     OW19207   4.103   0.843  10.133 -0.4619  0.3810  0.2867
 2582SOL    HW119208   4.037   0.869  10.197 -0.6811  0.4481  0.0338
 2582SOL    HW219209   4.178   0.808  10.181  1.3907  2.7472 -0.8791
 2583SOL     OW19210   2.280   3.190  11.861  0.4476 -0.3168 -0.2509
 2583SOL    HW119211   2.305   3.111  11.909  1.5447 -0.9564 -1.8670
 2583SOL    HW219212   2.203   3.208  11.914  0.8854 -0.7748  0.5441
 2584SOL     OW19213   4.585   0.530   3.977 -0.0625 -0.2176 -0.1018
 2584SOL    HW119214   4.596   0.478   3.898  0.8668 -1.9933  1.1986
 2584SOL    HW219215   4.670   0.544   4.020  0.1068 -3.5164  0.6123
 2585SOL     OW19216   0.198   3.315   7.062 -0.2104  0.1300 -0.1941
 2585SOL    HW119217   0.125   3.376   7.078  0.5025  1.8676 -3.5004
 2585SOL    HW219218   0.162   3.234   7.098 -1.2720 -0.1271 -1.8133
 2586SOL     OW19219   4.598   4.163   8.901  0.3983 -0.2047 -0.5074
 2586SOL    HW119220   4.567   4.073   8.893 -0.5391 -0.1621  2.4658
 2586SOL    HW219221   4.614   4.172   8.995  0.5583 -2.2592 -0.3385
 2587SOL     OW19222   0.712   1.956   2.724 -0.3634 -0.3265 -0.5486
 2587SOL    HW119223   0.728   2.046   2.697 -0.4613 -0.4294 -0.9466
 2587SOL    HW219224   0.651   1.930   2.655  0.3821 -1.0683 -0.9212
 2588SOL     OW19225   4.097   4.566   2.238  0.2249 -0.3939  0.0784
 2588SOL    HW119226   4.171   4.624   2.226  1.3429 -1.2124  2.9370
 2588SOL    HW219227   4.069   4.582   2.328  0.2482 -0.1025  0.0316
 2589SOL     OW19228   3.187   0.826   3.209  0.2507  0.8858 -0.2406
 2589SOL    HW119229   3.251   0.767   3.250 -0.5101  0.4662  0.3478
 2589SOL    HW219230   3.170   0.777   3.128 -3.5192 -0.5365  1.4254
 2590SOL     OW19231   3.844   3.444   1.259 -0.3816  0.1493 -0.2864
 2590SOL    HW119232   3.881   3.494   1.331  3.2043 -0.2629 -1.8591
 2590SOL    HW219233   3.781   3.508   1.225 -1.9782 -1.3980 -0.2606
 2591SOL     OW19234   2.452   3.922   5.845  0.1361  0.6563  0.4982
 2591SOL    HW119235   2.537   3.888   5.816 -0.0177 -0.1684  0.9938
 2591SOL    HW219236   2.392   3.862   5.801  1.9893 -0.3360 -0.6709
 2592SOL     OW19237   0.046   4.179   8.059  0.2563  0.2637  0.4856
 2592SOL    HW119238   4.689   4.214   8.011  3.2275  2.7925 -2.2767
 2592SOL    HW219239   0.065   4.097   8.013 -2.1372  0.2083 -0.4118
 2593SOL     OW19240   1.772   1.447   9.019 -0.3570 -0.0823  0.5103
 2593SOL    HW119241   1.791   1.353   9.020 -2.1811 -0.4605  0.2545
 2593SOL    HW219242   1.703   1.459   9.085 -0.4882  0.1564  0.3312
 2594SOL     OW19243   3.322   3.290   3.252  0.2436 -0.0632  0.0946
 2594SOL    HW119244   3.349   3.208   3.210 -0.7749 -0.9823  1.2260
 2594SOL    HW219245   3.269   3.341   3.191  0.3244 -2.1192 -1.6919
 2595SOL     OW19246   2.958   4.453  12.286 -0.5454 -0.6709  0.3390
 2595SOL    HW119247   2.949   4.524  12.222 -0.5584 -0.0373  1.0386
 2595SOL    HW219248   3.022   4.479  12.352  0.8996  0.5289 -1.5360
 2596SOL     OW19249   1.475   4.161   9.024  0.5478  0.4561  0.4406
 2596SOL    HW119250   1.418   4.174   9.100 -0.3099  1.7350 -0.4194
 2596SOL    HW219251   1.555   4.204   9.055  0.9507 -0.9707  1.3873
 2597SOL     OW19252   3.447   4.350   5.918  0.3411  0.1361 -0.7867
 2597SOL    HW119253   3.475   4.271   5.872 -0.1999  0.7552 -2.2029
 2597SOL    HW219254   3.403   4.404   5.852  1.1351 -0.9077 -2.1939
 2598SOL     OW19255   3.603   2.533   7.748  0.8433  0.1748  0.0387
 2598SOL    HW119256   3.676   2.586   7.780  0.5940 -0.1411  1.1399
 2598SOL    HW219257   3.636   2.444   7.754  2.7382  0.8501 -0.3842
 2599SOL     OW19258   2.296   2.327   4.743 -0.1304 -0.0677  0.5389
 2599SOL    HW119259   2.275   2.235   4.759  1.0155 -0.2808  0.8402
 2599SOL    HW219260   2.313   2.309   4.651 -2.3375  1.2229 -0.1121
 2600SOL     OW19261   3.349   2.357   7.088  0.4284  0.2173 -0.1476
 2600SOL    HW119262   3.365   2.396   7.174  1.0295 -0.5221  0.0748
 2600SOL    HW219263   3.412   2.285   7.084  0.6630  0.5239 -2.1306
 2601SOL     OW19264   4.318   2.455   5.186 -0.4187 -0.0541  0.3927
 2601SOL    HW119265   4.302   2.507   5.265 -2.4994  1.2872 -0.9169
 2601SOL    HW219266   4.409   2.480   5.170  0.8769 -4.6312  0.6625
 2602SOL     OW19267   2.256   4.095   8.918 -0.0590  0.3614 -0.0051
 2602SOL    HW119268   2.171   4.112   8.876  0.2672  1.6822 -0.1321
 2602SOL    HW219269   2.230   4.033   8.986 -0.4042  2.0287  1.3716
 2603SOL     OW19270   1.988   3.750  15.515 -0.5388  0.2483  0.3439
 2603SOL    HW119271   1.912   3.803  15.491  0.9015  0.6696 -3.2870
 2603SOL    HW219272   1.991   3.796  15.598  0.7226 -1.1890  1.1051
 2604SOL     OW19273   1.419   2.202   3.248  0.4165  0.1001  0.0029
 2604SOL    HW119274   1.438   2.175   3.158  0.6854  0.4593 -0.0478
 2604SOL    HW219275   1.400   2.293   3.223 -1.0245  0.0934  1.0721
 2605SOL     OW19276   3.644   0.216   6.536  0.5506  0.2395  0.1627
 2605SOL    HW119277   3.675   0.305   6.521  1.4404  0.1509  1.4508
 2605SOL    HW219278   3.554   0.224   6.505 -0.5284  0.4025  3.3358
 2606SOL     OW19279   3.710   1.678   5.988  0.1795 -0.0546 -0.1315
 2606SOL    HW119280   3.742   1.621   5.918 -1.3912 -1.0941 -0.0012
 2606SOL    HW219281   3.615   1.670   5.977  0.0522  3.0766 -1.3400
 2607SOL     OW19282   4.608   4.667  12.768 -0.4424  0.0569 -0.0877
 2607SOL    HW119283   4.635   4.578  12.745 -0.1148  0.0602  0.2864
 2607SOL    HW219284   4.613   4.675  12.864 -1.3285  0.2792 -0.0611
 2608SOL     OW19285   2.944   1.097  10.275 -0.6888  0.5135  0.0385
 2608SOL    HW119286   2.963   1.120  10.184 -2.4581  0.7184 -0.2765
 2608SOL    HW219287   2.882   1.168  10.295 -2.9885 -0.6599 -2.9642
 2609SOL     OW19288   1.498   2.924   7.587  0.1737 -0.2248  0.1303
 2609SOL    HW119289   1.498   3.019   7.597 -0.2571 -0.0983 -1.1375
 2609SOL    HW219290   1.510   2.905   7.680 -0.4685  0.6039  0.3698
 2610SOL     OW19291   3.987   0.872   5.955  0.8870 -0.3309  0.2081
 2610SOL    HW119292   3.930   0.816   6.008  0.4591  0.2065  0.3178
 2610SOL    HW219293   3.939   0.886   5.874 -2.5300 -0.1144  2.2460
 2611SOL     OW19294   4.216   2.876   3.509  0.0624  0.0623 -0.5827
 2611SOL    HW119295   4.258   2.961   3.525 -0.2463  0.4731 -1.9253
 2611SOL    HW219296   4.298   2.828   3.506  0.9325  1.4717  0.5766
 2612SOL     OW19297   1.305   1.695   0.543  0.5201  0.1192  0.0371
 2612SOL    HW119298   1.294   1.600   0.544 -1.4049  0.3712  2.4654
 2612SOL    HW219299   1.234   1.713   0.604 -0.4139 -0.5489 -0.8585
 2613SOL     OW19300   4.673   3.573  12.094 -0.0568  0.6342 -0.0852
 2613SOL    HW119301   0.012   3.649  12.106 -2.8964  2.6425  0.7319
 2613SOL    HW219302   4.634   3.611  12.016 -1.6733  0.8226  0.8036
 2614SOL     OW19303   0.616   3.141  15.516  0.3484  0.5195  0.7794
 2614SOL    HW119304   0.564   3.067  15.548  0.2276  0.0381 -0.5418
 2614SOL    HW219305   0.557   3.216  15.526  1.4962  1.4113  0.7700
 2615SOL     OW19306   2.508   0.327  10.622 -0.2694 -0.3938  0.4581
 2615SOL    HW119307   2.478   0.378  10.547 -0.7887 -0.0622  0.8869
 2615SOL    HW219308   2.430   0.326  10.678 -0.3743  4.2673  0.3954
 2616SOL     OW19309   4.500   2.978   6.246  0.1739  0.3214 -0.3586
 2616SOL    HW119310   4.457   3.060   6.223 -2.8611 -0.7106  1.7034
 2616SOL    HW219311   4.569   3.023   6.295  0.9325 -1.2635  0.0191
 2617SOL     OW19312   0.073   1.528   7.188 -0.3855  0.3288  0.1849
 2617SOL    HW119313   0.110   1.555   7.272  2.5709  0.8050 -1.2852
 2617SOL    HW219314   0.059   1.435   7.203  0.4473  0.2124  0.2306
 2618SOL     OW19315   1.763   0.470  11.376  0.0563  0.6811 -0.2107
 2618SOL    HW119316   1.841   0.423  11.407  0.0146  0.9418  0.2789
 2618SOL    HW219317   1.790   0.507  11.292 -2.6302 -1.8046 -2.1568
 2619SOL     OW19318   4.337   3.627   2.655 -0.6496  0.0322  0.2160
 2619SOL    HW119319   4.299   3.599   2.572 -2.5019  0.0749  1.0474
 2619SOL    HW219320   4.296   3.712   2.670 -0.4873 -0.0041  0.9065
 2620SOL     OW19321   0.942   3.587  11.986  0.2623 -0.2277  0.1967
 2620SOL    HW119322   0.882   3.540  11.929 -0.0006 -0.7528  0.9033
 2620SOL    HW219323   1.004   3.628  11.925 -1.0139  0.6099 -0.5296
 2621SOL     OW19324   0.827   4.013   9.799  0.2997  0.2093 -0.1229
 2621SOL    HW119325   0.800   4.105   9.791  0.5965  0.5254  2.3627
 2621SOL    HW219326   0.765   3.984   9.866  1.5288 -0.7807  0.5991
 2622SOL     OW19327   4.494   1.050  10.166 -0.2308  0.2694 -0.4590
 2622SOL    HW119328   4.455   1.005  10.091  0.2650  0.7449 -1.0079
 2622SOL    HW219329   4.417   1.060  10.222 -0.4862 -0.8256 -0.6178
 2623SOL     OW19330   2.817   1.704   4.987  0.5155  0.1817 -0.2593
 2623SOL    HW119331   2.742   1.687   5.044  2.9082 -1.5005  2.3915
 2623SOL    HW219332   2.888   1.701   5.050  1.3599 -1.9245 -1.3150
 2624SOL     OW19333   2.631   2.712  11.370  0.8359 -0.2504 -0.4534
 2624SOL    HW119334   2.558   2.682  11.318  0.1726  1.9629 -0.7850
 2624SOL    HW219335   2.696   2.710  11.300  0.5779 -0.8187 -0.6752
 2625SOL     OW19336   1.982   3.013   2.197  0.3639 -0.1886 -0.2316
 2625SOL    HW119337   1.998   3.067   2.119 -0.5888  0.1928 -0.1608
 2625SOL    HW219338   1.945   3.078   2.256 -1.6709 -0.1449 -1.5427
 2626SOL     OW19339   1.022   3.984   7.430 -0.1969 -0.0049  0.6333
 2626SOL    HW119340   1.076   4.060   7.408  1.2655 -1.1233  0.3907
 2626SOL    HW219341   1.002   4.014   7.519  1.1314  3.1333 -0.1280
 2627SOL     OW19342   4.031   3.737   1.071 -0.2337  0.3771  0.0677
 2627SOL    HW119343   4.086   3.745   1.150 -0.1807  0.4412  0.0243
 2627SOL    HW219344   4.108   3.729   1.015 -0.6542 -1.8407 -0.1577
 2628SOL     OW19345   2.095   2.770   8.172 -0.6715 -0.0354 -0.1470
 2628SOL    HW119346   2.136   2.696   8.215 -0.1982 -1.0467 -2.3453
 2628SOL    HW219347   2.014   2.732   8.137 -1.4039 -0.7855  2.3807
 2629SOL     OW19348   0.016   1.194  11.008  0.2617 -0.1796  0.1633
 2629SOL    HW119349   0.006   1.283  11.041  1.3292  0.5713 -1.5609
 2629SOL    HW219350   4.700   1.151  11.087  0.0074 -0.4946 -0.1136
 2630SOL     OW19351   0.208   2.792  13.632 -0.0096 -0.0334  0.0369
 2630SOL    HW119352   0.201   2.876  13.587 -0.8964  0.1166  0.4670
 2630SOL    HW219353   0.131   2.750  13.593 -0.9048  0.0835  1.7095
 2631SOL     OW19354   4.660   2.041   3.767 -0.2017 -0.0278  0.3969
 2631SOL    HW119355   4.673   2.115   3.826  3.3144  1.3416 -2.0984
 2631SOL    HW219356   4.694   1.965   3.814  1.7661 -0.4490 -1.7238
 2632SOL     OW19357   4.686   2.740   3.649  0.4514  1.3152  0.3200
 2632SOL    HW119358   0.020   2.789   3.713  0.0057  2.1071  0.0789
 2632SOL    HW219359   4.684   2.656   3.695  1.4667  0.7688 -0.6252
 2633SOL     OW19360   2.291   3.618   6.180  0.6774 -0.0852 -0.1841
 2633SOL    HW119361   2.239   3.632   6.259 -0.9004 -1.4772 -0.9776
 2633SOL    HW219362   2.241   3.657   6.109 -0.2809 -0.6723  0.1783
 2634SOL     OW19363   1.983   4.587   1.988 -0.0519  0.1321  0.7144
 2634SOL    HW119364   1.965   4.681   1.995  0.1907  0.3590 -1.5641
 2634SOL    HW219365   1.994   4.579   1.893 -0.8405 -1.2488  0.7350
 2635SOL     OW19366   0.943   2.183   9.717  0.1263 -0.5583  0.2927
 2635SOL    HW119367   0.854   2.218   9.731  0.3462  0.5753 -1.0724
 2635SOL    HW219368   0.932   2.108   9.775  0.7491 -0.3789  0.6373
 2636SOL     OW19369   1.005   1.825   9.310  0.4511  0.1514 -0.1998
 2636SOL    HW119370   1.079   1.809   9.368 -0.5505  0.5363  1.1690
 2636SOL    HW219371   0.997   1.733   9.287  0.2900  0.1832 -0.2695
 2637SOL     OW19372   2.958   0.678  11.821  0.3769 -0.5123  0.1890
 2637SOL    HW119373   2.961   0.770  11.796  2.5164 -0.3270  1.1440
 2637SOL    HW219374   2.886   0.688  11.884  0.0406 -3.4902  0.2968
 2638SOL     OW19375   1.054   3.402   7.193 -0.7298 -0.4306  0.0706
 2638SOL    HW119376   1.085   3.492   7.184  3.4829 -1.5407  3.0323
 2638SOL    HW219377   0.964   3.409   7.162 -0.9184  0.0673  0.7215
 2639SOL     OW19378   2.647   2.638   1.439  0.1860  0.2918 -0.0337
 2639SOL    HW119379   2.657   2.680   1.353  1.1121 -0.9087 -0.5324
 2639SOL    HW219380   2.559   2.604   1.425  0.4064  0.0050 -0.7821
 2640SOL     OW19381   3.138   0.080   9.760  1.0019 -0.5954  0.1602
 2640SOL    HW119382   3.060   0.035   9.793  0.4797  0.3147  0.1735
 2640SOL    HW219383   3.187   0.000   9.739  0.8894 -0.1096 -1.9235
 2641SOL     OW19384   1.769   1.179   7.846  0.0202 -0.1675  0.2736
 2641SOL    HW119385   1.718   1.113   7.892  1.5885 -2.1816 -0.8673
 2641SOL    HW219386   1.844   1.126   7.818  0.5704  1.1693 -0.8130
 2642SOL     OW19387   4.475   2.100   1.435 -0.1469  0.2541 -0.2396
 2642SOL    HW119388   4.480   2.028   1.372  1.3252 -1.7223  2.1710
 2642SOL    HW219389   4.459   2.169   1.371 -2.8550  1.6817  1.9819
 2643SOL     OW19390   3.259   1.956   8.915  0.0366  0.0363  0.5573
 2643SOL    HW119391   3.354   1.962   8.907 -0.1832  1.1436 -1.1673
 2643SOL    HW219392   3.265   1.912   9.000 -3.7384 -0.3842  0.6168
 2644SOL     OW19393   4.095   3.993   1.891  0.1872  0.1656  0.5262
 2644SOL    HW119394   4.107   4.035   1.976 -0.7749  0.6792  0.4181
 2644SOL    HW219395   4.158   3.922   1.881 -2.6601 -2.2217 -0.4066
 2645SOL     OW19396   0.017   0.910  17.299 -0.8315 -0.0673 -0.2310
 2645SOL    HW119397   0.029   0.827  17.344  0.3264 -0.2467 -0.8677
 2645SOL    HW219398   4.641   0.918  17.310 -0.7658  0.2341  0.0954
 2646SOL     OW19399   3.883   4.377   6.968 -0.3296 -0.0720 -0.9358
 2646SOL    HW119400   3.947   4.307   6.953  1.4150  0.9451  1.7716
 2646SOL    HW219401   3.908   4.401   7.057  1.2815  0.9528 -1.6572
 2647SOL     OW19402   1.869   3.248   7.403 -0.2188  0.1105 -0.1730
 2647SOL    HW119403   1.827   3.315   7.350 -2.4255  0.5254  2.0843
 2647SOL    HW219404   1.834   3.262   7.491 -0.5601  2.4688 -0.6718
 2648SOL     OW19405   2.725   2.239  10.005  0.1064 -0.1061  0.1168
 2648SOL    HW119406   2.631   2.229  10.016 -0.1145  0.2193 -1.5075
 2648SOL    HW219407   2.740   2.150   9.971 -1.0404 -0.2407 -0.0083
 2649SOL     OW19408   2.864   2.301   8.602  0.3618  0.6658 -0.3067
 2649SOL    HW119409   2.943   2.328   8.649 -1.2454  0.9831  2.1869
 2649SOL    HW219410   2.841   2.228   8.659  0.7831  0.6929 -0.1034
 2650SOL     OW19411   2.394   0.500   2.987 -0.1421  0.2074 -0.1241
 2650SOL    HW119412   2.432   0.442   3.053 -2.2518  0.7922  1.6258
 2650SOL    HW219413   2.306   0.506   3.025  0.3436 -0.5398  1.1095
 2651SOL     OW19414   2.830   2.190   7.694  0.5672 -0.1930  0.2939
 2651SOL    HW119415   2.885   2.112   7.683  1.0036 -0.2768  3.2486
 2651SOL    HW219416   2.880   2.253   7.745  0.4323  0.7480 -0.7388
 2652SOL     OW19417   2.124   4.622   4.693  0.2826  0.3667 -0.2818
 2652SOL    HW119418   2.147   4.714   4.677 -1.7210  0.8197 -0.6064
 2652SOL    HW219419   2.041   4.641   4.736  0.5439 -0.7763  0.7117
 2653SOL     OW19420   1.913   1.976  14.841  0.1221 -0.4167 -0.4548
 2653SOL    HW119421   2.004   1.961  14.813  0.5688  1.1289  0.1367
 2653SOL    HW219422   1.920   2.059  14.888  0.4368 -0.5582 -0.2524
 2654SOL     OW19423   0.272   3.316   4.084  0.4195 -0.0196 -0.1744
 2654SOL    HW119424   0.200   3.378   4.068 -1.1722 -1.8024  0.0827
 2654SOL    HW219425   0.309   3.362   4.159  2.4765 -0.1559 -1.1101
 2655SOL     OW19426   2.343   1.641   2.277 -0.2873 -0.0782  0.4514
 2655SOL    HW119427   2.300   1.705   2.333 -1.9652 -1.0081  0.2139
 2655SOL    HW219428   2.270   1.585   2.252 -1.4493  1.7184 -0.1884
 2656SOL     OW19429   1.339   1.835  10.645  0.5396  0.3702  0.0093
 2656SOL    HW119430   1.303   1.842  10.733 -0.7339 -0.0235 -0.4778
 2656SOL    HW219431   1.387   1.753  10.656 -1.3969 -0.7756  0.0447
 2657SOL     OW19432   2.444   2.486   7.310 -0.6633  0.0163  0.1008
 2657SOL    HW119433   2.429   2.546   7.383  1.4340 -2.2478  2.4067
 2657SOL    HW219434   2.377   2.523   7.252  0.3479  0.8388 -0.5284
 2658SOL     OW19435   4.355   0.892   7.111  0.1919 -0.7446  0.0573
 2658SOL    HW119436   4.364   0.988   7.105  2.7576 -0.9277  1.1948
 2658SOL    HW219437   4.427   0.861   7.057  0.1576 -1.6154  0.5090
 2659SOL     OW19438   3.514   0.488   3.804  0.0708  0.5094  0.3984
 2659SOL    HW119439   3.461   0.451   3.733 -1.5302 -1.5259  2.6486
 2659SOL    HW219440   3.581   0.419   3.809 -1.6887 -1.2960 -0.9136
 2660SOL     OW19441   3.585   0.589   2.651 -0.2882 -0.3204 -0.9846
 2660SOL    HW119442   3.594   0.606   2.557  0.4544  0.7344 -0.7272
 2660SOL    HW219443   3.567   0.680   2.676  0.1971 -0.6582  0.5855
 2661SOL     OW19444   1.774   1.638   7.025 -0.2685  0.4352  0.0411
 2661SOL    HW119445   1.825   1.627   7.106  0.1091  0.5257 -0.1846
 2661SOL    HW219446   1.718   1.562   7.037  1.2749 -0.7083  0.1087
 2662SOL     OW19447   0.968   1.386   8.984  0.3977  0.4828 -0.1089
 2662SOL    HW119448   0.941   1.296   8.968  0.1900  0.3543  0.9199
 2662SOL    HW219449   0.937   1.424   8.902 -1.0655  2.0608  1.1742
 2663SOL     OW19450   0.201   4.692   8.195 -0.2366 -0.5409 -0.2434
 2663SOL    HW119451   0.131   4.649   8.145  0.0010  0.6982 -1.6151
 2663SOL    HW219452   0.240   4.620   8.245 -1.0725 -0.9485 -0.1710
 2664SOL     OW19453   3.645   0.354  10.437  0.2699  0.1998 -0.8432
 2664SOL    HW119454   3.580   0.388  10.499  1.5472  1.6071 -0.2913
 2664SOL    HW219455   3.642   0.432  10.382 -1.5579  0.3404 -0.5505
 2665SOL     OW19456   0.226   3.696   9.133  0.3372  0.2392 -0.1462
 2665SOL    HW119457   0.176   3.669   9.211 -0.5114  0.7267 -0.5280
 2665SOL    HW219458   0.310   3.656   9.156  0.2730  0.8252  1.1107
 2666SOL     OW19459   2.774   2.483  14.700  0.0784 -0.3351 -0.0305
 2666SOL    HW119460   2.782   2.457  14.609 -2.0186 -0.6284 -0.1211
 2666SOL    HW219461   2.770   2.401  14.750  1.1951 -1.5934 -2.0039
 2667SOL     OW19462   1.179   1.615   7.729  0.0935 -0.5959 -0.0996
 2667SOL    HW119463   1.121   1.613   7.654  0.3506 -2.5542 -0.2346
 2667SOL    HW219464   1.260   1.635   7.682 -0.8748  3.0778 -0.2508
 2668SOL     OW19465   3.292   0.708   1.351 -1.0553  0.4653  0.1554
 2668SOL    HW119466   3.355   0.648   1.392 -4.1844 -0.5003  3.4605
 2668SOL    HW219467   3.308   0.791   1.395  0.9889 -0.4719  1.2222
 2669SOL     OW19468   4.158   0.470   6.696 -0.4098 -0.2300 -0.0855
 2669SOL    HW119469   4.241   0.451   6.739  0.6013  0.6874 -1.6636
 2669SOL    HW219470   4.098   0.422   6.753 -1.3785 -0.8769 -1.6605
 2670SOL     OW19471   1.808   0.330  17.640  0.2960 -0.4556 -0.4568
 2670SOL    HW119472   1.751   0.303  17.567  0.2988  0.7033 -0.8887
 2670SOL    HW219473   1.894   0.306  17.606  0.7915  1.8069 -0.7866
 2671SOL     OW19474   3.975   2.070   7.442  0.2685  0.7653 -0.1929
 2671SOL    HW119475   4.055   2.085   7.492  0.8064  0.8499 -1.0939
 2671SOL    HW219476   3.905   2.073   7.507 -1.4216 -0.3561 -1.9702
 2672SOL     OW19477   0.828   1.722  11.650 -0.4486  0.3636  0.4562
 2672SOL    HW119478   0.893   1.737  11.718 -0.0059  1.5284 -0.2184
 2672SOL    HW219479   0.869   1.780  11.586  0.0016  0.4549  0.8331
 2673SOL     OW19480   3.782   1.217   8.137 -0.2799  0.0558  1.0189
 2673SOL    HW119481   3.746   1.290   8.188 -0.5309  0.7086 -0.1026
 2673SOL    HW219482   3.871   1.227   8.172 -0.5200  2.6520  0.9464
 2674SOL     OW19483   0.985   4.284   4.075  0.4670  0.1968 -0.2981
 2674SOL    HW119484   1.023   4.355   4.127  0.8901  0.5735 -1.1158
 2674SOL    HW219485   0.941   4.239   4.146  3.3772 -3.8517 -1.0492
 2675SOL     OW19486   0.646   4.506   9.602  0.4317  0.1680  0.7181
 2675SOL    HW119487   0.621   4.586   9.556  2.0898 -0.2002 -0.8297
 2675SOL    HW219488   0.613   4.435   9.547  2.5746  0.1509 -0.5625
 2676SOL     OW19489   1.373   3.757   9.795  0.0242 -0.3183  0.9737
 2676SOL    HW119490   1.357   3.848   9.768 -0.4626 -0.9863 -1.0399
 2676SOL    HW219491   1.415   3.721   9.717 -1.7482 -0.7546  0.2310
 2677SOL     OW19492   2.270   4.477  12.702  0.4567 -0.3153  0.2692
 2677SOL    HW119493   2.228   4.422  12.769 -0.8597 -0.4646 -0.6836
 2677SOL    HW219494   2.310   4.537  12.764  0.3743  1.3035 -1.2512
 2678SOL     OW19495   4.635   3.448   4.704 -0.4110 -0.5386 -0.0188
 2678SOL    HW119496   4.659   3.401   4.624  1.3696  2.2327 -1.0931
 2678SOL    HW219497   4.709   3.508   4.707  0.8665 -2.1106 -0.1387
 2679SOL     OW19498   1.940   3.552   1.857 -0.4375  0.3337 -0.1607
 2679SOL    HW119499   1.859   3.538   1.905  0.5921 -0.0744  1.4535
 2679SOL    HW219500   1.957   3.474   1.804 -0.5072  1.2875 -1.5721
 2680SOL     OW19501   3.554   2.389  16.604 -0.2721 -0.3471 -0.0911
 2680SOL    HW119502   3.485   2.322  16.605  0.2660 -0.8970  0.1816
 2680SOL    HW219503   3.625   2.348  16.654 -1.2024 -1.1868  0.5348
 2681SOL     OW19504   4.256   2.166  14.249  0.5850 -0.2367  0.1566
 2681SOL    HW119505   4.238   2.105  14.178 -0.0512 -0.6596  0.6761
 2681SOL    HW219506   4.326   2.115  14.290  0.8056  0.3079  0.4582
 2682SOL     OW19507   3.918   1.927   6.962 -0.8980 -0.3062  0.0445
 2682SOL    HW119508   3.980   1.871   6.915  0.4560  0.7336  0.5728
 2682SOL    HW219509   3.958   1.925   7.050 -3.1888 -0.1065  1.0818
 2683SOL     OW19510   0.287   1.587   8.405 -0.0098  0.1907  0.1214
 2683SOL    HW119511   0.272   1.600   8.499 -0.0132 -2.7469  0.5064
 2683SOL    HW219512   0.305   1.493   8.400 -0.2197  0.2376 -1.6560
 2684SOL     OW19513   3.431   1.995   8.269  0.0297 -0.3600  0.4301
 2684SOL    HW119514   3.368   2.031   8.333  2.3856  1.7355  1.5751
 2684SOL    HW219515   3.461   2.065   8.211 -0.5849 -0.4592 -0.0113
 2685SOL     OW19516   2.300   1.306  16.570  0.0595  0.1752 -0.2342
 2685SOL    HW119517   2.241   1.243  16.529  0.9064 -1.3768  0.9877
 2685SOL    HW219518   2.269   1.388  16.531 -3.1193 -0.8568  0.1243
 2686SOL     OW19519   3.951   1.749   7.716 -0.5171 -0.1032  0.0510
 2686SOL    HW119520   4.002   1.792   7.785  4.1732 -0.2895 -3.3096
 2686SOL    HW219521   4.007   1.750   7.638 -0.5517  1.1387  0.0457
 2687SOL     OW19522   2.630   1.646   2.446  0.7832  0.2945  1.0971
 2687SOL    HW119523   2.670   1.561   2.426 -3.0867 -1.3458  0.3930
 2687SOL    HW219524   2.543   1.633   2.409  1.0257  1.4738  0.1104
 2688SOL     OW19525   2.479   0.394   5.544 -0.4631 -0.1860 -0.0381
 2688SOL    HW119526   2.446   0.418   5.457 -1.5496  1.6182  0.8755
 2688SOL    HW219527   2.417   0.421   5.612  0.6767  1.1484  0.4756
 2689SOL     OW19528   4.043   2.673   4.040  0.1018  0.1884 -1.0068
 2689SOL    HW119529   3.989   2.722   3.978 -0.7595  1.7944  1.0161
 2689SOL    HW219530   4.120   2.673   3.984 -0.3766 -0.6920 -1.6562
 2690SOL     OW19531   0.462   1.036   7.618  0.5129 -0.0619 -0.1871
 2690SOL    HW119532   0.507   1.084   7.688  0.8600  0.4595 -0.7662
 2690SOL    HW219533   0.375   1.075   7.626  0.2182 -0.4766 -1.3823
 2691SOL     OW19534   4.163   4.230   4.291 -0.8918 -0.3887 -0.0090
 2691SOL    HW119535   4.169   4.249   4.384  1.9342  0.8870 -0.4558
 2691SOL    HW219536   4.211   4.149   4.307  0.8574  0.8585  1.0737
 2692SOL     OW19537   3.432   0.935   5.503  0.9421  0.6668 -0.0136
 2692SOL    HW119538   3.410   0.988   5.580 -2.5331 -1.6514  0.5800
 2692SOL    HW219539   3.343   0.901   5.490  0.9351 -0.0386  1.8223
 2693SOL     OW19540   1.889   2.000   6.462 -0.2733  0.2699  0.0607
 2693SOL    HW119541   1.820   1.988   6.397  0.5915  2.8205 -1.3144
 2693SOL    HW219542   1.950   1.935   6.428 -0.2728 -0.4781  1.4906
 2694SOL     OW19543   4.575   4.574   8.557 -0.4322  0.2829  0.3213
 2694SOL    HW119544   4.661   4.568   8.597 -0.4858  0.0354  0.3999
 2694SOL    HW219545   4.534   4.633   8.620 -1.7122 -0.3790  0.1091
 2695SOL     OW19546   2.728   3.964   6.224  0.2923 -0.2808  0.1570
 2695SOL    HW119547   2.637   3.947   6.201  0.4896 -0.6727 -0.3372
 2695SOL    HW219548   2.735   4.059   6.217 -2.1973 -0.3934 -3.1997
 2696SOL     OW19549   3.969   0.176  13.194 -0.3570  0.0358  0.5106
 2696SOL    HW119550   3.938   0.252  13.244 -1.1208  0.6750 -0.9219
 2696SOL    HW219551   4.043   0.160  13.251  1.6345  1.8163 -1.5564
 2697SOL     OW19552   1.575   2.173   4.096  0.9488 -0.1435  0.4290
 2697SOL    HW119553   1.637   2.142   4.162  1.8693 -0.9024 -0.8134
 2697SOL    HW219554   1.633   2.243   4.069  0.2999 -0.2061 -1.0948
 2698SOL     OW19555   4.664   0.051   4.388 -0.1010  0.1645 -0.1641
 2698SOL    HW119556   4.575   0.016   4.379 -0.5531  0.5059  2.9252
 2698SOL    HW219557   4.684   4.717   4.466 -1.7217  0.8489  0.7094
 2699SOL     OW19558   4.032   2.219  15.649 -0.6112  0.1063  0.2405
 2699SOL    HW119559   4.084   2.210  15.729  0.8736  0.0827 -0.7350
 2699SOL    HW219560   4.049   2.135  15.607 -1.8986  0.1784 -0.4209
 2700SOL     OW19561   4.332   4.627  15.243 -0.0057 -0.0351  0.7290
 2700SOL    HW119562   4.395   4.612  15.314  1.3531 -2.0668 -0.8689
 2700SOL    HW219563   4.287   4.543  15.240  0.4212 -0.2494  0.3144
 2701SOL     OW19564   0.737   2.804   2.333 -0.3275  0.6122 -0.0994
 2701SOL    HW119565   0.707   2.721   2.296  0.1816  2.8238 -5.4563
 2701SOL    HW219566   0.659   2.860   2.339 -0.9170 -0.2910  0.6391
 2702SOL     OW19567   2.637   3.287   5.983 -0.2547  0.2775  0.0670
 2702SOL    HW119568   2.598   3.371   5.963  1.2543  0.6201 -1.4296
 2702SOL    HW219569   2.647   3.241   5.900 -3.4819  0.5667 -0.4840
 2703SOL     OW19570   1.301   0.714  11.186  0.2142 -0.0950  0.2097
 2703SOL    HW119571   1.241   0.728  11.259  0.6155  1.5004  0.2424
 2703SOL    HW219572   1.378   0.768  11.206  0.9538 -0.7354 -0.9317
 2704SOL     OW19573   1.117   2.831  10.168  0.0076  0.4060 -0.1584
 2704SOL    HW119574   1.037   2.862  10.125 -0.8437 -0.4893  0.7782
 2704SOL    HW219575   1.140   2.753  10.117 -1.2798 -1.6201  2.3993
 2705SOL     OW19576   0.491   1.631   4.634  0.0892  0.0879  0.0422
 2705SOL    HW119577   0.584   1.653   4.634 -0.4356  2.3652  2.0007
 2705SOL    HW219578   0.471   1.664   4.547  0.9784  1.4067  0.3440
 2706SOL     OW19579   2.712   0.669   4.578  0.0071  1.1051 -0.3314
 2706SOL    HW119580   2.648   0.650   4.647  1.7945 -0.4942  0.9138
 2706SOL    HW219581   2.781   0.701   4.636  0.9114 -2.5402  0.6237
 2707SOL     OW19582   0.653   0.307   9.332  0.1428  0.4364  0.2952
 2707SOL    HW119583   0.597   0.341   9.402  0.1259  0.7440  0.1311
 2707SOL    HW219584   0.618   0.361   9.261  1.1690 -1.0727 -1.3501
 2708SOL     OW19585   1.681   0.528   5.187 -0.3947  0.2774  0.0983
 2708SOL    HW119586   1.668   0.623   5.186  0.8649  0.4327 -1.0654
 2708SOL    HW219587   1.626   0.500   5.261 -1.1755 -0.2466 -0.6902
 2709SOL     OW19588   0.072   0.230   8.178 -0.2560 -0.0950 -0.6823
 2709SOL    HW119589   0.072   0.269   8.265  1.8376  1.0400 -1.1750
 2709SOL    HW219590   0.143   0.168   8.199  2.0109  2.3945 -0.9892
 2710SOL     OW19591   3.646   3.656   3.146 -0.5029 -0.0817 -0.0748
 2710SOL    HW119592   3.687   3.713   3.081 -2.0064 -0.7123 -1.5676
 2710SOL    HW219593   3.703   3.674   3.221 -1.0576 -1.1836  0.6105
 2711SOL     OW19594   0.767   1.339   7.768 -0.1078 -0.3191  0.3976
 2711SOL    HW119595   0.724   1.262   7.806  2.3770 -1.7423  0.3264
 2711SOL    HW219596   0.708   1.399   7.813  1.0606  0.8906  0.2907
 2712SOL     OW19597   3.881   3.578   3.309  0.2598  0.0928 -0.1402
 2712SOL    HW119598   3.969   3.601   3.280  0.6602 -2.0773 -0.6781
 2712SOL    HW219599   3.861   3.499   3.259  2.2525 -0.3363 -0.2422
 2713SOL     OW19600   2.808   3.976  16.534  0.5605 -0.0909  0.0569
 2713SOL    HW119601   2.807   4.010  16.445 -1.7092 -3.0373 -1.0391
 2713SOL    HW219602   2.727   4.011  16.571  0.3915  1.0434 -1.4165
 2714SOL     OW19603   4.348   3.563   3.025 -0.9061  0.5260 -0.2395
 2714SOL    HW119604   4.374   3.506   2.953  0.8949  1.0119  0.0194
 2714SOL    HW219605   4.278   3.614   2.985 -0.9592  0.2980 -0.4348
 2715SOL     OW19606   2.169   0.167   6.701  0.2348 -0.0817 -0.2524
 2715SOL    HW119607   2.124   0.246   6.672 -0.3248 -1.7738 -3.9612
 2715SOL    HW219608   2.196   0.197   6.788  1.7296 -0.1481 -0.7014
 2716SOL     OW19609   2.441   4.259   3.998  0.1242 -0.0565 -1.0034
 2716SOL    HW119610   2.387   4.250   4.077  1.3302  0.3282 -0.1226
 2716SOL    HW219611   2.490   4.177   3.995  0.6143  0.1007  2.6990
 2717SOL     OW19612   1.941   3.987  16.885  0.1402  0.3194  0.6837
 2717SOL    HW119613   1.935   3.970  16.979 -4.4376  0.4787  0.4351
 2717SOL    HW219614   1.966   4.079  16.891  0.9479  0.0643  1.1547
 2718SOL     OW19615   3.442   4.340   2.956  0.4204  0.0911 -0.3034
 2718SOL    HW119616   3.468   4.310   2.869  1.2938 -0.5469  0.1819
 2718SOL    HW219617   3.366   4.285   2.978  0.0672  0.8836  0.4779
 2719SOL     OW19618   1.343   3.618   3.973 -0.0290  0.6926 -0.3195
 2719SOL    HW119619   1.262   3.579   3.939 -0.2077 -0.1591  1.1071
 2719SOL    HW219620   1.351   3.700   3.924 -1.6418  1.5272  0.7971
 2720SOL     OW19621   0.103   2.480   5.502  0.2265  0.5464  0.0206
 2720SOL    HW119622   0.124   2.431   5.423  0.9481 -0.2707  0.7122
 2720SOL    HW219623   0.163   2.430   5.557 -0.4612  1.8010  1.9190
 2721SOL     OW19624   0.028   2.829  15.179 -0.4475 -0.4805 -0.4820
 2721SOL    HW119625   4.674   2.874  15.137 -0.0637 -0.1702 -0.8079
 2721SOL    HW219626   4.711   2.751  15.221 -1.5104  0.7354  0.8899
 2722SOL     OW19627   2.507   3.034   6.520  0.7230 -0.4121  0.8892
 2722SOL    HW119628   2.426   3.019   6.472  1.6878 -0.3855 -0.7606
 2722SOL    HW219629   2.557   2.967   6.472  2.0441  1.9635 -1.0548
 2723SOL     OW19630   0.336   2.540   7.756  0.0473  0.4305 -0.4532
 2723SOL    HW119631   0.333   2.449   7.726  0.6104  0.1028  0.4834
 2723SOL    HW219632   0.263   2.576   7.706 -0.2189 -2.5390 -2.2431
 2724SOL     OW19633   1.342   3.509   2.898  0.3711 -0.6337 -0.7512
 2724SOL    HW119634   1.375   3.594   2.925 -0.1335 -0.3193 -1.1239
 2724SOL    HW219635   1.368   3.449   2.968 -1.4481 -0.0485  0.4123
 2725SOL     OW19636   2.035   1.584  13.642  0.2512  0.2701  0.3878
 2725SOL    HW119637   2.047   1.603  13.549 -1.0086  2.1926  0.6218
 2725SOL    HW219638   1.941   1.603  13.649  0.2294  1.0577 -2.0265
 2726SOL     OW19639   3.179   0.020  11.076  0.6581 -0.5734  0.5118
 2726SOL    HW119640   3.236   0.032  11.000  1.4438  0.6575  1.3088
 2726SOL    HW219641   3.235   0.047  11.149  1.6826 -1.8828  0.2192
 2727SOL     OW19642   1.448   1.857   6.393 -0.1874 -0.3726 -0.0391
 2727SOL    HW119643   1.393   1.933   6.412 -2.7333 -1.9089 -1.1985
 2727SOL    HW219644   1.511   1.887   6.327 -0.6516 -0.0515 -0.3377
 2728SOL     OW19645   3.742   4.481   6.016  0.5385  0.4047 -0.2661
 2728SOL    HW119646   3.737   4.570   6.051  0.1835  0.0439  0.5884
 2728SOL    HW219647   3.683   4.432   6.073 -0.4333  0.6170 -1.0862
 2729SOL     OW19648   2.850   4.242   6.086  0.1478 -0.0047  0.3118
 2729SOL    HW119649   2.841   4.240   6.181  2.2734 -2.5292  0.4412
 2729SOL    HW219650   2.942   4.259   6.068  1.1683 -1.3460  4.3768
 2730SOL     OW19651   2.766   2.384   3.173 -0.3599  0.0067  0.3052
 2730SOL    HW119652   2.795   2.458   3.225 -1.0396  0.8542 -0.5183
 2730SOL    HW219653   2.785   2.422   3.087 -0.9840 -0.4602 -0.0396
 2731SOL     OW19654   0.437   3.259  12.628  0.4752  0.2573 -0.1119
 2731SOL    HW119655   0.485   3.325  12.679  0.6690 -0.1265  0.2006
 2731SOL    HW219656   0.370   3.313  12.586 -1.9507 -1.6377  1.3538
 2732SOL     OW19657   0.582   4.519  13.965  0.4134 -0.5122  0.0156
 2732SOL    HW119658   0.487   4.528  13.956  0.3769 -2.0446 -1.3762
 2732SOL    HW219659   0.604   4.576  13.891  0.8273  0.0442  0.5778
 2733SOL     OW19660   4.698   3.254   8.464  0.1142 -0.6005  0.2375
 2733SOL    HW119661   4.648   3.238   8.384  0.5210  0.8960 -0.3124
 2733SOL    HW219662   0.011   3.344   8.451 -1.5381  0.0745  0.9361
 2734SOL     OW19663   2.899   2.729   4.898  0.0447 -0.1046  0.1371
 2734SOL    HW119664   2.838   2.792   4.939 -1.4705  1.1335 -3.9905
 2734SOL    HW219665   2.833   2.659   4.894  0.7471 -0.7807  0.5468
 2735SOL     OW19666   1.970   1.802   9.463  0.7307 -0.2858 -0.3717
 2735SOL    HW119667   1.982   1.890   9.499 -0.4742  0.4626 -1.7942
 2735SOL    HW219668   1.967   1.822   9.369  1.4543 -2.2819 -0.8152
 2736SOL     OW19669   1.195   1.905   5.613  0.1925  0.4734 -0.1324
 2736SOL    HW119670   1.227   1.851   5.541 -0.7235 -0.7618  0.3705
 2736SOL    HW219671   1.230   1.849   5.682 -0.8709 -0.9427 -0.7410
 2737SOL     OW19672   0.137   3.927   7.966 -0.0289  0.1305 -0.0711
 2737SOL    HW119673   0.070   3.909   7.900  0.2413 -0.0639 -0.2920
 2737SOL    HW219674   0.117   3.861   8.033  0.8711 -0.2463 -0.1713
 2738SOL     OW19675   2.406   2.183   5.386  0.0159  0.9757  0.6151
 2738SOL    HW119676   2.449   2.203   5.303 -1.0503  1.1012  0.0873
 2738SOL    HW219677   2.332   2.128   5.360  0.7894  0.9339 -1.4747
 2739SOL     OW19678   4.693   4.320   4.960 -0.4521 -0.0301 -0.5189
 2739SOL    HW119679   4.603   4.310   4.990 -0.3868 -3.8014 -1.4710
 2739SOL    HW219680   4.692   4.415   4.952  1.1334  0.0525  0.2562
 2740SOL     OW19681   3.073   1.415  14.222  0.0726  0.4409 -0.0914
 2740SOL    HW119682   3.129   1.466  14.281  2.0661 -0.2699 -1.3687
 2740SOL    HW219683   3.089   1.456  14.137 -3.9387  0.6480 -0.7414
 2741SOL     OW19684   2.095   2.223   4.435 -0.0351 -0.2899 -0.4795
 2741SOL    HW119685   2.075   2.229   4.528  0.2140 -0.3973 -0.4193
 2741SOL    HW219686   2.173   2.168   4.436  0.5782  0.6099  0.7298
 2742SOL     OW19687   1.625   4.048   7.907 -0.5229 -0.5610 -0.0185
 2742SOL    HW119688   1.636   4.101   7.829  0.2877  0.1818  0.5969
 2742SOL    HW219689   1.594   3.963   7.875  1.6902 -1.4906  0.2945
 2743SOL     OW19690   3.417   1.460   1.502 -0.1729 -0.4583 -0.0519
 2743SOL    HW119691   3.411   1.473   1.407  2.0112  2.2973  0.1931
 2743SOL    HW219692   3.358   1.529   1.534 -1.0075 -0.6250 -1.2342
 2744SOL     OW19693   3.835   2.099   6.236 -0.6703 -0.3209  0.1732
 2744SOL    HW119694   3.844   2.188   6.202  0.0209  0.2098  1.7499
 2744SOL    HW219695   3.749   2.106   6.277 -0.7670 -1.4303  0.1506
 2745SOL     OW19696   4.077   1.604  13.241  0.5233 -0.1236 -0.5725
 2745SOL    HW119697   4.093   1.551  13.162 -0.0791  1.9160 -2.0738
 2745SOL    HW219698   4.141   1.564  13.300 -1.5609 -0.8624  1.1800
 2746SOL     OW19699   2.211   1.182  13.779  0.2761  0.1225 -0.4451
 2746SOL    HW119700   2.124   1.194  13.818 -1.2225 -2.7097 -2.9475
 2746SOL    HW219701   2.273   1.178  13.852 -0.3994  1.6417  0.2162
 2747SOL     OW19702   1.682   0.705  12.557 -0.0415  0.4019  0.1003
 2747SOL    HW119703   1.760   0.692  12.611 -0.6633 -2.6548  0.2631
 2747SOL    HW219704   1.627   0.769  12.601  0.3840  0.7148  0.1811
 2748SOL     OW19705   3.392   0.525   2.097 -0.4773  0.1000 -0.1961
 2748SOL    HW119706   3.408   0.601   2.041 -1.0485  0.4880  0.1678
 2748SOL    HW219707   3.356   0.572   2.172 -1.8227  1.0732 -1.4491
 2749SOL     OW19708   1.066   4.293   8.422 -0.5375  0.0223 -0.4637
 2749SOL    HW119709   0.992   4.354   8.414 -0.7135 -0.1265  0.0034
 2749SOL    HW219710   1.020   4.211   8.406 -0.2231 -0.3448  0.5223
 2750SOL     OW19711   4.303   1.653   4.343  0.0759 -0.1053  0.5294
 2750SOL    HW119712   4.233   1.602   4.300  0.5065 -0.7070  0.5401
 2750SOL    HW219713   4.273   1.742   4.361  1.1277  0.2053  0.7373
 2751SOL     OW19714   3.339   0.319   5.407 -0.2748  0.1111  0.2250
 2751SOL    HW119715   3.264   0.315   5.466 -0.9825  1.3857 -0.5922
 2751SOL    HW219716   3.396   0.322   5.483  1.3852  1.8778 -1.0710
 2752SOL     OW19717   2.966   0.901   8.027  0.0512 -0.1169  0.0532
 2752SOL    HW119718   2.951   0.922   8.119 -0.6772  1.4352 -0.4162
 2752SOL    HW219719   3.059   0.923   8.020  0.6323 -2.7906 -0.8848
 2753SOL     OW19720   0.144   4.244   6.355 -0.3150 -0.4606  0.1095
 2753SOL    HW119721   0.171   4.189   6.429  0.5315 -2.2732 -1.5746
 2753SOL    HW219722   0.064   4.288   6.386 -0.8071 -0.1296 -1.6744
 2754SOL     OW19723   1.061   3.047   5.716  0.2589  0.0257 -0.0165
 2754SOL    HW119724   1.149   3.052   5.753 -0.3559  3.8440  0.9127
 2754SOL    HW219725   1.025   3.008   5.796 -0.5776  0.2129 -0.3008
 2755SOL     OW19726   4.408   2.800   9.022  0.5111  1.0126 -0.3323
 2755SOL    HW119727   4.337   2.765   8.967  1.7353 -0.5023 -0.9648
 2755SOL    HW219728   4.356   2.873   9.056  0.3333  1.1805 -0.9546
 2756SOL     OW19729   2.978   2.693   6.992  0.3389 -0.3451 -0.2793
 2756SOL    HW119730   2.919   2.643   6.935  0.2510  0.2956 -0.7541
 2756SOL    HW219731   3.044   2.623   6.992  0.0277 -0.6479 -1.4469
 2757SOL     OW19732   2.039   4.586   2.333 -0.2307 -0.1958 -0.1157
 2757SOL    HW119733   2.130   4.611   2.346  0.2920 -1.1253 -1.9871
 2757SOL    HW219734   2.019   4.576   2.426 -0.1174 -2.5250 -0.3616
 2758SOL     OW19735   4.570   0.024   5.173  0.2153  0.2462  0.1262
 2758SOL    HW119736   4.644   0.071   5.213 -0.9776  2.2506 -0.0331
 2758SOL    HW219737   4.572   4.674   5.241  0.2042  0.2270  0.1071
 2759SOL     OW19738   0.211   1.788   3.356  0.7541  0.7829  1.0242
 2759SOL    HW119739   0.133   1.837   3.329  1.0993 -0.1695 -1.7921
 2759SOL    HW219740   0.278   1.819   3.296 -0.0253 -0.2104 -0.3802
 2760SOL     OW19741   3.288   0.697  15.929 -0.6472 -0.1921 -0.2128
 2760SOL    HW119742   3.305   0.678  16.021 -0.8572 -1.7242 -0.4902
 2760SOL    HW219743   3.369   0.743  15.905  0.3678 -1.6797  0.3796
 2761SOL     OW19744   0.140   3.155  14.222 -0.4603  0.5165 -0.3999
 2761SOL    HW119745   0.210   3.216  14.244 -0.9950  1.6061 -1.7119
 2761SOL    HW219746   0.180   3.079  14.264 -1.8253  0.1581  0.2729
 2762SOL     OW19747   2.595   0.888   8.570  0.0430  0.1781 -0.3285
 2762SOL    HW119748   2.573   0.797   8.590  1.3019  0.1715  1.0422
 2762SOL    HW219749   2.633   0.920   8.652  1.0891  1.0875 -1.1643
 2763SOL     OW19750   2.312   3.851   4.993 -0.5210  0.0715  0.0332
 2763SOL    HW119751   2.280   3.795   4.922 -0.3255 -1.3229  1.0433
 2763SOL    HW219752   2.234   3.889   5.032 -1.8190 -2.3595 -0.2298
 2764SOL     OW19753   0.883   3.774   3.832  0.8634  0.3503 -0.2196
 2764SOL    HW119754   0.914   3.865   3.824  0.8229  0.2837 -1.1718
 2764SOL    HW219755   0.952   3.728   3.785  0.5649  1.1639 -1.4370
 2765SOL     OW19756   1.124   2.756   4.135  0.0009  0.3855  0.1288
 2765SOL    HW119757   1.211   2.772   4.171  0.7884  0.5433 -1.8610
 2765SOL    HW219758   1.055   2.765   4.201  0.4164 -0.5811  0.6996
 2766SOL     OW19759   2.490   2.988   9.044  0.5599  0.5242 -0.0486
 2766SOL    HW119760   2.554   3.020   9.108 -1.7562  0.4961  2.2749
 2766SOL    HW219761   2.503   3.051   8.973  0.8228  1.9433  1.2578
 2767SOL     OW19762   2.279   0.632   7.831 -0.4860 -0.2275 -0.2410
 2767SOL    HW119763   2.228   0.710   7.851 -0.5314  0.0607 -1.4984
 2767SOL    HW219764   2.214   0.567   7.803  0.9693 -2.4267  1.4632
 2768SOL     OW19765   1.738   4.384  13.758  0.3417 -0.1221 -0.3887
 2768SOL    HW119766   1.699   4.297  13.760 -1.7696  0.8696  2.4272
 2768SOL    HW219767   1.708   4.412  13.672 -1.1259 -1.1812 -0.2232
 2769SOL     OW19768   4.254   2.190   1.776 -0.2607 -0.3871  0.1158
 2769SOL    HW119769   4.287   2.249   1.845  0.2042 -0.2696 -0.2088
 2769SOL    HW219770   4.245   2.244   1.698  0.7665 -0.6424 -0.1733
 2770SOL     OW19771   3.772   2.605   3.536 -0.0896 -0.3352 -0.2188
 2770SOL    HW119772   3.865   2.618   3.555 -0.4405  1.1768  0.5091
 2770SOL    HW219773   3.747   2.548   3.608 -0.3658  0.1543  0.0699
 2771SOL     OW19774   4.148   3.703   8.318 -0.2493 -0.3689 -0.0508
 2771SOL    HW119775   4.177   3.793   8.299  2.2579 -0.9254  1.2086
 2771SOL    HW219776   4.182   3.689   8.406 -0.9345  0.0396  0.2811
 2772SOL     OW19777   2.890   1.036   1.635  0.5393 -0.0847  0.0521
 2772SOL    HW119778   2.934   1.022   1.552  1.9275  0.0492  0.7669
 2772SOL    HW219779   2.954   1.100   1.666 -2.7779  3.2416  0.1442
 2773SOL     OW19780   1.980   0.282   2.982  0.4629  0.6047  0.2329
 2773SOL    HW119781   1.897   0.331   2.979  1.3835  2.1821  0.6092
 2773SOL    HW219782   1.978   0.224   2.906 -0.6270  1.9374 -0.7655
 2774SOL     OW19783   1.785   4.055  11.672  0.6866  0.6343 -0.1782
 2774SOL    HW119784   1.867   4.089  11.638  0.1234  1.3116 -0.8686
 2774SOL    HW219785   1.722   4.125  11.653  0.9846  0.2414 -2.7064
 2775SOL     OW19786   2.806   0.254   7.011  0.4175 -0.0415  0.5577
 2775SOL    HW119787   2.798   0.219   6.922  0.7924  2.1762 -0.3395
 2775SOL    HW219788   2.748   0.193   7.057 -2.1337  2.0336  0.1424
 2776SOL     OW19789   4.049   4.620   9.012  0.4619  0.5892 -0.2238
 2776SOL    HW119790   4.060   4.621   8.917 -1.3917  1.8066 -0.4396
 2776SOL    HW219791   4.016   4.710   9.021 -0.9630 -0.0211  0.6703
 2777SOL     OW19792   3.994   2.889  12.771  0.1470  0.3776 -0.0901
 2777SOL    HW119793   3.917   2.864  12.719 -0.3323 -0.6771  1.0904
 2777SOL    HW219794   3.959   2.858  12.855  1.2630  0.0832  0.2567
 2778SOL     OW19795   1.219   3.196  12.741  0.0872  0.4596  0.4854
 2778SOL    HW119796   1.180   3.138  12.676 -0.0923  3.1272 -1.8241
 2778SOL    HW219797   1.188   3.275  12.697  1.4109  1.5942  1.5753
 2779SOL     OW19798   3.369   3.194  12.030  0.7204  0.3058  0.1824
 2779SOL    HW119799   3.412   3.111  12.048 -2.6240 -1.4165  0.3248
 2779SOL    HW219800   3.346   3.175  11.940  1.2132 -0.6717  0.2730
 2780SOL     OW19801   3.354   4.658  16.032 -0.1969 -0.0095  0.0422
 2780SOL    HW119802   3.289   4.706  15.981 -2.4178 -2.1820  0.8007
 2780SOL    HW219803   3.351   4.573  15.989  0.1942 -0.6475  1.2586
 2781SOL     OW19804   1.149   4.718   7.702  0.4006  0.6837 -0.4852
 2781SOL    HW119805   1.184   4.691   7.617  0.8618  0.6472 -0.2840
 2781SOL    HW219806   1.155   0.094   7.687  0.3730  0.6227 -0.8740
 2782SOL     OW19807   2.706   2.761   6.485  0.4036  0.3594 -0.5909
 2782SOL    HW119808   2.612   2.756   6.504  0.0973 -4.0952 -3.2741
 2782SOL    HW219809   2.741   2.688   6.537 -1.7116  0.0055  0.3645
 2783SOL     OW19810   2.292   1.934   5.270 -0.4516 -0.3165 -0.0765
 2783SOL    HW119811   2.283   1.938   5.175  0.1414 -1.9231 -0.1956
 2783SOL    HW219812   2.342   1.853   5.283 -2.8305 -1.5333  1.6172
 2784SOL     OW19813   4.403   4.152  15.034  0.2439 -0.3704  0.6014
 2784SOL    HW119814   4.456   4.144  14.954 -0.5113  0.0966  0.0554
 2784SOL    HW219815   4.355   4.233  15.021 -1.6458 -1.6701 -0.4781
 2785SOL     OW19816   0.237   3.132  15.511  0.2088 -0.0039 -0.5087
 2785SOL    HW119817   0.302   3.126  15.581 -1.4152 -1.6941  0.8523
 2785SOL    HW219818   0.183   3.205  15.542  2.0084  0.8434  0.6413
 2786SOL     OW19819   3.860   4.238   8.454 -0.1084  0.0213  0.0776
 2786SOL    HW119820   3.921   4.170   8.482  0.3275  0.3882  0.0087
 2786SOL    HW219821   3.788   4.188   8.415 -0.0185 -0.6884  0.8353
 2787SOL     OW19822   0.479   3.153   3.990  0.4711 -0.1040 -0.5012
 2787SOL    HW119823   0.436   3.126   3.909  2.6431 -4.4917 -0.1912
 2787SOL    HW219824   0.410   3.187   4.047 -0.1007  0.4131 -1.5092
 2788SOL     OW19825   3.269   1.682   5.273  0.4871  0.1974  0.5236
 2788SOL    HW119826   3.217   1.657   5.349 -3.4490  1.0121 -1.9340
 2788SOL    HW219827   3.333   1.611   5.268 -0.1028 -0.2520 -0.5407
 2789SOL     OW19828   4.480   3.121   9.760 -0.6110  0.0240 -0.2339
 2789SOL    HW119829   4.417   3.076   9.816 -0.3364 -0.0786 -0.0039
 2789SOL    HW219830   4.429   3.146   9.683  1.0625  3.2723 -0.2943
 2790SOL     OW19831   2.083   2.426   7.155 -0.1116 -0.0394 -0.6671
 2790SOL    HW119832   2.051   2.349   7.108 -0.8019  0.6312 -1.2855
 2790SOL    HW219833   2.052   2.415   7.245 -1.2091  0.4969 -0.9757
 2791SOL     OW19834   2.101   2.858   1.783  0.0846  0.1660  0.1073
 2791SOL    HW119835   2.165   2.795   1.748 -0.7826 -1.4782  1.4367
 2791SOL    HW219836   2.039   2.870   1.711 -0.4308  2.8019  0.9897
 2792SOL     OW19837   3.853   2.144   1.824 -0.2394 -0.1171 -0.0429
 2792SOL    HW119838   3.776   2.088   1.831 -0.4806  0.2226  0.0369
 2792SOL    HW219839   3.899   2.101   1.752 -0.4467 -1.0919  0.4099
 2793SOL     OW19840   2.214   3.346   8.280 -0.3504  0.3595  0.0378
 2793SOL    HW119841   2.270   3.391   8.217 -0.6708  1.5840  0.6362
 2793SOL    HW219842   2.131   3.335   8.234 -0.4353 -0.8646  0.4963
 2794SOL     OW19843   4.105   0.160   9.453 -0.4287 -0.1092 -0.5576
 2794SOL    HW119844   4.110   0.209   9.535  0.4310 -1.2031  0.0420
 2794SOL    HW219845   4.016   0.183   9.429 -0.8557 -0.1657  0.9577
 2795SOL     OW19846   3.766   2.290   2.465 -0.3386 -0.2705  0.5120
 2795SOL    HW119847   3.741   2.222   2.527  1.4199 -0.8454  0.6041
 2795SOL    HW219848   3.775   2.244   2.382 -0.0675  0.3012  0.2192
 2796SOL     OW19849   1.328   0.106   8.865  0.0055 -0.1209 -0.7556
 2796SOL    HW119850   1.308   0.190   8.907 -1.1557 -0.9845  0.4452
 2796SOL    HW219851   1.379   0.062   8.933 -1.6201  1.7782  1.7152
 2797SOL     OW19852   3.327   4.003  12.318 -0.0647 -0.3291  0.4140
 2797SOL    HW119853   3.311   3.998  12.224 -0.1428  0.7774  0.3741
 2797SOL    HW219854   3.418   3.975  12.312  0.7862  2.0912  2.0394
 2798SOL     OW19855   4.628   0.314   4.518 -0.3704  0.2182 -0.0269
 2798SOL    HW119856   4.704   0.334   4.463 -0.4058  1.3927  0.3367
 2798SOL    HW219857   4.592   0.249   4.458  2.5826 -1.5153  0.0930
 2799SOL     OW19858   3.881   1.878   6.080  0.1552  0.3473 -0.2167
 2799SOL    HW119859   3.813   1.846   6.021 -1.4237  0.2447  1.6421
 2799SOL    HW219860   3.833   1.949   6.123 -3.8002 -1.4893 -1.5346
 2800SOL     OW19861   4.153   1.704   8.788 -0.3812 -0.6320  0.0591
 2800SOL    HW119862   4.234   1.653   8.791  0.7983  1.1463 -1.4578
 2800SOL    HW219863   4.167   1.756   8.709 -0.4731 -0.5865  0.0717
 2801SOL     OW19864   2.619   4.681   6.432 -0.1959  0.3883 -0.0233
 2801SOL    HW119865   2.546   4.705   6.489 -0.1378 -1.4812  0.8223
 2801SOL    HW219866   2.691   0.005   6.478 -0.7820  0.6212  0.6675
 2802SOL     OW19867   1.185   1.391   4.240 -0.0222  0.0638  0.1798
 2802SOL    HW119868   1.234   1.472   4.229  0.7501 -0.3846  0.3555
 2802SOL    HW219869   1.155   1.399   4.330 -0.2629 -2.0070  0.2869
 2803SOL     OW19870   1.222   0.356   4.230  0.2691 -0.1361 -0.5815
 2803SOL    HW119871   1.198   0.267   4.204  2.1216 -1.6252  2.7914
 2803SOL    HW219872   1.317   0.349   4.219  0.6631  1.3452  1.9510
 2804SOL     OW19873   3.664   4.212   8.751  0.0329 -0.2240 -0.5311
 2804SOL    HW119874   3.588   4.177   8.798 -0.2580  1.5273  0.3171
 2804SOL    HW219875   3.628   4.210   8.662 -0.4859  0.0677 -0.3284
 2805SOL     OW19876   0.745   3.325  14.199 -0.1143 -0.2460 -0.1133
 2805SOL    HW119877   0.738   3.289  14.287 -0.7464  1.9148  0.7374
 2805SOL    HW219878   0.747   3.419  14.218  0.9878 -0.0240 -1.3583
 2806SOL     OW19879   1.939   2.475   4.926 -0.5261 -0.2610  0.2016
 2806SOL    HW119880   1.985   2.488   4.843 -0.7344 -3.4884 -0.4365
 2806SOL    HW219881   1.856   2.436   4.897 -1.7563  2.2882  0.3724
 2807SOL     OW19882   4.716   4.661   3.904  0.6250  0.4393  0.0084
 2807SOL    HW119883   4.654   0.013   3.922  0.3562 -0.0775  1.1467
 2807SOL    HW219884   4.670   4.598   3.849 -1.3350  0.2046  1.9036
 2808SOL     OW19885   0.026   2.345  10.407 -0.2570 -0.5086  0.5789
 2808SOL    HW119886   0.012   2.389  10.323  0.8537 -1.9897 -0.3743
 2808SOL    HW219887   4.659   2.300  10.411 -1.1037  0.9314 -1.5356
 2809SOL     OW19888   3.220   0.885   5.145  0.4622 -0.3012  0.3118
 2809SOL    HW119889   3.302   0.851   5.179 -0.9395 -0.1369  3.8541
 2809SOL    HW219890   3.190   0.818   5.084  0.3613  2.4009 -2.6430
 2810SOL     OW19891   3.745   3.416   6.139  0.1657  0.3769 -0.4237
 2810SOL    HW119892   3.706   3.329   6.129  1.0340 -0.2269  1.3626
 2810SOL    HW219893   3.733   3.459   6.055  0.1590  1.9805  0.3929
 2811SOL     OW19894   2.610   2.927   5.809  0.0356 -0.2693  0.6565
 2811SOL    HW119895   2.595   3.020   5.796  0.4005 -0.2970  0.0270
 2811SOL    HW219896   2.694   2.924   5.857  0.8700 -0.1629 -0.7988
 2812SOL     OW19897   0.124   3.138   5.936  0.2164 -0.0236  0.2940
 2812SOL    HW119898   0.082   3.169   6.016 -0.8280 -3.8115  1.2457
 2812SOL    HW219899   0.132   3.216   5.882 -0.3488  0.4467  0.8955
 2813SOL     OW19900   4.217   4.259   5.906  0.1178  0.3861  0.3744
 2813SOL    HW119901   4.165   4.319   5.960 -0.0767  0.1114  0.4910
 2813SOL    HW219902   4.244   4.318   5.835  0.0373  0.0690  0.0818
 2814SOL     OW19903   0.140   3.411  10.324  0.0570 -0.0578 -0.3948
 2814SOL    HW119904   0.092   3.448  10.399 -1.6261 -0.5019 -1.2510
 2814SOL    HW219905   0.083   3.335  10.314  1.9888 -1.6558  0.6944
 2815SOL     OW19906   1.650   3.895   6.091  0.4987 -0.0923 -0.4886
 2815SOL    HW119907   1.582   3.927   6.032 -0.1529 -0.6779 -0.0407
 2815SOL    HW219908   1.652   3.800   6.081  1.8351 -0.1006 -0.2485
 2816SOL     OW19909   3.304   0.980   7.613  0.1490 -0.2557  0.1563
 2816SOL    HW119910   3.395   0.987   7.643  0.4476  0.0888 -0.8280
 2816SOL    HW219911   3.285   0.886   7.620 -0.1295 -0.1848  0.3511
 2817SOL     OW19912   1.212   2.547   2.328  0.2714  0.2479  0.3929
 2817SOL    HW119913   1.277   2.501   2.275 -1.3278  0.5599 -1.8321
 2817SOL    HW219914   1.140   2.488   2.347  1.1537 -1.0860 -0.4143
 2818SOL     OW19915   1.892   0.163   1.208  0.1008 -0.1276  0.1030
 2818SOL    HW119916   1.828   0.141   1.276 -0.7477  1.8503 -0.0606
 2818SOL    HW219917   1.863   0.250   1.181 -1.1485 -0.6836 -0.3576
 2819SOL     OW19918   1.177   0.480   3.418 -0.3698 -0.1348 -0.2724
 2819SOL    HW119919   1.213   0.549   3.474 -1.2469  1.1607 -1.3052
 2819SOL    HW219920   1.125   0.533   3.358  2.1058  0.8206 -1.5691
 2820SOL     OW19921   1.594   4.501  12.158  0.0137  0.1504 -0.3294
 2820SOL    HW119922   1.672   4.448  12.138 -0.6225 -0.8600 -0.1340
 2820SOL    HW219923   1.628   4.585  12.188 -0.9287  0.4500 -0.1138
 2821SOL     OW19924   3.279   1.678  17.636 -0.3142 -0.4893  0.1493
 2821SOL    HW119925   3.271   1.774  17.631 -1.4540 -0.6046 -0.3015
 2821SOL    HW219926   3.373   1.671  17.650  0.2229  1.7031 -2.3053
 2822SOL     OW19927   4.635   3.313  11.476 -0.2019  0.4849 -0.6140
 2822SOL    HW119928   4.579   3.272  11.410  1.7078 -0.5181 -1.6169
 2822SOL    HW219929   4.688   3.364  11.415 -1.4547  0.8693 -1.3796
 2823SOL     OW19930   3.670   2.219   4.915 -0.1949 -0.0183  0.2810
 2823SOL    HW119931   3.626   2.143   4.954 -1.0673 -0.6388 -1.8972
 2823SOL    HW219932   3.629   2.292   4.960 -0.0988 -0.8340  1.6823
 2824SOL     OW19933   4.419   0.766   7.865 -0.2526 -0.0809  0.3199
 2824SOL    HW119934   4.386   0.852   7.837  1.1747 -0.0273 -1.2144
 2824SOL    HW219935   4.483   0.786   7.934  0.9066  0.1935 -0.8212
 2825SOL     OW19936   1.155   0.166  13.352  0.1358 -0.1496 -0.8152
 2825SOL    HW119937   1.174   0.251  13.312 -1.5794  1.3166  1.4924
 2825SOL    HW219938   1.228   0.116  13.317  0.4311 -2.0677  2.5210
 2826SOL     OW19939   0.386   3.164   5.415  0.3832  0.0764 -0.3144
 2826SOL    HW119940   0.411   3.214   5.338  0.0189  2.5869  1.1889
 2826SOL    HW219941   0.404   3.073   5.393 -0.1952 -0.3324  0.8821
 2827SOL     OW19942   0.885   3.509   5.863  0.1414 -0.3844  0.1935
 2827SOL    HW119943   0.850   3.578   5.807 -3.0981 -0.1059  2.5506
 2827SOL    HW219944   0.893   3.439   5.798 -2.1567 -0.8327  0.3949
 2828SOL     OW19945   3.424   1.475   5.235 -0.3321 -0.2793  0.3448
 2828SOL    HW119946   3.354   1.441   5.290 -1.9110  2.5797  0.1145
 2828SOL    HW219947   3.481   1.514   5.302  1.6979 -0.5642 -1.2095
 2829SOL     OW19948   4.497   3.691  14.974  0.7083  0.1982 -0.5284
 2829SOL    HW119949   4.426   3.658  15.030  3.2164  1.0003  3.0849
 2829SOL    HW219950   4.553   3.722  15.045  1.0327 -3.2238  0.7192
 2830SOL     OW19951   1.112   0.935  14.688 -0.5651  0.0898 -0.1746
 2830SOL    HW119952   1.043   0.928  14.622 -0.6533  0.2402 -0.0986
 2830SOL    HW219953   1.190   0.920  14.635  1.1495  0.3203  2.2736
 2831SOL     OW19954   2.478   1.014   0.844  0.5249  0.4511  0.2648
 2831SOL    HW119955   2.390   1.023   0.880  0.0634  0.1912 -0.7885
 2831SOL    HW219956   2.456   0.986   0.755  1.1345 -1.4782  0.7341
 2832SOL     OW19957   0.024   0.522   6.523  0.1500  0.5182  0.7702
 2832SOL    HW119958   0.050   0.430   6.517  1.7276  1.0149  0.0218
 2832SOL    HW219959   0.059   0.562   6.444  3.2484 -1.8378  0.9327
 2833SOL     OW19960   2.489   0.444  13.264 -0.2265 -0.7881 -0.3152
 2833SOL    HW119961   2.551   0.400  13.206  1.2004  0.5502  0.2010
 2833SOL    HW219962   2.480   0.525  13.214 -0.6140  0.6900  2.1310
 2834SOL     OW19963   2.012   3.693   0.790 -0.7323  0.1146 -0.5101
 2834SOL    HW119964   1.954   3.768   0.808  0.3322  0.7332  0.3383
 2834SOL    HW219965   2.076   3.716   0.857 -1.8371 -0.4883  0.7528
 2835SOL     OW19966   2.222   3.925  11.631  0.5395  0.2683 -0.4987
 2835SOL    HW119967   2.224   3.969  11.716 -1.5228 -0.2663 -0.1762
 2835SOL    HW219968   2.130   3.902  11.624 -0.0834  1.6477  3.4642
 2836SOL     OW19969   1.050   1.474   8.465 -0.6295 -0.1649 -0.7786
 2836SOL    HW119970   1.105   1.509   8.534  0.0308 -2.8994  0.1021
 2836SOL    HW219971   1.106   1.397   8.457 -0.3279  0.0356 -0.5673
 2837SOL     OW19972   3.532   1.795   8.757  0.2983 -0.0571 -0.2193
 2837SOL    HW119973   3.529   1.881   8.801 -1.3486  0.3087 -1.0811
 2837SOL    HW219974   3.559   1.811   8.667 -1.5538 -0.0261 -0.7631
 2838SOL     OW19975   3.487   4.003  12.998  0.4036 -0.3759 -0.3729
 2838SOL    HW119976   3.555   3.936  13.002  0.3705 -0.1086  4.5286
 2838SOL    HW219977   3.506   4.024  12.907 -0.6854 -1.0485 -0.7635
 2839SOL     OW19978   0.911   4.564   0.221  0.6290 -0.0814  0.3094
 2839SOL    HW119979   0.994   4.544   0.264  0.4192  0.1696  0.8300
 2839SOL    HW219980   0.867   4.609   0.293  4.0683  1.5895  1.3781
 2840SOL     OW19981   2.232   2.734  15.831  0.1541 -0.1094 -0.1736
 2840SOL    HW119982   2.304   2.671  15.839  0.6675  0.4991 -0.0066
 2840SOL    HW219983   2.196   2.721  15.919 -1.2346 -0.1493 -0.7585
 2841SOL     OW19984   0.126   2.011   6.424  0.4075 -0.0365 -0.4714
 2841SOL    HW119985   0.070   2.031   6.349  0.8884  0.4100 -0.7132
 2841SOL    HW219986   0.068   2.038   6.496  2.0030 -1.1120  1.2359
 2842SOL     OW19987   3.117   3.745   3.899 -0.1376  0.3070 -0.3734
 2842SOL    HW119988   3.098   3.770   3.809  0.5471  0.0397 -0.5877
 2842SOL    HW219989   3.189   3.684   3.885 -0.1851  0.2522 -0.3820
 2843SOL     OW19990   4.674   0.152   0.505  0.4927 -0.2210 -0.0472
 2843SOL    HW119991   4.645   0.077   0.557  1.6187  1.0435  2.3708
 2843SOL    HW219992   4.592   0.155   0.455  0.0614 -0.2549  0.6608
 2844SOL     OW19993   0.147   0.139   1.058  0.2713  0.1486 -0.7253
 2844SOL    HW119994   0.158   0.131   1.153  0.9670 -2.4924 -1.0156
 2844SOL    HW219995   0.055   0.164   1.056 -0.2461 -1.5624  1.9835
 2845SOL     OW19996   4.033   3.650  17.339  0.4550  0.1726  0.2604
 2845SOL    HW119997   3.974   3.576  17.330 -0.5437  1.0274 -0.3193
 2845SOL    HW219998   4.117   3.614  17.368  1.8101  1.7901 -1.5254
 2846SOL     OW19999   2.381   4.641  12.919  0.3216  0.2381 -0.0193
 2846SOL    HW120000   2.466   4.683  12.928  1.2988 -1.4299 -1.4567
 2846SOL    HW220001   2.415   4.570  12.973 -1.3427 -0.0725  0.6515
 2847SOL     OW20002   3.119   3.515  10.788  0.1169  0.0433 -0.2717
 2847SOL    HW120003   3.043   3.469  10.826  0.0794  0.0656 -0.3190
 2847SOL    HW220004   3.169   3.438  10.759  0.5453 -0.0409  0.6790
 2848SOL     OW20005   4.507   2.156  13.758  0.1257  0.1744 -0.0262
 2848SOL    HW120006   4.589   2.118  13.791 -0.1353  0.2274  0.6760
 2848SOL    HW220007   4.442   2.090  13.780  0.1109 -0.2037 -1.1905
 2849SOL     OW20008   0.194   1.799   4.443 -0.1626 -0.6030  0.5402
 2849SOL    HW120009   0.204   1.789   4.538  0.1179 -0.6147  0.5079
 2849SOL    HW220010   0.115   1.853   4.446  0.2113  0.0506 -1.6022
 2850SOL     OW20011   2.891   0.330   3.394 -0.0120 -0.5334 -0.0855
 2850SOL    HW120012   2.836   0.386   3.449  0.4725 -0.2069  0.0716
 2850SOL    HW220013   2.977   0.373   3.383 -0.5616  0.2045 -1.4537
 2851SOL     OW20014   3.129   0.893   4.768 -0.5277 -0.5051  0.4346
 2851SOL    HW120015   3.169   0.892   4.681 -1.6702 -0.4849 -0.1012
 2851SOL    HW220016   3.207   0.870   4.818  0.7297 -0.0537 -1.3518
 2852SOL     OW20017   1.345   1.323  14.314 -0.4206 -0.2176  0.2299
 2852SOL    HW120018   1.308   1.241  14.282 -0.1893  0.0772 -0.7883
 2852SOL    HW220019   1.437   1.298  14.305 -0.1677  0.9453 -0.4167
 2853SOL     OW20020   1.516   1.938   2.522  0.0495  0.1809 -0.7467
 2853SOL    HW120021   1.544   1.977   2.439 -0.7173  0.4868 -0.8620
 2853SOL    HW220022   1.422   1.945   2.502  0.0205  2.6615  0.3510
 2854SOL     OW20023   4.716   1.951   3.305 -0.1510  0.6795 -0.2694
 2854SOL    HW120024   4.628   1.914   3.298  1.1166 -2.2010 -0.8377
 2854SOL    HW220025   0.015   1.995   3.222  0.5227  0.9639  0.0174
 2855SOL     OW20026   1.127   1.133   8.737 -0.1701  0.2954  0.0667
 2855SOL    HW120027   1.037   1.106   8.721 -0.4813  1.6050 -0.3643
 2855SOL    HW220028   1.156   1.080   8.811  1.0007 -1.5089 -1.6924
 2856SOL     OW20029   3.541   1.268  16.532 -0.0249 -0.2511  0.5827
 2856SOL    HW120030   3.499   1.213  16.598 -1.3927 -2.0050 -1.7839
 2856SOL    HW220031   3.459   1.295  16.492  0.5299 -1.0673 -1.0788
 2857SOL     OW20032   3.949   4.292   3.895  0.3414  0.4162  0.2231
 2857SOL    HW120033   3.894   4.215   3.880 -0.7276  0.9878  1.2517
 2857SOL    HW220034   4.024   4.269   3.841 -0.0768  0.3051 -0.3128
 2858SOL     OW20035   2.476   3.284  13.191  0.3371 -0.3495 -0.3732
 2858SOL    HW120036   2.424   3.362  13.171 -0.6470 -0.9738 -0.2344
 2858SOL    HW220037   2.409   3.222  13.218  0.2761  0.6380  1.7382
 2859SOL     OW20038   1.037   2.954   7.733  0.3714 -0.2035  0.3808
 2859SOL    HW120039   0.993   2.946   7.648  1.4202 -2.1336  0.0188
 2859SOL    HW220040   1.124   2.974   7.698  1.0328 -2.0703  0.9490
 2860SOL     OW20041   0.541   3.138   5.666 -0.4748  0.1220  0.2050
 2860SOL    HW120042   0.496   3.056   5.688 -3.7601  1.8950  0.0393
 2860SOL    HW220043   0.542   3.131   5.571  0.1971 -0.9299  0.2877
 2861SOL     OW20044   2.342   2.849   5.097 -0.3203 -0.7638  0.0067
 2861SOL    HW120045   2.374   2.823   5.183  0.0495  0.2422  0.1723
 2861SOL    HW220046   2.251   2.823   5.108 -0.5696  1.6580  3.5748
 2862SOL     OW20047   1.092   1.629   5.614 -0.0685  0.4456 -0.3405
 2862SOL    HW120048   1.107   1.694   5.683  0.2992  1.7845 -1.6911
 2862SOL    HW220049   1.007   1.659   5.582 -0.3621  0.4567  0.4436
 2863SOL     OW20050   4.675   3.768  15.198  0.3003  0.2224  0.4351
 2863SOL    HW120051   4.660   3.718  15.277  1.5257 -0.3774  0.2934
 2863SOL    HW220052   0.052   3.774  15.187  0.0429  0.1101 -1.9155
 2864SOL     OW20053   2.119   1.888   4.609  0.0042 -1.2162  0.0381
 2864SOL    HW120054   2.149   1.798   4.598 -1.6190 -1.4128 -2.8181
 2864SOL    HW220055   2.065   1.897   4.530  2.1554 -1.1708 -1.4345
 2865SOL     OW20056   2.145   2.346   6.062  0.0010 -0.5464  0.1216
 2865SOL    HW120057   2.148   2.439   6.083 -3.0624 -0.2512 -0.7847
 2865SOL    HW220058   2.077   2.347   5.995 -0.7441  0.6113  0.9128
 2866SOL     OW20059   2.795   0.752  17.407 -0.6714  0.0766  0.2103
 2866SOL    HW120060   2.728   0.779  17.345 -1.3404 -4.4973 -1.0051
 2866SOL    HW220061   2.857   0.710  17.348 -1.6491 -1.1607  0.0835
 2867SOL     OW20062   3.510   2.615   4.941  0.5995  0.0621  0.1920
 2867SOL    HW120063   3.415   2.627   4.942  0.5889  0.0687 -0.9876
 2867SOL    HW220064   3.523   2.525   4.970 -1.0820 -0.5171 -0.8878
 2868SOL     OW20065   0.079   4.603   2.502 -0.0311  0.1977 -0.0913
 2868SOL    HW120066   0.049   4.546   2.573  0.1080  3.1284  2.3010
 2868SOL    HW220067   0.174   4.591   2.504  0.2820  3.0669  1.9884
 2869SOL     OW20068   3.590   0.369   2.229  0.3307  0.5992  0.2481
 2869SOL    HW120069   3.535   0.414   2.165 -0.2452  1.3416  1.2818
 2869SOL    HW220070   3.666   0.427   2.222  0.3703  0.2702 -2.1275
 2870SOL     OW20071   0.710   4.056  12.474 -0.0131  0.9391  0.2765
 2870SOL    HW120072   0.750   4.072  12.560 -0.1223 -0.5132  0.5915
 2870SOL    HW220073   0.713   4.139  12.426 -1.1174  0.0316 -1.3310
 2871SOL     OW20074   3.672   1.645   6.617 -0.3524  0.1551 -0.1256
 2871SOL    HW120075   3.754   1.622   6.574  0.8111 -3.5438  4.0454
 2871SOL    HW220076   3.660   1.575   6.682  0.6419 -0.3397 -0.4741
 2872SOL     OW20077   3.400   4.533   5.699  0.0159 -0.5269 -0.1270
 2872SOL    HW120078   3.422   4.587   5.775  0.3398 -1.4108  0.4125
 2872SOL    HW220079   3.481   4.500   5.661 -0.0529 -1.3865  0.4662
 2873SOL     OW20080   2.204   2.366  12.553  0.3772 -0.3308 -0.0742
 2873SOL    HW120081   2.177   2.449  12.593  2.3995  0.1154  0.3637
 2873SOL    HW220082   2.160   2.303  12.611 -2.3082  0.3951 -1.3258
 2874SOL     OW20083   3.835   4.519  15.414 -0.0082 -0.4460  0.6108
 2874SOL    HW120084   3.861   4.473  15.334 -1.1528  0.7280 -0.4445
 2874SOL    HW220085   3.903   4.492  15.476  0.7788 -1.5960 -0.7659
 2875SOL     OW20086   2.712   0.370   0.217 -0.4502  0.0474 -0.1112
 2875SOL    HW120087   2.763   0.317   0.278 -2.1595 -0.1909  1.0996
 2875SOL    HW220088   2.669   0.296   0.174 -0.7780 -1.3316  2.5924
 2876SOL     OW20089   0.454   2.877   5.716 -0.1807  0.1884 -0.1735
 2876SOL    HW120090   0.376   2.894   5.769  0.2875 -0.2184  0.6559
 2876SOL    HW220091   0.508   2.823   5.774 -0.4688  0.7218  0.6058
 2877SOL     OW20092   0.857   4.604  12.206  0.4654  0.0956  0.1680
 2877SOL    HW120093   0.795   4.676  12.217 -2.0523 -1.8956 -0.7777
 2877SOL    HW220094   0.827   4.577  12.118 -0.1182 -2.2874  1.0770
 2878SOL     OW20095   1.202   0.744  12.673 -0.1202  0.6109 -0.6489
 2878SOL    HW120096   1.123   0.691  12.677  0.2549  0.2130  1.5811
 2878SOL    HW220097   1.170   0.832  12.694  1.7515  0.5863  2.2898
 2879SOL     OW20098   2.561   0.993  15.714 -0.0474 -0.2814 -0.4781
 2879SOL    HW120099   2.525   1.063  15.769  1.8946  1.0226 -0.9000
 2879SOL    HW220100   2.566   1.048  15.636 -0.0617 -1.7049 -1.4942
 2880SOL     OW20101   4.617   0.355   3.763 -0.1484 -0.3098 -0.2325
 2880SOL    HW120102   4.538   0.318   3.725 -0.9374  1.4825 -0.3509
 2880SOL    HW220103   4.670   0.276   3.758 -1.9280 -1.3246 -3.1278
 2881SOL     OW20104   2.465   2.183  10.644  0.1241 -0.0451 -0.2614
 2881SOL    HW120105   2.542   2.128  10.630 -0.7211 -1.2292 -0.2246
 2881SOL    HW220106   2.447   2.222  10.559 -1.4722 -0.0258  0.0953
 2882SOL     OW20107   3.371   1.521  14.204 -0.2936 -0.2666  0.1304
 2882SOL    HW120108   3.360   1.598  14.148 -2.1791 -1.5666 -1.2638
 2882SOL    HW220109   3.338   1.553  14.288 -2.1892 -0.0477 -0.6835
 2883SOL     OW20110   0.475   1.958   4.825  0.1185  0.3409  0.1237
 2883SOL    HW120111   0.527   2.011   4.886 -2.2281  0.2101  2.2123
 2883SOL    HW220112   0.397   2.013   4.820 -0.5202 -0.7950 -2.2589
 2884SOL     OW20113   0.172   3.558   2.131 -0.1193 -0.1655  0.3302
 2884SOL    HW120114   0.164   3.602   2.216 -0.3094  1.0178 -0.2976
 2884SOL    HW220115   0.165   3.635   2.074 -2.1120 -0.8697 -0.3741
 2885SOL     OW20116   3.572   4.057   9.149 -0.0361 -0.0603 -0.1485
 2885SOL    HW120117   3.612   4.142   9.130  3.0284 -1.3860  0.4494
 2885SOL    HW220118   3.517   4.084   9.223  1.7376  0.8029  0.8436
 2886SOL     OW20119   3.969   2.144   0.791 -0.2417  0.5123 -0.6999
 2886SOL    HW120120   3.960   2.239   0.782  0.0295  0.3462 -2.9073
 2886SOL    HW220121   3.876   2.122   0.793 -0.2592  0.7731  0.8618
 2887SOL     OW20122   1.477   0.274  12.605 -0.0438  0.0467  0.6038
 2887SOL    HW120123   1.572   0.287  12.609  0.3946 -2.8085 -0.4537
 2887SOL    HW220124   1.441   0.353  12.643 -0.0045  0.7596 -0.8541
 2888SOL     OW20125   2.857   2.325  14.445 -0.5813  0.1731  0.0674
 2888SOL    HW120126   2.951   2.324  14.462 -0.8746 -1.4908  1.6015
 2888SOL    HW220127   2.846   2.230  14.450  0.4445  0.0560  0.1703
 2889SOL     OW20128   2.585   2.050   7.112 -0.1379 -0.0878  0.0513
 2889SOL    HW120129   2.494   2.059   7.142 -0.1333  1.4893 -0.4211
 2889SOL    HW220130   2.615   2.129   7.156  1.9390 -1.0404  0.3387
 2890SOL     OW20131   2.137   3.989   5.189 -0.0008  0.4713  0.2657
 2890SOL    HW120132   2.144   4.042   5.109  0.6497 -0.4127 -0.2575
 2890SOL    HW220133   2.137   4.055   5.258  1.6364  1.8695 -1.0616
 2891SOL     OW20134   3.190   2.372   5.386  0.0806  0.4974 -0.6475
 2891SOL    HW120135   3.253   2.300   5.381 -0.1419  0.1886  1.0303
 2891SOL    HW220136   3.202   2.411   5.300 -1.4546  0.0286 -1.0657
 2892SOL     OW20137   4.145   1.551   3.833 -0.0146 -0.8984  0.3465
 2892SOL    HW120138   4.086   1.543   3.758 -1.4015 -0.2314  1.3777
 2892SOL    HW220139   4.120   1.469   3.876  0.6588 -1.0752  0.4167
 2893SOL     OW20140   3.021   0.663   1.437  0.0009 -0.3671  0.0499
 2893SOL    HW120141   3.116   0.671   1.428 -0.0111 -1.3901 -0.9407
 2893SOL    HW220142   2.999   0.584   1.389 -1.6130 -1.1926  2.1261
 2894SOL     OW20143   3.891   3.326  10.206  0.2060 -0.0204 -0.1775
 2894SOL    HW120144   3.877   3.293  10.117  1.0542 -1.6198  0.2736
 2894SOL    HW220145   3.806   3.362  10.232  0.1853 -0.5548  0.4862
 2895SOL     OW20146   2.237   3.900   3.779  0.5112  0.2343 -0.6886
 2895SOL    HW120147   2.150   3.915   3.816  0.4964  2.3089 -1.5916
 2895SOL    HW220148   2.269   3.986   3.753  0.4117 -0.3445 -2.6771
 2896SOL     OW20149   4.608   3.292   3.698 -0.3084 -0.3422 -0.3392
 2896SOL    HW120150   4.599   3.356   3.768  1.6214  0.6014 -0.9433
 2896SOL    HW220151   4.637   3.216   3.748 -1.1163 -2.0172 -2.4319
 2897SOL     OW20152   1.617   0.362   7.935 -0.0395  0.1117 -0.2744
 2897SOL    HW120153   1.555   0.407   7.993  1.5168  1.3832  0.3997
 2897SOL    HW220154   1.558   0.308   7.882  0.1902 -1.1832  0.8042
 2898SOL     OW20155   3.176   1.414   6.536  0.3644  0.1696  0.2852
 2898SOL    HW120156   3.163   1.335   6.589  2.8403 -0.5635 -0.2297
 2898SOL    HW220157   3.260   1.444   6.571  1.5485 -1.3453 -1.2634
 2899SOL     OW20158   3.729   3.041   5.470 -0.3007  0.2791 -0.5979
 2899SOL    HW120159   3.770   3.108   5.526 -2.9799  0.1650  1.5040
 2899SOL    HW220160   3.672   3.101   5.423  0.0213  1.0082 -0.0596
 2900SOL     OW20161   4.125   4.109  15.171  0.1991  0.2114 -0.3981
 2900SOL    HW120162   4.083   4.154  15.097 -1.7480  0.8996  1.1219
 2900SOL    HW220163   4.213   4.108  15.134 -0.6525 -0.6805 -2.4167
 2901SOL     OW20164   1.826   0.394   7.769 -0.4811 -0.4703  0.0107
 2901SOL    HW120165   1.763   0.380   7.840  0.5466  0.6630  1.1538
 2901SOL    HW220166   1.803   0.319   7.714 -0.3795 -0.2195 -0.3709
 2902SOL     OW20167   1.155   3.363   1.926 -0.4179  0.7278 -0.2716
 2902SOL    HW120168   1.201   3.296   1.876 -1.1399 -0.1662  0.2844
 2902SOL    HW220169   1.093   3.319   1.984 -1.4271 -0.0151 -1.9105
 2903SOL     OW20170   0.662   3.665   3.908  0.0733  0.1250 -0.0098
 2903SOL    HW120171   0.704   3.579   3.911  0.5179  0.3980  1.7071
 2903SOL    HW220172   0.742   3.714   3.884 -0.0534  1.7466  2.9223
 2904SOL     OW20173   4.666   2.859   0.628  0.7126 -0.2271  0.5201
 2904SOL    HW120174   4.689   2.769   0.650  2.2220  0.2237  0.7339
 2904SOL    HW220175   4.650   2.851   0.534 -0.0823 -1.5729  0.7735
 2905SOL     OW20176   4.497   2.402   5.930  0.1772 -0.2630 -0.1720
 2905SOL    HW120177   4.562   2.435   5.869  0.4248 -0.7998 -0.1958
 2905SOL    HW220178   4.534   2.425   6.016  2.0056 -0.4439 -0.9188
 2906SOL     OW20179   3.379   1.588   8.681 -0.1620 -0.3167  0.2544
 2906SOL    HW120180   3.335   1.582   8.766  2.7809 -0.0369  1.7801
 2906SOL    HW220181   3.441   1.660   8.691  2.0564 -1.9137 -2.2205
 2907SOL     OW20182   1.982   0.793   4.005 -0.3070  0.2561  0.0420
 2907SOL    HW120183   1.944   0.806   3.918  0.0732 -0.2807 -0.2029
 2907SOL    HW220184   1.964   0.871   4.057  0.4734 -0.2611  1.0892
 2908SOL     OW20185   2.641   1.941   1.625  0.8268  0.3392  0.5195
 2908SOL    HW120186   2.595   1.876   1.678 -0.7799  1.1220  0.0863
 2908SOL    HW220187   2.573   1.974   1.567  0.5308 -1.6766 -0.3013
 2909SOL     OW20188   0.654   0.155   3.010  0.1639  0.0585 -0.0483
 2909SOL    HW120189   0.692   0.070   2.990  0.4406  0.5564 -1.6420
 2909SOL    HW220190   0.720   0.214   2.974 -1.3806  1.4600 -0.5834
 2910SOL     OW20191   0.540   3.605   5.096  0.1090  0.5228  0.3845
 2910SOL    HW120192   0.585   3.614   5.181  0.6916  1.5208 -0.0241
 2910SOL    HW220193   0.452   3.589   5.129  0.5031  1.6082  2.0282
 2911SOL     OW20194   1.841   3.277  12.413 -0.1823  0.2696  0.0670
 2911SOL    HW120195   1.909   3.230  12.364 -0.5449 -0.6762  0.4726
 2911SOL    HW220196   1.892   3.299  12.491 -0.6586 -1.6835  0.9514
 2912SOL     OW20197   2.927   1.204   9.322 -0.3118 -0.1278 -0.8335
 2912SOL    HW120198   2.896   1.114   9.330  1.6421 -0.8699 -1.7325
 2912SOL    HW220199   2.841   1.246   9.329 -1.3286 -2.3662 -0.1338
 2913SOL     OW20200   2.780   1.354   5.103 -0.0353 -0.0383 -0.4496
 2913SOL    HW120201   2.749   1.340   5.014 -0.3648  1.0929 -0.5191
 2913SOL    HW220202   2.792   1.266   5.138 -0.8100  0.0280 -0.0243
 2914SOL     OW20203   1.819   3.081   4.494  0.2366 -0.3329 -0.2290
 2914SOL    HW120204   1.783   3.119   4.414 -1.1739 -1.4438 -0.1118
 2914SOL    HW220205   1.788   2.992   4.478 -1.1214  0.4387 -1.7929
 2915SOL     OW20206   2.817   1.322  16.934  0.2223  0.2368  0.1994
 2915SOL    HW120207   2.763   1.394  16.901  0.2294 -0.2164 -0.8018
 2915SOL    HW220208   2.875   1.306  16.859  0.1768  2.6558 -0.3626
 2916SOL     OW20209   2.757   3.601   0.577  0.1285 -0.4062 -0.1946
 2916SOL    HW120210   2.716   3.621   0.661 -0.1317  0.8484 -0.6200
 2916SOL    HW220211   2.741   3.677   0.522  0.4068  0.3331  0.7487
 2917SOL     OW20212   2.674   0.299   9.024  0.1155  0.1647  0.0765
 2917SOL    HW120213   2.630   0.384   9.023 -1.7234 -0.8512 -2.7153
 2917SOL    HW220214   2.725   0.316   9.103  1.0026 -1.7192 -0.0998
 2918SOL     OW20215   4.371   1.855   8.065  0.0814 -0.0665 -0.4038
 2918SOL    HW120216   4.439   1.918   8.039 -0.3312 -0.6670 -2.9328
 2918SOL    HW220217   4.421   1.782   8.102  2.8764  2.5576  0.9648
 2919SOL     OW20218   4.082   4.141   6.280 -0.1566 -0.3466 -0.5847
 2919SOL    HW120219   4.023   4.154   6.206 -0.4216  1.7711 -0.0041
 2919SOL    HW220220   4.123   4.058   6.258  2.1941  1.1260 -1.6756
 2920SOL     OW20221   1.220   1.462  16.798  0.2513 -0.0673 -0.3369
 2920SOL    HW120222   1.139   1.417  16.824  0.0450  1.2045  1.2468
 2920SOL    HW220223   1.208   1.491  16.708  0.1509 -0.0247 -0.3106
 2921SOL     OW20224   0.982   0.569   5.232  0.0594 -0.5566  0.3637
 2921SOL    HW120225   0.993   0.474   5.226 -3.5266 -0.9414 -0.2533
 2921SOL    HW220226   0.928   0.580   5.310  0.8090  1.1422  0.6343
 2922SOL     OW20227   0.410   2.927  11.145  0.2744  0.1404  0.2209
 2922SOL    HW120228   0.469   3.002  11.152  0.4888 -0.2418  2.3065
 2922SOL    HW220229   0.426   2.896  11.234  0.9323 -0.5027 -0.1184
 2923SOL     OW20230   1.376   2.115  11.507 -0.1667 -0.1406  0.3733
 2923SOL    HW120231   1.413   2.154  11.587 -0.1827 -1.5929  1.0776
 2923SOL    HW220232   1.378   2.200  11.463 -1.2280  0.7472  2.0257
 2924SOL     OW20233   0.004   2.726   0.037  0.3688 -0.3129 -0.3612
 2924SOL    HW120234   4.646   2.671   0.054  1.0592 -1.3810 -0.7293
 2924SOL    HW220235   0.068   2.701   0.104 -1.0417  0.2954  1.2166
 2925SOL     OW20236   3.174   1.604  14.387 -0.4456 -0.5962  0.5808
 2925SOL    HW120237   3.246   1.582  14.447  2.0794  0.0878 -2.2048
 2925SOL    HW220238   3.104   1.645  14.438 -0.0282 -1.8734  2.1831
 2926SOL     OW20239   0.045   4.544   8.004 -0.3653 -0.8162 -0.4937
 2926SOL    HW120240   0.093   4.518   7.925  0.2036 -2.6582  0.4366
 2926SOL    HW220241   4.691   4.593   7.964 -0.4837 -2.3286 -2.1244
 2927SOL     OW20242   3.284   2.745   0.641  0.3556 -0.1236  0.3459
 2927SOL    HW120243   3.296   2.721   0.733 -0.7114 -0.9116  0.2699
 2927SOL    HW220244   3.367   2.709   0.609  0.6718  2.2747 -1.5071
 2928SOL     OW20245   4.647   1.385   5.072 -0.2140 -0.2404  0.8390
 2928SOL    HW120246   4.705   1.327   5.123  0.2645  0.1203  0.7067
 2928SOL    HW220247   4.706   1.440   5.020 -2.5024 -0.8213 -2.3538
 2929SOL     OW20248   0.918   3.158   0.073 -0.0171  0.3052  0.1512
 2929SOL    HW120249   0.920   3.092   0.143 -0.3066  0.2910  0.1482
 2929SOL    HW220250   0.876   3.230   0.120 -1.9498 -0.2089 -0.7884
 2930SOL     OW20251   2.488   3.725   6.382 -0.1730 -0.3163 -0.3823
 2930SOL    HW120252   2.489   3.810   6.425 -0.5160 -0.6068  0.2059
 2930SOL    HW220253   2.424   3.750   6.316  2.5227  2.8713 -1.7546
 2931SOL     OW20254   2.878   0.225   3.148 -0.0749 -0.0213  0.0801
 2931SOL    HW120255   2.866   0.239   3.242  2.7831 -1.2296  0.6419
 2931SOL    HW220256   2.865   0.311   3.110 -0.1951  0.8777  2.1479
 2932SOL     OW20257   2.420   2.222   2.118 -0.5521  0.5872 -0.2280
 2932SOL    HW120258   2.428   2.127   2.109  0.8642  0.8546 -1.7379
 2932SOL    HW220259   2.400   2.233   2.210  0.4961 -1.5903  0.2625
 2933SOL     OW20260   0.787   4.637   7.454  0.7400  0.0634 -0.2094
 2933SOL    HW120261   0.694   4.614   7.453  0.8826 -0.4291 -1.8166
 2933SOL    HW220262   0.794   4.613   7.547 -0.2838 -1.3697 -0.5067
 2934SOL     OW20263   3.695   1.858   6.405  0.0049 -0.4003  0.2903
 2934SOL    HW120264   3.747   1.806   6.344  0.2614 -0.2567  0.3893
 2934SOL    HW220265   3.670   1.790   6.467  1.1104 -0.3375  0.8027
 2935SOL     OW20266   1.114   0.259   6.696 -0.8371 -0.0151 -0.0744
 2935SOL    HW120267   1.026   0.298   6.699 -0.7781  0.3061 -2.3689
 2935SOL    HW220268   1.179   0.311   6.744 -1.5997  1.0284 -0.1621
 2936SOL     OW20269   1.303   4.064   8.360 -0.0552  0.2362 -0.5988
 2936SOL    HW120270   1.248   4.065   8.281  0.4353 -0.3835 -0.9487
 2936SOL    HW220271   1.341   4.151   8.357 -3.4946  1.7267 -1.4980
 2937SOL     OW20272   2.058   4.702   6.549  0.4620  0.4650  0.1073
 2937SOL    HW120273   2.080   0.067   6.592 -1.6104  1.1239 -0.0713
 2937SOL    HW220274   2.059   4.649   6.629  1.5477  2.6149  1.5199
 2938SOL     OW20275   0.349   2.662   6.887  0.1126 -0.1335 -0.9008
 2938SOL    HW120276   0.373   2.754   6.883 -0.4211 -0.0762 -2.8939
 2938SOL    HW220277   0.257   2.665   6.862 -0.8891 -1.5445  2.6100
 2939SOL     OW20278   0.290   3.835   1.681 -0.1329  1.1219 -0.0379
 2939SOL    HW120279   0.326   3.760   1.634 -0.3990  0.1351  1.3122
 2939SOL    HW220280   0.254   3.808   1.766  1.6065  1.6214  0.8555
 2940SOL     OW20281   2.241   4.100   6.188 -0.4419  0.2962 -0.1969
 2940SOL    HW120282   2.200   4.118   6.104  0.0809  1.6620 -0.1743
 2940SOL    HW220283   2.168   4.064   6.239  0.7323 -0.5224  0.9036
 2941SOL     OW20284   0.303   0.820   7.023  0.2732 -0.1984 -0.1908
 2941SOL    HW120285   0.272   0.873   6.950  0.8949  1.9220  1.0663
 2941SOL    HW220286   0.279   0.733   6.992 -0.0572 -0.9265  2.0860
 2942SOL     OW20287   3.977   1.853  15.024  0.0601 -0.0538 -0.2035
 2942SOL    HW120288   3.898   1.905  15.011  0.3956 -0.2267 -2.9937
 2942SOL    HW220289   4.021   1.868  14.940 -0.5137  1.3101 -0.2620
 2943SOL     OW20290   3.697   2.002   5.898  0.1611 -0.1772 -0.0399
 2943SOL    HW120291   3.679   2.095   5.897  2.6843  0.3622  2.1748
 2943SOL    HW220292   3.782   1.998   5.854 -1.1989 -0.6225 -2.6309
 2944SOL     OW20293   3.332   0.366   3.617 -0.6851  0.1838  0.3650
 2944SOL    HW120294   3.346   0.272   3.608 -0.9370  0.0882  1.0163
 2944SOL    HW220295   3.317   0.379   3.711 -0.6664 -0.6712  0.4785
 2945SOL     OW20296   4.080   2.433   6.901 -0.6490  0.2117 -0.3789
 2945SOL    HW120297   4.124   2.507   6.861  1.3198  0.0742  1.5079
 2945SOL    HW220298   4.144   2.368   6.871 -0.6808  0.3586 -0.7549
 2946SOL     OW20299   4.329   3.999   6.474  0.2463 -0.5563 -0.4301
 2946SOL    HW120300   4.271   3.951   6.533 -2.5302  1.6665 -1.3085
 2946SOL    HW220301   4.307   3.956   6.392 -3.7237 -0.8400  0.7461
 2947SOL     OW20302   0.488   4.705  10.103  0.4157  0.3053  0.1183
 2947SOL    HW120303   0.412   4.667  10.059  0.7737 -0.7345  0.3964
 2947SOL    HW220304   0.543   0.010  10.028 -0.1705  0.9676 -0.1063
 2948SOL     OW20305   0.790   0.757   4.598  0.2094  0.1978  0.0627
 2948SOL    HW120306   0.860   0.767   4.533  0.8189  0.4575  0.7505
 2948SOL    HW220307   0.828   0.793   4.679  0.1379 -1.7436  0.9584
 2949SOL     OW20308   2.860   0.808   4.096 -0.3364 -0.0733  0.1038
 2949SOL    HW120309   2.815   0.861   4.030  0.6211  0.4786 -0.0989
 2949SOL    HW220310   2.834   0.849   4.178 -2.0126 -0.0993 -0.4180
 2950SOL     OW20311   1.736   0.905   8.318  0.2472 -0.0831  0.2221
 2950SOL    HW120312   1.708   0.824   8.275 -1.9903  0.7440  0.1451
 2950SOL    HW220313   1.821   0.876   8.352  2.5291  3.3102 -2.5986
 2951SOL     OW20314   2.017   1.682   5.325  0.2897  0.1763  0.1414
 2951SOL    HW120315   2.089   1.666   5.386  1.0001  1.5142 -0.3413
 2951SOL    HW220316   2.000   1.770   5.358 -0.5547  0.1793 -0.3102
 2952SOL     OW20317   1.922   2.521  14.929 -0.2123  0.6757 -0.3152
 2952SOL    HW120318   1.836   2.563  14.933  0.1353  1.5063 -1.4181
 2952SOL    HW220319   1.975   2.592  14.893  0.5905  0.9038  1.3618
 2953SOL     OW20320   1.827   0.864   2.950 -0.1225  0.0817 -0.4269
 2953SOL    HW120321   1.893   0.854   3.018 -0.3065  2.4575  0.0963
 2953SOL    HW220322   1.826   0.959   2.939 -0.0828 -0.1915 -2.7509
 2954SOL     OW20323   4.000   2.716  17.216  0.0867  0.2205 -0.3010
 2954SOL    HW120324   4.049   2.635  17.203  0.8292  0.7709 -0.8724
 2954SOL    HW220325   4.054   2.756  17.284  3.2895 -3.1522 -0.8732
 2955SOL     OW20326   2.079   1.479  11.800  0.0575 -0.1064 -0.3745
 2955SOL    HW120327   2.152   1.496  11.860 -0.0995 -1.9417  0.3225
 2955SOL    HW220328   2.071   1.384  11.811 -0.0134  0.3387  3.3894
 2956SOL     OW20329   4.441   3.616  17.482  0.0954 -0.2665  0.0939
 2956SOL    HW120330   4.486   3.610  17.397  0.2976  0.2935  0.1611
 2956SOL    HW220331   4.358   3.574  17.463  1.1321 -1.7340 -1.2525
 2957SOL     OW20332   2.538   4.058   3.129 -0.4914  0.3184 -0.3108
 2957SOL    HW120333   2.449   4.059   3.093 -0.5772 -0.4906 -0.1242
 2957SOL    HW220334   2.562   3.969   3.103 -1.4551 -0.2288  0.6429
 2958SOL     OW20335   4.288   2.061   8.447  0.0676  0.2234  0.0780
 2958SOL    HW120336   4.340   1.983   8.466 -0.2597 -0.2134 -0.8680
 2958SOL    HW220337   4.357   2.128   8.446 -0.0070  0.2518 -1.9233
 2959SOL     OW20338   3.268   3.780   9.012 -0.1111  0.3360 -0.1994
 2959SOL    HW120339   3.189   3.809   8.967 -0.6474 -3.0077 -1.4347
 2959SOL    HW220340   3.315   3.863   9.019 -3.5030  2.1601  0.6830
 2960SOL     OW20341   1.239   0.081  17.567 -0.3668  0.0159 -0.4648
 2960SOL    HW120342   1.246   0.074  17.472 -0.2782  1.0720 -0.5329
 2960SOL    HW220343   1.330   0.062  17.590 -0.5305 -1.5071 -1.0791
 2961SOL     OW20344   0.031   2.487   4.929 -0.3821 -1.1430  0.3539
 2961SOL    HW120345   0.125   2.504   4.930 -0.9391  1.9247 -0.4529
 2961SOL    HW220346   0.015   2.449   4.842  0.1654 -0.1463 -0.1790
 2962SOL     OW20347   1.925   2.927   6.260  0.7310 -0.1247  0.1965
 2962SOL    HW120348   1.989   2.869   6.302  2.5412 -0.0981 -2.5394
 2962SOL    HW220349   1.871   2.952   6.335  0.8852  2.5680 -0.5779
 2963SOL     OW20350   3.326   3.895   0.618  0.3421 -0.1680 -0.3466
 2963SOL    HW120351   3.309   3.802   0.629  0.1940  0.2778  3.0100
 2963SOL    HW220352   3.241   3.925   0.587 -1.1446 -3.7462  0.3314
 2964SOL     OW20353   3.829   0.816  17.021 -0.0066 -0.0756 -0.1670
 2964SOL    HW120354   3.822   0.910  17.004  0.3254 -0.2712 -1.3582
 2964SOL    HW220355   3.755   0.814  17.082 -1.7746  0.3974 -2.2925
 2965SOL     OW20356   0.526   2.259   6.119 -0.1966  0.2786 -0.0977
 2965SOL    HW120357   0.604   2.303   6.153  0.5690 -0.6273 -0.6562
 2965SOL    HW220358   0.538   2.273   6.025  0.8120 -1.5372 -0.2590
 2966SOL     OW20359   0.393   3.221  14.350 -0.3300  0.6031 -0.1788
 2966SOL    HW120360   0.399   3.317  14.348 -4.1673  0.8931  1.1067
 2966SOL    HW220361   0.384   3.206  14.444 -2.0430 -0.3867 -0.4885
 2967SOL     OW20362   0.285   2.391  14.653  0.6091  0.6722  0.2370
 2967SOL    HW120363   0.237   2.324  14.604 -1.6266  2.1722  0.3795
 2967SOL    HW220364   0.373   2.358  14.636  0.1778 -0.8091  0.8581
 2968SOL     OW20365   4.665   3.857  10.819 -0.6254 -0.5621  0.1264
 2968SOL    HW120366   0.019   3.840  10.880  1.5411  3.8705 -1.1978
 2968SOL    HW220367   4.597   3.882  10.881 -2.4004  1.3448 -2.5693
 2969SOL     OW20368   2.257   1.540  11.992  0.3226  0.1332 -0.2894
 2969SOL    HW120369   2.316   1.466  11.974 -0.9112 -0.8938 -0.1687
 2969SOL    HW220370   2.310   1.612  12.026  0.3180 -0.8719  1.8364
 2970SOL     OW20371   2.809   1.898   5.346  0.3240 -0.2841 -0.2229
 2970SOL    HW120372   2.873   1.838   5.309  1.4475  1.0084 -0.3491
 2970SOL    HW220373   2.849   1.983   5.329 -0.9575  0.8392  2.2701
 2971SOL     OW20374   3.483   4.669   9.239  0.0444 -0.1920  0.9158
 2971SOL    HW120375   3.426   0.007   9.292 -0.4850  2.0125 -1.9771
 2971SOL    HW220376   3.504   4.598   9.299  1.3925  0.4909  1.2594
 2972SOL     OW20377   0.456   2.675  14.389 -0.1860 -1.1781  0.1672
 2972SOL    HW120378   0.505   2.645  14.465 -1.7854 -0.5287  1.4589
 2972SOL    HW220379   0.402   2.744  14.428 -0.7705 -2.0862  0.9504
 2973SOL     OW20380   1.215   1.446  15.043  0.1684 -0.6157 -0.7516
 2973SOL    HW120381   1.205   1.351  15.036 -1.5930 -0.6150  1.8691
 2973SOL    HW220382   1.208   1.471  14.951 -1.3878  0.8969 -0.2098
 2974SOL     OW20383   2.739   2.388   3.492  0.3442 -0.5310 -0.0942
 2974SOL    HW120384   2.779   2.303   3.505  1.0341 -0.5078 -2.1818
 2974SOL    HW220385   2.714   2.386   3.400  3.2828 -0.7328 -0.8960
 2975SOL     OW20386   3.484   0.650   4.282  0.0317  0.4039  0.1584
 2975SOL    HW120387   3.533   0.574   4.311  0.2216 -0.2344 -1.8282
 2975SOL    HW220388   3.458   0.609   4.199 -0.6989  1.9222 -0.3720
 2976SOL     OW20389   3.060   1.408   2.940  0.0842 -0.6859 -0.4073
 2976SOL    HW120390   3.114   1.377   3.013  1.6434  0.0307 -1.2458
 2976SOL    HW220391   3.120   1.416   2.866  0.1705  1.4308 -0.1356
 2977SOL     OW20392   1.872   4.055   2.382 -0.2412 -0.2562  0.2234
 2977SOL    HW120393   1.926   4.129   2.354  2.4492 -2.3307 -0.0779
 2977SOL    HW220394   1.809   4.044   2.311  1.5825 -1.9754 -1.1310
 2978SOL     OW20395   2.875   1.188   6.221  0.0994 -0.4279 -0.0008
 2978SOL    HW120396   2.825   1.217   6.297  1.0350 -0.0407  0.4654
 2978SOL    HW220397   2.832   1.102   6.213 -2.7667  0.7980  2.3537
 2979SOL     OW20398   2.464   4.035  11.061  0.8512 -0.2412 -0.0996
 2979SOL    HW120399   2.424   3.989  11.135  0.6409  1.8975  1.1162
 2979SOL    HW220400   2.543   4.074  11.097  0.4876  1.1763 -0.8342
 2980SOL     OW20401   3.386   3.005   4.329 -0.0710 -0.1947  0.0664
 2980SOL    HW120402   3.439   2.974   4.402 -1.2682  1.7677  1.7555
 2980SOL    HW220403   3.368   2.931   4.271  0.8246  0.0322 -0.4993
 2981SOL     OW20404   3.950   4.025   0.202 -0.1341 -0.2914 -0.1685
 2981SOL    HW120405   3.913   4.033   0.290 -0.6379 -2.0272 -0.2256
 2981SOL    HW220406   3.968   3.931   0.194 -0.3199 -0.2907 -0.6108
 2982SOL     OW20407   1.595   3.749   0.256 -0.3089  0.0214  0.1574
 2982SOL    HW120408   1.562   3.706   0.177  1.4289 -1.5518  0.2887
 2982SOL    HW220409   1.673   3.794   0.224 -1.2142  1.8099  0.4218
 2983SOL     OW20410   3.728   0.304   4.806  0.4644  0.7810  0.6699
 2983SOL    HW120411   3.799   0.242   4.788 -1.4134 -0.1581 -3.3446
 2983SOL    HW220412   3.710   0.298   4.900 -2.3368 -1.6654 -0.0607
 2984SOL     OW20413   3.618   4.529  13.012 -0.0470 -0.5678 -0.3729
 2984SOL    HW120414   3.616   4.575  12.928 -1.7087 -0.3880 -0.2404
 2984SOL    HW220415   3.673   4.597  13.050  0.3455 -1.8410  1.3340
 2985SOL     OW20416   3.270   1.953   3.770  0.1363 -0.5112  0.0792
 2985SOL    HW120417   3.347   1.943   3.715 -0.1876 -0.5050 -0.3758
 2985SOL    HW220418   3.297   1.910   3.851 -0.9230 -1.0201  0.1628
 2986SOL     OW20419   4.102   3.350   2.908 -0.2878  0.4213  0.3425
 2986SOL    HW120420   4.176   3.397   2.869  0.5533  0.5380  2.0952
 2986SOL    HW220421   4.071   3.308   2.828  0.8032 -3.0328  1.7699
 2987SOL     OW20422   3.145   1.595  12.907  0.5200  0.0515  0.0154
 2987SOL    HW120423   3.184   1.522  12.859 -1.7157 -0.5728 -0.8339
 2987SOL    HW220424   3.059   1.557  12.921  0.9567 -1.2254 -0.8056
 2988SOL     OW20425   2.737   0.942   7.249  0.0403 -0.7410 -0.1607
 2988SOL    HW120426   2.651   0.983   7.255  0.3503 -0.2289  0.7715
 2988SOL    HW220427   2.740   0.912   7.158  0.7579 -0.8298 -0.1138
 2989SOL     OW20428   0.497   4.619   4.787 -0.0536  0.8849  0.6180
 2989SOL    HW120429   0.556   4.693   4.798  0.8470  0.4890 -1.5899
 2989SOL    HW220430   0.428   4.648   4.846  1.1405  0.5342  2.1778
 2990SOL     OW20431   0.167   4.505   1.329 -0.4711 -0.2860 -0.3448
 2990SOL    HW120432   0.202   4.450   1.399 -1.3951 -0.2019  0.1861
 2990SOL    HW220433   0.135   4.433   1.275  2.3862 -1.5086 -0.3907
 2991SOL     OW20434   4.690   2.594  15.313 -0.0746 -0.0110  0.2434
 2991SOL    HW120435   4.599   2.587  15.342  0.0735  0.5838  0.8524
 2991SOL    HW220436   4.712   2.501  15.302 -1.0146 -0.4780  2.3882
 2992SOL     OW20437   2.921   4.485  11.811  0.3297 -0.0327  0.5545
 2992SOL    HW120438   2.987   4.485  11.741  1.6665 -0.0228  1.8124
 2992SOL    HW220439   2.855   4.533  11.761 -0.1255 -1.0484  0.1772
 2993SOL     OW20440   1.626   1.570   0.576 -0.0787 -0.1369 -0.0192
 2993SOL    HW120441   1.551   1.549   0.520  1.0783  1.2679 -2.0960
 2993SOL    HW220442   1.693   1.517   0.533 -0.6374  0.8202 -2.0403
 2994SOL     OW20443   3.404   0.943   1.451  0.0427 -0.1613 -0.4850
 2994SOL    HW120444   3.381   0.990   1.531 -1.4349 -0.3523 -0.7987
 2994SOL    HW220445   3.491   0.908   1.473  0.8389  2.1692  0.0979
 2995SOL     OW20446   0.484   0.392   8.041 -0.3812 -0.0143  0.5381
 2995SOL    HW120447   0.578   0.406   8.034 -0.6005  2.3015  2.0624
 2995SOL    HW220448   0.447   0.452   7.977  1.8811 -0.6250 -1.3395
 2996SOL     OW20449   3.466   1.537   9.304  0.1708 -0.1544 -0.2420
 2996SOL    HW120450   3.489   1.513   9.214  0.4835  1.8622 -0.7033
 2996SOL    HW220451   3.412   1.616   9.292  0.7861  0.4024  0.7245
 2997SOL     OW20452   3.936   1.446   6.151 -0.1974  0.0109 -0.0745
 2997SOL    HW120453   4.018   1.397   6.151 -0.5621 -0.5864  1.6101
 2997SOL    HW220454   3.910   1.430   6.060  0.9044 -2.8523  0.1237
 2998SOL     OW20455   0.057   1.945   8.598 -0.6858 -0.0025  0.2346
 2998SOL    HW120456   0.006   1.902   8.666  1.1216  1.2710  2.3709
 2998SOL    HW220457   0.144   1.913   8.622  0.1861  0.4991 -2.2160
 2999SOL     OW20458   2.954   3.073  15.104 -0.0635 -0.1132  0.1071
 2999SOL    HW120459   2.873   3.073  15.052  0.1393 -1.8393 -0.1892
 2999SOL    HW220460   2.958   2.987  15.145 -0.0277 -0.4424 -0.6079
 3000SOL     OW20461   4.549   3.885   7.930 -0.2537  0.3776  0.6172
 3000SOL    HW120462   4.515   3.956   7.984  0.5722  0.8150  0.5598
 3000SOL    HW220463   4.515   3.810   7.979  1.0424 -0.2079  0.6466
 3001SOL     OW20464   4.288   3.579   8.532  0.0477 -0.2965 -0.9002
 3001SOL    HW120465   4.349   3.516   8.495  3.0909  1.6081  0.8683
 3001SOL    HW220466   4.242   3.542   8.607  1.8710 -1.1038 -0.1731
 3002SOL     OW20467   0.826   2.869   4.731 -0.2791  0.4224 -0.5857
 3002SOL    HW120468   0.799   2.920   4.808 -2.6531 -0.5729 -0.7564
 3002SOL    HW220469   0.894   2.924   4.692  0.2011  0.3352  0.1168
 3003SOL     OW20470   0.819   0.479   9.530 -0.2186  0.2109  0.8165
 3003SOL    HW120471   0.842   0.507   9.442  1.9923 -0.1128  1.2902
 3003SOL    HW220472   0.726   0.503   9.532 -0.0939  0.8744 -2.4893
 3004SOL     OW20473   0.147   3.528  11.365 -0.0018 -0.1159 -0.6372
 3004SOL    HW120474   0.052   3.538  11.359 -0.3626 -2.5126  0.8336
 3004SOL    HW220475   0.175   3.518  11.274 -0.6797 -3.1988 -0.5340
 3005SOL     OW20476   3.968   0.612   9.025  0.5133 -0.2080 -0.4267
 3005SOL    HW120477   3.957   0.676   9.095 -1.4551  1.0201 -1.8614
 3005SOL    HW220478   3.971   0.526   9.066  2.3851 -0.3732 -0.8715
 3006SOL     OW20479   3.454   0.752   1.955 -0.1468 -0.5756  0.0352
 3006SOL    HW120480   3.418   0.732   1.869  1.9772  2.3042 -1.5028
 3006SOL    HW220481   3.541   0.718   1.935  0.0204  0.8370 -1.5823
 3007SOL     OW20482   2.333   2.576  11.516  0.1039 -0.6460  0.3729
 3007SOL    HW120483   2.263   2.629  11.555 -0.1605 -1.5159  1.0800
 3007SOL    HW220484   2.383   2.557  11.595  0.7127  0.3637  0.2239
 3008SOL     OW20485   3.994   4.554   7.422  0.2557 -0.0949 -0.5806
 3008SOL    HW120486   3.969   4.498   7.495  0.9208 -0.1374 -0.3825
 3008SOL    HW220487   3.953   4.640   7.436  0.1430  0.3116 -3.3245
 3009SOL     OW20488   3.520   2.475   4.194 -0.4083 -0.0355 -0.4247
 3009SOL    HW120489   3.561   2.412   4.253  0.3276 -1.2483 -2.2689
 3009SOL    HW220490   3.593   2.495   4.136  0.0303 -0.6695 -0.0833
 3010SOL     OW20491   3.786   3.911   1.088  0.1864  0.2693  0.1435
 3010SOL    HW120492   3.745   3.830   1.118  1.8680 -0.6177  0.0606
 3010SOL    HW220493   3.875   3.877   1.076 -0.5311 -2.5276  2.5077
 3011SOL     OW20494   1.165   0.554  16.302 -0.2191  0.1861  0.0552
 3011SOL    HW120495   1.250   0.597  16.298 -0.8386  1.2942 -1.6163
 3011SOL    HW220496   1.194   0.491  16.367  1.8056  1.7952  0.6799
 3012SOL     OW20497   1.942   3.251  17.350 -0.1783 -0.3857  0.1402
 3012SOL    HW120498   1.951   3.214  17.437  2.0427  0.0316  0.0718
 3012SOL    HW220499   1.931   3.345  17.366 -3.1474 -1.1116  2.3484
 3013SOL     OW20500   4.659   0.325   5.988 -0.3012 -0.0748  0.5577
 3013SOL    HW120501   0.033   0.304   5.971 -0.3270  0.3189 -0.0645
 3013SOL    HW220502   4.627   0.336   5.898  0.9521  0.7621  0.2229
 3014SOL     OW20503   1.377   4.416   9.689 -0.4338  0.5903 -0.1734
 3014SOL    HW120504   1.404   4.501   9.724 -1.5138  0.1173  1.8298
 3014SOL    HW220505   1.289   4.394   9.722 -0.5112  2.1218  0.6635
 3015SOL     OW20506   1.599   2.402  15.984  0.1848  0.7431 -0.2216
 3015SOL    HW120507   1.585   2.351  16.064 -0.3735  0.4231 -0.5191
 3015SOL    HW220508   1.628   2.483  16.027  2.0938  0.3123 -0.7241
 3016SOL     OW20509   0.360   1.262  11.642  0.0625  0.6293  0.6343
 3016SOL    HW120510   0.371   1.172  11.611 -0.3098  0.0830  2.1046
 3016SOL    HW220511   0.369   1.309  11.559  2.3914  2.2338  1.7703
 3017SOL     OW20512   0.787   4.518   5.548  1.0107 -0.2836  0.1158
 3017SOL    HW120513   0.749   4.522   5.636 -2.2812  1.5846 -1.4032
 3017SOL    HW220514   0.800   4.424   5.538 -1.4623 -0.6418  0.2411
 3018SOL     OW20515   4.195   1.836   9.201 -0.0316  0.3291  0.1484
 3018SOL    HW120516   4.258   1.796   9.260  0.5277  1.2992  0.2078
 3018SOL    HW220517   4.256   1.838   9.127 -0.4372 -2.4123 -0.2411
 3019SOL     OW20518   1.014   4.071   0.752  0.3060  0.5334  0.1004
 3019SOL    HW120519   1.029   4.034   0.839 -0.4841 -1.6196 -0.6809
 3019SOL    HW220520   1.036   4.163   0.769 -0.7238  0.3914  2.2024
 3020SOL     OW20521   2.058   0.875   2.567  0.2773  0.0447  0.5038
 3020SOL    HW120522   1.993   0.928   2.613 -0.2361 -0.9111  0.8945
 3020SOL    HW220523   2.073   0.797   2.621 -1.2888  0.7121  1.8895
 3021SOL     OW20524   4.063   2.221  12.612 -0.4574 -0.0415  0.6947
 3021SOL    HW120525   4.085   2.289  12.676 -0.1298 -0.9885  1.5750
 3021SOL    HW220526   4.028   2.273  12.539  0.4562 -0.1588  0.1766
 3022SOL     OW20527   3.560   4.644   8.024  0.0147 -0.0252 -0.3119
 3022SOL    HW120528   3.470   4.613   8.016  0.2337 -0.2712 -1.8864
 3022SOL    HW220529   3.567   4.650   8.119  1.0792  2.1243 -0.5084
 3023SOL     OW20530   4.074   1.405  10.001  0.4647 -0.6808  0.6943
 3023SOL    HW120531   3.990   1.387  10.042  0.0358 -0.6417 -0.1581
 3023SOL    HW220532   4.117   1.321   9.986  0.9618 -0.0073 -1.7001
 3024SOL     OW20533   4.471   3.421  15.176  0.1038 -0.4956  0.4348
 3024SOL    HW120534   4.558   3.456  15.162 -0.8162  0.3894 -3.0183
 3024SOL    HW220535   4.450   3.371  15.097 -2.1585  0.5411  0.3757
 3025SOL     OW20536   2.623   1.431  15.689  0.1386  0.4628 -0.4026
 3025SOL    HW120537   2.702   1.485  15.692 -0.0612  0.6711  1.3523
 3025SOL    HW220538   2.581   1.474  15.614  0.6780  3.0714  0.7791
 3026SOL     OW20539   2.599   4.450   6.077 -0.2452  0.1688 -0.0188
 3026SOL    HW120540   2.686   4.412   6.071  0.8212  2.1932  2.6763
 3026SOL    HW220541   2.563   4.419   6.160  0.6123  1.1344  0.7125
 3027SOL     OW20542   0.179   2.991  14.922  0.4801  0.4994 -0.1517
 3027SOL    HW120543   0.098   3.024  14.884 -0.8651 -0.7941  1.5929
 3027SOL    HW220544   0.165   2.900  14.948  0.7573  0.1624 -1.2078
 3028SOL     OW20545   3.927   0.046  11.045  0.0530  0.0608  0.5767
 3028SOL    HW120546   3.924   0.136  11.077 -0.6041 -0.2223  1.3060
 3028SOL    HW220547   4.015   0.041  11.007 -0.4039 -0.8366 -0.3637
 3029SOL     OW20548   2.919   2.687  14.815 -0.3737 -0.1115  0.5721
 3029SOL    HW120549   2.850   2.644  14.765  0.7280 -2.9989  1.4772
 3029SOL    HW220550   2.987   2.628  14.780  0.1277 -0.0966  1.5024
 3030SOL     OW20551   0.481   0.208  10.293 -0.2234  0.2539  0.2922
 3030SOL    HW120552   0.463   0.126  10.247 -0.4503  0.3959  0.1261
 3030SOL    HW220553   0.567   0.234  10.262 -0.8387 -0.1925 -1.7565
 3031SOL     OW20554   3.200   1.726  10.473  0.1471 -0.3221 -0.1033
 3031SOL    HW120555   3.216   1.785  10.400 -0.0457 -0.2255 -0.0667
 3031SOL    HW220556   3.106   1.742  10.481  0.7388  2.3311  1.4275
 3032SOL     OW20557   2.886   4.296  11.994 -0.3363 -0.0425 -0.3144
 3032SOL    HW120558   2.790   4.298  12.003 -0.1731  0.9919  1.1966
 3032SOL    HW220559   2.900   4.367  11.931 -1.5748  1.1310  0.7085
 3033SOL     OW20560   2.138   0.870  16.292 -0.4579  0.6704  0.2678
 3033SOL    HW120561   2.054   0.828  16.274  0.0938 -0.2231 -0.2406
 3033SOL    HW220562   2.155   0.899  16.202 -1.1727 -0.2263 -0.1597
 3034SOL     OW20563   2.771   1.488   3.761  0.2469  0.4901  0.2419
 3034SOL    HW120564   2.822   1.433   3.702 -3.1004 -0.7822 -1.4805
 3034SOL    HW220565   2.770   1.436   3.842 -1.2650 -0.1499 -0.1740
 3035SOL     OW20566   4.216   2.591   2.229  0.2862 -0.3395  0.0176
 3035SOL    HW120567   4.123   2.571   2.240  0.2409  0.1011  0.4515
 3035SOL    HW220568   4.246   2.500   2.232 -2.0666 -1.1541 -0.9208
 3036SOL     OW20569   3.789   1.240  10.406 -0.1534  0.1482 -0.5924
 3036SOL    HW120570   3.816   1.241  10.498 -0.5953  1.8864 -0.4793
 3036SOL    HW220571   3.763   1.330  10.385  0.8953  0.5215 -0.3016
 3037SOL     OW20572   3.111   2.978   4.403 -0.5171  0.4174 -0.1932
 3037SOL    HW120573   3.182   3.022   4.359  0.9657  0.3209  2.0902
 3037SOL    HW220574   3.126   3.027   4.484  1.4388  0.8927 -0.8647
 3038SOL     OW20575   1.607   2.018   1.996  0.5062 -0.3022 -0.9631
 3038SOL    HW120576   1.645   1.961   1.929  0.3636 -0.1501 -1.1739
 3038SOL    HW220577   1.514   2.013   1.976  0.5306 -0.3903 -1.0520
 3039SOL     OW20578   1.343   2.569   4.271 -0.7600 -0.1641 -0.3798
 3039SOL    HW120579   1.261   2.521   4.285 -1.4981  1.6737  1.5827
 3039SOL    HW220580   1.355   2.606   4.358  0.0481  1.0142 -1.0018
 3040SOL     OW20581   4.276   2.324   2.571 -0.0552  0.0428 -0.5663
 3040SOL    HW120582   4.325   2.310   2.490  1.6864 -1.2465  0.7281
 3040SOL    HW220583   4.299   2.414   2.597  1.8942 -0.8472  0.7674
 3041SOL     OW20584   3.125   1.095   2.889  0.1021 -0.4547 -0.4656
 3041SOL    HW120585   3.062   1.159   2.855  0.2546 -0.1326 -0.1418
 3041SOL    HW220586   3.187   1.080   2.817 -0.4053 -0.8016 -0.8268
 3042SOL     OW20587   4.496   1.145  13.205 -0.2656 -0.3341 -0.0146
 3042SOL    HW120588   4.516   1.218  13.147 -1.0965 -0.2402 -0.1911
 3042SOL    HW220589   4.405   1.128  13.179 -0.1797 -0.1069 -0.4605
 3043SOL     OW20590   2.118   0.011   1.136  0.1040 -0.1383 -0.4802
 3043SOL    HW120591   2.031   0.044   1.159  0.3411 -0.6177  1.1530
 3043SOL    HW220592   2.171   0.090   1.133  1.8903 -1.3854 -1.3471
 3044SOL     OW20593   2.987   2.573  10.425 -0.0695 -0.4661 -0.1361
 3044SOL    HW120594   2.914   2.609  10.374 -1.1100 -2.9386 -0.3491
 3044SOL    HW220595   2.979   2.480  10.408  0.3818 -0.5904  0.3236
 3045SOL     OW20596   0.694   1.695   6.185 -0.2075  0.9655  0.0975
 3045SOL    HW120597   0.639   1.683   6.263  0.3779 -2.8822 -0.1132
 3045SOL    HW220598   0.630   1.701   6.115 -2.2299  3.8102  2.1981
 3046SOL     OW20599   4.463   3.745   4.158  0.5620  0.0786 -0.5036
 3046SOL    HW120600   4.531   3.780   4.216 -0.4214 -0.2028  0.8252
 3046SOL    HW220601   4.431   3.667   4.204  1.1814 -1.1816 -2.2138
 3047SOL     OW20602   1.487   2.146  12.327 -0.5596  0.5620  0.0245
 3047SOL    HW120603   1.535   2.073  12.289  3.9347  2.5153  2.0293
 3047SOL    HW220604   1.551   2.216  12.339  0.8069 -0.4962 -1.2093
 3048SOL     OW20605   1.753   0.444   4.924 -0.4565  0.3272 -0.1093
 3048SOL    HW120606   1.715   0.524   4.887  0.1642 -0.1925 -1.8615
 3048SOL    HW220607   1.729   0.450   5.017 -0.1396 -0.7684  0.0420
 3049SOL     OW20608   4.439   1.447  10.690  0.2383  0.5016  0.0952
 3049SOL    HW120609   4.531   1.472  10.695  0.6544 -1.0043 -0.0383
 3049SOL    HW220610   4.446   1.359  10.727 -1.6863  0.4801  0.3953
 3050SOL     OW20611   3.715   0.683  12.890 -0.4689 -0.1286  0.5756
 3050SOL    HW120612   3.805   0.705  12.869 -0.9460  1.1812 -0.1187
 3050SOL    HW220613   3.672   0.684  12.804  1.3138 -1.3706 -0.3355
 3051SOL     OW20614   3.012   0.699   3.470 -0.2752 -0.2779 -0.2502
 3051SOL    HW120615   2.925   0.710   3.431  0.4450 -1.6839 -2.2721
 3051SOL    HW220616   3.020   0.789   3.502 -0.4211 -0.5804  0.6364
 3052SOL     OW20617   0.227   1.572   8.955  0.0341  0.0464 -0.7092
 3052SOL    HW120618   0.250   1.490   8.999 -0.1738  1.0262  1.2137
 3052SOL    HW220619   0.283   1.632   9.003  0.5633 -2.3705  1.7030
 3053SOL     OW20620   3.779   2.380   4.653 -0.3693 -0.3048 -0.0417
 3053SOL    HW120621   3.787   2.285   4.662 -0.9560 -0.3507  0.0066
 3053SOL    HW220622   3.814   2.387   4.564 -2.2169  1.6170 -0.6150
 3054SOL     OW20623   3.399   3.948   6.077  0.2723  0.3190 -0.2464
 3054SOL    HW120624   3.410   3.906   5.991  0.1526 -0.0252 -0.0943
 3054SOL    HW220625   3.375   3.873   6.132 -0.0507 -0.7224 -1.7965
 3055SOL     OW20626   3.380   3.762  17.479  0.8568  0.8362  0.4166
 3055SOL    HW120627   3.362   3.730  17.567 -0.1054 -1.6314 -0.6886
 3055SOL    HW220628   3.295   3.756  17.436  0.9281  1.9314  0.1256
 3056SOL     OW20629   2.589   0.022   8.393 -0.0942  0.1148 -0.1560
 3056SOL    HW120630   2.648   0.016   8.468 -0.1285  1.8579  0.0095
 3056SOL    HW220631   2.616   0.106   8.354  1.8297 -2.5727 -4.5792
 3057SOL     OW20632   3.062   1.283   1.686  0.3854 -0.7898 -0.1531
 3057SOL    HW120633   3.155   1.281   1.668  0.9082  2.0768  2.2070
 3057SOL    HW220634   3.065   1.268   1.781  1.7098  0.6700  0.0286
 3058SOL     OW20635   4.053   4.418   6.075 -0.4000  0.2839 -0.7064
 3058SOL    HW120636   3.974   4.366   6.088 -1.2798  1.6124 -0.7580
 3058SOL    HW220637   4.057   4.461   6.160 -1.2221 -2.2414  0.6215
 3059SOL     OW20638   4.188   2.898  13.736  0.5133 -0.5238  0.3919
 3059SOL    HW120639   4.165   2.979  13.781  2.1947 -0.3790  1.0024
 3059SOL    HW220640   4.171   2.928  13.647 -1.6251 -0.6149  0.7577
 3060SOL     OW20641   0.834   3.723   7.810  0.1378  0.0576 -0.2517
 3060SOL    HW120642   0.791   3.655   7.863 -1.0831  0.8109 -0.2677
 3060SOL    HW220643   0.786   3.714   7.728 -1.0559 -0.7111  0.5319
 3061SOL     OW20644   3.209   0.956   3.831 -0.1931  0.1948 -0.4063
 3061SOL    HW120645   3.271   0.956   3.904  1.9064  0.4032 -2.2070
 3061SOL    HW220646   3.190   1.047   3.808 -0.7181 -0.3303 -2.0550
 3062SOL     OW20647   0.064   3.550   0.883 -0.0366  0.0655  0.6525
 3062SOL    HW120648   0.154   3.528   0.907  0.0699  0.9232  1.0530
 3062SOL    HW220649   0.052   3.496   0.806 -0.7261  0.3933  0.5226
 3063SOL     OW20650   1.069   4.707  10.711  0.2920 -0.4538 -0.4894
 3063SOL    HW120651   1.153   4.697  10.756 -0.5352 -0.9160  0.9376
 3063SOL    HW220652   1.046   0.073  10.751 -0.7879 -0.2921 -1.4327
 3064SOL     OW20653   4.388   2.940   1.959  0.1183  0.2547 -0.6583
 3064SOL    HW120654   4.440   2.977   1.889  1.1758 -1.2111 -0.6475
 3064SOL    HW220655   4.397   3.006   2.028  0.0854 -2.8580  2.3628
 3065SOL     OW20656   1.772   1.026   2.487 -0.4788  0.2649  0.0618
 3065SOL    HW120657   1.712   0.954   2.467  1.2141 -0.7680 -1.3871
 3065SOL    HW220658   1.799   1.053   2.399 -0.7359  1.0901  0.2420
 3066SOL     OW20659   3.443   2.298   6.250  0.5088  0.3098  0.0731
 3066SOL    HW120660   3.415   2.261   6.166 -0.1638 -0.7392  0.7476
 3066SOL    HW220661   3.490   2.222   6.285 -1.5556 -1.2331 -0.4988
 3067SOL     OW20662   1.345   1.103   3.268  0.0415  0.3317 -0.8418
 3067SOL    HW120663   1.392   1.137   3.345  2.1671  1.9721 -2.8424
 3067SOL    HW220664   1.263   1.140   3.300 -0.4353 -1.8875  0.4523
 3068SOL     OW20665   3.978   1.455   3.644 -0.1287 -0.0629  0.3218
 3068SOL    HW120666   3.929   1.390   3.695  1.2920 -0.5694  1.0351
 3068SOL    HW220667   3.909   1.519   3.625 -0.6317 -1.9826 -4.1977
 3069SOL     OW20668   0.088   2.917   2.500  0.7029 -0.3183  0.4468
 3069SOL    HW120669   0.036   2.836   2.504 -2.3891  1.6787  0.4611
 3069SOL    HW220670   0.056   2.966   2.425  0.8673  0.6098  0.9867
 3070SOL     OW20671   2.773   2.221  16.586  0.2225 -0.1160  0.1139
 3070SOL    HW120672   2.800   2.313  16.588 -1.3273  0.3578 -0.8269
 3070SOL    HW220673   2.698   2.216  16.526 -0.0443 -0.7503  0.4986
 3071SOL     OW20674   4.224   3.325   8.284  0.0196  0.1734  1.2198
 3071SOL    HW120675   4.182   3.341   8.368 -0.8994 -0.8842  0.9727
 3071SOL    HW220676   4.157   3.268   8.246  0.5103  0.3206  0.1336
 3072SOL     OW20677   0.466   3.621   6.066 -0.2857 -0.8324  0.4218
 3072SOL    HW120678   0.500   3.647   5.980 -2.5272  2.4997  0.5289
 3072SOL    HW220679   0.526   3.548   6.082 -0.3087 -1.4288 -2.0518
 3073SOL     OW20680   1.442   4.214   7.484 -0.2335  0.1498 -0.0338
 3073SOL    HW120681   1.471   4.161   7.410  0.6621 -0.7495  0.9872
 3073SOL    HW220682   1.521   4.219   7.537  0.1382  1.4782 -0.7040
 3074SOL     OW20683   2.339   1.431   4.230  0.5099  0.6090  0.8445
 3074SOL    HW120684   2.280   1.497   4.193  2.0816  1.0153 -0.9206
 3074SOL    HW220685   2.426   1.458   4.204  0.2813  0.6026  0.0797
 3075SOL     OW20686   0.621   2.614   5.705 -0.4373 -0.3074  0.4646
 3075SOL    HW120687   0.572   2.610   5.787 -0.8839 -0.6660  0.1810
 3075SOL    HW220688   0.710   2.637   5.730 -0.3880  0.2390 -0.2189
 3076SOL     OW20689   0.102   0.974  14.519 -0.2997  0.3789  0.2789
 3076SOL    HW120690   0.091   0.886  14.555 -1.1004  1.0423  1.6541
 3076SOL    HW220691   0.148   1.012  14.593 -1.4282  0.9319  0.7021
 3077SOL     OW20692   2.901   2.513   2.926  0.1074  0.5715  0.0851
 3077SOL    HW120693   2.891   2.551   2.839 -1.7982  1.5832  0.7478
 3077SOL    HW220694   2.936   2.427   2.904 -0.8505  0.5787 -1.4444
 3078SOL     OW20695   3.671   3.182   4.740  0.0186  0.0309 -0.4095
 3078SOL    HW120696   3.707   3.177   4.651  1.6710 -0.5398  0.2878
 3078SOL    HW220697   3.746   3.186   4.798  0.7770  0.9020 -1.4402
 3079SOL     OW20698   1.503   2.935   2.591 -0.1037  0.1423  0.5436
 3079SOL    HW120699   1.576   2.881   2.621 -0.1727 -0.1122  0.2459
 3079SOL    HW220700   1.439   2.865   2.581 -0.7247  1.4082 -4.1145
 3080SOL     OW20701   0.445   3.805   9.926 -0.1601 -0.0378 -0.2203
 3080SOL    HW120702   0.350   3.803   9.913 -0.2587  1.3747  0.1990
 3080SOL    HW220703   0.480   3.756   9.852 -0.6573  1.9311 -1.7639
 3081SOL     OW20704   1.476   0.551   3.271  0.0418  0.2133  0.2773
 3081SOL    HW120705   1.487   0.646   3.277 -2.9901  0.4019  2.8946
 3081SOL    HW220706   1.461   0.544   3.177  1.3968  1.5299 -0.0462
 3082SOL     OW20707   0.592   4.175   6.140 -0.3447  0.4593  0.0624
 3082SOL    HW120708   0.537   4.224   6.079 -1.0459 -2.0269 -1.2837
 3082SOL    HW220709   0.648   4.140   6.070  0.6810 -1.6556  1.9374
 3083SOL     OW20710   1.256   3.993  12.839  0.0022  0.1223 -0.6053
 3083SOL    HW120711   1.305   3.912  12.829 -0.5721 -0.4072  0.8122
 3083SOL    HW220712   1.313   4.056  12.795  1.1674 -0.0009  0.7284
 3084SOL     OW20713   1.599   2.728  10.846 -0.4209 -0.7673  0.0551
 3084SOL    HW120714   1.676   2.717  10.791 -0.4327  0.5021 -0.2176
 3084SOL    HW220715   1.560   2.640  10.846 -0.8991 -0.5551 -0.4056
 3085SOL     OW20716   2.832   4.186  12.245  0.3173 -0.1867  0.3922
 3085SOL    HW120717   2.791   4.170  12.330 -3.2221 -3.4143 -1.8782
 3085SOL    HW220718   2.772   4.249  12.206  1.9882  1.4442  0.4473
 3086SOL     OW20719   0.715   3.021  12.853 -0.3528 -0.0551 -0.0423
 3086SOL    HW120720   0.640   3.017  12.912 -0.8747  0.0667 -0.7013
 3086SOL    HW220721   0.664   3.046  12.776  0.8714 -0.7967 -1.0901
 3087SOL     OW20722   4.263   4.517  10.916 -0.2299  0.1740  0.1056
 3087SOL    HW120723   4.287   4.568  10.994 -2.4835 -0.2106  1.0509
 3087SOL    HW220724   4.168   4.523  10.925 -0.3892 -1.0279 -0.9126
 3088SOL     OW20725   3.452   1.804   7.014  0.0136 -0.1610 -0.5157
 3088SOL    HW120726   3.442   1.709   7.002  0.6358  0.0137 -2.3056
 3088SOL    HW220727   3.478   1.830   6.926  0.6941  0.4886 -0.1204
 3089SOL     OW20728   4.685   3.454   7.065  0.5596  0.3981  0.1252
 3089SOL    HW120729   4.664   3.530   7.010 -1.6103 -0.4835 -0.2965
 3089SOL    HW220730   4.600   3.409   7.061 -0.2034  1.6921  1.5131
 3090SOL     OW20731   1.628   3.397   6.698 -0.4896  0.7026  0.0502
 3090SOL    HW120732   1.683   3.365   6.626 -0.0699  0.9283  0.2666
 3090SOL    HW220733   1.633   3.491   6.680  0.5140  0.8296  0.9571
 3091SOL     OW20734   3.595   2.958  14.138  0.0581 -0.4224 -0.0119
 3091SOL    HW120735   3.646   3.018  14.193  0.1185 -1.2627  0.8498
 3091SOL    HW220736   3.650   2.879  14.140 -0.9245 -1.1136 -0.8113
 3092SOL     OW20737   1.449   4.566   5.295 -0.2758  0.3235  0.0006
 3092SOL    HW120738   1.409   4.617   5.225 -1.1601 -3.4307 -2.2289
 3092SOL    HW220739   1.373   4.530   5.342 -1.0754  1.9599 -0.0716
 3093SOL     OW20740   2.118   1.015  14.716 -0.1773  0.4831  0.3587
 3093SOL    HW120741   2.092   1.080  14.780 -1.4617  0.7979 -0.4843
 3093SOL    HW220742   2.052   0.946  14.724  0.5972 -0.2825  0.1738
 3094SOL     OW20743   4.628   3.693   2.332  0.5808 -0.7667  0.6969
 3094SOL    HW120744   4.548   3.729   2.372  1.2343  0.5008  0.8593
 3094SOL    HW220745   4.678   3.774   2.326  0.1570 -0.8723 -3.8094
 3095SOL     OW20746   1.039   2.193   1.049 -0.6408  0.1937 -0.7073
 3095SOL    HW120747   1.000   2.243   1.121 -0.0839  2.3709 -1.9172
 3095SOL    HW220748   1.133   2.203   1.062 -0.6125  0.5451 -1.1686
 3096SOL     OW20749   1.157   2.567  17.599 -0.4484  0.1729  0.0443
 3096SOL    HW120750   1.103   2.535  17.527  0.5842 -1.0312 -0.1729
 3096SOL    HW220751   1.222   2.605  17.540  0.1863 -1.0480 -0.0402
 3097SOL     OW20752   0.574   3.104   1.621 -0.4555 -0.0575  0.1236
 3097SOL    HW120753   0.608   3.040   1.559 -0.6172  1.8679 -1.9231
 3097SOL    HW220754   0.538   3.161   1.554  0.9092  0.6059 -0.0499
 3098SOL     OW20755   0.772   1.711   7.152  0.3006  0.4726 -0.1893
 3098SOL    HW120756   0.780   1.698   7.058  0.1202 -1.9210  0.1407
 3098SOL    HW220757   0.722   1.793   7.149 -0.1480  0.2355  0.6571
 3099SOL     OW20758   0.347   3.257   2.744 -0.1486 -0.4184  0.3400
 3099SOL    HW120759   0.396   3.190   2.791  0.5862 -1.3001 -1.6644
 3099SOL    HW220760   0.372   3.234   2.654  0.3675 -0.1161  0.4108
 3100SOL     OW20761   2.146   3.117   1.904 -0.0390 -0.3421 -0.4817
 3100SOL    HW120762   2.143   3.040   1.848  1.4834 -0.1064 -0.8954
 3100SOL    HW220763   2.232   3.100   1.943 -0.2266 -0.1923 -0.0015
 3101SOL     OW20764   3.415   4.018  11.357  0.3819 -0.6918 -0.1298
 3101SOL    HW120765   3.487   4.049  11.412  1.1138  1.4545 -2.3362
 3101SOL    HW220766   3.376   3.961  11.423  0.5107 -1.0649 -0.3749
 3102SOL     OW20767   3.333   3.055   5.252  0.0192 -0.4996 -0.1659
 3102SOL    HW120768   3.425   3.076   5.236  0.3525 -3.1603 -1.6905
 3102SOL    HW220769   3.339   3.055   5.348 -0.6509  0.6016 -0.1208
 3103SOL     OW20770   3.877   4.204  12.242 -0.1056  0.0704 -0.1581
 3103SOL    HW120771   3.927   4.286  12.247  0.3029 -0.3146  1.9937
 3103SOL    HW220772   3.900   4.165  12.327  0.1797  0.3405 -0.1115
 3104SOL     OW20773   1.098   2.804  11.079  0.5892 -0.1335  0.0684
 3104SOL    HW120774   1.061   2.802  11.167  0.1564  1.9427 -0.0601
 3104SOL    HW220775   1.100   2.896  11.052 -2.3852 -0.2474 -0.5648
 3105SOL     OW20776   3.048   2.610   4.151 -0.0125  0.1762  0.5514
 3105SOL    HW120777   3.065   2.599   4.058  0.1992 -1.8287  0.8235
 3105SOL    HW220778   3.128   2.570   4.183  0.2256 -0.4830 -0.8774
 3106SOL     OW20779   4.645   2.105   6.274 -0.3736 -0.4701 -0.1601
 3106SOL    HW120780   4.607   2.167   6.337  0.7251  0.1365 -0.0995
 3106SOL    HW220781   4.569   2.047   6.267 -0.7554 -0.0647  0.5732
 3107SOL     OW20782   2.190   0.388   3.933 -0.4943 -0.0273  0.2295
 3107SOL    HW120783   2.197   0.484   3.942  3.3030 -0.3276  0.7296
 3107SOL    HW220784   2.272   0.366   3.976  0.0908 -0.5260 -1.1385
 3108SOL     OW20785   1.823   4.279   3.159  0.1337 -0.2703  0.0564
 3108SOL    HW120786   1.768   4.347   3.196  0.1644 -0.7406  0.9620
 3108SOL    HW220787   1.796   4.279   3.067  1.1784 -1.2226 -0.2621
 3109SOL     OW20788   0.217   3.923  10.735 -0.0172 -0.3845  0.7385
 3109SOL    HW120789   0.249   3.836  10.760  1.5004  0.0560  0.3386
 3109SOL    HW220790   0.126   3.898  10.751 -0.2739 -0.0066 -0.1525
 3110SOL     OW20791   2.093   1.661   8.536  0.5511  0.0896 -0.0416
 3110SOL    HW120792   2.051   1.653   8.450  1.3268  0.1243 -0.4184
 3110SOL    HW220793   2.024   1.710   8.580 -2.3570 -3.4647 -0.6132
 3111SOL     OW20794   2.585   4.001  14.297 -0.1323  0.3855 -0.8812
 3111SOL    HW120795   2.555   4.091  14.284 -1.2327  0.1696  0.1884
 3111SOL    HW220796   2.506   3.960  14.261 -1.2390  2.1504 -0.4532
 3112SOL     OW20797   2.815   2.392   4.283  0.4773  0.6659  0.0446
 3112SOL    HW120798   2.773   2.360   4.203 -0.4493 -0.0012  0.7989
 3112SOL    HW220799   2.837   2.484   4.274 -1.0794  0.9171 -1.1402
 3113SOL     OW20800   3.461   1.328  11.127  0.3221  0.1779  0.5171
 3113SOL    HW120801   3.440   1.259  11.190  2.0379 -0.5978  0.2399
 3113SOL    HW220802   3.385   1.383  11.147  0.4453 -0.1819  1.9782
 3114SOL     OW20803   1.843   3.077  16.340 -0.2776 -0.1485 -0.9202
 3114SOL    HW120804   1.748   3.089  16.354 -0.4879 -2.5568 -0.3751
 3114SOL    HW220805   1.876   3.159  16.378 -2.9910  1.3349 -1.7229
 3115SOL     OW20806   1.887   0.855  14.668 -0.0752 -0.7093  0.0182
 3115SOL    HW120807   1.887   0.759  14.666 -1.0145 -0.7236  0.6439
 3115SOL    HW220808   1.852   0.874  14.581 -0.5209 -0.0123  0.3513
 3116SOL     OW20809   1.003   2.720  12.624  0.4904  0.3779  0.1526
 3116SOL    HW120810   0.947   2.666  12.680  1.1247  0.0797  0.4972
 3116SOL    HW220811   0.974   2.806  12.656  2.2383  0.8827  0.3464
 3117SOL     OW20812   3.098   2.702  15.402 -0.4502 -0.3411  0.3589
 3117SOL    HW120813   3.190   2.725  15.417  0.3342 -2.6283 -0.9686
 3117SOL    HW220814   3.109   2.608  15.417  0.2076 -0.3399 -0.1522
 3118SOL     OW20815   3.328   4.501   8.295  0.4141  0.3062 -0.1133
 3118SOL    HW120816   3.319   4.407   8.309 -1.9523  0.3035 -1.5935
 3118SOL    HW220817   3.303   4.528   8.383 -0.3588 -1.7524  0.2907
 3119SOL     OW20818   2.488   2.112   9.762  0.3825 -0.0055  0.7134
 3119SOL    HW120819   2.463   2.140   9.850  0.9013  0.9987  0.5418
 3119SOL    HW220820   2.550   2.181   9.737 -1.2478  0.4617 -1.9996
 3120SOL     OW20821   2.171   0.069   7.331  0.2006  0.9429  0.3892
 3120SOL    HW120822   2.199   0.146   7.282  0.3333  1.4449  1.2652
 3120SOL    HW220823   2.211   4.715   7.282  3.5481  2.4309  0.9420
 3121SOL     OW20824   0.802   3.803   2.863 -0.1816 -0.0395 -0.0864
 3121SOL    HW120825   0.865   3.762   2.804  0.6310  0.7911  0.1972
 3121SOL    HW220826   0.751   3.863   2.809 -1.7235 -1.9186 -0.7215
 3122SOL     OW20827   0.263   1.802  12.001  0.2792 -0.1123 -0.5638
 3122SOL    HW120828   0.288   1.893  11.988 -0.2305  0.0813 -0.1741
 3122SOL    HW220829   0.347   1.758  12.015  0.7161  0.0124 -2.6730
 3123SOL     OW20830   1.606   2.191   1.377  0.4133  0.5469  0.1916
 3123SOL    HW120831   1.557   2.271   1.397 -0.6293  0.1218 -0.6628
 3123SOL    HW220832   1.594   2.200   1.282  2.1461  2.1867  0.1314
 3124SOL     OW20833   1.201   4.622   2.457 -0.2865  0.1389 -0.6590
 3124SOL    HW120834   1.235   4.661   2.377  0.6469 -2.4112 -1.5018
 3124SOL    HW220835   1.278   4.620   2.513  0.4211 -2.4920 -1.7099
 3125SOL     OW20836   3.824   0.916   6.465  0.1729 -0.2311 -0.2538
 3125SOL    HW120837   3.828   0.978   6.391 -0.5144 -0.7165 -0.6898
 3125SOL    HW220838   3.912   0.880   6.457 -0.0588 -1.1493  1.5486
 3126SOL     OW20839   3.192   3.657  11.242 -0.2724  0.3737  0.6035
 3126SOL    HW120840   3.143   3.605  11.306  0.7106 -2.2619 -0.7560
 3126SOL    HW220841   3.210   3.593  11.173 -0.7800 -1.3077  2.0233
 3127SOL     OW20842   0.090   0.835   2.680 -0.1698 -0.2920  0.6953
 3127SOL    HW120843   0.140   0.753   2.686  1.8806  0.7618 -1.9555
 3127SOL    HW220844   0.035   0.826   2.603 -0.2741  1.4680  0.5662
 3128SOL     OW20845   3.394   0.832   4.056 -0.3846 -0.1643  0.1257
 3128SOL    HW120846   3.472   0.820   4.112  0.2431  2.7520 -0.1201
 3128SOL    HW220847   3.364   0.741   4.053  0.3682 -0.4763  1.6370
 3129SOL     OW20848   3.123   1.248   5.639  0.1613 -0.2840  0.3362
 3129SOL    HW120849   3.163   1.304   5.573 -0.5584 -1.1109 -0.8013
 3129SOL    HW220850   3.152   1.160   5.615  0.7659  0.8590 -3.0825
 3130SOL     OW20851   3.411   1.441  16.279  0.3228  0.1500 -0.1054
 3130SOL    HW120852   3.382   1.372  16.220  4.2005 -1.0874 -0.5826
 3130SOL    HW220853   3.365   1.512  16.234 -0.9213  0.4211  1.5994
 3131SOL     OW20854   1.610   2.622  16.135 -0.9501 -0.3211 -0.3682
 3131SOL    HW120855   1.704   2.640  16.138 -1.3605  1.6399  1.2738
 3131SOL    HW220856   1.582   2.679  16.207 -0.9035 -0.5649 -0.1574
 3132SOL     OW20857   2.816   0.682  16.914  0.1174 -0.0882 -0.3463
 3132SOL    HW120858   2.771   0.693  16.830  1.9769  0.1062 -1.3134
 3132SOL    HW220859   2.795   0.590  16.930 -2.1543  0.9158  2.4510
 3133SOL     OW20860   3.378   4.494   4.362 -0.6222 -0.4648 -0.1139
 3133SOL    HW120861   3.408   4.451   4.282  2.0986 -2.0850  1.7971
 3133SOL    HW220862   3.345   4.572   4.317  0.5238  0.8424  1.3051
 3134SOL     OW20863   2.669   1.392  10.648 -1.0038 -0.3306  0.1251
 3134SOL    HW120864   2.604   1.462  10.636 -0.0812  0.4279 -0.4579
 3134SOL    HW220865   2.686   1.396  10.742 -1.6818 -1.4936  0.2996
 3135SOL     OW20866   0.312   2.194   0.815 -0.1425  0.2935 -0.3121
 3135SOL    HW120867   0.309   2.121   0.876  0.3919 -0.2623 -0.9563
 3135SOL    HW220868   0.392   2.237   0.846  0.0796 -0.4487  0.1513
 3136SOL     OW20869   3.140   2.066   5.549  0.1631 -0.9030  0.0239
 3136SOL    HW120870   3.112   2.011   5.623 -0.3390 -1.4913 -0.6009
 3136SOL    HW220871   3.207   2.014   5.506 -0.9519 -2.3134 -0.0139
 3137SOL     OW20872   2.623   1.403   4.648  0.5860  0.2970 -0.2661
 3137SOL    HW120873   2.533   1.412   4.616  0.8388  0.5513 -0.8864
 3137SOL    HW220874   2.678   1.440   4.580 -0.1618  1.5765 -0.1688
 3138SOL     OW20875   4.649   2.850  14.414 -0.2678  0.2316  0.1114
 3138SOL    HW120876   4.558   2.875  14.401 -0.1419  1.9904  2.5126
 3138SOL    HW220877   4.658   2.784  14.345  1.7262  0.8846 -0.2620
 3139SOL     OW20878   2.275   3.254   1.037  0.0297  0.0720  0.2925
 3139SOL    HW120879   2.206   3.219   0.981 -0.7749  0.6046  0.9638
 3139SOL    HW220880   2.353   3.200   1.021 -1.4318 -2.0128  0.2361
 3140SOL     OW20881   3.546   1.276   2.344  0.1952 -0.1102 -0.1518
 3140SOL    HW120882   3.488   1.227   2.403 -0.2374 -0.6825 -1.0600
 3140SOL    HW220883   3.599   1.210   2.300  1.7631 -0.8344  2.7977
 3141SOL     OW20884   0.532   4.586   8.277  0.1847  0.4680  0.1343
 3141SOL    HW120885   0.501   4.559   8.364 -1.1833 -0.5758 -0.6792
 3141SOL    HW220886   0.586   4.659   8.308  2.0170 -1.1749  0.8176
 3142SOL     OW20887   2.271   4.089   0.915 -0.1788 -0.4956 -0.0896
 3142SOL    HW120888   2.275   4.101   1.009 -0.6471 -1.2351  0.0257
 3142SOL    HW220889   2.228   4.164   0.875  0.9946 -0.5043 -1.4118
 3143SOL     OW20890   0.086   2.996   5.370 -0.3245 -0.1641  0.0357
 3143SOL    HW120891   0.164   2.964   5.415  0.6835 -1.6647 -2.7860
 3143SOL    HW220892   0.055   3.059   5.436 -0.0640 -0.5929  0.5591
 3144SOL     OW20893   3.432   4.345  12.629 -0.2788 -0.0635 -0.4511
 3144SOL    HW120894   3.511   4.326  12.578 -0.4160 -0.2740 -0.5897
 3144SOL    HW220895   3.379   4.390  12.563 -1.0558 -0.5403 -0.1522
 3145SOL     OW20896   4.673   0.039   6.155  0.6981  0.1383 -0.4409
 3145SOL    HW120897   0.044   0.005   6.168  1.6662  2.8085  0.0060
 3145SOL    HW220898   4.653   0.067   6.245  2.9906 -1.1338  0.4885
 3146SOL     OW20899   1.859   3.953   6.672 -0.3534  0.1572 -0.2744
 3146SOL    HW120900   1.812   4.036   6.671 -2.8214 -1.2079  3.0780
 3146SOL    HW220901   1.839   3.918   6.585  0.1168  0.0280 -0.3285
 3147SOL     OW20902   0.026   1.416  11.172  0.4116 -0.5041  0.3633
 3147SOL    HW120903   0.089   1.404  11.244  1.1336  2.1223  0.1769
 3147SOL    HW220904   4.657   1.413  11.210  0.2871 -0.1846  0.1004
 3148SOL     OW20905   1.498   0.826  17.327  0.0616 -0.3760 -0.6299
 3148SOL    HW120906   1.447   0.825  17.245 -1.2083  0.2797  0.1520
 3148SOL    HW220907   1.579   0.868  17.300  0.0035  1.1299  1.5665
 3149SOL     OW20908   0.662   0.037   9.338  0.2727  0.0814  0.0395
 3149SOL    HW120909   0.667   0.130   9.317 -2.5591 -0.3038 -2.3997
 3149SOL    HW220910   0.627   0.038   9.427 -1.0894  0.8059 -0.5181
 3150SOL     OW20911   0.279   1.897  12.461  0.0307 -0.3225 -0.9823
 3150SOL    HW120912   0.227   1.953  12.404 -2.0740 -0.2345  1.0032
 3150SOL    HW220913   0.209   1.862  12.517  0.1583 -2.8729 -2.4380
 3151SOL     OW20914   4.438   1.906   7.788  0.2839 -0.5229 -0.4777
 3151SOL    HW120915   4.489   1.987   7.800 -0.6145 -0.0346  0.0048
 3151SOL    HW220916   4.450   1.868   7.876 -2.5793  1.8559  0.9221
 3152SOL     OW20917   1.023   2.635   4.589  0.0268 -0.2343 -0.0426
 3152SOL    HW120918   1.105   2.677   4.615 -0.0195  0.5639 -1.1853
 3152SOL    HW220919   0.964   2.699   4.631  0.7509  1.0491 -0.9803
 3153SOL     OW20920   1.022   4.293   7.655  0.0011 -0.0972  0.3137
 3153SOL    HW120921   1.110   4.272   7.686 -0.7724  0.1157  2.6949
 3153SOL    HW220922   1.026   4.263   7.564  0.8406  0.1746  0.2650
 3154SOL     OW20923   4.509   1.988   2.557 -0.4711 -0.3831  0.2476
 3154SOL    HW120924   4.438   2.033   2.511  0.0636 -0.4314 -0.6311
 3154SOL    HW220925   4.588   2.007   2.507  0.5299 -1.4220  1.4509
 3155SOL     OW20926   3.125   0.158   8.344 -0.2421 -0.2207 -0.4596
 3155SOL    HW120927   3.042   0.125   8.379  0.1466  0.2859  0.9241
 3155SOL    HW220928   3.122   0.245   8.385  0.0363 -0.3146 -0.2412
 3156SOL     OW20929   2.176   3.978   3.361  0.2021  0.4892  0.0582
 3156SOL    HW120930   2.204   4.004   3.274  3.8364  1.3050  1.4471
 3156SOL    HW220931   2.082   3.994   3.352 -0.0962 -1.0219  0.4576
 3157SOL     OW20932   1.371   4.695   8.621  0.2022  0.2981  0.1172
 3157SOL    HW120933   1.382   0.032   8.698 -0.3652  1.5497 -0.7049
 3157SOL    HW220934   1.278   4.701   8.601  0.7955 -1.9794 -3.4135
 3158SOL     OW20935   3.242   3.678   6.587  0.0872 -0.5576  0.4041
 3158SOL    HW120936   3.218   3.593   6.549 -0.9445  0.1730 -0.5851
 3158SOL    HW220937   3.196   3.667   6.670 -0.6687 -3.1934 -0.3683
 3159SOL     OW20938   0.662   3.494   0.750  0.1803 -0.3739 -0.4239
 3159SOL    HW120939   0.655   3.585   0.780 -0.0676 -0.8621  1.0120
 3159SOL    HW220940   0.574   3.461   0.770 -0.8109  1.0857 -2.4171
 3160SOL     OW20941   0.380   0.463   3.392  0.3925  0.5924 -0.1726
 3160SOL    HW120942   0.424   0.396   3.340 -3.5466  0.9463 -3.9729
 3160SOL    HW220943   0.456   0.492   3.443 -0.0320  1.8004 -0.2316
 3161SOL     OW20944   3.676   4.220   4.755  0.5725  0.6717  0.0628
 3161SOL    HW120945   3.653   4.198   4.664  0.9922 -0.0101  0.1163
 3161SOL    HW220946   3.768   4.246   4.744  0.5996  0.8016  0.6170
 3162SOL     OW20947   3.189   1.549   5.976 -0.3578  0.4699 -0.0178
 3162SOL    HW120948   3.236   1.506   6.047  1.0934  2.5010  0.2214
 3162SOL    HW220949   3.124   1.602   6.023 -0.8729 -0.3873  0.2552
 3163SOL     OW20950   1.558   4.089   4.842 -0.3852 -0.2667  0.0011
 3163SOL    HW120951   1.468   4.065   4.863 -0.1672  1.6391  3.2097
 3163SOL    HW220952   1.584   4.118   4.930 -0.4660 -0.8744  0.2239
 3164SOL     OW20953   4.272   0.821  14.950 -0.5855  0.5323 -0.1337
 3164SOL    HW120954   4.317   0.854  14.872 -0.4287 -2.7309 -1.3961
 3164SOL    HW220955   4.279   0.894  15.012  2.2702  0.2770 -0.1818
 3165SOL     OW20956   4.460   4.251   7.488 -0.1507 -0.4695 -0.6676
 3165SOL    HW120957   4.401   4.307   7.539  0.7114  2.2055 -2.6208
 3165SOL    HW220958   4.411   4.170   7.500 -0.4857  0.4233  3.8161
 3166SOL     OW20959   4.238   3.641   0.193  0.7215 -0.1672  0.1715
 3166SOL    HW120960   4.226   3.595   0.275  0.7210  1.0894  0.8831
 3166SOL    HW220961   4.267   3.566   0.141 -0.5075 -1.0464  0.7822
 3167SOL     OW20962   2.322   0.491   8.613 -0.6259 -0.3781 -0.2291
 3167SOL    HW120963   2.384   0.420   8.595  0.9195  0.9328 -0.0337
 3167SOL    HW220964   2.283   0.456   8.693 -0.3260  0.4910  0.3013
 3168SOL     OW20965   1.514   2.228  11.711  0.3660  0.1305  0.0481
 3168SOL    HW120966   1.592   2.202  11.759  1.4102  1.0591 -1.1399
 3168SOL    HW220967   1.456   2.251  11.784  0.0023  1.8134 -0.7482
 3169SOL     OW20968   4.716   0.835  10.489  0.1533 -0.6660 -0.9937
 3169SOL    HW120969   4.666   0.867  10.564  1.1885  0.9682 -1.0112
 3169SOL    HW220970   0.018   0.922  10.455  3.5561 -1.3370 -0.7320
 3170SOL     OW20971   0.961   0.876   8.661 -0.1167 -0.0810 -0.1103
 3170SOL    HW120972   1.029   0.819   8.697 -0.8038 -1.2955 -0.7262
 3170SOL    HW220973   0.896   0.872   8.731  0.1860  0.2189  0.1881
 3171SOL     OW20974   0.530   2.358   5.303 -0.3186  0.2132 -0.6653
 3171SOL    HW120975   0.533   2.276   5.351 -0.0352 -0.2282 -1.4460
 3171SOL    HW220976   0.486   2.423   5.359 -1.5748  0.6025 -2.0923
 3172SOL     OW20977   2.534   1.955  11.536 -0.6831  0.2288 -0.0977
 3172SOL    HW120978   2.605   1.898  11.508 -1.1338 -1.1848  1.6803
 3172SOL    HW220979   2.506   1.927  11.623 -1.2065  0.5911 -0.1462
 3173SOL     OW20980   1.829   0.259  15.340 -0.8480  0.6629  0.2371
 3173SOL    HW120981   1.916   0.244  15.378  0.1876 -1.0105 -2.7588
 3173SOL    HW220982   1.771   0.219  15.405  1.1170  0.0896  1.6556
 3174SOL     OW20983   1.346   0.169   4.854  0.1883 -0.2801  0.0239
 3174SOL    HW120984   1.399   0.241   4.820 -0.7231 -0.0844 -0.9677
 3174SOL    HW220985   1.401   0.099   4.818  1.1010  0.6631 -0.4408
 3175SOL     OW20986   4.644   4.469   4.206 -0.1516 -0.1659  0.0167
 3175SOL    HW120987   4.658   4.379   4.177  1.6841  0.6672 -1.7044
 3175SOL    HW220988   4.585   4.496   4.135 -3.0155 -1.3002  1.9672
 3176SOL     OW20989   4.449   3.769   8.629  0.3674  0.3424 -0.0381
 3176SOL    HW120990   4.398   3.827   8.687  0.6961 -0.3004  0.8902
 3176SOL    HW220991   4.395   3.693   8.608  1.0921 -0.9504  2.8772
 3177SOL     OW20992   0.549   0.699   2.928  0.1683 -0.1622  0.0792
 3177SOL    HW120993   0.641   0.706   2.903 -0.5650  3.0240 -1.6323
 3177SOL    HW220994   0.544   0.753   3.006 -0.1797 -1.1338  0.7274
 3178SOL     OW20995   2.309   0.283   5.944  0.1437 -0.5182  0.4695
 3178SOL    HW120996   2.316   0.320   5.856  1.5601  0.1571  0.8669
 3178SOL    HW220997   2.265   0.352   5.994 -1.3243 -1.4971  0.5581
 3179SOL     OW20998   3.066   2.123   6.923  0.0676 -0.1395  0.1019
 3179SOL    HW120999   3.023   2.182   6.985  1.7220  0.1832  0.9304
 3179SOL    HW221000   3.122   2.080   6.987  0.9137 -0.2169 -0.6954
 3180SOL     OW21001   4.670   2.202   2.450  0.3683  0.2291 -0.3236
 3180SOL    HW121002   0.020   2.267   2.431 -1.6645  1.9281 -1.7623
 3180SOL    HW221003   4.645   2.216   2.542  3.4657  2.3297  0.2035
 3181SOL     OW21004   2.372   1.230  10.160 -0.0403  0.1613 -0.1829
 3181SOL    HW121005   2.361   1.262  10.071 -1.8073  1.6231  0.5552
 3181SOL    HW221006   2.463   1.256  10.175 -0.7048  1.1991  2.1061
 3182SOL     OW21007   4.314   1.189   9.195  0.2860 -0.2215 -0.1232
 3182SOL    HW121008   4.369   1.244   9.139  1.1393 -0.2243  0.7006
 3182SOL    HW221009   4.229   1.212   9.157  0.2257  0.8176  0.6105
 3183SOL     OW21010   1.291   3.317   4.355  0.0029 -0.1276 -0.6677
 3183SOL    HW121011   1.324   3.407   4.359 -0.8586  0.1590  0.0087
 3183SOL    HW221012   1.200   3.337   4.376 -0.3139 -2.9799  0.6512
 3184SOL     OW21013   3.662   0.256   8.339  0.3136  0.4075 -0.7764
 3184SOL    HW121014   3.756   0.264   8.323  0.6689 -0.7210  0.7098
 3184SOL    HW221015   3.651   0.176   8.289 -3.4007  1.1589 -1.1726
 3185SOL     OW21016   0.562   2.239   1.957  0.5080  0.3004  0.0961
 3185SOL    HW121017   0.635   2.215   2.014 -1.5961 -0.4091  2.4879
 3185SOL    HW221018   0.556   2.331   1.983 -1.0181 -0.2358  1.6902
 3186SOL     OW21019   0.603   4.366   4.870  0.2746  0.4377 -0.2281
 3186SOL    HW121020   0.649   4.385   4.788  2.0287 -0.4019  0.5408
 3186SOL    HW221021   0.589   4.455   4.902  0.8143 -0.1449  1.6878
 3187SOL     OW21022   2.538   0.107  14.071  0.4668  0.8190 -0.8685
 3187SOL    HW121023   2.444   0.128  14.073  0.4967  1.0987 -2.6176
 3187SOL    HW221024   2.551   0.089  14.164 -1.5806 -1.2550 -0.9815
 3188SOL     OW21025   3.745   4.618  12.751 -0.1773  0.5725  0.2460
 3188SOL    HW121026   3.776   4.534  12.784  0.1704  1.7003  2.7921
 3188SOL    HW221027   3.781   4.626  12.663  0.8080  0.7311  0.6603
 3189SOL     OW21028   0.053   4.233   7.458 -0.2960 -0.1155  0.2691
 3189SOL    HW121029   4.684   4.238   7.498 -0.2018 -0.2684  0.4912
 3189SOL    HW221030   0.037   4.199   7.370  0.3736  2.0128 -0.6775
 3190SOL     OW21031   3.584   3.173  17.440  0.3103 -0.1071 -0.4673
 3190SOL    HW121032   3.527   3.100  17.462 -1.0057  0.6322 -1.4106
 3190SOL    HW221033   3.603   3.206  17.528  1.0290  1.2640 -1.1244
 3191SOL     OW21034   2.328   3.128   8.822  0.2961 -0.1992  0.4011
 3191SOL    HW121035   2.322   3.081   8.739  2.7614  1.6862 -0.8808
 3191SOL    HW221036   2.261   3.092   8.880  0.6219  1.0861  1.6007
 3192SOL     OW21037   2.283   1.846   9.049 -0.1622 -0.0337 -0.0978
 3192SOL    HW121038   2.192   1.869   9.066  0.1144  2.6298 -2.2268
 3192SOL    HW221039   2.329   1.928   9.031  1.3117 -0.7858  0.2710
 3193SOL     OW21040   4.083   2.869   4.252  0.0980  0.5669  0.0123
 3193SOL    HW121041   4.007   2.837   4.301  1.4323  0.7839  2.2744
 3193SOL    HW221042   4.083   2.806   4.180 -2.1703  0.7658 -0.1367
 3194SOL     OW21043   2.165   1.289   4.842 -0.2927 -0.2920  0.9211
 3194SOL    HW121044   2.133   1.294   4.752  1.7987 -3.1655  0.0292
 3194SOL    HW221045   2.145   1.196   4.855  1.0969 -0.4596  1.9597
 3195SOL     OW21046   2.178   4.431   4.925  0.4445  0.9418 -0.3141
 3195SOL    HW121047   2.139   4.484   4.855 -0.0788  2.4590  1.1144
 3195SOL    HW221048   2.164   4.488   5.001  0.1868 -1.1600  1.2148
 3196SOL     OW21049   3.994   1.251   1.331 -0.5494 -0.2738  0.3958
 3196SOL    HW121050   3.987   1.160   1.361  0.2856 -0.3096  0.4635
 3196SOL    HW221051   3.951   1.235   1.246  0.7852  2.5038 -0.7831
 3197SOL     OW21052   0.336   0.138   7.029 -0.2660  0.0004 -0.0288
 3197SOL    HW121053   0.278   0.213   7.045 -1.3630 -0.7884 -0.3147
 3197SOL    HW221054   0.409   0.169   7.083 -1.5270 -0.4814  1.9445
 3198SOL     OW21055   4.017   3.974   7.471  0.3320  0.2683 -0.1186
 3198SOL    HW121056   4.023   3.926   7.389  2.3198  1.0833 -0.4602
 3198SOL    HW221057   3.971   3.905   7.519  0.3468  0.7200  0.5424
 3199SOL     OW21058   0.609   4.436   9.308  0.6562 -0.3075 -0.4227
 3199SOL    HW121059   0.582   4.407   9.221 -0.5254  0.3502 -0.2691
 3199SOL    HW221060   0.540   4.392   9.357  1.1410 -0.8408 -0.2218
 3200SOL     OW21061   2.701   1.071  10.044 -0.2233  0.0903  0.1712
 3200SOL    HW121062   2.661   1.144  10.092 -2.0415 -0.9095  0.1953
 3200SOL    HW221063   2.791   1.102  10.040 -0.2490  0.3263  1.4147
 3201SOL     OW21064   2.972   2.834  10.215  0.3500  0.3017 -0.2711
 3201SOL    HW121065   2.962   2.900  10.283 -0.2849  0.9096 -0.9456
 3201SOL    HW221066   2.906   2.769  10.238  0.8392  0.4110  1.4035
 3202SOL     OW21067   0.933   2.208  10.077 -0.0722  0.2198 -0.3132
 3202SOL    HW121068   0.952   2.237  10.166  0.1466 -0.4742 -0.1382
 3202SOL    HW221069   0.838   2.224  10.075 -0.0178  0.4990 -0.5955
 3203SOL     OW21070   0.112   4.549   1.040  0.2022 -0.6025 -0.4504
 3203SOL    HW121071   0.097   4.463   1.079  2.0429 -0.0431  1.5335
 3203SOL    HW221072   0.187   4.580   1.090  0.3961 -1.9667  0.1024
 3204SOL     OW21073   0.392   0.873   6.632 -0.1411 -0.1207  0.2557
 3204SOL    HW121074   0.308   0.895   6.673  0.0256 -2.8695  2.0620
 3204SOL    HW221075   0.453   0.916   6.691 -2.4970  0.9165  1.9368
 3205SOL     OW21076   0.461   2.920  15.587 -0.3543 -0.3685 -0.3761
 3205SOL    HW121077   0.538   2.867  15.605  1.2781  0.7664 -4.0814
 3205SOL    HW221078   0.400   2.891  15.655  1.4898  0.5299  1.6704
 3206SOL     OW21079   3.910   3.881   1.506 -0.1837  0.0785 -0.3544
 3206SOL    HW121080   3.893   3.827   1.583  1.9136 -1.0436 -0.6934
 3206SOL    HW221081   3.827   3.863   1.462 -0.3949 -2.8688  1.2642
 3207SOL     OW21082   0.139   1.151   4.068  0.1661 -0.5294 -0.2019
 3207SOL    HW121083   0.058   1.127   4.114 -0.0801  1.7126  0.5759
 3207SOL    HW221084   0.106   1.224   4.017  3.1843  1.0941  0.1565
 3208SOL     OW21085   0.814   3.523   7.464  0.1453  0.2667 -0.5698
 3208SOL    HW121086   0.757   3.470   7.520  2.6050  0.5518  2.1984
 3208SOL    HW221087   0.772   3.526   7.378 -0.9426  1.0219 -0.0280
 3209SOL     OW21088   2.109   0.866   5.101  0.2467 -0.0473 -0.2727
 3209SOL    HW121089   2.057   0.791   5.074  0.5568 -0.0772 -0.8017
 3209SOL    HW221090   2.127   0.843   5.192 -0.2771 -0.3227 -0.2432
 3210SOL     OW21091   1.847   3.105   3.325 -0.5500 -0.0132  0.0775
 3210SOL    HW121092   1.837   3.019   3.286 -3.2302 -0.4703  1.8040
 3210SOL    HW221093   1.828   3.089   3.418 -0.2915  1.4841  0.3989
 3211SOL     OW21094   1.965   1.284   6.108  0.4318 -0.3891  0.1232
 3211SOL    HW121095   1.997   1.333   6.033 -1.1528 -0.2658 -0.4500
 3211SOL    HW221096   1.896   1.337   6.148  0.6620  1.4764 -1.9886
 3212SOL     OW21097   1.077   4.512  12.369  0.0887  0.4007 -0.4960
 3212SOL    HW121098   1.015   4.554  12.309 -3.3053 -0.0680  2.6759
 3212SOL    HW221099   1.028   4.534  12.449 -0.1288  1.5196 -0.9290
 3213SOL     OW21100   4.002   1.501  13.573  0.0926  0.0854 -0.4786
 3213SOL    HW121101   4.012   1.422  13.520 -1.5016 -0.5451  0.1562
 3213SOL    HW221102   4.091   1.534  13.588  0.0018  0.2442 -0.2798
 3214SOL     OW21103   0.489   4.659  11.834 -0.1996  0.2489 -0.2292
 3214SOL    HW121104   0.525   4.676  11.747  1.8462  1.6178  0.8583
 3214SOL    HW221105   0.564   4.626  11.884  0.8413  1.8648 -0.7315
 3215SOL     OW21106   4.476   2.922   7.804 -0.1679  0.5519 -0.2303
 3215SOL    HW121107   4.436   2.965   7.728 -0.8238 -0.7166 -0.6021
 3215SOL    HW221108   4.561   2.901   7.767  0.5520  0.9770  1.1705
 3216SOL     OW21109   2.585   1.034   7.001 -0.0132  0.0241 -0.2469
 3216SOL    HW121110   2.516   1.034   6.935  1.3320  0.9356 -1.6553
 3216SOL    HW221111   2.532   1.040   7.080 -1.3269 -2.1211 -0.9489
 3217SOL     OW21112   4.122   3.011  10.890 -0.2281 -0.5353 -0.3816
 3217SOL    HW121113   4.125   2.973  10.802 -1.6413  3.0331 -1.9829
 3217SOL    HW221114   4.027   3.018  10.893 -0.0063  2.1128  0.9178
 3218SOL     OW21115   2.270   0.370   4.224  0.4269  0.5708 -0.2516
 3218SOL    HW121116   2.271   0.425   4.302  1.2798 -1.4034  1.1088
 3218SOL    HW221117   2.178   0.342   4.228  1.0156 -1.3798 -0.3121
 3219SOL     OW21118   0.094   1.546   4.863 -0.2344 -0.0435 -0.5487
 3219SOL    HW121119   0.124   1.618   4.808  1.1686 -0.9367 -0.9553
 3219SOL    HW221120   0.144   1.557   4.943  0.8436 -1.0969 -1.0821
 3220SOL     OW21121   0.536   4.163   3.883  0.8887  0.0134 -0.4459
 3220SOL    HW121122   0.474   4.170   3.810  0.5504 -1.1145 -0.2630
 3220SOL    HW221123   0.510   4.245   3.926  0.5483 -2.0077  3.1450
 3221SOL     OW21124   2.042   2.815   0.863  0.9102  0.2279  0.1868
 3221SOL    HW121125   2.100   2.783   0.931  0.7445 -2.7970 -1.1146
 3221SOL    HW221126   1.957   2.830   0.904 -0.4996 -0.8229 -2.2913
 3222SOL     OW21127   2.697   2.774   2.344  0.2376  0.4699  0.9176
 3222SOL    HW121128   2.688   2.868   2.351  0.4575  0.6328 -0.9897
 3222SOL    HW221129   2.708   2.742   2.434  2.7651 -0.3513  0.3271
 3223SOL     OW21130   1.742   3.340   1.597 -0.1774  0.1245 -0.1107
 3223SOL    HW121131   1.816   3.337   1.657 -1.3465  0.5067  1.3640
 3223SOL    HW221132   1.780   3.382   1.520  0.2127  1.4355  0.7948
 3224SOL     OW21133   4.509   1.972  14.110  0.3055 -0.2839  0.2240
 3224SOL    HW121134   4.480   1.995  14.198  1.1351 -0.8688  0.6514
 3224SOL    HW221135   4.422   1.960  14.071  0.5305 -0.4880 -0.2249
 3225SOL     OW21136   1.666   2.965   3.545  0.5986  0.2505 -0.2898
 3225SOL    HW121137   1.695   2.914   3.469  1.1594  0.6952 -0.3664
 3225SOL    HW221138   1.608   3.018   3.490  0.9290  1.6928  0.7702
 3226SOL     OW21139   0.016   1.401   7.524 -0.0215  0.1595 -0.3074
 3226SOL    HW121140   0.060   1.482   7.500 -0.9375 -0.1700 -3.1194
 3226SOL    HW221141   0.082   1.340   7.493  0.6464  1.5619 -1.6533
 3227SOL     OW21142   0.359   2.683   4.336 -0.4236  0.4660 -0.3852
 3227SOL    HW121143   0.288   2.640   4.289 -0.3553  0.7455 -0.7459
 3227SOL    HW221144   0.312   2.764   4.355  2.1105  2.1686 -1.3917
 3228SOL     OW21145   2.708   1.052   9.054 -0.3288  0.0501  0.0200
 3228SOL    HW121146   2.767   1.045   9.129  0.3587 -2.7591 -0.7761
 3228SOL    HW221147   2.663   1.132   9.081 -1.6717  0.3577 -3.1257
 3229SOL     OW21148   0.513   3.419   3.661 -0.5940 -0.6279 -1.0344
 3229SOL    HW121149   0.588   3.466   3.623 -1.1759 -0.2610 -1.7212
 3229SOL    HW221150   0.443   3.482   3.646 -0.2033 -0.4350 -2.0520
 3230SOL     OW21151   2.483   1.790   2.662 -0.5716  0.0275 -0.6127
 3230SOL    HW121152   2.571   1.826   2.674 -1.7023  2.4070  0.6130
 3230SOL    HW221153   2.471   1.763   2.753  0.5738  1.7307  0.0502
 3231SOL     OW21154   2.296   0.695   3.697 -0.7362  0.0185 -0.1279
 3231SOL    HW121155   2.219   0.735   3.657 -0.6259  2.7294  2.3696
 3231SOL    HW221156   2.258   0.667   3.780 -0.8523  0.5836  0.0130
 3232SOL     OW21157   4.253   1.158   3.897 -0.4136  0.1891 -0.3760
 3232SOL    HW121158   4.292   1.225   3.953  0.2325  0.7510 -1.5034
 3232SOL    HW221159   4.182   1.125   3.951 -1.4351 -0.7138 -2.2766
 3233SOL     OW21160   2.603   1.346   3.030  0.4447  0.4003 -0.0562
 3233SOL    HW121161   2.672   1.322   2.967  0.3888 -2.3685  0.9822
 3233SOL    HW221162   2.659   1.402   3.084  1.3016 -0.9295  0.4157
 3234SOL     OW21163   0.032   0.837   3.422  0.2707 -0.1124 -0.0796
 3234SOL    HW121164   4.677   0.780   3.397  0.4850  0.8357 -2.8568
 3234SOL    HW221165   0.097   0.776   3.388 -0.4495 -0.8534 -0.1148
 3235SOL     OW21166   1.149   2.001   7.808  0.6381 -0.1988  0.3915
 3235SOL    HW121167   1.118   2.030   7.722  1.7873  1.5140  0.5554
 3235SOL    HW221168   1.124   2.076   7.863  1.7260 -0.5022  1.2888
 3236SOL     OW21169   4.694   1.698   9.326 -0.2897  0.3559  0.1266
 3236SOL    HW121170   0.009   1.771   9.274 -2.2478  1.7403  0.8196
 3236SOL    HW221171   0.024   1.710   9.408 -0.1869  0.8045  0.0038
 3237SOL     OW21172   4.237   0.313   8.552 -0.3317  0.0438  0.1257
 3237SOL    HW121173   4.149   0.277   8.561  1.2147 -3.8470 -0.2775
 3237SOL    HW221174   4.275   0.278   8.633 -1.0326 -0.9589  0.0244
 3238SOL     OW21175   0.968   0.823   4.401 -0.3101 -0.1720  0.5723
 3238SOL    HW121176   1.005   0.818   4.313 -2.2018  0.8083 -0.2840
 3238SOL    HW221177   1.051   0.813   4.447  0.4206 -1.4117 -1.0526
 3239SOL     OW21178   2.427   2.772   6.430 -0.3325  0.0495  0.2317
 3239SOL    HW121179   2.344   2.812   6.404  1.4151  1.3778 -3.4311
 3239SOL    HW221180   2.405   2.714   6.503 -1.1818  1.6177  1.2148
 3240SOL     OW21181   0.928   0.967   0.449 -0.1193 -0.0903 -0.0505
 3240SOL    HW121182   0.979   0.999   0.375  1.2127 -0.4242  0.7359
 3240SOL    HW221183   0.886   1.048   0.477  0.3039 -0.0201  0.3899
 3241SOL     OW21184   1.370   1.301  13.627  0.2397 -0.3085  0.2501
 3241SOL    HW121185   1.334   1.332  13.711 -0.1271 -1.2124  0.4217
 3241SOL    HW221186   1.411   1.384  13.602  2.2356 -1.1211  0.8033
 3242SOL     OW21187   2.034   3.654   5.133 -0.6239  0.4763  0.6213
 3242SOL    HW121188   2.010   3.562   5.121  1.2590  0.1043 -0.1461
 3242SOL    HW221189   2.092   3.676   5.061 -0.1208 -1.3826  0.4556
 3243SOL     OW21190   0.950   1.632   5.037 -0.4085  0.5446  0.2578
 3243SOL    HW121191   0.877   1.611   5.096  0.8468 -1.1386  1.2168
 3243SOL    HW221192   0.985   1.543   5.028 -0.3251  0.5936  0.0842
 3244SOL     OW21193   1.346   4.690  11.698  0.0673  0.0966  0.5728
 3244SOL    HW121194   1.414   0.017  11.647  0.6217 -0.5161  0.7700
 3244SOL    HW221195   1.372   0.011  11.781  0.7840  0.3149  0.2560
 3245SOL     OW21196   0.852   3.624  11.203 -0.0463  0.1861  0.2167
 3245SOL    HW121197   0.802   3.566  11.260 -2.3520  1.0686 -0.8954
 3245SOL    HW221198   0.932   3.573  11.193 -0.0711 -0.0539  1.2777
 3246SOL     OW21199   3.505   4.277  16.508  0.1699  0.4560 -0.1106
 3246SOL    HW121200   3.477   4.368  16.497 -2.2756 -0.1451  1.0667
 3246SOL    HW221201   3.517   4.273  16.603  1.3038  1.6203 -0.2021
 3247SOL     OW21202   4.362   1.694   3.952  0.3352  0.2868 -0.3065
 3247SOL    HW121203   4.362   1.781   3.911 -0.6351  0.7555  0.6923
 3247SOL    HW221204   4.272   1.666   3.939  0.1931  0.1290  1.0131
 3248SOL     OW21205   3.150   1.917  12.680 -0.2513 -0.3444 -0.2290
 3248SOL    HW121206   3.160   1.981  12.750  0.3964  1.6273 -2.1440
 3248SOL    HW221207   3.127   1.971  12.604  0.1629 -0.6144 -0.5460
 3249SOL     OW21208   3.883   1.431  16.115 -0.0235 -0.3309  0.2427
 3249SOL    HW121209   3.820   1.435  16.187 -0.1638  2.0683 -0.0171
 3249SOL    HW221210   3.842   1.372  16.052 -2.3671  0.0693  1.3903
 3250SOL     OW21211   3.811   3.224   1.410  0.2819 -0.2686 -0.4084
 3250SOL    HW121212   3.781   3.250   1.498 -1.2906  0.7617 -1.2482
 3250SOL    HW221213   3.837   3.309   1.375  2.8332 -1.0045 -0.2789
 3251SOL     OW21214   3.882   2.241   6.659  0.0433 -0.3121 -0.1901
 3251SOL    HW121215   3.884   2.213   6.750 -0.0587  1.3393  0.3136
 3251SOL    HW221216   3.899   2.153   6.625  1.4683  0.6063 -1.8911
 3252SOL     OW21217   3.109   4.057  12.106 -0.0446  0.5641  0.5411
 3252SOL    HW121218   3.062   3.980  12.073 -0.4317  1.4376 -0.9509
 3252SOL    HW221219   3.197   4.030  12.078 -1.2463 -0.1911 -2.5460
 3253SOL     OW21220   0.055   1.959  15.847  0.3922  0.3414 -0.0944
 3253SOL    HW121221   0.080   1.917  15.765 -0.7861  1.8339 -1.2099
 3253SOL    HW221222   0.109   2.037  15.839  0.3174  0.3146 -0.8836
 3254SOL     OW21223   4.628   3.431   5.946  0.3709 -0.0441  0.5365
 3254SOL    HW121224   4.541   3.457   5.975 -0.2726  1.2940 -2.5220
 3254SOL    HW221225   4.608   3.347   5.905  2.2141  0.1794 -0.8442
 3255SOL     OW21226   3.818   4.539   3.460 -0.0318  0.3424 -0.0565
 3255SOL    HW121227   3.830   4.458   3.511  1.7927  1.1503  0.7957
 3255SOL    HW221228   3.835   4.511   3.370 -0.4837 -4.6500  1.3827
 3256SOL     OW21229   1.058   2.143   6.033  0.4741  0.1137  0.2265
 3256SOL    HW121230   1.034   2.207   5.967  1.7818  2.0520  1.6389
 3256SOL    HW221231   1.065   2.193   6.114 -2.2568  0.7984  0.0300
 3257SOL     OW21232   3.417   3.279   5.807  0.5585 -0.0751 -0.5653
 3257SOL    HW121233   3.433   3.213   5.875 -1.5501  1.2604  1.2067
 3257SOL    HW221234   3.507   3.307   5.796 -0.0678  1.0383 -2.8644
 3258SOL     OW21235   0.807   2.325   5.590 -0.5121 -0.1077  0.1390
 3258SOL    HW121236   0.823   2.231   5.588  0.6227  0.0566  0.9632
 3258SOL    HW221237   0.750   2.345   5.664 -0.1822  2.1217 -0.1932
 3259SOL     OW21238   1.601   0.946   4.746 -0.7083  0.5102 -0.7376
 3259SOL    HW121239   1.581   1.027   4.794  1.3424  0.6795 -0.1435
 3259SOL    HW221240   1.548   0.959   4.667 -0.3033  1.7025 -0.8232
 3260SOL     OW21241   3.275   4.196   8.363  0.4189  0.0728  0.0147
 3260SOL    HW121242   3.278   4.118   8.308  3.4354  0.3789 -0.2836
 3260SOL    HW221243   3.214   4.175   8.433  0.4754 -1.2150 -0.3338
 3261SOL     OW21244   3.520   2.940   6.430  0.2181  0.0382 -0.4261
 3261SOL    HW121245   3.551   2.876   6.367  1.4077 -0.1332  0.3362
 3261SOL    HW221246   3.516   2.892   6.513  0.1987 -1.8500 -1.5177
 3262SOL     OW21247   2.896   2.813   7.208 -0.5041  0.1938  0.0301
 3262SOL    HW121248   2.920   2.791   7.118 -1.0696  0.8006 -0.2695
 3262SOL    HW221249   2.826   2.749   7.221  0.1651 -0.8274 -1.3531
 3263SOL     OW21250   3.749   4.488   1.489  0.3542 -0.4771 -0.1598
 3263SOL    HW121251   3.751   4.477   1.394  0.5229 -0.7942 -0.1202
 3263SOL    HW221252   3.707   4.574   1.493 -0.0468 -0.6294 -0.9949
 3264SOL     OW21253   1.474   2.773  12.433 -0.0580  0.1859  0.0350
 3264SOL    HW121254   1.386   2.787  12.468 -0.6107 -2.5304 -0.3034
 3264SOL    HW221255   1.515   2.706  12.488  0.3267 -0.1631 -0.6768
 3265SOL     OW21256   1.171   1.849  17.277  0.5177  0.4029 -0.0826
 3265SOL    HW121257   1.204   1.889  17.197  1.8428 -1.0225 -0.2582
 3265SOL    HW221258   1.084   1.889  17.286  0.4863  0.6694 -1.5787
 3266SOL     OW21259   4.498   2.276   6.913  0.5795 -0.6953 -0.3095
 3266SOL    HW121260   4.467   2.363   6.891  0.4348 -0.3493  1.2292
 3266SOL    HW221261   4.434   2.221   6.869  0.0312 -1.6078  1.6080
 3267SOL     OW21262   4.324   0.320  14.262 -0.1591  0.1078 -0.4078
 3267SOL    HW121263   4.315   0.273  14.345  2.0518 -1.2158 -0.9215
 3267SOL    HW221264   4.417   0.339  14.254  0.2631 -0.8805  2.0821
 3268SOL     OW21265   3.413   1.132  11.305 -0.1539 -0.7116 -0.4234
 3268SOL    HW121266   3.412   1.137  11.401  0.5438 -0.5807 -0.4228
 3268SOL    HW221267   3.451   1.047  11.284 -2.0141 -1.3793 -1.0712
 3269SOL     OW21268   4.503   1.147  11.210  0.4143  0.1736  0.1963
 3269SOL    HW121269   4.498   1.117  11.300 -1.5213  0.3757  0.1601
 3269SOL    HW221270   4.422   1.198  11.212  1.3844  1.6411  1.1923
 3270SOL     OW21271   0.165   4.020   3.386 -0.1532 -0.2653 -0.6419
 3270SOL    HW121272   0.222   3.959   3.339  0.1339 -1.3590  1.1052
 3270SOL    HW221273   0.210   4.098   3.356  1.5210 -0.3823  1.5552
 3271SOL     OW21274   3.152   3.107   6.373  0.4226 -0.0803  0.0429
 3271SOL    HW121275   3.108   3.023   6.386  0.2313 -0.0743 -0.5252
 3271SOL    HW221276   3.161   3.132   6.464 -1.1310 -1.3678  0.5481
 3272SOL     OW21277   4.547   1.466  11.359 -0.4151 -0.4564 -0.0500
 3272SOL    HW121278   4.537   1.456  11.453 -1.8194  2.4894  0.0979
 3272SOL    HW221279   4.458   1.489  11.332 -0.3070  2.1731  1.8955
 3273SOL     OW21280   4.436   0.223  12.722  0.0264  0.4997 -0.9005
 3273SOL    HW121281   4.519   0.185  12.695 -1.3672 -1.7339 -2.0784
 3273SOL    HW221282   4.457   0.283  12.794 -1.5887 -0.8587  0.6926
 3274SOL     OW21283   1.669   4.609   5.702  0.4802 -0.1132  0.2162
 3274SOL    HW121284   1.752   4.563   5.688  0.7036 -0.1017  1.4526
 3274SOL    HW221285   1.658   4.645   5.614 -3.1319 -0.4444  0.5271
 3275SOL     OW21286   3.347   2.030   5.830  0.2112 -0.1455 -0.1589
 3275SOL    HW121287   3.332   2.075   5.913  1.3924  0.2475 -0.1531
 3275SOL    HW221288   3.329   2.098   5.765  2.6945 -1.4904 -2.2591
 3276SOL     OW21289   0.862   2.482   4.169 -0.6931  0.3736 -0.2993
 3276SOL    HW121290   0.924   2.498   4.098  1.2581  0.6911  1.4672
 3276SOL    HW221291   0.870   2.565   4.216  1.1216  0.5355 -0.8651
 3277SOL     OW21292   3.202   1.498   8.955 -0.2956  0.0392 -0.1433
 3277SOL    HW121293   3.115   1.467   8.933 -1.4298  2.8420  0.3421
 3277SOL    HW221294   3.206   1.448   9.036  1.1367  1.1288  0.4780
 3278SOL     OW21295   0.722   3.840   3.115 -0.6380 -0.2662  0.0002
 3278SOL    HW121296   0.748   3.855   3.024  1.1062 -0.9711  0.3890
 3278SOL    HW221297   0.651   3.904   3.119 -1.3702 -1.1316  0.6812
 3279SOL     OW21298   4.240   2.908  11.715  0.1938  0.1422 -0.1097
 3279SOL    HW121299   4.319   2.933  11.667  1.0988  5.4499  4.1778
 3279SOL    HW221300   4.221   2.828  11.665  0.7983 -1.8956  2.9257
 3280SOL     OW21301   2.923   0.568   6.142 -0.6682  0.2064  0.5136
 3280SOL    HW121302   2.971   0.528   6.215  2.0225  2.5804  0.0832
 3280SOL    HW221303   2.985   0.618   6.088  0.7041 -0.8004  1.1448
 3281SOL     OW21304   2.944   2.696   3.499 -0.1577 -0.5097 -0.0451
 3281SOL    HW121305   2.923   2.686   3.591 -4.1837  0.3154 -0.8668
 3281SOL    HW221306   2.981   2.784   3.498  1.7969 -1.3257 -0.8622
 3282SOL     OW21307   0.974   1.908   7.288 -0.4736  0.2932 -0.6591
 3282SOL    HW121308   0.966   1.987   7.236  0.5190 -0.1046 -1.4314
 3282SOL    HW221309   0.883   1.879   7.282 -0.2178 -0.6400 -0.1504
 3283SOL     OW21310   3.211   3.598   3.000 -0.6961 -0.3255 -0.1192
 3283SOL    HW121311   3.196   3.604   3.094  0.5420 -3.4280  0.3019
 3283SOL    HW221312   3.286   3.657   3.002 -3.6113  3.2724  1.9170
 3284SOL     OW21313   3.483   1.393   3.580  1.2707  0.6545 -0.6287
 3284SOL    HW121314   3.437   1.324   3.629  0.0991  2.2268  0.5018
 3284SOL    HW221315   3.543   1.429   3.645  2.5850  1.3891 -2.2530
 3285SOL     OW21316   2.372   3.627   1.308 -0.2188 -0.8049 -0.2406
 3285SOL    HW121317   2.370   3.693   1.239  0.1025 -1.1476 -0.5757
 3285SOL    HW221318   2.412   3.550   1.267  0.0230 -0.8787  0.1327
 3286SOL     OW21319   3.643   3.625   1.172 -0.1000  0.1818  0.3023
 3286SOL    HW121320   3.552   3.621   1.142 -0.4127  0.8907  1.1650
 3286SOL    HW221321   3.637   3.639   1.267  1.6648  1.8731  0.1642
 3287SOL     OW21322   1.455   3.254   2.583 -0.3728  0.3100 -0.4013
 3287SOL    HW121323   1.425   3.242   2.493 -0.8584  0.3351 -0.2436
 3287SOL    HW221324   1.482   3.346   2.580 -0.5311  0.3653 -0.1633
 3288SOL     OW21325   1.465   3.732   3.009  0.1146 -0.7118  0.2391
 3288SOL    HW121326   1.492   3.823   3.000  0.8197 -0.9304  0.1070
 3288SOL    HW221327   1.470   3.717   3.104 -1.0439 -0.1494  0.3814
 3289SOL     OW21328   0.919   0.707  13.214 -0.1825 -0.0883 -0.2619
 3289SOL    HW121329   1.002   0.716  13.167 -0.3673  0.8095 -0.4031
 3289SOL    HW221330   0.944   0.674  13.300  0.4441 -0.6083 -0.6356
 3290SOL     OW21331   0.479   0.503  14.751  0.1743 -0.2496  0.2804
 3290SOL    HW121332   0.538   0.538  14.685  0.8184 -1.4174  0.2344
 3290SOL    HW221333   0.463   0.415  14.716 -1.6422  0.3001 -0.2989
 3291SOL     OW21334   3.168   4.286  13.659  0.0307  0.4086  0.2562
 3291SOL    HW121335   3.189   4.280  13.752 -0.9013  1.2717  0.5204
 3291SOL    HW221336   3.079   4.321  13.662  0.3924  1.6032 -2.5602
 3292SOL     OW21337   4.608   2.319   2.691 -0.5394 -0.2487  0.6447
 3292SOL    HW121338   4.543   2.277   2.746 -3.5589 -0.7955 -3.2965
 3292SOL    HW221339   4.687   2.315   2.745 -1.5131  2.6536  2.2737
 3293SOL     OW21340   2.694   2.368  15.036 -0.2507 -0.3452  0.2368
 3293SOL    HW121341   2.785   2.387  15.060 -0.7238  1.1462  0.8879
 3293SOL    HW221342   2.703   2.276  15.014  1.0127 -0.1216 -0.1617
 3294SOL     OW21343   2.932   2.343   6.232 -0.0924  0.7548  0.0706
 3294SOL    HW121344   2.845   2.374   6.206 -0.8113  0.6035  2.2271
 3294SOL    HW221345   2.942   2.403   6.307 -1.4328  2.6172 -1.2373
 3295SOL     OW21346   3.723   3.097   6.707 -0.7546 -0.4894 -0.1685
 3295SOL    HW121347   3.754   3.018   6.664  1.6992  1.5141 -2.1199
 3295SOL    HW221348   3.640   3.116   6.664 -0.6148  0.0444 -0.2083
 3296SOL     OW21349   4.140   2.924   2.708  0.4002 -0.3072  0.4414
 3296SOL    HW121350   4.055   2.881   2.693  0.3572 -0.2135  0.4169
 3296SOL    HW221351   4.180   2.855   2.760 -1.5405 -0.6053  1.5429
 3297SOL     OW21352   2.742   4.152  10.813 -0.4936 -0.4759  0.0635
 3297SOL    HW121353   2.790   4.092  10.870  1.1859  1.2469  0.4878
 3297SOL    HW221354   2.666   4.101  10.786  0.6502 -1.9744 -0.3628
 3298SOL     OW21355   2.419   0.078   0.885  0.3197  0.0432  0.7083
 3298SOL    HW121356   2.393   0.008   0.944  2.2042 -0.8927  0.4293
 3298SOL    HW221357   2.491   0.119   0.932  0.0829  0.4757  0.6966
 3299SOL     OW21358   1.126   0.428   7.892 -0.2872  0.3935 -0.0271
 3299SOL    HW121359   1.140   0.482   7.969  1.8777  1.2410 -1.0124
 3299SOL    HW221360   1.077   0.351   7.920 -0.9968  0.1640 -1.8682
 3300SOL     OW21361   1.877   2.844  17.091 -0.1215 -0.1579  0.1426
 3300SOL    HW121362   1.936   2.815  17.160 -0.5732 -1.5501 -0.0608
 3300SOL    HW221363   1.937   2.879  17.026  0.3976 -0.3543  0.5174
 3301SOL     OW21364   0.270   0.015   0.830 -0.5798 -0.7908  0.0877
 3301SOL    HW121365   0.246   0.047   0.917  2.3972 -1.7661  1.2627
 3301SOL    HW221366   0.361   4.703   0.839 -0.7035 -1.1332  0.1905
 3302SOL     OW21367   0.834   0.720   2.818 -0.1225  0.2416  0.0788
 3302SOL    HW121368   0.845   0.808   2.853 -3.2668  0.7828 -0.2609
 3302SOL    HW221369   0.819   0.736   2.725  0.7725  1.7754  0.2039
 3303SOL     OW21370   1.265   0.444  15.843 -0.4565  0.1474  0.0104
 3303SOL    HW121371   1.358   0.455  15.864 -0.8073 -0.3022  1.7884
 3303SOL    HW221372   1.260   0.350  15.862 -0.3241  0.6344  2.4409
 3304SOL     OW21373   1.380   4.075  13.339 -0.1599 -0.1881 -0.3808
 3304SOL    HW121374   1.294   4.103  13.371 -0.1741  0.4195 -0.9587
 3304SOL    HW221375   1.358   3.982  13.330  0.6310 -0.2529 -1.5661
 3305SOL     OW21376   1.012   2.950   3.613  0.2575  1.1320  0.1398
 3305SOL    HW121377   0.934   2.921   3.662  1.4723 -0.3912  1.1820
 3305SOL    HW221378   1.067   2.874   3.632 -0.2532  0.2875 -1.7594
 3306SOL     OW21379   1.031   1.824  10.492  0.3750  0.4764  0.4011
 3306SOL    HW121380   0.955   1.766  10.498  0.7253  0.1530  1.7540
 3306SOL    HW221381   1.100   1.757  10.495 -0.4543 -0.4864 -1.9804
 3307SOL     OW21382   3.685   3.928   9.959  0.1879 -0.1367 -0.3593
 3307SOL    HW121383   3.705   4.014   9.922 -1.3838  0.8821  1.1500
 3307SOL    HW221384   3.667   3.940  10.052  0.7819 -2.5534  0.0716
 3308SOL     OW21385   0.115   4.037   7.693 -0.0917  0.1599  0.3462
 3308SOL    HW121386   0.155   3.966   7.643 -1.3282 -0.7014  0.5772
 3308SOL    HW221387   0.067   4.083   7.625  0.0232 -0.9646 -0.4930
 3309SOL     OW21388   4.487   0.957   5.367 -0.2356 -0.0169 -0.0001
 3309SOL    HW121389   4.504   0.944   5.274  0.4136 -0.8967  0.2349
 3309SOL    HW221390   4.549   0.889   5.396  0.4236 -0.6947 -3.0733
 3310SOL     OW21391   4.513   2.545  14.048 -0.0676 -0.4138 -0.0336
 3310SOL    HW121392   4.421   2.522  14.038 -0.3758  1.2489 -1.0824
 3310SOL    HW221393   4.553   2.463  14.018 -0.3514 -1.3267  2.1511
 3311SOL     OW21394   3.565   2.565   7.363 -0.1095  0.3096  0.5165
 3311SOL    HW121395   3.515   2.485   7.380 -0.3297  0.1040 -1.0988
 3311SOL    HW221396   3.655   2.535   7.371 -0.1782 -0.4783 -1.5814
 3312SOL     OW21397   2.809   1.081   5.174 -0.5470  0.2530  0.0437
 3312SOL    HW121398   2.753   1.062   5.250 -0.5725  0.5284  0.0937
 3312SOL    HW221399   2.815   0.992   5.138 -1.2335 -0.2564  1.1368
 3313SOL     OW21400   1.909   1.461   6.294 -0.1220 -0.0356  0.2578
 3313SOL    HW121401   1.868   1.538   6.333  1.4149  1.8207 -1.7155
 3313SOL    HW221402   1.994   1.494   6.265 -0.8190  1.3607 -0.2093
 3314SOL     OW21403   2.212   1.063   8.284  0.2735  0.0950  0.4549
 3314SOL    HW121404   2.142   1.037   8.224  1.6146 -2.2574 -0.0772
 3314SOL    HW221405   2.278   0.998   8.261  0.5531  1.3386 -2.2848
 3315SOL     OW21406   4.528   1.024   8.345 -0.1387  0.0276 -0.1176
 3315SOL    HW121407   4.490   0.970   8.415 -0.4851  0.1522 -0.2092
 3315SOL    HW221408   4.612   0.979   8.334 -0.3497 -0.6071  0.8794
 3316SOL     OW21409   3.007   2.538   2.299  0.2444 -0.2728 -0.8950
 3316SOL    HW121410   3.053   2.529   2.383 -0.8025 -0.1749 -0.3058
 3316SOL    HW221411   2.934   2.480   2.323  0.3845 -0.8380 -1.8636
 3317SOL     OW21412   2.969   4.126   3.052 -0.2064 -0.3161  0.3157
 3317SOL    HW121413   2.911   4.104   2.980  1.3005  0.7342 -1.2095
 3317SOL    HW221414   2.910   4.121   3.128 -0.7997  1.6162 -0.0340
 3318SOL     OW21415   2.815   0.311   5.963 -0.2518 -0.1310 -0.2158
 3318SOL    HW121416   2.842   0.290   6.052 -2.9606 -0.3411  0.5574
 3318SOL    HW221417   2.817   0.407   5.968  0.8642 -0.1829  0.3933
 3319SOL     OW21418   0.529   2.125   7.602 -0.0236  0.5430  0.1150
 3319SOL    HW121419   0.465   2.193   7.581 -0.7500 -0.2971 -0.3881
 3319SOL    HW221420   0.491   2.111   7.689  1.3223 -0.1377  0.5829
 3320SOL     OW21421   4.556   0.912  12.407  0.4936  0.2087  0.0332
 3320SOL    HW121422   4.478   0.963  12.385 -0.2031 -0.9283 -0.1399
 3320SOL    HW221423   4.581   0.931  12.498 -0.9465 -0.3882  0.5617
 3321SOL     OW21424   3.804   2.182   6.905  0.9934  0.0997 -0.2773
 3321SOL    HW121425   3.842   2.106   6.950 -0.3259  1.2593  2.8030
 3321SOL    HW221426   3.824   2.251   6.969 -0.2194 -0.4591  0.7184
 3322SOL     OW21427   1.897   1.843   7.510 -0.2609  0.2325  0.5355
 3322SOL    HW121428   1.836   1.895   7.562  1.6754  0.9161  2.1144
 3322SOL    HW221429   1.903   1.767   7.568  0.0311 -0.3282 -0.2232
 3323SOL     OW21430   1.739   3.154  10.881 -0.6326  0.2902  0.6661
 3323SOL    HW121431   1.835   3.155  10.880 -0.6478  0.7177 -0.8718
 3323SOL    HW221432   1.723   3.206  10.960  0.5448  0.4700  0.7857
 3324SOL     OW21433   0.180   0.632  15.248  0.7823  0.4186  0.1479
 3324SOL    HW121434   0.159   0.725  15.254 -2.5143 -0.3122 -0.1290
 3324SOL    HW221435   0.204   0.616  15.156  1.9421 -1.9960  0.8691
 3325SOL     OW21436   3.144   3.565   5.728 -0.3777  0.0515 -0.0821
 3325SOL    HW121437   3.173   3.474   5.736 -0.1108  0.3020  1.8292
 3325SOL    HW221438   3.222   3.618   5.712  0.3879 -0.8129  0.8673
 3326SOL     OW21439   0.397   2.052  10.530  0.1591 -0.0033 -0.3632
 3326SOL    HW121440   0.475   2.106  10.518  0.1078  0.5571  1.8537
 3326SOL    HW221441   0.390   2.063  10.625  0.3445 -2.5756 -0.0569
 3327SOL     OW21442   3.949   2.841   8.884 -0.7187  0.1987 -0.6026
 3327SOL    HW121443   4.006   2.907   8.845  0.0739  0.0037  0.2441
 3327SOL    HW221444   3.870   2.891   8.903 -0.7171 -1.2158  3.0776
 3328SOL     OW21445   3.407   0.275   6.441  0.3548 -0.5427  0.0716
 3328SOL    HW121446   3.377   0.362   6.413 -0.5627 -1.2847 -1.2453
 3328SOL    HW221447   3.325   0.255   6.486  1.7899 -1.9597  2.0379
 3329SOL     OW21448   0.146   0.635   6.307 -0.1303  0.1514 -0.6037
 3329SOL    HW121449   0.118   0.724   6.329  2.4375  0.7133  0.3395
 3329SOL    HW221450   0.074   0.605   6.252  1.0205 -1.9557 -0.9546
 3330SOL     OW21451   3.634   3.077   9.185  0.2779 -0.1442 -0.1635
 3330SOL    HW121452   3.588   3.156   9.213 -1.1478 -0.3736 -1.8506
 3330SOL    HW221453   3.578   3.009   9.223  0.7300 -0.9756 -0.9838
 3331SOL     OW21454   1.721   3.882  16.730  0.1726  0.3643 -1.1665
 3331SOL    HW121455   1.790   3.926  16.780 -0.4366  1.0000 -0.8772
 3331SOL    HW221456   1.646   3.876  16.789  0.6490 -0.7673 -0.6859
 3332SOL     OW21457   0.641   2.483  17.011  0.5727 -0.1530  0.5049
 3332SOL    HW121458   0.639   2.555  16.948  1.0767 -0.8961 -0.3709
 3332SOL    HW221459   0.598   2.523  17.086  2.7579  0.1095  1.6059
 3333SOL     OW21460   3.653   2.012  11.588 -0.1597  0.3214 -0.5585
 3333SOL    HW121461   3.625   1.941  11.646  2.1518 -0.7365 -0.7485
 3333SOL    HW221462   3.573   2.064  11.586 -0.2819  0.1141 -0.9061
 3334SOL     OW21463   4.221   4.253   1.515 -0.5753 -0.3005  0.2068
 3334SOL    HW121464   4.164   4.326   1.539  0.0249  0.3095 -0.2549
 3334SOL    HW221465   4.158   4.181   1.503 -0.7185 -0.2399  0.5928
 3335SOL     OW21466   2.590   4.658  15.101 -0.1414 -0.4972  0.3067
 3335SOL    HW121467   2.597   0.014  15.160 -2.6844 -0.8758  1.0756
 3335SOL    HW221468   2.532   4.604  15.154 -3.1023  3.3470  0.9829
 3336SOL     OW21469   1.582   1.659   2.596 -0.0578  0.0832  0.9514
 3336SOL    HW121470   1.491   1.635   2.613  0.2369 -1.2504  0.6076
 3336SOL    HW221471   1.578   1.750   2.565  3.1263 -0.2680 -0.5210
 3337SOL     OW21472   3.559   3.441   0.699 -1.1347  0.4933 -0.5158
 3337SOL    HW121473   3.490   3.397   0.651 -1.6117  0.2958  0.3453
 3337SOL    HW221474   3.594   3.379   0.764  0.3371  0.7122 -1.1049
 3338SOL     OW21475   1.926   3.808   5.317 -0.0989  0.2780  0.0652
 3338SOL    HW121476   1.974   3.882   5.279 -0.6517 -0.0913 -1.3211
 3338SOL    HW221477   1.945   3.743   5.250 -2.0686 -0.4787  0.2651
 3339SOL     OW21478   3.500   2.985   5.648  0.4468  0.5233 -0.0591
 3339SOL    HW121479   3.558   2.910   5.631 -0.7559  0.1012 -2.2597
 3339SOL    HW221480   3.561   3.033   5.704 -0.9868  1.9489  0.2625
 3340SOL     OW21481   0.794   2.128   6.983  0.3109  0.4348  0.5033
 3340SOL    HW121482   0.703   2.096   6.979  0.9275 -1.1034 -1.0533
 3340SOL    HW221483   0.837   2.053   7.024  0.9836  0.3779 -0.3246
 3341SOL     OW21484   1.131   1.683   0.762  0.4163  0.5412  0.5276
 3341SOL    HW121485   1.143   1.676   0.857  0.0207  0.6893  0.5860
 3341SOL    HW221486   1.148   1.593   0.733  0.8012  1.4523 -2.0383
 3342SOL     OW21487   3.702   2.822   4.931 -0.0341  0.0848 -0.2615
 3342SOL    HW121488   3.795   2.802   4.940 -0.6875 -1.6497  2.5012
 3342SOL    HW221489   3.661   2.739   4.905 -0.3691  1.1490 -3.1246
 3343SOL     OW21490   0.653   1.957   5.829  0.0500  0.2452  0.2387
 3343SOL    HW121491   0.705   1.984   5.905  2.1773  0.7691 -1.4257
 3343SOL    HW221492   0.716   1.976   5.760  0.4957 -0.1883  0.5249
 3344SOL     OW21493   1.146   1.275   1.411  0.2508  0.7292  0.6078
 3344SOL    HW121494   1.196   1.293   1.331 -1.3489 -0.0376 -0.5777
 3344SOL    HW221495   1.104   1.360   1.425  1.2782  1.4516 -0.6788
 3345SOL     OW21496   3.095   1.023   8.458  0.6295 -0.2219  0.5562
 3345SOL    HW121497   3.064   1.092   8.518  2.1704  1.2362 -0.3286
 3345SOL    HW221498   3.158   1.080   8.414 -3.9570  1.8178 -3.3506
 3346SOL     OW21499   2.365   2.380  16.671 -0.0729  0.1280 -0.4238
 3346SOL    HW121500   2.328   2.305  16.716 -0.3272 -0.0172 -0.8773
 3346SOL    HW221501   2.337   2.448  16.733  1.3610 -2.5033  3.1004
 3347SOL     OW21502   0.290   2.535   7.281  0.8703 -0.2022  0.5949
 3347SOL    HW121503   0.330   2.515   7.196  1.1470 -0.0373  0.6887
 3347SOL    HW221504   0.227   2.606   7.268  1.1484  0.1509  1.2124
 3348SOL     OW21505   1.782   4.179  12.051  0.5161 -0.3514 -0.0792
 3348SOL    HW121506   1.857   4.128  12.082 -0.6962 -2.5845 -0.8433
 3348SOL    HW221507   1.807   4.270  12.070  2.5162 -0.7031 -1.0292
 3349SOL     OW21508   1.796   2.093   7.415  0.6437  0.3734  0.5065
 3349SOL    HW121509   1.839   2.010   7.438 -0.1359  0.2931  1.6642
 3349SOL    HW221510   1.866   2.154   7.393 -0.7666  1.9469  0.4321
 3350SOL     OW21511   1.793   3.880   0.066  0.3346  0.1162  0.0570
 3350SOL    HW121512   1.876   3.842   0.095  1.1972  1.5497 -0.5096
 3350SOL    HW221513   1.830   3.968   0.072  0.1325  0.1725  0.4621
 3351SOL     OW21514   1.369   4.085   3.524 -0.0120 -0.6632 -0.3523
 3351SOL    HW121515   1.423   4.156   3.490  1.9033 -1.5421  0.8959
 3351SOL    HW221516   1.285   4.126   3.544  0.9280  0.0863  1.9901
 3352SOL     OW21517   2.422   3.751   2.374  0.5191  0.6501 -0.0145
 3352SOL    HW121518   2.465   3.770   2.458  0.7431  2.6360 -0.5930
 3352SOL    HW221519   2.495   3.716   2.323 -0.0692  1.8426 -1.6439
 3353SOL     OW21520   2.727   3.891   7.019  0.4805 -0.1166 -0.3319
 3353SOL    HW121521   2.710   3.809   6.973  0.4858  1.1110 -2.5135
 3353SOL    HW221522   2.800   3.868   7.076 -0.0571 -1.8725 -0.3338
 3354SOL     OW21523   2.326   3.663   5.828 -0.5503 -0.2870 -0.1352
 3354SOL    HW121524   2.358   3.654   5.738 -1.4835 -1.2219 -0.3676
 3354SOL    HW221525   2.274   3.742   5.815 -1.1968 -0.6340  0.3837
 3355SOL     OW21526   0.329   3.520   2.820 -0.4280  0.3124  0.4555
 3355SOL    HW121527   0.335   3.515   2.724  0.2436 -2.3618  0.6224
 3355SOL    HW221528   0.338   3.427   2.841 -1.5013  0.2310  0.5562
 3356SOL     OW21529   3.214   3.251  12.252  0.8120  0.0802 -0.0270
 3356SOL    HW121530   3.293   3.253  12.306 -0.1545  0.7651  1.3561
 3356SOL    HW221531   3.252   3.232  12.166 -1.8574 -1.4982 -0.8671
 3357SOL     OW21532   4.659   2.896   6.665  0.3162 -0.5274 -0.4002
 3357SOL    HW121533   4.698   2.946   6.593  2.1817 -1.1268  0.2039
 3357SOL    HW221534   4.660   2.957   6.739  0.9013 -1.4771  0.3719
 3358SOL     OW21535   0.309   2.500  17.145  0.1745 -0.0880  0.1776
 3358SOL    HW121536   0.312   2.446  17.066 -0.1628  1.4206 -0.8553
 3358SOL    HW221537   0.286   2.582  17.103 -0.2593 -0.1664  0.2653
 3359SOL     OW21538   0.159   0.477   8.043  0.0051 -0.3005 -0.5352
 3359SOL    HW121539   0.172   0.534   8.119  1.8837  0.6146 -1.5256
 3359SOL    HW221540   0.139   0.389   8.075  1.4278 -0.0599  1.0814
 3360SOL     OW21541   3.422   1.364   2.076  0.2023  0.1611  0.1874
 3360SOL    HW121542   3.430   1.323   1.990  0.3638  2.5268 -0.9313
 3360SOL    HW221543   3.510   1.346   2.109  0.2633  1.6445  0.8338
 3361SOL     OW21544   2.730   0.381   1.209 -0.3243  0.2540  0.2425
 3361SOL    HW121545   2.724   0.381   1.304 -0.7583  1.9208  0.2132
 3361SOL    HW221546   2.812   0.426   1.189 -0.2704  1.2090  2.6596
 3362SOL     OW21547   1.542   3.893   9.408  0.5508  0.3907  0.1253
 3362SOL    HW121548   1.532   3.826   9.475 -2.3655  1.0794  0.3511
 3362SOL    HW221549   1.622   3.931   9.445 -0.2123 -0.3992  2.5561
 3363SOL     OW21550   2.665   1.709   7.758 -0.0906 -0.2069 -0.9885
 3363SOL    HW121551   2.629   1.664   7.681  0.0477 -1.2265 -0.4546
 3363SOL    HW221552   2.703   1.629   7.793  1.4486  0.3314 -1.4244
 3364SOL     OW21553   0.546   2.832   5.174  0.4227 -0.2090  0.3107
 3364SOL    HW121554   0.452   2.811   5.172  0.0733  1.1684  2.1539
 3364SOL    HW221555   0.576   2.743   5.162  2.1827  0.1383  2.1988
 3365SOL     OW21556   2.146   1.180  15.241  0.2200  0.0934 -0.5624
 3365SOL    HW121557   2.196   1.159  15.162  3.5024  0.0411  1.4851
 3365SOL    HW221558   2.216   1.211  15.300 -0.1671  0.7711 -0.4658
 3366SOL     OW21559   4.429   3.171   9.161 -0.5838  0.4065  0.3938
 3366SOL    HW121560   4.345   3.132   9.136 -0.7301  0.5242  0.7059
 3366SOL    HW221561   4.476   3.091   9.186  2.5700  1.5370 -1.9439
 3367SOL     OW21562   2.324   0.539   4.447 -0.2332  0.5686 -0.6667
 3367SOL    HW121563   2.278   0.615   4.482 -0.5426 -0.0796  0.3370
 3367SOL    HW221564   2.350   0.486   4.522 -1.4192  2.5162  1.1121
 3368SOL     OW21565   1.869   0.342   4.489  0.1952 -0.1825 -0.1587
 3368SOL    HW121566   1.896   0.315   4.577 -0.4106 -0.1405  0.0424
 3368SOL    HW221567   1.792   0.399   4.501 -1.4739 -2.4519 -0.0385
 3369SOL     OW21568   0.094   0.368   4.787  0.2283 -0.7527  0.2708
 3369SOL    HW121569   0.075   0.447   4.737  0.1025 -0.9135  0.0675
 3369SOL    HW221570   0.012   0.322   4.769 -0.4652 -0.0294  1.5377
 3370SOL     OW21571   4.247   0.385  12.637 -0.2140 -0.1944  0.6135
 3370SOL    HW121572   4.278   0.463  12.683  0.8652 -0.5413  0.4685
 3370SOL    HW221573   4.329   0.336  12.643 -0.1212 -0.3456 -2.0713
 3371SOL     OW21574   1.740   3.188   8.207 -0.0089 -0.0427 -0.2972
 3371SOL    HW121575   1.772   3.099   8.222 -2.1713 -1.0461 -1.5831
 3371SOL    HW221576   1.648   3.162   8.205 -0.3151  1.0986 -1.3628
 3372SOL     OW21577   2.616   3.684   6.848 -0.6400  0.4368 -0.1309
 3372SOL    HW121578   2.583   3.600   6.816  0.1023 -0.2624  0.9276
 3372SOL    HW221579   2.659   3.719   6.770 -1.5573 -0.6038 -1.0974
 3373SOL     OW21580   3.856   1.947   4.777  0.4858 -0.3886 -0.2216
 3373SOL    HW121581   3.893   2.008   4.840  1.9539  0.4378 -1.8513
 3373SOL    HW221582   3.794   1.905   4.836  1.0140 -0.4829  0.2647
 3374SOL     OW21583   0.036   2.363  12.902  0.1689  0.6459  0.2782
 3374SOL    HW121584   0.073   2.429  12.959  0.6164 -0.5702  1.3913
 3374SOL    HW221585   0.025   2.417  12.823  2.2056  0.4616 -0.1336
 3375SOL     OW21586   0.951   4.421   9.526  0.0767 -0.1039  0.7843
 3375SOL    HW121587   0.877   4.477   9.548 -2.9059 -2.8478 -2.2067
 3375SOL    HW221588   1.015   4.465   9.470 -1.9631 -0.0200 -1.5109
 3376SOL     OW21589   0.306   3.881  11.871  0.0243 -0.1019 -0.4204
 3376SOL    HW121590   0.367   3.951  11.850  0.4386 -0.5486 -0.6887
 3376SOL    HW221591   0.353   3.838  11.942  0.2275  0.1650 -0.3937
 3377SOL     OW21592   2.100   3.357  15.632 -0.2160 -0.0673 -0.2397
 3377SOL    HW121593   2.020   3.355  15.579 -0.6354 -0.4663  0.4166
 3377SOL    HW221594   2.070   3.371  15.721 -0.6402  0.5670 -0.4778
 3378SOL     OW21595   0.910   1.083  15.975 -0.4346  0.3542  0.0871
 3378SOL    HW121596   0.865   1.082  16.059  0.9168  1.8117  0.8453
 3378SOL    HW221597   0.918   0.990  15.954  2.5929  0.9245 -1.2956
 3379SOL     OW21598   3.951   3.897  17.299  0.6194  0.3081  0.2116
 3379SOL    HW121599   3.870   3.878  17.346 -0.5679 -0.4298 -2.1330
 3379SOL    HW221600   3.990   3.809  17.293 -1.6911 -0.6262 -1.1498
 3380SOL     OW21601   2.302   2.246   7.903 -0.0815 -0.6710 -0.4360
 3380SOL    HW121602   2.389   2.239   7.864  1.4230  1.9355  2.4239
 3380SOL    HW221603   2.261   2.166   7.873  0.1554 -1.0984  0.3784
 3381SOL     OW21604   3.336   0.165   7.681  0.2265 -0.0944 -0.0510
 3381SOL    HW121605   3.322   0.071   7.693 -2.4902  0.0650 -1.8416
 3381SOL    HW221606   3.415   0.183   7.732  1.7128 -0.0266 -2.4216
 3382SOL     OW21607   2.521   2.216   1.078  0.0292 -0.2905 -0.0453
 3382SOL    HW121608   2.604   2.170   1.093 -0.1900 -0.6729 -0.0142
 3382SOL    HW221609   2.536   2.284   1.012  3.5802  0.5181  1.5658
 3383SOL     OW21610   3.001   3.126   5.223  0.4507 -0.3378  0.2824
 3383SOL    HW121611   2.920   3.171   5.249  0.7485 -0.0488  0.7173
 3383SOL    HW221612   3.031   3.109   5.313  0.2147 -2.5916 -0.0575
 3384SOL     OW21613   4.322   1.807   1.107 -0.3704  0.9291  0.1331
 3384SOL    HW121614   4.299   1.736   1.048  1.6349  0.9632 -0.7113
 3384SOL    HW221615   4.306   1.767   1.192  1.4902 -1.2772 -0.5477
 3385SOL     OW21616   0.231   1.161  12.011  0.2845 -0.1203 -0.2567
 3385SOL    HW121617   0.240   1.120  11.925 -1.7519  1.4935 -1.2451
 3385SOL    HW221618   0.137   1.178  12.011  0.1513 -0.9125  0.4761
 3386SOL     OW21619   3.353   2.020   2.872 -0.3220 -0.2212 -0.4091
 3386SOL    HW121620   3.378   2.049   2.959  1.2645 -2.4095 -0.1289
 3386SOL    HW221621   3.262   1.994   2.880  0.2068 -1.9958 -0.1298
 3387SOL     OW21622   1.357   4.562   5.745  0.7273  0.1260 -0.4810
 3387SOL    HW121623   1.394   4.641   5.705  2.7320 -1.1209 -1.0943
 3387SOL    HW221624   1.379   4.576   5.837 -4.2301  0.4855  0.6421
 3388SOL     OW21625   3.059   3.749  16.418 -0.1410 -0.0623  0.2740
 3388SOL    HW121626   3.057   3.760  16.513  2.0236 -1.0663  0.4407
 3388SOL    HW221627   3.099   3.833  16.393 -0.9275  0.7787  1.8032
 3389SOL     OW21628   0.089   4.491  10.351 -0.1754 -0.1401 -0.7913
 3389SOL    HW121629   0.032   4.502  10.427 -0.0985  2.0739 -1.0615
 3389SOL    HW221630   0.157   4.428  10.374  1.2305  0.7860 -2.4698
 3390SOL     OW21631   0.965   0.489  12.892  0.8005  0.7811 -0.0729
 3390SOL    HW121632   1.044   0.463  12.845 -0.9425  0.0998 -2.6115
 3390SOL    HW221633   1.003   0.577  12.896  2.3395  0.1597 -1.1777
 3391SOL     OW21634   1.330   3.466   4.840 -0.8942 -0.6174  0.1170
 3391SOL    HW121635   1.369   3.553   4.839  0.5193 -1.2499  0.7675
 3391SOL    HW221636   1.395   3.428   4.780  0.2131  1.2703  0.1100
 3392SOL     OW21637   3.992   3.248  11.109  0.5809  0.2041  0.2815
 3392SOL    HW121638   3.949   3.182  11.162 -2.2041  1.9543  0.1847
 3392SOL    HW221639   3.958   3.325  11.154 -0.2830  0.8950 -1.5625
 3393SOL     OW21640   1.897   0.789   2.347  0.8119 -0.0278  0.1750
 3393SOL    HW121641   1.940   0.788   2.261 -0.7068 -3.7358 -0.5365
 3393SOL    HW221642   1.962   0.826   2.407  0.0022  2.8739 -0.7654
 3394SOL     OW21643   2.151   4.164   4.958  0.2195  0.0120 -0.5157
 3394SOL    HW121644   2.246   4.153   4.948  0.3065 -0.5452  0.8206
 3394SOL    HW221645   2.139   4.255   4.932  0.8761  0.2908  0.1506
 3395SOL     OW21646   0.418   2.465   5.582 -0.5335 -0.0407 -0.3366
 3395SOL    HW121647   0.492   2.521   5.609 -1.7768  2.5295 -2.2584
 3395SOL    HW221648   0.388   2.509   5.503 -0.3836  0.5696 -0.0566
 3396SOL     OW21649   4.108   0.134  14.199  0.4063  0.3585  0.3397
 3396SOL    HW121650   4.030   0.187  14.187 -0.2732 -0.3777  1.5461
 3396SOL    HW221651   4.165   0.210  14.211 -0.4435  0.7673  1.7403
 3397SOL     OW21652   4.679   2.007   6.826  0.0618 -0.2913 -0.0107
 3397SOL    HW121653   4.708   1.917   6.812  0.9251 -0.3046  1.8489
 3397SOL    HW221654   4.638   1.995   6.911 -2.0962 -1.3577 -1.1982
 3398SOL     OW21655   1.331   1.673   2.632  0.4282  0.0884 -0.2185
 3398SOL    HW121656   1.290   1.706   2.552  0.6038 -2.7290 -1.4604
 3398SOL    HW221657   1.255   1.671   2.690  0.2516  2.0744 -0.3770
 3399SOL     OW21658   1.006   4.028  16.782 -0.2471 -0.4594  0.0825
 3399SOL    HW121659   0.968   3.948  16.819 -1.0235 -0.1100  0.0399
 3399SOL    HW221660   0.992   4.014  16.688 -0.3015  2.1151 -0.2943
 3400SOL     OW21661   3.885   0.512   8.398  0.9667 -0.2053 -0.3115
 3400SOL    HW121662   3.890   0.538   8.306  0.2594  0.5690 -0.1276
 3400SOL    HW221663   3.978   0.488   8.394  0.3346 -2.6219 -0.4706
 3401SOL     OW21664   0.546   1.340   6.001  0.1469  0.1008 -0.4959
 3401SOL    HW121665   0.543   1.244   6.008 -0.5642  0.2684  1.6023
 3401SOL    HW221666   0.617   1.361   6.062 -0.3913  1.8468 -0.4815
 3402SOL     OW21667   1.206   3.604   4.218  0.2332 -0.1400 -0.3232
 3402SOL    HW121668   1.173   3.685   4.180 -1.3226 -2.3450 -3.8114
 3402SOL    HW221669   1.281   3.577   4.165  0.7739 -0.5095  0.6273
 3403SOL     OW21670   1.935   3.114   8.578 -0.0428 -0.0938  0.0685
 3403SOL    HW121671   1.931   3.030   8.531 -1.4775  0.1689 -0.2917
 3403SOL    HW221672   2.012   3.139   8.528  1.0300 -0.0567  1.7486
 3404SOL     OW21673   4.063   0.484   4.424 -0.1269  0.3191 -0.1620
 3404SOL    HW121674   4.031   0.440   4.502 -2.3011  1.0580 -0.6179
 3404SOL    HW221675   3.985   0.484   4.368  0.8118 -1.9034 -1.4578
 3405SOL     OW21676   3.099   0.711   3.916  0.0555  0.3080 -0.1652
 3405SOL    HW121677   3.041   0.752   3.980  1.5564  0.2302  1.2465
 3405SOL    HW221678   3.139   0.790   3.880  1.7071 -0.1187  0.6894
 3406SOL     OW21679   1.069   0.041  11.049  0.4048  0.0972 -0.7080
 3406SOL    HW121680   1.024   0.085  10.977 -0.7321 -0.1293 -0.1357
 3406SOL    HW221681   1.121   0.117  11.076 -0.7425  0.1650  1.2917
 3407SOL     OW21682   4.179   4.598   4.517  0.0820  0.1500  0.3764
 3407SOL    HW121683   4.098   4.621   4.471 -0.9054  0.8774  2.4722
 3407SOL    HW221684   4.179   4.672   4.577 -1.6947  1.1357 -0.8311
 3408SOL     OW21685   4.585   0.068   2.197 -0.1824 -0.7272  0.2188
 3408SOL    HW121686   4.618   4.705   2.233  0.6135 -0.4688  0.0697
 3408SOL    HW221687   4.652   0.131   2.226 -0.3924 -0.1657 -0.4990
 3409SOL     OW21688   1.632   1.375   3.837  0.6745 -0.1521 -0.8958
 3409SOL    HW121689   1.651   1.465   3.865 -1.2957 -0.2050  0.5933
 3409SOL    HW221690   1.672   1.382   3.750  0.6949  0.9947 -0.8039
 3410SOL     OW21691   1.453   0.767   8.801  0.4974  0.1014  0.0234
 3410SOL    HW121692   1.412   0.775   8.715  2.5575  0.7973 -0.8887
 3410SOL    HW221693   1.527   0.710   8.782 -0.2162 -0.5732 -0.7449
 3411SOL     OW21694   0.284   3.431   6.376  0.1867  0.4370  0.5463
 3411SOL    HW121695   0.242   3.439   6.462  2.3519 -0.2859  1.6770
 3411SOL    HW221696   0.374   3.426   6.408 -0.2228 -2.0163  1.2670
 3412SOL     OW21697   4.524   0.676   3.273 -0.5280 -0.0184 -0.3270
 3412SOL    HW121698   4.532   0.765   3.239 -0.0552  1.4999  3.7251
 3412SOL    HW221699   4.429   0.673   3.285 -0.3329 -0.9546  0.9770
 3413SOL     OW21700   3.672   4.533   4.164  0.3257 -0.0681 -0.2425
 3413SOL    HW121701   3.680   4.506   4.256  0.7611 -1.8086 -0.7917
 3413SOL    HW221702   3.612   4.467   4.131  1.0328 -0.3624 -0.9120
 3414SOL     OW21703   3.975   0.337   2.807  0.0436  0.0417 -0.3662
 3414SOL    HW121704   3.919   0.413   2.822 -0.0909 -0.2222  0.4722
 3414SOL    HW221705   4.046   0.377   2.756 -1.1932  0.8580 -1.4516
 3415SOL     OW21706   1.110   3.486  16.924 -0.0113  0.3141 -0.0371
 3415SOL    HW121707   1.150   3.573  16.916  0.1164  0.1747 -0.9456
 3415SOL    HW221708   1.122   3.453  16.835  0.2954 -1.6335  0.7259
 3416SOL     OW21709   1.248   0.162   6.480 -0.1244  0.1509  0.2022
 3416SOL    HW121710   1.188   0.193   6.547  0.9404 -0.2180  1.3252
 3416SOL    HW221711   1.330   0.143   6.526  0.3282  1.5840 -0.0123
 3417SOL     OW21712   2.527   4.496   8.383  0.3874 -0.4946 -0.0904
 3417SOL    HW121713   2.536   4.590   8.400  0.1522 -0.9375  2.3824
 3417SOL    HW221714   2.601   4.481   8.324  2.2591 -0.2129  2.2170
 3418SOL     OW21715   3.289   2.983   2.863 -1.0011 -0.0289 -0.4484
 3418SOL    HW121716   3.293   2.990   2.958  1.2630 -0.3600 -0.5247
 3418SOL    HW221717   3.382   2.987   2.843 -1.2836 -1.8888 -2.0784
 3419SOL     OW21718   0.627   2.434   4.847  0.2711  0.5367 -0.5620
 3419SOL    HW121719   0.641   2.430   4.753 -0.0062 -2.0094 -0.5007
 3419SOL    HW221720   0.681   2.512   4.859  1.5092  0.0763 -3.1605
 3420SOL     OW21721   1.922   1.442   5.226 -0.1113 -0.2997 -0.4710
 3420SOL    HW121722   2.008   1.403   5.237  0.5408  0.7369 -1.7996
 3420SOL    HW221723   1.939   1.535   5.242  3.4186 -0.8627 -0.9005
 3421SOL     OW21724   0.164   0.172   2.224  0.2981 -0.2883 -0.0630
 3421SOL    HW121725   0.183   0.122   2.304 -0.2818  2.3283  1.7178
 3421SOL    HW221726   0.215   0.127   2.156  0.0051  0.3263 -0.6886
 3422SOL     OW21727   1.467   2.095  14.194 -0.1319  0.7082  0.1523
 3422SOL    HW121728   1.389   2.102  14.139 -0.0254 -0.2280 -0.1128
 3422SOL    HW221729   1.502   2.184  14.191  1.5669 -0.0210 -2.0182
 3423SOL     OW21730   3.429   1.376  10.381 -0.0986 -0.1354 -0.4123
 3423SOL    HW121731   3.436   1.315  10.454  0.9254  0.3406 -0.1152
 3423SOL    HW221732   3.378   1.334  10.311 -0.0214 -0.7257 -0.1164
 3424SOL     OW21733   0.497   1.651  14.662  0.0831 -0.1318 -0.1498
 3424SOL    HW121734   0.530   1.730  14.621  0.2263 -0.4032 -0.5523
 3424SOL    HW221735   0.576   1.601  14.683  0.0084 -0.9005 -1.7487
 3425SOL     OW21736   3.885   1.797   2.566  0.1727 -0.2570 -0.1338
 3425SOL    HW121737   3.953   1.751   2.517  0.8306  0.5118  0.0672
 3425SOL    HW221738   3.815   1.775   2.505  0.6673 -0.3635 -0.6570
 3426SOL     OW21739   0.890   1.686   4.119 -0.0467 -0.8456 -1.2477
 3426SOL    HW121740   0.899   1.775   4.085  0.2069 -0.1123  0.7651
 3426SOL    HW221741   0.959   1.640   4.070  1.3887 -0.0450  0.0170
 3427SOL     OW21742   0.421   2.199   3.311 -0.3159  0.2952  0.3537
 3427SOL    HW121743   0.366   2.127   3.341  0.1179 -0.5766 -0.9269
 3427SOL    HW221744   0.408   2.180   3.218  1.7770 -1.2619  0.3830
 3428SOL     OW21745   2.636   1.170   3.661  0.1831 -0.3799  0.1075
 3428SOL    HW121746   2.640   1.087   3.614  0.6147  0.7675 -1.8638
 3428SOL    HW221747   2.725   1.173   3.698  0.4894  0.6194 -0.7319
 3429SOL     OW21748   0.236   3.212  12.295  0.0130  0.0507  0.3884
 3429SOL    HW121749   0.163   3.260  12.255 -1.3295 -1.8374  0.5943
 3429SOL    HW221750   0.208   3.225  12.386  0.9678 -1.1632  0.8455
 3430SOL     OW21751   4.551   1.638   4.149 -0.3664  0.1505 -0.5888
 3430SOL    HW121752   4.471   1.620   4.199  0.6767 -0.4662  0.8770
 3430SOL    HW221753   4.509   1.649   4.064 -1.2285  0.0159 -0.1783
 3431SOL     OW21754   2.711   0.440  10.837  1.0878  0.8248  0.0325
 3431SOL    HW121755   2.664   0.368  10.880  0.5738 -0.0008 -1.8995
 3431SOL    HW221756   2.665   0.436  10.753  1.0564 -3.4151  0.2589
 3432SOL     OW21757   1.740   2.164   3.129  0.5621 -0.0268 -0.0850
 3432SOL    HW121758   1.778   2.192   3.046 -2.4370 -1.5153 -1.9715
 3432SOL    HW221759   1.805   2.163   3.200 -0.2026 -0.5686  0.6071
 3433SOL     OW21760   0.478   3.476   9.042  0.2119  0.6489  0.7563
 3433SOL    HW121761   0.426   3.398   9.024  0.6780  0.5570 -0.1583
 3433SOL    HW221762   0.564   3.435   9.033 -0.0019 -0.1929  2.4228
 3434SOL     OW21763   3.402   3.209   5.525  0.2413  0.2643  0.6161
 3434SOL    HW121764   3.421   3.130   5.574 -0.5676  0.2995  0.9930
 3434SOL    HW221765   3.349   3.271   5.575  2.3589  0.6011  2.4587
 3435SOL     OW21766   1.684   1.088   1.521  0.0972 -0.5245  0.3833
 3435SOL    HW121767   1.604   1.056   1.562 -1.1564  0.3670 -1.3686
 3435SOL    HW221768   1.753   1.021   1.524  0.8921  0.2328 -0.9382
 3436SOL     OW21769   3.775   3.863   7.994 -0.3693 -0.7810  0.0668
 3436SOL    HW121770   3.864   3.877   7.961 -0.5015  0.2928  0.1565
 3436SOL    HW221771   3.797   3.822   8.077  0.7168  1.2334  0.7695
 3437SOL     OW21772   4.351   2.316   4.698  0.3915  0.0613 -0.2015
 3437SOL    HW121773   4.332   2.410   4.696 -0.0562 -0.0252  0.0950
 3437SOL    HW221774   4.298   2.302   4.777  1.2135  0.0928  0.3652
 3438SOL     OW21775   0.322   3.085   2.516 -0.0617 -0.0364  0.3554
 3438SOL    HW121776   0.288   3.160   2.466  0.7565 -1.1579 -1.8695
 3438SOL    HW221777   0.268   3.013   2.484  0.0681 -0.0363  0.1372
 3439SOL     OW21778   3.380   1.726  13.890 -0.4617 -0.3556  0.0687
 3439SOL    HW121779   3.441   1.654  13.874 -0.5956  0.0658 -2.4545
 3439SOL    HW221780   3.333   1.734  13.806 -0.9169 -0.3846  0.3210
 3440SOL     OW21781   0.264   0.757   7.348 -0.3985 -0.0603  0.0847
 3440SOL    HW121782   0.351   0.747   7.309 -0.5737 -0.7670 -0.1273
 3440SOL    HW221783   0.277   0.710   7.430 -1.3591 -0.1690  0.1730
 3441SOL     OW21784   1.784   1.838   1.784 -0.2867 -0.4619  0.0058
 3441SOL    HW121785   1.764   1.839   1.691  0.0669  0.8901 -0.0620
 3441SOL    HW221786   1.872   1.873   1.768 -0.9858  0.7645 -1.1184
 3442SOL     OW21787   1.163   4.047  10.630  0.5750  0.5880  0.2424
 3442SOL    HW121788   1.197   4.088  10.550 -0.2805  1.8695  0.5379
 3442SOL    HW221789   1.242   4.007  10.665  1.2702  1.1263 -0.7049
 3443SOL     OW21790   0.213   2.234  11.256  0.3538 -0.3931 -0.1959
 3443SOL    HW121791   0.244   2.231  11.165  0.0012  1.0310 -0.3650
 3443SOL    HW221792   0.133   2.184  11.245 -1.3113  1.9871  1.2521
 3444SOL     OW21793   2.858   4.267   2.405  0.2687  0.2179  0.5194
 3444SOL    HW121794   2.950   4.286   2.423  0.3835 -0.5547  0.7703
 3444SOL    HW221795   2.815   4.331   2.461  1.0388 -0.6423  2.1026
 3445SOL     OW21796   1.374   1.193   5.924  0.0995 -0.2836  0.4245
 3445SOL    HW121797   1.396   1.149   6.006  0.8111  2.2783  1.6420
 3445SOL    HW221798   1.446   1.256   5.931  0.7791 -1.2210  1.8039
 3446SOL     OW21799   0.525   2.184   6.813 -0.1749  0.1302 -0.2143
 3446SOL    HW121800   0.496   2.134   6.736 -0.7866 -1.6503  1.1512
 3446SOL    HW221801   0.556   2.266   6.776  0.7583 -0.3108 -0.4142
 3447SOL     OW21802   1.369   1.130   5.461 -0.0091 -0.6528  0.7244
 3447SOL    HW121803   1.314   1.119   5.383  1.9897 -1.5657 -0.5508
 3447SOL    HW221804   1.307   1.184   5.511 -0.6344 -0.4900 -0.2204
 3448SOL     OW21805   2.897   4.337   4.555  0.3512 -0.8513  0.0004
 3448SOL    HW121806   2.921   4.244   4.548  0.6869 -0.8675  1.2670
 3448SOL    HW221807   2.819   4.334   4.500  0.8240  0.2501 -0.7209
 3449SOL     OW21808   3.360   2.105  14.918 -0.1654 -0.4519  0.4059
 3449SOL    HW121809   3.304   2.060  14.981 -0.6932  2.0030  1.6663
 3449SOL    HW221810   3.368   2.195  14.948  0.1461 -0.9101  1.7177
 3450SOL     OW21811   3.861   2.722   5.790 -0.0817  0.2121  0.1205
 3450SOL    HW121812   3.834   2.664   5.861 -0.6760 -0.2102 -0.4462
 3450SOL    HW221813   3.943   2.681   5.764  0.4587 -0.9240  3.6127
 3451SOL     OW21814   1.988   0.995   8.140  0.2207  0.3441  0.4182
 3451SOL    HW121815   1.908   1.035   8.174 -0.4668  0.7496 -1.6943
 3451SOL    HW221816   1.969   0.905   8.167  2.1096 -0.2165 -0.1419
 3452SOL     OW21817   4.662   1.311   4.274  0.8632 -0.0145  0.1740
 3452SOL    HW121818   4.639   1.263   4.354 -0.4551  1.8976  0.9325
 3452SOL    HW221819   4.684   1.397   4.308  1.1794  0.6122 -1.6156
 3453SOL     OW21820   3.672   0.954   4.926 -0.2172 -0.5135  0.3959
 3453SOL    HW121821   3.757   0.932   4.889  0.4831  0.2179  1.5910
 3453SOL    HW221822   3.656   0.878   4.982 -0.1458  1.2503  2.8239
 3454SOL     OW21823   2.009   0.026   4.404 -0.4042 -0.7729  0.5570
 3454SOL    HW121824   1.940   0.022   4.470 -1.6621 -1.0647 -0.7742
 3454SOL    HW221825   2.046   4.656   4.407  0.7797 -0.2235  2.5632
 3455SOL     OW21826   0.670   2.230   9.754 -0.2725  0.1044 -0.8239
 3455SOL    HW121827   0.652   2.137   9.765  0.2031  0.3179  1.6216
 3455SOL    HW221828   0.585   2.270   9.774  0.3198  1.4795 -1.0327
 3456SOL     OW21829   3.709   0.238  15.925  0.3865  0.2554 -0.6993
 3456SOL    HW121830   3.803   0.244  15.909  0.2718  1.3692 -0.9437
 3456SOL    HW221831   3.669   0.273  15.846 -1.6641  0.3504  0.3958
 3457SOL     OW21832   2.813   2.181   9.110 -0.2259 -0.4583 -0.2877
 3457SOL    HW121833   2.892   2.127   9.112  2.1869  2.9966 -1.3218
 3457SOL    HW221834   2.849   2.263   9.144 -1.6693  0.2738 -0.5111
 3458SOL     OW21835   4.136   0.718   7.623  0.0348  0.3844 -0.3359
 3458SOL    HW121836   4.090   0.736   7.705 -1.4833 -0.2747 -1.0426
 3458SOL    HW221837   4.144   0.809   7.594 -2.3165  0.0897 -1.8096
 3459SOL     OW21838   0.490   0.331   5.431 -0.5545 -0.3345  0.3043
 3459SOL    HW121839   0.490   0.258   5.369  3.3816  0.8686 -1.1131
 3459SOL    HW221840   0.476   0.279   5.510  0.1810 -2.9604 -1.3000
 3460SOL     OW21841   0.499   0.282  11.306  0.0533 -0.1217  0.4811
 3460SOL    HW121842   0.572   0.342  11.292 -1.2119  1.1304 -0.7477
 3460SOL    HW221843   0.421   0.328  11.274 -0.4790 -1.1555  0.2894
 3461SOL     OW21844   0.229   2.887   5.858  0.3611  0.1889  0.2494
 3461SOL    HW121845   0.212   2.968   5.906 -0.7392  1.3011 -1.9980
 3461SOL    HW221846   0.150   2.834   5.861 -1.2296  2.5668  0.5582
 3462SOL     OW21847   1.902   4.269   5.036  0.1391  0.1390  0.5438
 3462SOL    HW121848   1.841   4.200   5.063 -0.6748  0.1958 -1.1479
 3462SOL    HW221849   1.987   4.225   5.044 -0.1211 -0.1972  1.5045
 3463SOL     OW21850   0.326   4.035   4.590 -0.2373  0.4608  0.0259
 3463SOL    HW121851   0.364   4.054   4.676 -0.5172 -0.9428  0.4503
 3463SOL    HW221852   0.387   4.089   4.540  0.7471  0.0051  0.7153
 3464SOL     OW21853   3.713   3.954   6.152 -0.0976 -0.2546 -0.3813
 3464SOL    HW121854   3.712   3.888   6.221 -0.7469  0.0920 -0.0567
 3464SOL    HW221855   3.683   3.907   6.074  0.3086  1.0882 -1.3476
 3465SOL     OW21856   1.257   1.044   6.191  0.0026  0.4587 -0.0391
 3465SOL    HW121857   1.301   0.967   6.156 -1.0633 -0.6407  1.0538
 3465SOL    HW221858   1.176   1.004   6.223 -0.1498  0.3568 -0.5536
 3466SOL     OW21859   1.594   3.737  12.796 -0.3510 -0.3878  0.2383
 3466SOL    HW121860   1.529   3.742  12.866 -0.5331  0.8083 -0.0126
 3466SOL    HW221861   1.556   3.807  12.743 -0.1883 -0.5252 -0.0609
 3467SOL     OW21862   3.927   0.939   3.343  0.1420  0.0149 -0.0629
 3467SOL    HW121863   4.016   0.968   3.323  0.5773 -1.3559 -0.1153
 3467SOL    HW221864   3.925   0.953   3.438 -0.6140 -0.0419 -0.0678
 3468SOL     OW21865   4.619   0.994   7.258 -0.2830 -0.5081  0.4769
 3468SOL    HW121866   4.532   1.029   7.240  1.1626  1.6954 -2.3831
 3468SOL    HW221867   4.604   0.900   7.264 -0.4847 -0.6991 -3.1482
 3469SOL     OW21868   4.697   2.690  14.633 -0.0035 -0.1598  0.2435
 3469SOL    HW121869   4.679   2.721  14.544 -0.1104 -0.9660 -0.0175
 3469SOL    HW221870   4.632   2.620  14.640 -0.3642 -0.0513 -1.9364
 3470SOL     OW21871   0.779   1.942   5.574  0.4282 -0.6408  0.3015
 3470SOL    HW121872   0.797   1.855   5.539  0.2219  0.4200 -2.4283
 3470SOL    HW221873   0.861   1.980   5.542 -0.0539  0.2394  0.1057
 3471SOL     OW21874   3.907   1.181  10.934 -0.1047 -0.0755  0.2291
 3471SOL    HW121875   3.963   1.105  10.946 -0.0139 -0.3851 -2.1891
 3471SOL    HW221876   3.902   1.206  11.026 -0.2903 -1.1649  0.5093
 3472SOL     OW21877   1.641   0.527   3.496 -0.2105  0.2462  0.3921
 3472SOL    HW121878   1.730   0.546   3.466  0.0047 -0.2997  0.6763
 3472SOL    HW221879   1.590   0.561   3.422  1.2853  0.4733 -0.5255
 3473SOL     OW21880   4.206   3.831  15.311 -0.7020  0.0855  0.3341
 3473SOL    HW121881   4.283   3.866  15.268 -0.3232 -2.1993 -0.8474
 3473SOL    HW221882   4.162   3.915  15.326  2.8539  2.1011 -0.5650
 3474SOL     OW21883   2.763   3.383  10.255  0.4515 -0.2421 -0.0455
 3474SOL    HW121884   2.671   3.370  10.277  0.9398  2.0108  3.3744
 3474SOL    HW221885   2.809   3.400  10.337 -2.2536 -1.2221  1.6538
 3475SOL     OW21886   2.550   1.696   8.774 -0.1050 -0.7297 -0.2816
 3475SOL    HW121887   2.459   1.712   8.750  0.4674 -0.2807 -2.1290
 3475SOL    HW221888   2.595   1.692   8.690 -1.3073 -0.0618 -0.9466
 3476SOL     OW21889   3.715   1.633  16.806 -0.3389 -0.0650 -0.2720
 3476SOL    HW121890   3.775   1.592  16.867 -0.2919  2.6663  1.5102
 3476SOL    HW221891   3.762   1.708  16.769 -1.0660  0.1244 -0.8360
 3477SOL     OW21892   0.020   3.502   8.361  0.0210  0.2038 -0.1192
 3477SOL    HW121893   4.646   3.499   8.335 -0.2126 -0.1802  0.7232
 3477SOL    HW221894   0.042   3.595   8.366 -3.3178  1.1379 -2.5811
 3478SOL     OW21895   2.514   1.812  13.710 -0.6658 -0.2470  0.2073
 3478SOL    HW121896   2.492   1.772  13.794 -2.5991  3.2086  1.3634
 3478SOL    HW221897   2.479   1.747  13.650 -0.8135  0.3748 -0.3887
 3479SOL     OW21898   0.267   2.223   6.222 -0.4800 -0.3157  0.0707
 3479SOL    HW121899   0.353   2.220   6.180 -1.1962  2.4482 -1.6640
 3479SOL    HW221900   0.283   2.173   6.302 -4.2264  0.0929  1.0784
 3480SOL     OW21901   2.063   3.083  17.155  0.2911  0.5880  0.2958
 3480SOL    HW121902   2.042   3.002  17.201  1.1539  1.2755  1.9129
 3480SOL    HW221903   2.026   3.152  17.210 -1.5485  1.3583 -1.9156
 3481SOL     OW21904   1.607   0.584  16.417  0.0163 -0.3915  0.4265
 3481SOL    HW121905   1.601   0.648  16.488 -2.8692 -0.6761  0.4255
 3481SOL    HW221906   1.635   0.511  16.472  0.7043 -1.6117 -1.5435
 3482SOL     OW21907   2.881   3.706   8.702  0.1737 -0.1435  0.3284
 3482SOL    HW121908   2.956   3.763   8.722 -0.6809  0.9851  0.3134
 3482SOL    HW221909   2.827   3.765   8.650  0.4445 -1.3247 -1.2916
 3483SOL     OW21910   4.458   4.300   3.035 -0.3429  0.7178 -0.6146
 3483SOL    HW121911   4.381   4.256   2.998 -0.5400 -0.0368  0.6778
 3483SOL    HW221912   4.522   4.232   3.012 -2.2262 -1.3003  0.0309
 3484SOL     OW21913   2.030   3.636   7.571  0.8917 -0.2661  0.2914
 3484SOL    HW121914   2.023   3.619   7.665 -0.7786 -2.1757 -0.1797
 3484SOL    HW221915   2.124   3.630   7.558  0.7042 -2.1530 -0.1557
 3485SOL     OW21916   2.588   0.167   7.329 -0.2641 -0.0977  0.0185
 3485SOL    HW121917   2.543   0.084   7.346 -0.3886  0.4407  2.3661
 3485SOL    HW221918   2.658   0.162   7.394  1.3583 -0.7945 -1.7853
 3486SOL     OW21919   4.313   1.184  15.495  0.1440  0.3845 -0.3732
 3486SOL    HW121920   4.345   1.256  15.549  1.8932 -2.1883  2.0129
 3486SOL    HW221921   4.281   1.232  15.419  2.1440 -1.4244 -2.3709
 3487SOL     OW21922   2.570   2.453  15.282 -0.3266  0.2381  0.0253
 3487SOL    HW121923   2.583   2.410  15.198 -0.8161  0.5228 -0.1984
 3487SOL    HW221924   2.481   2.422  15.302  0.6104 -1.5544  1.3334
 3488SOL     OW21925   2.702   3.040   9.215  0.3542  0.2097  0.0389
 3488SOL    HW121926   2.792   3.006   9.205 -1.6371 -4.3983 -2.2117
 3488SOL    HW221927   2.703   3.110   9.150 -2.2741  0.3147  0.1353
 3489SOL     OW21928   2.539   4.710   2.529 -0.0785  0.7390  0.1012
 3489SOL    HW121929   2.528   0.084   2.507  1.8648  1.0351  0.3663
 3489SOL    HW221930   2.499   0.007   2.615 -2.0370  0.0885 -0.6768
 3490SOL     OW21931   4.066   1.396  11.180  0.1400 -0.4223  0.1341
 3490SOL    HW121932   4.043   1.418  11.090  0.3772 -0.0696  0.1579
 3490SOL    HW221933   4.095   1.479  11.219 -2.1749 -0.1723  1.3544
 3491SOL     OW21934   4.538   1.071   5.111  0.5287 -0.4725  0.4422
 3491SOL    HW121935   4.584   1.111   5.184 -0.7901  1.6671  0.1058
 3491SOL    HW221936   4.602   1.083   5.042 -0.9990  0.0910 -0.8790
 3492SOL     OW21937   0.752   0.849   5.213 -0.1680 -0.0371  0.1446
 3492SOL    HW121938   0.809   0.896   5.153 -0.9856 -0.2436 -0.7880
 3492SOL    HW221939   0.686   0.810   5.156 -1.1678 -0.8032  1.7971
 3493SOL     OW21940   2.149   2.618  16.437 -0.6711  0.2584  0.1975
 3493SOL    HW121941   2.225   2.645  16.488  1.4966 -2.7863 -1.4576
 3493SOL    HW221942   2.079   2.673  16.471  0.2560  1.1206  0.7245
 3494SOL     OW21943   1.006   1.828   7.585 -0.1335  0.0534  0.1252
 3494SOL    HW121944   0.972   1.825   7.496 -1.5626  1.4275  0.6294
 3494SOL    HW221945   1.011   1.924   7.587  1.7854 -0.0424  0.0883
 3495SOL     OW21946   3.622   2.124  11.303  0.4485 -0.4284 -0.6356
 3495SOL    HW121947   3.704   2.161  11.270  0.7586 -1.4684 -1.0311
 3495SOL    HW221948   3.623   2.110  11.398 -2.5709  0.2011 -0.5260
 3496SOL     OW21949   1.629   1.879   1.527 -0.1817 -0.0115  0.5128
 3496SOL    HW121950   1.538   1.851   1.513  0.5857 -1.1562 -2.2374
 3496SOL    HW221951   1.641   1.952   1.466  1.9053  0.1945  1.1765
 3497SOL     OW21952   2.122   1.366   2.726  0.2926 -0.1892  0.7643
 3497SOL    HW121953   2.080   1.367   2.640 -0.4712 -1.7797  1.1139
 3497SOL    HW221954   2.200   1.313   2.707  1.4168  1.5255  0.5855
 3498SOL     OW21955   0.723   4.145   5.907 -0.5051  0.1142 -0.0267
 3498SOL    HW121956   0.819   4.148   5.916 -0.4330 -2.4505 -0.1318
 3498SOL    HW221957   0.720   4.101   5.822  1.3576  2.5794 -1.3821
 3499SOL     OW21958   0.259   2.626   3.712  0.1755  0.3525  0.3511
 3499SOL    HW121959   0.331   2.564   3.722  1.5525  1.4886 -2.5980
 3499SOL    HW221960   0.187   2.586   3.761  0.2954  0.8683  0.9371
 3500SOL     OW21961   1.022   4.548   3.709  0.4420  0.7230  0.3378
 3500SOL    HW121962   0.963   4.555   3.784  0.0447  0.0753  0.0808
 3500SOL    HW221963   1.074   4.624   3.736 -0.9598  1.0095  2.2572
 3501SOL     OW21964   4.461   4.579   6.857  0.3089 -0.2466  0.0738
 3501SOL    HW121965   4.444   4.669   6.885 -0.4124 -0.3749  0.0298
 3501SOL    HW221966   4.382   4.553   6.810 -0.8326  2.0767  0.6795
 3502SOL     OW21967   3.782   2.966   6.256 -0.2576 -0.3615  0.1396
 3502SOL    HW121968   3.733   2.884   6.255  1.9696 -1.6862 -0.7331
 3502SOL    HW221969   3.865   2.928   6.226  0.7113  2.2226 -0.4563
 3503SOL     OW21970   3.749   1.353   4.416  0.1808  0.1511 -0.0322
 3503SOL    HW121971   3.721   1.267   4.447  0.9342  0.4132  1.3814
 3503SOL    HW221972   3.697   1.407   4.476 -0.8898 -0.0765 -0.7463
 3504SOL     OW21973   0.180   4.135  12.248 -0.0161  0.1611 -0.4077
 3504SOL    HW121974   0.219   4.217  12.277 -1.8825  0.4089  1.3740
 3504SOL    HW221975   0.189   4.147  12.153 -0.6380  0.6818 -0.4040
 3505SOL     OW21976   0.120   3.466   1.703 -0.3963  0.3481  0.2798
 3505SOL    HW121977   0.085   3.396   1.648  1.2285  0.1521 -0.5089
 3505SOL    HW221978   0.069   3.543   1.679 -0.4996 -0.4834 -2.1976
 3506SOL     OW21979   3.107   4.691   9.152 -0.8542  0.6205 -0.4132
 3506SOL    HW121980   3.014   4.709   9.144 -0.4487  1.8396 -2.4863
 3506SOL    HW221981   3.105   4.671   9.245  0.5408  1.8492 -0.1199
 3507SOL     OW21982   2.865   0.964   1.938  0.5181  0.0899  0.9919
 3507SOL    HW121983   2.836   0.975   1.847  0.3282  0.4840  1.1031
 3507SOL    HW221984   2.802   0.895   1.957 -2.0418  2.3705  0.8109
 3508SOL     OW21985   0.525   2.541   5.102 -0.3882  0.3020  0.2111
 3508SOL    HW121986   0.554   2.478   5.168 -2.1453 -1.7475 -0.9740
 3508SOL    HW221987   0.569   2.501   5.028 -0.8058 -0.8388  0.5814
 3509SOL     OW21988   4.618   2.498   2.237  0.0580  0.4984  0.0529
 3509SOL    HW121989   4.628   2.448   2.157 -0.8611  0.4701 -0.0491
 3509SOL    HW221990   4.522   2.500   2.236  0.0537  0.2757  0.0476
 3510SOL     OW21991   3.018   3.760  11.442  0.3540  0.2376 -0.1173
 3510SOL    HW121992   2.928   3.747  11.412  1.6731 -1.4049 -3.3097
 3510SOL    HW221993   3.017   3.742  11.536  0.4624 -1.8697 -0.5299
 3511SOL     OW21994   0.435   2.410   2.473  0.1850 -0.4551  0.0116
 3511SOL    HW121995   0.488   2.374   2.544 -1.5396 -0.9294  1.0634
 3511SOL    HW221996   0.465   2.361   2.397  3.2098  0.0561  0.8782
 3512SOL     OW21997   3.506   1.175   5.374  0.0257 -0.5688  0.5101
 3512SOL    HW121998   3.524   1.193   5.466 -3.4535  0.1665  1.0490
 3512SOL    HW221999   3.497   1.080   5.386 -0.9844 -0.8245 -2.1517
 3513SOL     OW22000   4.609   4.060   8.345 -0.2820  0.0367  0.2543
 3513SOL    HW122001   4.692   4.015   8.360 -2.3847 -3.3732  1.5739
 3513SOL    HW222002   4.614   4.135   8.404  0.7885  1.0782 -1.1687
 3514SOL     OW22003   3.718   0.541   9.080  0.2948  0.2358  0.1472
 3514SOL    HW122004   3.726   0.636   9.089 -2.6234  0.3872  1.1904
 3514SOL    HW222005   3.799   0.531   9.030  0.7117  0.6681  0.7337
 3515SOL     OW22006   2.098   0.377  13.513  0.0057  0.1335 -0.3716
 3515SOL    HW122007   2.042   0.301  13.529  1.1614 -0.3977  1.1419
 3515SOL    HW222008   2.044   0.445  13.554 -0.8576 -0.6580 -0.2149
 3516SOL     OW22009   2.089   3.712  15.255 -0.1016 -0.3032  0.3639
 3516SOL    HW122010   2.159   3.647  15.258 -0.4084 -0.5958  1.1414
 3516SOL    HW222011   2.061   3.711  15.346 -0.3506 -0.1618  0.2891
 3517SOL     OW22012   1.871   0.845   7.628  0.6996 -0.1904 -0.3388
 3517SOL    HW122013   1.921   0.768   7.599  1.6645  0.4915 -0.4926
 3517SOL    HW222014   1.795   0.804   7.670  1.2115 -0.2094  0.5788
 3518SOL     OW22015   3.602   1.275   7.759 -0.1176 -0.1192 -0.1066
 3518SOL    HW122016   3.691   1.242   7.767 -0.4467 -0.9224  0.2639
 3518SOL    HW222017   3.552   1.217   7.817  0.7351  1.0682  1.8225
 3519SOL     OW22018   0.620   1.184   4.167 -0.0276  0.0114 -0.2454
 3519SOL    HW122019   0.562   1.127   4.218 -0.4364  0.1943 -0.4981
 3519SOL    HW222020   0.567   1.196   4.088  1.0714 -2.1258 -1.3139
 3520SOL     OW22021   1.906   3.279   3.673  0.2611  0.7509  0.5692
 3520SOL    HW122022   1.826   3.302   3.625 -1.6411 -0.2704  3.2414
 3520SOL    HW222023   1.880   3.197   3.714  2.5861  0.2571  1.0257
 3521SOL     OW22024   2.674   2.231   6.043  0.6012  0.4759  0.3672
 3521SOL    HW122025   2.663   2.313   6.092 -1.8327  0.6388 -0.4963
 3521SOL    HW222026   2.713   2.268   5.964  1.0631  0.6182  0.6605
 3522SOL     OW22027   1.101   1.057   3.689  0.2132  0.3865  0.2664
 3522SOL    HW122028   1.147   1.004   3.754 -1.1210  0.3643  1.2174
 3522SOL    HW222029   1.079   1.135   3.741 -1.7205 -0.9511  1.4517
 3523SOL     OW22030   0.706   0.754   8.511  0.3166  0.2041 -0.2666
 3523SOL    HW122031   0.719   0.738   8.604  0.3207  0.8585 -0.1532
 3523SOL    HW222032   0.784   0.730   8.461  0.9901 -0.0345  0.9079
 3524SOL     OW22033   0.285   2.114   2.185 -0.2398 -0.7368 -0.4952
 3524SOL    HW122034   0.202   2.065   2.190 -0.0510 -0.6256  3.2450
 3524SOL    HW222035   0.258   2.205   2.196  1.4831 -0.0985 -1.6600
 3525SOL     OW22036   0.146   1.227   8.883 -0.0172  0.0423  0.2429
 3525SOL    HW122037   0.211   1.286   8.921 -0.7846 -0.0153  1.6109
 3525SOL    HW222038   0.072   1.284   8.858  0.4167 -0.1738 -1.5822
 3526SOL     OW22039   4.531   2.389   5.448  0.0773  0.1484  0.3620
 3526SOL    HW122040   4.576   2.317   5.403  1.8497  1.5209 -0.0507
 3526SOL    HW222041   4.521   2.459   5.383 -2.2690  0.3813  0.9548
 3527SOL     OW22042   4.182   2.679  10.919  0.2394  0.0589 -0.2260
 3527SOL    HW122043   4.236   2.748  10.956  2.1003 -0.8730 -1.1887
 3527SOL    HW222044   4.156   2.710  10.832  2.5019  1.5021 -0.3809
 3528SOL     OW22045   4.563   1.839  11.339 -1.3062  0.7031  0.7986
 3528SOL    HW122046   4.524   1.879  11.261 -0.5677  0.9224  0.5310
 3528SOL    HW222047   4.620   1.783  11.285 -1.7424  1.0634 -0.0299
 3529SOL     OW22048   3.266   0.523   6.562  0.2192  0.0494  0.0974
 3529SOL    HW122049   3.283   0.577   6.485  0.2596 -0.4099 -0.2127
 3529SOL    HW222050   3.344   0.538   6.616 -0.3142 -0.1970  0.9333
 3530SOL     OW22051   1.611   1.786  10.300 -0.2735  0.0644 -0.2257
 3530SOL    HW122052   1.626   1.837  10.380  2.5526 -1.5346  0.2585
 3530SOL    HW222053   1.531   1.745  10.333 -0.9346  0.0715 -1.8151
 3531SOL     OW22054   2.286   3.112  13.250  0.1435  0.2974 -0.2701
 3531SOL    HW122055   2.286   3.016  13.253  1.9993  0.2914 -0.4933
 3531SOL    HW222056   2.259   3.139  13.337  0.4807 -0.1242 -0.0329
 3532SOL     OW22057   3.845   0.725   3.205  0.1245  0.9869  0.4531
 3532SOL    HW122058   3.894   0.789   3.257  0.1918 -0.0932  1.6980
 3532SOL    HW222059   3.820   0.783   3.133  0.7055 -0.4830 -0.9258
 3533SOL     OW22060   0.378   3.330   3.431 -0.1981  0.3987  0.4169
 3533SOL    HW122061   0.445   3.341   3.364  0.0496 -1.2010  0.3975
 3533SOL    HW222062   0.425   3.350   3.511  0.3804 -3.3252  1.0175
 3534SOL     OW22063   4.239   0.972  15.222 -0.4794  0.0650 -0.6605
 3534SOL    HW122064   4.312   1.033  15.215 -0.5436  0.5487  3.0730
 3534SOL    HW222065   4.276   0.916  15.290  1.1849  1.4694 -0.4161
 3535SOL     OW22066   2.293   0.396   1.612  0.3025 -0.3463 -0.2498
 3535SOL    HW122067   2.334   0.323   1.565  2.2727 -0.3470  1.4923
 3535SOL    HW222068   2.360   0.464   1.617 -2.1259  2.0555 -0.4883
 3536SOL     OW22069   3.801   1.098   5.181  0.0762 -0.2344  0.3260
 3536SOL    HW122070   3.850   1.166   5.135  1.8722 -2.3274 -0.8282
 3536SOL    HW222071   3.728   1.151   5.215 -1.2191 -1.2555 -0.9043
 3537SOL     OW22072   3.986   1.892   4.076  0.0353 -0.0253  0.3232
 3537SOL    HW122073   3.997   1.884   4.171  1.3808  0.1201  0.1802
 3537SOL    HW222074   4.029   1.973   4.048 -0.3656 -0.3348 -1.2086
 3538SOL     OW22075   4.714   1.472   2.051  0.0011  0.4987 -0.4777
 3538SOL    HW122076   0.083   1.440   2.076  0.6955  1.5302 -1.6445
 3538SOL    HW222077   4.663   1.390   2.053  0.4112  0.2755  1.2390
 3539SOL     OW22078   1.891   3.437   8.396 -0.0270  0.1188 -0.3336
 3539SOL    HW122079   1.863   3.421   8.306 -0.4458  1.1904 -0.4023
 3539SOL    HW222080   1.982   3.457   8.375  0.3288 -2.1107 -0.8550
 3540SOL     OW22081   0.025   3.826   3.524  0.1148  0.2215 -0.0673
 3540SOL    HW122082   0.062   3.906   3.487 -0.9058  1.1284  0.8702
 3540SOL    HW222083   0.062   3.833   3.612 -1.3583 -0.2013  0.5870
 3541SOL     OW22084   0.111   0.395  13.002  0.2084  0.3050 -0.3363
 3541SOL    HW122085   0.170   0.331  13.041  1.3538  0.4629 -1.8048
 3541SOL    HW222086   0.163   0.413  12.924  0.4372 -2.1084 -0.7179
 3542SOL     OW22087   0.536   2.182   1.694 -0.3705  0.1904  0.3774
 3542SOL    HW122088   0.550   2.200   1.787  1.0607  1.6532 -0.1199
 3542SOL    HW222089   0.519   2.088   1.698 -0.2248 -0.0556 -4.1778
 3543SOL     OW22090   0.093   3.686  17.573  0.0302 -0.6148  0.3350
 3543SOL    HW122091   0.034   3.615  17.597 -0.7356  0.4018  1.4692
 3543SOL    HW222092   0.066   3.754  17.635 -0.8167 -0.9755  0.3602
 3544SOL     OW22093   1.449   2.363  11.355  0.4623 -0.0396 -0.0583
 3544SOL    HW122094   1.483   2.453  11.350  0.3879 -0.1413 -2.4521
 3544SOL    HW222095   1.360   2.383  11.326  1.4151  2.7454 -1.0889
 3545SOL     OW22096   2.885   3.305   8.033 -0.7171  0.1569  0.2490
 3545SOL    HW122097   2.805   3.262   8.062 -0.7033  1.0007  1.5302
 3545SOL    HW222098   2.952   3.237   8.040  0.0539  0.8365 -0.4702
 3546SOL     OW22099   2.922   0.114   1.417  0.0208 -0.4040 -0.1141
 3546SOL    HW122100   2.896   0.081   1.331  3.2865 -1.5658 -0.6630
 3546SOL    HW222101   2.977   0.177   1.370  0.7373 -0.5174  0.5638
 3547SOL     OW22102   1.477   3.867   2.405 -0.1688 -0.5433 -0.2946
 3547SOL    HW122103   1.518   3.809   2.469  0.1990 -1.3503 -1.2794
 3547SOL    HW222104   1.531   3.853   2.328  0.2341  1.3682 -0.3736
 3548SOL     OW22105   0.462   4.161  15.349 -0.4472  0.1106 -0.4754
 3548SOL    HW122106   0.486   4.132  15.437  1.8272  0.7351 -0.9011
 3548SOL    HW222107   0.498   4.248  15.360 -2.7797  0.9522  0.5417
 3549SOL     OW22108   3.514   2.519   6.615  0.4460 -0.1800  0.1626
 3549SOL    HW122109   3.534   2.475   6.698  2.0828  0.7747  0.2679
 3549SOL    HW222110   3.420   2.503   6.601  0.0320  2.4131 -0.0583
 3550SOL     OW22111   1.197   0.803   4.581 -0.3908  0.0836  0.1452
 3550SOL    HW122112   1.147   0.785   4.661  1.0107 -0.1997  0.9483
 3550SOL    HW222113   1.233   0.890   4.598 -0.8599  0.1489  0.8022
 3551SOL     OW22114   1.364   1.391  16.343 -0.1701 -0.2161  0.1507
 3551SOL    HW122115   1.342   1.455  16.411  1.0299  0.4415 -0.0948
 3551SOL    HW222116   1.401   1.449  16.277  0.8541 -1.0619 -0.0071
 3552SOL     OW22117   0.915   0.994   5.023 -0.3891  0.2149  0.6145
 3552SOL    HW122118   0.934   0.913   4.977  0.7605  1.2513 -0.7507
 3552SOL    HW222119   0.949   1.068   4.973  2.6575 -0.3050  1.8819
 3553SOL     OW22120   2.434   1.657   7.884  0.8512  0.2077 -0.2844
 3553SOL    HW122121   2.459   1.693   7.969  2.9027 -0.9674 -0.3911
 3553SOL    HW222122   2.515   1.668   7.834  1.2702  1.6609  0.7108
 3554SOL     OW22123   0.336   3.395   4.899 -0.2181 -0.0211 -0.5971
 3554SOL    HW122124   0.249   3.423   4.928  0.9585  2.1199  0.9116
 3554SOL    HW222125   0.357   3.463   4.835  0.3882  0.0485 -0.3283
 3555SOL     OW22126   2.405   0.798  10.526  0.0281  0.3149 -0.0769
 3555SOL    HW122127   2.496   0.816  10.502  0.0231 -0.9571 -1.0503
 3555SOL    HW222128   2.370   0.876  10.485 -0.6852 -1.7571 -3.3727
 3556SOL     OW22129   2.180   0.428   8.817 -0.4613 -0.1548  0.2333
 3556SOL    HW122130   2.156   0.472   8.899 -1.1773  0.1681 -0.1419
 3556SOL    HW222131   2.217   0.350   8.857 -0.2592 -0.0861  0.1779
 3557SOL     OW22132   2.214   2.572  17.491 -0.4842 -0.6286  0.2279
 3557SOL    HW122133   2.237   2.606  17.578  0.2393  0.6089 -0.4589
 3557SOL    HW222134   2.156   2.501  17.519 -1.0365 -0.7051 -1.1129
 3558SOL     OW22135   0.469   4.066  11.763  0.4480 -0.1840  0.1062
 3558SOL    HW122136   0.487   4.158  11.783 -1.5690  0.2537 -0.1187
 3558SOL    HW222137   0.474   4.058  11.667 -1.5069  1.7983 -0.1524
 3559SOL     OW22138   3.050   0.747   6.925 -0.3025 -0.2755  0.5522
 3559SOL    HW122139   3.065   0.673   6.865 -0.9311 -0.3880  0.5357
 3559SOL    HW222140   3.117   0.729   6.991 -0.8830 -0.6029  1.0512
 3560SOL     OW22141   3.684   2.092  15.454 -0.0636 -0.3494 -0.3412
 3560SOL    HW122142   3.656   2.103  15.363  0.1595 -0.2991 -0.4042
 3560SOL    HW222143   3.658   2.174  15.495 -2.3341 -2.3289  2.1651
 3561SOL     OW22144   3.692   4.551  10.697  0.7218  0.5192  0.5513
 3561SOL    HW122145   3.651   4.564  10.611  0.2766 -0.2611  0.6392
 3561SOL    HW222146   3.681   4.458  10.718 -1.4992  0.4851 -0.7238
 3562SOL     OW22147   0.013   3.417  15.064  0.4904  0.6609  0.2320
 3562SOL    HW122148   0.015   3.321  15.064 -2.8637  0.5866 -3.2358
 3562SOL    HW222149   0.075   3.439  15.133  0.4153  1.8896 -0.0959
 3563SOL     OW22150   2.045   0.560   5.857 -0.6620  0.0155  0.4656
 3563SOL    HW122151   1.979   0.491   5.860 -0.8701  0.0766 -2.9983
 3563SOL    HW222152   1.986   0.632   5.880  0.8333  1.3000  0.2305
 3564SOL     OW22153   1.653   1.936  13.935  0.0368 -0.2465  0.0177
 3564SOL    HW122154   1.696   2.021  13.924  1.3551 -1.4929 -4.5219
 3564SOL    HW222155   1.725   1.877  13.957  0.2277  0.9767  2.5975
 3565SOL     OW22156   4.682   1.148   2.543  0.1698  0.0192  0.2038
 3565SOL    HW122157   4.645   1.065   2.513 -2.0876  0.2540  2.3659
 3565SOL    HW222158   4.646   1.216   2.485 -1.1420 -1.7388 -1.0545
 3566SOL     OW22159   0.030   2.646   7.959  0.1967 -0.0207 -0.3952
 3566SOL    HW122160   0.015   2.577   8.023  0.1839 -1.0313 -1.4714
 3566SOL    HW222161   0.100   2.704   7.988 -0.7922  0.2596  1.3702
 3567SOL     OW22162   4.651   3.322  14.560 -0.0376  0.1570  0.4813
 3567SOL    HW122163   4.623   3.230  14.565 -0.5623  0.2891  0.0306
 3567SOL    HW222164   4.636   3.337  14.466  1.4129  0.2040  0.2526
 3568SOL     OW22165   0.326   1.924   7.422 -0.5764  0.0868  0.4174
 3568SOL    HW122166   0.351   1.846   7.373  0.7655  0.9359 -0.2626
 3568SOL    HW222167   0.405   1.967   7.456 -0.0524 -0.2650 -0.3601
 3569SOL     OW22168   4.622   1.772   3.530  0.0879 -0.1963 -0.5551
 3569SOL    HW122169   4.580   1.777   3.444 -5.8914 -0.2319  2.3408
 3569SOL    HW222170   4.663   1.858   3.521  1.7269 -0.7620  1.5619
 3570SOL     OW22171   0.774   1.148   8.056  0.0421 -0.4067 -0.4607
 3570SOL    HW122172   0.810   1.120   7.971 -0.0789 -1.6589 -0.1077
 3570SOL    HW222173   0.846   1.148   8.118  0.2227  0.1086 -0.6758
 3571SOL     OW22174   0.609   4.156   3.418 -0.5834 -0.0119  0.0680
 3571SOL    HW122175   0.532   4.171   3.364  0.0495  1.8423 -0.3199
 3571SOL    HW222176   0.678   4.195   3.364 -0.3645 -0.8743 -0.2898
 3572SOL     OW22177   2.145   3.832   2.359 -0.0974  0.0241  0.5022
 3572SOL    HW122178   2.222   3.776   2.365 -0.0863 -0.1859 -1.7956
 3572SOL    HW222179   2.180   3.918   2.336 -0.4692  0.0488  0.0390
 3573SOL     OW22180   2.148   3.542  16.886  0.3883 -0.8783 -0.4836
 3573SOL    HW122181   2.182   3.548  16.975 -0.0994  0.5275 -0.3872
 3573SOL    HW222182   2.077   3.481  16.907 -0.2285 -0.4074 -1.1748
 3574SOL     OW22183   0.068   0.935   8.280 -0.2548 -0.2696 -0.4203
 3574SOL    HW122184   0.089   0.857   8.331  1.0800  0.2905 -0.1082
 3574SOL    HW222185   0.144   0.987   8.306 -1.0820  0.9547 -0.4550
 3575SOL     OW22186   1.940   1.868   8.075  0.3433 -0.1214  0.1112
 3575SOL    HW122187   1.884   1.791   8.063  0.3851 -0.2447  0.7220
 3575SOL    HW222188   1.985   1.841   8.155 -1.2654  0.7225  1.2899
 3576SOL     OW22189   0.018   1.960   7.461 -0.6523  0.6461  0.0454
 3576SOL    HW122190   0.113   1.962   7.474 -0.5545 -0.1748 -0.5470
 3576SOL    HW222191   0.014   1.969   7.365  0.6164  0.5975 -0.0130
 3577SOL     OW22192   4.477   4.310  15.347 -0.5727  0.0375  0.4482
 3577SOL    HW122193   4.536   4.262  15.405  1.1690 -1.8625 -2.8667
 3577SOL    HW222194   4.465   4.388  15.400  0.7491  0.4766  0.0950
 3578SOL     OW22195   2.780   0.621   6.779 -0.4658 -0.3831 -0.7351
 3578SOL    HW122196   2.835   0.600   6.855  0.4805  0.8324 -1.0923
 3578SOL    HW222197   2.744   0.537   6.752 -0.0318 -0.7102 -0.3046
 3579SOL     OW22198   4.451   0.162   3.196 -0.0580  0.5691  0.1843
 3579SOL    HW122199   4.364   0.162   3.156 -0.0682 -1.4844  0.2105
 3579SOL    HW222200   4.463   0.068   3.206  0.6221  0.6849  0.4187
 3580SOL     OW22201   4.461   3.556   1.742  0.3719 -0.5212 -0.0567
 3580SOL    HW122202   4.530   3.509   1.788 -0.6365 -3.8696 -1.9756
 3580SOL    HW222203   4.431   3.495   1.674  0.0301 -1.1225  0.6444
 3581SOL     OW22204   0.888   0.273   4.432  0.6230 -0.3359 -0.1194
 3581SOL    HW122205   0.832   0.343   4.465  0.6126  0.2037 -1.2598
 3581SOL    HW222206   0.844   0.190   4.451  0.8733 -0.1746  1.1972
 3582SOL     OW22207   4.304   4.007   4.341  0.5113  0.1525 -0.1525
 3582SOL    HW122208   4.292   3.913   4.355 -3.3989  0.5994 -0.6260
 3582SOL    HW222209   4.340   4.029   4.427 -0.8688 -1.4139  0.8390
 3583SOL     OW22210   3.050   0.431   1.295  0.5707 -0.2652 -0.6534
 3583SOL    HW122211   3.121   0.419   1.232  0.1162 -1.4774 -0.9247
 3583SOL    HW222212   3.100   0.422   1.376 -2.0192 -0.5015  0.9117
 3584SOL     OW22213   2.410   4.683   8.081 -0.0469 -0.4428  0.7953
 3584SOL    HW122214   2.402   0.032   8.013 -2.2594 -0.4886  1.0252
 3584SOL    HW222215   2.489   4.633   8.057 -0.8295 -0.9980 -0.6265
 3585SOL     OW22216   0.328   2.591   5.369  0.2536  0.3828 -0.1676
 3585SOL    HW122217   0.258   2.529   5.350  0.6372  0.1032 -0.6945
 3585SOL    HW222218   0.320   2.629   5.282  2.7933 -1.4249 -1.1743
 3586SOL     OW22219   1.382   2.835   3.204 -0.5940  0.5210 -0.0818
 3586SOL    HW122220   1.340   2.786   3.133  2.4457 -3.4178  0.8662
 3586SOL    HW222221   1.338   2.783   3.272  1.0630 -0.3671  0.2924
 3587SOL     OW22222   1.467   0.457   2.735  0.3453  0.6870 -0.2279
 3587SOL    HW122223   1.465   0.375   2.785  0.7160 -0.8732 -2.7647
 3587SOL    HW222224   1.559   0.479   2.749  0.0789  2.7692 -1.8092
 3588SOL     OW22225   4.705   3.790  16.622  0.0571 -0.0102  0.2877
 3588SOL    HW122226   0.018   3.701  16.640  3.8546  1.2163 -0.1481
 3588SOL    HW222227   0.008   3.837  16.702 -0.2109  0.7116 -0.0716
 3589SOL     OW22228   2.360   3.264   7.328 -0.1216  0.3679  0.6935
 3589SOL    HW122229   2.344   3.176   7.295  0.2876  0.6144 -0.1471
 3589SOL    HW222230   2.392   3.241   7.416 -0.4325 -0.5513  0.5625
 3590SOL     OW22231   2.021   4.236   8.005 -1.2598  0.3379 -0.3492
 3590SOL    HW122232   2.114   4.258   8.009 -0.7052 -1.9236 -1.3410
 3590SOL    HW222233   2.007   4.258   8.097 -1.8447 -0.6371 -0.2148
 3591SOL     OW22234   0.765   2.035   6.062  0.0204  0.6999 -0.4755
 3591SOL    HW122235   0.859   2.026   6.076 -0.1390  2.3579  1.6413
 3591SOL    HW222236   0.725   1.986   6.135  0.9303  2.6716  1.3321
 3592SOL     OW22237   0.931   2.846  16.378 -1.0205 -0.2716 -0.1935
 3592SOL    HW122238   0.930   2.775  16.314 -0.4542  0.0167 -0.5251
 3592SOL    HW222239   0.923   2.791  16.456 -1.0697  0.5995  0.4284
 3593SOL     OW22240   4.679   1.405  14.720 -0.1705  0.1593 -0.2276
 3593SOL    HW122241   4.644   1.468  14.657 -0.0224 -1.5866 -2.0368
 3593SOL    HW222242   4.596   1.364  14.744 -1.3634  1.5663 -1.9605
 3594SOL     OW22243   2.686   2.766   6.212 -0.0251 -0.2128  0.3051
 3594SOL    HW122244   2.735   2.771   6.294 -0.0112 -0.0800  0.2880
 3594SOL    HW222245   2.601   2.740   6.247  0.1215  0.7314  1.3608
 3595SOL     OW22246   4.611   1.154   7.826  0.1854 -0.3598  0.3694
 3595SOL    HW122247   4.668   1.147   7.902  1.9955  1.6042 -0.8093
 3595SOL    HW222248   4.531   1.158   7.879  0.5177 -2.1382  0.9779
 3596SOL     OW22249   2.975   4.494   4.088  0.6022  0.1428  0.0101
 3596SOL    HW122250   3.022   4.438   4.026  1.8230 -1.5935  2.5228
 3596SOL    HW222251   3.001   4.456   4.172 -0.4441  1.2074  0.8203
 3597SOL     OW22252   3.255   2.267   5.695  0.5206  0.4918 -0.8093
 3597SOL    HW122253   3.221   2.356   5.685 -4.3580 -1.0030  2.0626
 3597SOL    HW222254   3.209   2.217   5.627 -0.9443 -0.3764  0.8034
 3598SOL     OW22255   3.787   4.491   1.203  0.2048 -0.4277 -0.1884
 3598SOL    HW122256   3.774   4.584   1.185 -0.5384 -0.2477  1.3114
 3598SOL    HW222257   3.798   4.457   1.114 -1.0470  0.7006 -0.7693
 3599SOL     OW22258   2.381   0.491   0.600  0.0573 -0.2761  0.0769
 3599SOL    HW122259   2.298   0.453   0.628  0.8699 -3.1648 -1.3358
 3599SOL    HW222260   2.413   0.523   0.684 -0.5644  2.0130 -0.5624
 3600SOL     OW22261   0.251   1.893   6.747 -0.5683 -0.3452 -0.3812
 3600SOL    HW122262   0.344   1.872   6.754 -0.2751  0.8983 -0.5609
 3600SOL    HW222263   0.258   1.984   6.774 -0.6785 -0.1161 -1.1445
 3601SOL     OW22264   2.257   2.346   6.725 -0.1155  0.0070 -0.0635
 3601SOL    HW122265   2.283   2.297   6.804  0.7378  0.7695  0.1342
 3601SOL    HW222266   2.251   2.278   6.658 -0.5131 -2.4008  2.4086
 3602SOL     OW22267   3.365   1.107  16.666  0.8943  0.1942  0.2016
 3602SOL    HW122268   3.282   1.077  16.629  0.3433  0.9622  0.8122
 3602SOL    HW222269   3.379   1.043  16.737  0.0593 -0.8103 -0.5438
 3603SOL     OW22270   2.635   2.883   8.333 -0.6283  0.3638  0.0361
 3603SOL    HW122271   2.651   2.853   8.244 -0.3096  0.1146  0.1759
 3603SOL    HW222272   2.567   2.822   8.365  0.4460 -0.2398  1.1789
 3604SOL     OW22273   0.227   2.240   5.027  0.4852 -0.3350 -0.5613
 3604SOL    HW122274   0.236   2.323   4.980 -0.4992 -0.1280 -0.3740
 3604SOL    HW222275   0.252   2.179   4.957  2.8988  1.5322 -1.3343
 3605SOL     OW22276   4.397   0.616   7.650  0.1342  0.6098  0.4422
 3605SOL    HW122277   4.415   0.681   7.718  0.4612 -0.3788  1.3214
 3605SOL    HW222278   4.303   0.620   7.632 -0.1558 -1.6035  1.4607
 3606SOL     OW22279   0.374   0.461  17.520 -0.0898 -0.0199 -1.0006
 3606SOL    HW122280   0.408   0.434  17.605  0.7087  0.3574 -1.1974
 3606SOL    HW222281   0.280   0.456  17.532  0.0783 -0.0284  0.2519
 3607SOL     OW22282   1.823   2.720   5.812 -0.5508  0.4250  0.1271
 3607SOL    HW122283   1.839   2.812   5.792  1.6393  0.1503  0.6064
 3607SOL    HW222284   1.835   2.713   5.907  0.6241  1.1068  0.0200
 3608SOL     OW22285   2.149   3.678   6.401  0.3188 -0.1253  0.4190
 3608SOL    HW122286   2.078   3.739   6.423  0.4425  0.3301 -0.4412
 3608SOL    HW222287   2.192   3.670   6.486  0.1305 -1.3025  0.3934
 3609SOL     OW22288   3.182   3.423   5.386 -0.4457  0.5217 -0.0558
 3609SOL    HW122289   3.214   3.395   5.300 -0.0164 -0.3548  0.3935
 3609SOL    HW222290   3.216   3.351   5.440 -4.1322 -0.6955  0.6017
 3610SOL     OW22291   0.499   2.501  17.456 -0.2967 -0.7699  0.4362
 3610SOL    HW122292   0.566   2.464  17.398  0.4131 -0.8539  1.3143
 3610SOL    HW222293   0.500   2.594  17.433 -0.2689 -0.4779  1.6306
 3611SOL     OW22294   2.813   4.437  12.521  0.1346  0.2478  0.0775
 3611SOL    HW122295   2.861   4.463  12.443 -1.1134  1.4843 -0.2694
 3611SOL    HW222296   2.853   4.350  12.529  0.6123  0.4101 -0.5810
 3612SOL     OW22297   0.222   0.514   0.649 -0.0696  0.3922  0.2586
 3612SOL    HW122298   0.144   0.458   0.646  1.1708 -1.2223 -1.7185
 3612SOL    HW222299   0.220   0.550   0.738 -1.3353 -0.9197  0.7662
 3613SOL     OW22300   3.462   3.107  10.636  0.3629  0.1613  0.9261
 3613SOL    HW122301   3.556   3.099  10.622  0.5680  0.7113  1.9745
 3613SOL    HW222302   3.423   3.041  10.579  0.7845 -0.1639  1.0168
 3614SOL     OW22303   1.168   2.407   6.912 -0.2576 -0.1107 -0.2888
 3614SOL    HW122304   1.147   2.436   6.823 -2.7182  0.9770  0.6546
 3614SOL    HW222305   1.081   2.387   6.945  0.7896 -2.6228  0.9609
 3615SOL     OW22306   1.370   3.736  11.865 -0.2372  0.2010  0.1459
 3615SOL    HW122307   1.318   3.720  11.944 -0.2111  0.3393  0.1908
 3615SOL    HW222308   1.414   3.818  11.889  2.4718 -1.3232  0.4137
 3616SOL     OW22309   3.930   1.249   5.662 -0.1606  0.3087 -0.3673
 3616SOL    HW122310   4.022   1.266   5.643  0.9182 -2.8444  1.9328
 3616SOL    HW222311   3.903   1.191   5.591 -0.0941  0.8355 -0.8173
 3617SOL     OW22312   2.622   2.530   7.602  0.3582  0.3011  0.5612
 3617SOL    HW122313   2.711   2.521   7.566  0.7263  1.5779  1.1586
 3617SOL    HW222314   2.608   2.435   7.610 -0.8103  0.3541 -1.0002
 3618SOL     OW22315   4.521   0.879   4.530  0.3423 -0.0238 -0.0986
 3618SOL    HW122316   4.562   0.864   4.445  4.5722 -0.3702  1.9797
 3618SOL    HW222317   4.465   0.802   4.540 -2.6353  2.5323  2.9219
 3619SOL     OW22318   0.963   1.272  11.146  0.3739 -0.1548 -0.1036
 3619SOL    HW122319   0.939   1.261  11.238  1.4629  1.1139  0.3390
 3619SOL    HW222320   1.057   1.294  11.144  0.3315  0.3302  4.7642
 3620SOL     OW22321   2.411   3.220  14.911 -0.2135  0.2455  0.5091
 3620SOL    HW122322   2.330   3.170  14.898 -0.2134  0.7441 -1.5208
 3620SOL    HW222323   2.470   3.168  14.966 -0.0954 -0.3716 -0.1923
 3621SOL     OW22324   1.314   1.504   6.857  0.3608  0.3357  0.0141
 3621SOL    HW122325   1.350   1.425   6.817  0.2796  0.6082 -0.6033
 3621SOL    HW222326   1.373   1.567   6.815 -0.3749  0.0185 -1.5031
 3622SOL     OW22327   4.319   0.262   2.944  0.5626 -0.2467  0.1443
 3622SOL    HW122328   4.379   0.332   2.971  1.1803 -0.9911  0.7193
 3622SOL    HW222329   4.366   0.210   2.878 -2.2068  1.1685 -2.9473
 3623SOL     OW22330   0.904   1.262  10.855  0.4103 -1.1066 -0.2086
 3623SOL    HW122331   0.921   1.291  10.945  0.9182 -2.2816  0.0718
 3623SOL    HW222332   0.870   1.176  10.880 -2.7282  0.3577  0.5050
 3624SOL     OW22333   4.408   3.038   5.378  0.0818  0.2906 -0.0112
 3624SOL    HW122334   4.463   3.003   5.449  0.2926 -0.8562 -0.7422
 3624SOL    HW222335   4.338   3.078   5.429  0.0550  2.3964 -1.6887
 3625SOL     OW22336   0.747   4.029   7.125 -0.3334  0.2623  0.6352
 3625SOL    HW122337   0.764   3.935   7.113  1.6615  0.6787  0.2805
 3625SOL    HW222338   0.676   4.028   7.189  0.7277  0.6326  1.8147
 3626SOL     OW22339   4.138   4.178   7.325  0.2008 -0.2279  0.6406
 3626SOL    HW122340   4.083   4.116   7.372 -2.3281  1.9011  0.4625
 3626SOL    HW222341   4.099   4.170   7.238  1.4705 -0.5789  0.0996
 3627SOL     OW22342   0.285   2.654  10.639 -0.3640  0.0188  0.8555
 3627SOL    HW122343   0.214   2.718  10.645 -0.8608 -0.6058  1.7009
 3627SOL    HW222344   0.349   2.705  10.589 -0.1353 -0.6674  0.4488
 3628SOL     OW22345   0.843   3.243   0.686  0.5365 -0.3080 -0.5193
 3628SOL    HW122346   0.800   3.326   0.707  0.4388 -0.2642 -0.9019
 3628SOL    HW222347   0.898   3.273   0.614 -0.9704 -0.4238 -1.7050
 3629SOL     OW22348   1.863   0.153  16.592 -0.4447 -0.0386  0.3793
 3629SOL    HW122349   1.937   0.163  16.532 -0.9369  0.0467 -0.2182
 3629SOL    HW222350   1.828   0.066  16.574 -0.4688  0.0160  0.1554
 3630SOL     OW22351   0.504   1.399   8.614 -0.0601  0.3399 -0.7667
 3630SOL    HW122352   0.497   1.304   8.621 -2.1874  0.3871 -2.1246
 3630SOL    HW222353   0.434   1.432   8.670  0.5635 -0.1432  0.3037
 3631SOL     OW22354   3.800   3.771   8.253 -1.2186 -0.0343  0.5573
 3631SOL    HW122355   3.881   3.822   8.264  0.3059 -2.4287  0.5472
 3631SOL    HW222356   3.831   3.692   8.298  2.1578  0.5906 -0.6854
 3632SOL     OW22357   0.526   3.632  12.344 -0.0173  0.1504  0.2009
 3632SOL    HW122358   0.621   3.645  12.346 -0.2286  1.6602  0.4869
 3632SOL    HW222359   0.498   3.712  12.389  0.4886  0.2222  0.3931
 3633SOL     OW22360   3.131   0.458   3.427  0.7643 -0.5981 -0.1759
 3633SOL    HW122361   3.105   0.549   3.444 -1.8376 -1.1190 -1.2820
 3633SOL    HW222362   3.188   0.438   3.501  1.0732 -0.4679 -0.3808
 3634SOL     OW22363   2.913   0.967   4.579 -0.1094 -0.1903 -0.2019
 3634SOL    HW122364   2.964   0.915   4.640  0.7412  0.0480 -0.6992
 3634SOL    HW222365   2.922   1.053   4.621 -1.0640 -1.0417  1.7168
 3635SOL     OW22366   2.843   4.373   4.852  0.4352 -0.3139 -0.2852
 3635SOL    HW122367   2.857   4.355   4.759  1.9931 -0.4856 -0.0141
 3635SOL    HW222368   2.903   4.447   4.861 -1.7833  1.6629 -1.3860
 3636SOL     OW22369   3.947   4.023  17.044  0.4684  0.4216 -0.2152
 3636SOL    HW122370   4.009   3.970  16.993  0.8671 -0.6019  1.3376
 3636SOL    HW222371   3.945   3.991  17.134  2.0534 -0.1582 -0.3899
 3637SOL     OW22372   3.272   0.412  15.889  0.4716 -0.1787  0.2019
 3637SOL    HW122373   3.225   0.415  15.806  0.0697 -1.5888  0.3781
 3637SOL    HW222374   3.306   0.500  15.909 -1.9340  0.0627  3.2361
 3638SOL     OW22375   2.573   2.050   8.576 -0.0330 -0.0090  0.2129
 3638SOL    HW122376   2.575   2.125   8.635 -0.0989 -1.3867  1.9625
 3638SOL    HW222377   2.645   1.997   8.610 -1.0518 -1.1427  0.6260
 3639SOL     OW22378   2.296   3.654   8.180 -0.1563 -0.0765  0.0989
 3639SOL    HW122379   2.384   3.688   8.198 -1.3691  2.9761  0.2828
 3639SOL    HW222380   2.246   3.665   8.261 -0.5776 -2.5578  0.1783
 3640SOL     OW22381   0.056   2.199   6.050  0.0073 -0.4588  0.7073
 3640SOL    HW122382   4.711   2.179   6.119  1.9691 -0.1026  2.6042
 3640SOL    HW222383   0.140   2.204   6.096  0.5996 -0.9047 -0.3236
 3641SOL     OW22384   3.378   2.754   2.478 -0.3423  0.3495 -0.0314
 3641SOL    HW122385   3.372   2.662   2.506  0.5221 -0.1589 -1.5383
 3641SOL    HW222386   3.389   2.731   2.386 -2.7705 -0.2289 -0.1761
 3642SOL     OW22387   3.814   0.990   2.051 -0.2283 -0.0536 -0.0763
 3642SOL    HW122388   3.855   1.063   2.004 -1.6767 -0.4176 -1.8928
 3642SOL    HW222389   3.808   0.925   1.981  0.9714  1.3582 -1.5013
 3643SOL     OW22390   3.798   4.452   8.745 -0.2370  0.4740  0.1310
 3643SOL    HW122391   3.732   4.492   8.800  1.4209  0.2726  2.2942
 3643SOL    HW222392   3.755   4.368   8.726  1.5748 -0.3614 -0.3518
 3644SOL     OW22393   3.992   2.395   7.950 -0.5637  0.5183 -0.5028
 3644SOL    HW122394   4.085   2.404   7.930 -0.1007 -1.4618  0.7270
 3644SOL    HW222395   3.989   2.339   8.027 -0.3162  3.0089  1.3119
 3645SOL     OW22396   0.357   4.350   3.059  0.2064 -0.4568 -0.7545
 3645SOL    HW122397   0.358   4.286   2.988 -0.5873 -1.5651  0.2242
 3645SOL    HW222398   0.267   4.378   3.046  0.3127  1.8726  3.3365
 3646SOL     OW22399   3.882   2.713   8.434 -0.1813  0.7008  0.1111
 3646SOL    HW122400   3.865   2.719   8.528  1.5678  4.2625  0.1986
 3646SOL    HW222401   3.849   2.797   8.401  0.5140  1.3842  1.1761
 3647SOL     OW22402   4.525   1.926   7.039 -0.0282 -0.6174  0.4365
 3647SOL    HW122403   4.505   1.833   7.047 -3.2744 -0.0058 -0.7777
 3647SOL    HW222404   4.437   1.961   7.046 -0.7822 -2.4378  0.0429
 3648SOL     OW22405   4.579   3.575   3.557  0.0397  0.0702  0.3403
 3648SOL    HW122406   4.648   3.641   3.547 -2.1300  1.8101 -3.2909
 3648SOL    HW222407   4.608   3.520   3.630 -0.0211 -1.1477 -0.5732
 3649SOL     OW22408   4.682   0.874   6.379 -0.7355  0.0566 -0.4209
 3649SOL    HW122409   4.695   0.968   6.372  0.4461 -0.2055 -1.7724
 3649SOL    HW222410   4.614   0.866   6.313  0.1563 -1.6890 -1.1401
 3650SOL     OW22411   4.490   0.510   2.654  0.2095 -0.3474  0.4823
 3650SOL    HW122412   4.560   0.523   2.590  0.7678 -1.1235  0.9237
 3650SOL    HW222413   4.535   0.477   2.732  3.3283  0.0587 -1.1105
 3651SOL     OW22414   2.291   1.101   5.578  0.0081  0.7257 -0.0118
 3651SOL    HW122415   2.356   1.131   5.515  2.0399  1.6397  2.5391
 3651SOL    HW222416   2.338   1.031   5.623 -2.3659  0.0619  1.4542
 3652SOL     OW22417   0.435   1.008   8.050  0.0939 -0.0827 -0.2093
 3652SOL    HW122418   0.495   0.948   8.094 -0.3562  0.0335  0.5598
 3652SOL    HW222419   0.367   0.948   8.020  0.0847  0.6266 -1.6399
 3653SOL     OW22420   2.043   3.320  16.628  0.0303 -0.5273 -0.4643
 3653SOL    HW122421   1.955   3.337  16.594 -1.5069 -3.2905  2.1243
 3653SOL    HW222422   2.040   3.356  16.716 -3.2804 -1.4819 -0.2057
 3654SOL     OW22423   0.068   2.064  12.350  0.2033  0.7384  0.1354
 3654SOL    HW122424   0.068   2.157  12.328  1.9147  1.4577  3.0673
 3654SOL    HW222425   0.002   2.052  12.418  0.1994  0.5562  0.1004
 3655SOL     OW22426   4.080   3.679  16.757 -0.2261 -0.1195 -0.3055
 3655SOL    HW122427   4.069   3.592  16.796 -0.7300  0.2814  0.4530
 3655SOL    HW222428   3.995   3.682  16.714 -1.7488  0.3248  2.7171
 3656SOL     OW22429   4.636   4.273   5.343  0.0259 -0.1432  0.4933
 3656SOL    HW122430   4.668   4.205   5.403  1.8978 -1.1850 -1.6943
 3656SOL    HW222431   4.544   4.258   5.362 -0.6530  1.6655 -1.4235
 3657SOL     OW22432   1.316   1.814  12.864  0.1059 -0.1380 -0.1818
 3657SOL    HW122433   1.347   1.829  12.953 -2.2988  1.5869  0.3430
 3657SOL    HW222434   1.251   1.883  12.852  0.0834  0.1457  1.5810
 3658SOL     OW22435   1.502   0.179   3.147  0.0415  0.0832 -0.2464
 3658SOL    HW122436   1.466   0.235   3.216 -0.2639  0.9341 -1.0957
 3658SOL    HW222437   1.531   0.113   3.211 -0.4087  0.0770 -0.0503
 3659SOL     OW22438   3.686   4.191  12.053 -0.5063 -0.0183 -0.3132
 3659SOL    HW122439   3.732   4.112  12.026  2.0834  1.6173 -0.6024
 3659SOL    HW222440   3.709   4.191  12.145  1.6268  1.3182 -0.8602
 3660SOL     OW22441   4.218   4.216   0.010 -0.4671  0.2480 -0.3194
 3660SOL    HW122442   4.171   4.164  17.622 -0.4604  1.1161 -1.0253
 3660SOL    HW222443   4.150   4.241   0.073  1.4309 -0.0969  1.8908
 3661SOL     OW22444   0.510   3.144   0.564  0.3106  0.4660 -0.0736
 3661SOL    HW122445   0.510   3.093   0.483  1.3115 -1.7529  1.3347
 3661SOL    HW222446   0.584   3.202   0.549  1.6808 -1.1950  0.2998
 3662SOL     OW22447   1.010   0.666   3.268 -0.1729  0.2635 -0.6410
 3662SOL    HW122448   0.991   0.742   3.322 -2.0298 -0.9886  0.4870
 3662SOL    HW222449   1.036   0.715   3.190  0.3015  0.0355 -0.6249
 3663SOL     OW22450   2.431   2.054   3.807 -0.1810 -0.1443  0.7275
 3663SOL    HW122451   2.359   2.117   3.808  0.4331  0.5741  0.1299
 3663SOL    HW222452   2.453   2.060   3.900  2.1064  0.3446  0.1567
 3664SOL     OW22453   3.342   4.678  17.124 -0.1765  0.0152 -0.2635
 3664SOL    HW122454   3.329   0.018  17.049 -3.5837 -1.1194 -0.5526
 3664SOL    HW222455   3.423   0.001  17.155 -1.5697  2.3083  0.2896
 3665SOL     OW22456   2.390   3.213   4.971 -0.2561 -0.2286  0.0294
 3665SOL    HW122457   2.479   3.213   4.935 -0.5393 -1.9801 -0.6669
 3665SOL    HW222458   2.345   3.163   4.903  0.0079 -1.0115  0.4289
 3666SOL     OW22459   4.432   4.189   2.634  0.2176 -0.8167 -0.3195
 3666SOL    HW122460   4.367   4.254   2.660 -0.0801 -1.0316 -0.5167
 3666SOL    HW222461   4.437   4.130   2.709  0.8208  0.0824  0.3494
 3667SOL     OW22462   4.372   3.666   3.735 -0.3852 -0.0983  0.3939
 3667SOL    HW122463   4.287   3.632   3.704 -0.1586 -1.5487  1.3964
 3667SOL    HW222464   4.411   3.679   3.648 -0.8790 -0.6034  0.0920
 3668SOL     OW22465   3.521   1.913   3.656 -0.0485  0.6337 -0.3258
 3668SOL    HW122466   3.469   1.839   3.624  0.1858  0.3399 -0.0332
 3668SOL    HW222467   3.609   1.876   3.656 -1.2711 -2.2757 -0.1364
 3669SOL     OW22468   2.832   3.491   4.832 -0.8200 -0.3208  0.2327
 3669SOL    HW122469   2.738   3.472   4.837 -0.8403 -0.9021 -2.5764
 3669SOL    HW222470   2.822   3.582   4.806 -2.6312 -0.4831  0.3881
 3670SOL     OW22471   1.378   4.189   5.052 -0.1748  0.1018 -0.1153
 3670SOL    HW122472   1.377   4.285   5.056 -0.4168  0.1602 -1.4795
 3670SOL    HW222473   1.338   4.181   5.139  0.2595  1.9138  0.2617
 3671SOL     OW22474   4.577   3.688   3.229  0.1430  0.5095  0.3362
 3671SOL    HW122475   4.505   3.657   3.175  0.6630 -1.9968  1.0559
 3671SOL    HW222476   4.542   3.652   3.311 -1.0104  1.0078  0.0652
 3672SOL     OW22477   3.244   3.310   2.949  0.1836 -0.2656  0.3920
 3672SOL    HW122478   3.194   3.390   2.965  1.8819  0.7232  0.7407
 3672SOL    HW222479   3.168   3.255   2.929 -0.1127  0.2348  0.1560
 3673SOL     OW22480   2.558   4.030   2.602 -0.3999  0.5292  0.2647
 3673SOL    HW122481   2.592   4.053   2.516  0.8641 -0.7280  0.4312
 3673SOL    HW222482   2.562   3.934   2.600  0.8337  0.5989 -0.3986
 3674SOL     OW22483   1.486   3.140   3.422  0.0587  0.0060  0.1734
 3674SOL    HW122484   1.391   3.131   3.418  0.0527 -0.0474  0.4320
 3674SOL    HW222485   1.507   3.128   3.329  2.0970 -0.7476  0.7167
 3675SOL     OW22486   1.639   3.094   0.181  0.0577  0.4110 -0.9519
 3675SOL    HW122487   1.669   3.183   0.166 -1.9906  1.2745  0.0335
 3675SOL    HW222488   1.720   3.059   0.217 -0.3416  0.0523 -0.3936
 3676SOL     OW22489   1.541   2.750   5.843 -0.2629 -1.0872 -0.4177
 3676SOL    HW122490   1.476   2.727   5.777 -0.8340 -0.4236 -0.0988
 3676SOL    HW222491   1.600   2.678   5.823 -2.1326 -3.0099  0.9405
 3677SOL     OW22492   4.195   3.638   8.041  0.0497 -0.1435  0.4510
 3677SOL    HW122493   4.225   3.610   8.128 -1.1748  0.6041  1.1134
 3677SOL    HW222494   4.106   3.604   8.034  0.4669 -1.4765  1.5726
 3678SOL     OW22495   3.528   0.151   3.386  0.3688 -0.1488  0.0615
 3678SOL    HW122496   3.454   0.090   3.381  1.9589 -2.1424  1.2142
 3678SOL    HW222497   3.567   0.134   3.300  0.2947 -1.5186  0.2948
 3679SOL     OW22498   1.778   0.580   6.978  0.4676  0.8795 -0.1641
 3679SOL    HW122499   1.792   0.661   7.028 -0.2805  1.2156 -0.5080
 3679SOL    HW222500   1.866   0.542   6.979 -0.1239 -0.4846 -1.7003
 3680SOL     OW22501   3.332   0.758   2.534  0.6699  0.2677  0.5232
 3680SOL    HW122502   3.397   0.782   2.600  0.2089  0.1760  1.0109
 3680SOL    HW222503   3.257   0.766   2.593  1.0133  3.6407  0.4892
 3681SOL     OW22504   3.350   1.491  14.582 -0.6836  0.0415  0.4279
 3681SOL    HW122505   3.377   1.410  14.539  2.8749  1.0164  0.8762
 3681SOL    HW222506   3.415   1.499  14.652 -1.9178  0.7541  1.4954
 3682SOL     OW22507   0.455   1.031   8.855  0.2186 -0.4801 -0.3184
 3682SOL    HW122508   0.447   0.936   8.848  3.3803 -0.6761 -1.1505
 3682SOL    HW222509   0.365   1.051   8.883  0.2954  1.0172 -1.1264
 3683SOL     OW22510   0.350   3.256   8.977  0.9437  0.1808  1.0898
 3683SOL    HW122511   0.342   3.165   8.949  0.7798 -0.0238  1.8162
 3683SOL    HW222512   0.285   3.286   8.913  2.4029 -0.9705 -0.9385
 3684SOL     OW22513   4.571   3.915   2.686  0.2765  0.3488  0.7805
 3684SOL    HW122514   4.597   3.832   2.726  0.2222  0.4864  1.1070
 3684SOL    HW222515   4.556   3.897   2.594  0.5775  0.9771  0.6099
 3685SOL     OW22516   2.090   2.049   7.930 -0.1776 -0.3100  0.5267
 3685SOL    HW122517   2.066   1.983   7.995 -0.2457  1.5421  2.3873
 3685SOL    HW222518   2.021   2.113   7.941  1.0206  1.4012 -2.0319
 3686SOL     OW22519   4.305   2.370   0.502 -0.1262  0.1195  0.2814
 3686SOL    HW122520   4.289   2.340   0.592 -0.3627 -1.2051 -0.2183
 3686SOL    HW222521   4.268   2.297   0.453  0.2062 -0.6734  1.2091
 3687SOL     OW22522   3.205   0.357   9.463 -0.0436 -0.9221  0.6057
 3687SOL    HW122523   3.118   0.342   9.502  0.5348 -1.8487  1.5409
 3687SOL    HW222524   3.188   0.305   9.384 -0.7341  1.5442 -0.8707
 3688SOL     OW22525   2.868   0.082   8.041  0.4431  0.4752 -0.5104
 3688SOL    HW122526   2.827   0.164   8.071 -0.6706  0.2630 -1.4780
 3688SOL    HW222527   2.962   0.102   8.039  0.4614  0.5558  0.6608
 3689SOL     OW22528   3.138   4.013  10.920 -0.2223 -0.2046 -0.1304
 3689SOL    HW122529   3.165   4.067  10.994 -3.1869  1.0512  0.0166
 3689SOL    HW222530   3.202   3.943  10.925  0.6169  0.5924  0.3663
 3690SOL     OW22531   3.841   2.922   5.278  0.0852 -0.0069 -0.4404
 3690SOL    HW122532   3.797   2.943   5.361  1.4469  1.4895 -0.0719
 3690SOL    HW222533   3.867   3.014   5.264 -2.2396  0.8691  1.0176
 3691SOL     OW22534   3.496   4.248   1.094 -0.4045  0.6714 -0.2273
 3691SOL    HW122535   3.543   4.226   1.174  0.3194  1.2301 -0.5048
 3691SOL    HW222536   3.562   4.220   1.030  1.2568 -0.8420  2.1907
 3692SOL     OW22537   2.750   1.985   9.656 -0.0043 -0.3769 -0.3598
 3692SOL    HW122538   2.726   1.943   9.573 -1.3148  0.3064 -0.3233
 3692SOL    HW222539   2.669   2.024   9.688  0.7765  1.5123 -0.7072
 3693SOL     OW22540   2.812   1.347   8.141  0.2914  0.2768  0.2271
 3693SOL    HW122541   2.812   1.405   8.218 -1.8134  2.2028 -1.2501
 3693SOL    HW222542   2.906   1.352   8.124  0.1388  0.8079 -0.4215
 3694SOL     OW22543   3.519   0.327   6.926 -0.0354 -0.1115  0.4205
 3694SOL    HW122544   3.492   0.307   7.016  0.7458  0.8549  0.8693
 3694SOL    HW222545   3.464   0.259   6.886 -1.7601 -0.7973  3.9574
 3695SOL     OW22546   3.367   0.830   4.899  0.1736 -0.0731 -0.3861
 3695SOL    HW122547   3.388   0.921   4.919 -1.1338 -0.2227  1.7160
 3695SOL    HW222548   3.408   0.790   4.977 -0.0094 -0.1056 -0.3077
 3696SOL     OW22549   3.868   2.993  14.722 -0.0232 -0.1916 -0.2447
 3696SOL    HW122550   3.856   3.011  14.815  0.5469 -1.4524  0.0635
 3696SOL    HW222551   3.808   3.056  14.682  0.4799  0.1382 -0.4816
 3697SOL     OW22552   0.778   2.988   7.613  0.2193  0.1820  0.0186
 3697SOL    HW122553   0.693   3.028   7.592  0.7755  1.4731  0.2085
 3697SOL    HW222554   0.747   2.902   7.642  0.5146 -0.1530 -0.6736
 3698SOL     OW22555   0.338   3.800   3.266 -0.1405 -0.6125  0.4253
 3698SOL    HW122556   0.348   3.706   3.252 -0.2420 -0.2992 -1.6425
 3698SOL    HW222557   0.261   3.811   3.210  0.7953  0.8966 -0.5402
 3699SOL     OW22558   1.785   1.310   8.438  0.2637 -0.2222 -0.2316
 3699SOL    HW122559   1.769   1.404   8.448  1.0209 -0.2631  1.2948
 3699SOL    HW222560   1.838   1.279   8.511  0.7816 -0.5604 -0.7428
 3700SOL     OW22561   0.223   0.149  13.913  0.0251  1.0118  0.5134
 3700SOL    HW122562   0.296   0.121  13.859 -0.4250  1.0524 -0.1155
 3700SOL    HW222563   0.157   0.082  13.897 -0.7439  1.9563 -0.2595
 3701SOL     OW22564   4.636   3.681   6.903 -0.1748  0.3477  0.2180
 3701SOL    HW122565   4.551   3.679   6.857 -0.8107  2.0176  1.3285
 3701SOL    HW222566   4.664   3.769   6.877  1.1648 -0.2661 -0.4137
 3702SOL     OW22567   1.917   2.464   8.551 -0.1599  0.0295  0.1406
 3702SOL    HW122568   1.943   2.469   8.459 -0.9755 -3.6702 -0.2779
 3702SOL    HW222569   2.005   2.462   8.589  0.7946  0.3932 -2.0742
 3703SOL     OW22570   1.303   4.156   8.816 -0.0138  0.1521 -0.0189
 3703SOL    HW122571   1.364   4.152   8.890  1.0035  0.4836 -0.8497
 3703SOL    HW222572   1.296   4.068   8.780 -0.5669  0.2911 -0.2481
 3704SOL     OW22573   0.177   3.320   8.803  0.3118 -0.6058 -0.0681
 3704SOL    HW122574   0.131   3.377   8.864 -0.9312 -1.1769 -0.4564
 3704SOL    HW222575   0.112   3.279   8.745  0.2851 -0.1445 -0.3684
 3705SOL     OW22576   0.076   1.874  11.053 -0.7680  0.4015  0.3307
 3705SOL    HW122577   0.032   1.794  11.081  0.9257  0.1138  2.1801
 3705SOL    HW222578   0.028   1.893  10.972  2.5426 -0.8542 -1.9341
 3706SOL     OW22579   3.642   0.179   1.614 -0.1795  0.0850  0.1077
 3706SOL    HW122580   3.634   0.135   1.699 -0.8810 -1.3207 -0.6951
 3706SOL    HW222581   3.644   0.106   1.552  1.2593  0.2916 -0.0761
 3707SOL     OW22582   1.390   0.816   6.136 -0.1236 -0.7781  0.1976
 3707SOL    HW122583   1.474   0.849   6.103 -0.3211  2.7951  3.3467
 3707SOL    HW222584   1.353   0.774   6.058 -1.0588  3.1237 -1.4471
 3708SOL     OW22585   1.362   0.696   9.725  0.2667 -0.0012 -0.3613
 3708SOL    HW122586   1.302   0.664   9.792 -2.1217  0.4912 -2.2414
 3708SOL    HW222587   1.384   0.779   9.768  0.9284 -0.9572  1.1499
 3709SOL     OW22588   2.311   3.100   6.319 -0.9800  0.0968 -0.0458
 3709SOL    HW122589   2.309   3.194   6.303  3.3230 -0.2468 -2.4898
 3709SOL    HW222590   2.387   3.081   6.264 -0.4287  0.7585  0.5062
 3710SOL     OW22591   3.040   1.281   8.552  0.1932 -0.1474 -0.0915
 3710SOL    HW122592   3.130   1.296   8.579 -0.0880  0.4653  0.5040
 3710SOL    HW222593   2.990   1.258   8.630  1.1238 -0.4484  0.4105
 3711SOL     OW22594   2.569   2.532   8.873 -0.2239 -0.8149 -0.0388
 3711SOL    HW122595   2.654   2.565   8.844 -0.7692  0.4850 -0.1626
 3711SOL    HW222596   2.529   2.619   8.880  0.3756 -0.5199 -0.3640
 3712SOL     OW22597   3.858   3.952   3.402 -0.2171  0.1794 -0.3080
 3712SOL    HW122598   3.873   4.041   3.368  0.7401  0.1121 -0.0459
 3712SOL    HW222599   3.770   3.930   3.371 -0.3662 -1.3392  1.2158
 3713SOL     OW22600   1.040   2.798   9.166  0.4251  0.7628 -0.3638
 3713SOL    HW122601   1.093   2.797   9.246 -2.2469  1.7062  1.4393
 3713SOL    HW222602   0.957   2.765   9.200  1.0169 -0.6526 -0.3049
 3714SOL     OW22603   4.240   3.567   2.429  0.2482  0.0614  0.4371
 3714SOL    HW122604   4.148   3.541   2.429  0.0059  0.9024  1.8154
 3714SOL    HW222605   4.242   3.591   2.336 -0.5842  0.6495  0.5605
 3715SOL     OW22606   2.910   1.180   6.665  0.3483 -0.5854  0.6663
 3715SOL    HW122607   2.898   1.091   6.697  1.3372 -1.0794 -0.3261
 3715SOL    HW222608   2.948   1.223   6.741  0.6094 -1.1723  0.8719
 3716SOL     OW22609   3.092   2.138  11.317  0.3246  0.5681  0.1879
 3716SOL    HW122610   3.047   2.212  11.277 -4.0295 -1.3564  1.5409
 3716SOL    HW222611   3.139   2.109  11.239  0.5553 -0.1113  0.5762
 3717SOL     OW22612   0.957   2.184   7.261 -0.3654  0.2286 -0.4491
 3717SOL    HW122613   0.989   2.273   7.247  1.8279 -0.1291  2.1182
 3717SOL    HW222614   0.861   2.185   7.259 -0.3544 -0.6346 -1.6157
 3718SOL     OW22615   1.873   1.568   3.373 -0.2554  0.4539  0.7058
 3718SOL    HW122616   1.795   1.582   3.319  0.3218 -1.3406 -0.6141
 3718SOL    HW222617   1.884   1.660   3.397 -2.2903  1.0752 -0.7429
 3719SOL     OW22618   2.551   3.015   7.989 -0.4597  0.2365  0.6061
 3719SOL    HW122619   2.476   2.980   8.038  0.8105  0.1299  2.5199
 3719SOL    HW222620   2.566   2.949   7.922  1.2158  2.4608 -1.2060
 3720SOL     OW22621   1.804   4.115  14.914 -0.0484  0.3058 -0.3073
 3720SOL    HW122622   1.848   4.173  14.853  2.4113  0.1653  1.3464
 3720SOL    HW222623   1.719   4.157  14.925 -0.0731  0.0246  0.5740
 3721SOL     OW22624   2.153   1.822   2.773 -0.5260 -0.0012  0.1587
 3721SOL    HW122625   2.066   1.858   2.789  0.1837  2.0129 -0.4795
 3721SOL    HW222626   2.161   1.745   2.830 -2.3978  0.4865  1.0805
 3722SOL     OW22627   3.404   3.276   7.963  0.0402 -0.2144  0.4350
 3722SOL    HW122628   3.408   3.187   7.999 -1.8978 -0.4033  0.2238
 3722SOL    HW222629   3.327   3.269   7.906  0.7654  1.6493 -0.7402
 3723SOL     OW22630   4.613   2.843  13.521 -0.2999 -0.4114  0.4070
 3723SOL    HW122631   4.571   2.823  13.438 -1.6594  1.7225  0.5706
 3723SOL    HW222632   4.535   2.839  13.577 -0.8860  1.5231 -0.2787
 3724SOL     OW22633   3.749   0.340   0.743 -0.2205 -0.1439  0.2220
 3724SOL    HW122634   3.692   0.263   0.734 -0.1714 -0.3986  2.0243
 3724SOL    HW222635   3.745   0.376   0.654  0.5137 -1.1221 -0.1987
 3725SOL     OW22636   4.565   3.522   3.854 -0.2256  0.0041 -0.9009
 3725SOL    HW122637   4.502   3.574   3.803  0.1560 -0.2678 -1.6405
 3725SOL    HW222638   4.618   3.594   3.888 -1.4300  0.4919 -0.0537
 3726SOL     OW22639   1.995   0.153   6.307  0.3359  0.1300 -0.0176
 3726SOL    HW122640   1.975   0.097   6.233 -0.8134  0.2732  0.1778
 3726SOL    HW222641   2.007   0.077   6.364 -0.6469 -1.6447 -2.1901
 3727SOL     OW22642   3.572   0.586  10.889 -0.0888  0.1870  0.2855
 3727SOL    HW122643   3.584   0.492  10.903 -2.2424 -0.0016  0.8297
 3727SOL    HW222644   3.630   0.601  10.815  0.8096  1.1242  1.1699
 3728SOL     OW22645   4.216   4.455   5.728 -0.3730  0.0306 -0.0286
 3728SOL    HW122646   4.283   4.499   5.676  0.8690 -0.8799  0.7757
 3728SOL    HW222647   4.179   4.513   5.794 -2.6227  0.5309 -1.7455
 3729SOL     OW22648   1.775   3.809   0.927  0.1030  0.4812  0.0269
 3729SOL    HW122649   1.739   3.825   1.014  1.3728 -0.6482  0.7523
 3729SOL    HW222650   1.816   3.723   0.939  2.3748  1.6610  0.6103
 3730SOL     OW22651   3.747   2.460   0.144 -0.1176 -1.2897 -0.4061
 3730SOL    HW122652   3.691   2.382   0.138 -0.9420 -0.7034 -0.2564
 3730SOL    HW222653   3.829   2.433   0.102  0.8857 -0.0957  0.7909
 3731SOL     OW22654   4.648   1.177  15.221  0.6998 -0.0767  0.5577
 3731SOL    HW122655   4.621   1.086  15.236  0.4131 -0.0992 -0.1109
 3731SOL    HW222656   4.701   1.177  15.142 -0.1867 -1.2039 -0.0383
 3732SOL     OW22657   0.791   3.997   5.665 -0.4684  0.1291 -0.2439
 3732SOL    HW122658   0.788   4.056   5.590  3.4684  0.3661 -0.1830
 3732SOL    HW222659   0.707   3.951   5.663 -0.6040  0.3998 -0.7063
 3733SOL     OW22660   1.757   3.346  16.546  0.1904  0.3035  0.3453
 3733SOL    HW122661   1.738   3.433  16.582 -0.8554 -0.0228  0.5688
 3733SOL    HW222662   1.678   3.296  16.566 -0.7151  1.1803 -1.0614
 3734SOL     OW22663   0.736   3.962  11.039  0.2067  0.1699 -0.1340
 3734SOL    HW122664   0.709   3.983  10.949 -0.2049 -2.7565 -0.6830
 3734SOL    HW222665   0.749   3.868  11.028 -0.7582  0.0187  0.0223
 3735SOL     OW22666   0.031   3.027   4.714  0.5435  0.4027 -0.3866
 3735SOL    HW122667   4.693   3.104   4.714  0.7071  0.5297 -1.7006
 3735SOL    HW222668   0.119   3.060   4.694  0.9754  0.4285  1.5235
 3736SOL     OW22669   2.651   1.959   7.626 -0.1157  0.1067  0.8376
 3736SOL    HW122670   2.658   1.882   7.682  0.3539 -1.7968 -1.8352
 3736SOL    HW222671   2.672   2.032   7.684 -1.1163 -1.0726  2.6786
 3737SOL     OW22672   2.841   2.420  13.596 -0.0250 -0.0458  0.2147
 3737SOL    HW122673   2.891   2.370  13.531 -0.0780 -1.1679  1.0462
 3737SOL    HW222674   2.907   2.409  13.665 -0.7235 -2.4343  0.4653
 3738SOL     OW22675   1.727   3.833  15.589 -0.1206  0.1537 -0.1758
 3738SOL    HW122676   1.724   3.874  15.676 -1.1203 -0.8219  0.2487
 3738SOL    HW222677   1.724   3.903  15.524 -1.4655 -0.0250 -0.2898
 3739SOL     OW22678   1.940   4.243   8.757 -0.0675 -0.2643  0.4030
 3739SOL    HW122679   1.970   4.171   8.702 -0.1943 -1.1355  1.4711
 3739SOL    HW222680   2.009   4.309   8.759 -0.1382 -0.1108 -1.4443
 3740SOL     OW22681   2.599   2.459  10.334  0.0228  0.1524 -0.4425
 3740SOL    HW122682   2.522   2.405  10.350  0.1201 -0.4978 -2.1474
 3740SOL    HW222683   2.676   2.404  10.349 -1.7056 -2.3698 -0.9365
 3741SOL     OW22684   4.032   1.488  12.057  0.2230  0.4984  0.1214
 3741SOL    HW122685   4.035   1.584  12.060 -0.9581  0.5551 -0.6881
 3741SOL    HW222686   4.076   1.467  12.139 -1.1030 -1.1551  0.4103
 3742SOL     OW22687   3.053   2.908   4.752 -0.6842  0.3957  0.3008
 3742SOL    HW122688   2.995   2.981   4.772 -1.0732  0.7001 -1.9751
 3742SOL    HW222689   3.016   2.837   4.804 -0.4204  0.0350 -0.0008
 3743SOL     OW22690   0.102   1.817   6.103 -0.9596  0.0918 -0.6528
 3743SOL    HW122691   0.066   1.902   6.129 -3.6862 -1.0111 -0.8689
 3743SOL    HW222692   0.194   1.834   6.127 -1.7441 -0.0200  2.4371
 3744SOL     OW22693   3.635   4.022   2.167  0.8336  0.7827  0.2329
 3744SOL    HW122694   3.596   4.108   2.181  1.2021  1.1946 -1.3553
 3744SOL    HW222695   3.595   4.003   2.082 -1.2263 -0.8670  1.5636
 3745SOL     OW22696   1.729   0.064   6.556  0.3699  0.0484  0.9660
 3745SOL    HW122697   1.800   0.001   6.559 -0.7851 -1.2701  0.9733
 3745SOL    HW222698   1.783   0.143   6.558 -2.0184  1.7354 -1.1662
 3746SOL     OW22699   2.437   4.109   7.534  0.2037 -0.0179  0.0570
 3746SOL    HW122700   2.529   4.103   7.509 -0.6677 -1.1407 -2.9033
 3746SOL    HW222701   2.399   4.032   7.491 -4.6404  2.1856  0.4374
 3747SOL     OW22702   1.870   0.886  16.893 -0.3242 -0.2005 -1.0788
 3747SOL    HW122703   1.894   0.977  16.880 -0.4516 -0.2777 -1.8315
 3747SOL    HW222704   1.809   0.892  16.967 -0.3670 -0.0566 -1.1270
 3748SOL     OW22705   0.737   0.625   6.987  0.1685 -0.4446  0.6281
 3748SOL    HW122706   0.663   0.575   6.953  2.4869  0.6518 -5.9831
 3748SOL    HW222707   0.794   0.641   6.912  0.5937  0.2343  1.0913
 3749SOL     OW22708   0.974   0.771   8.359 -0.5330  0.4120 -0.1522
 3749SOL    HW122709   1.051   0.742   8.309 -2.0489 -1.5871 -1.3308
 3749SOL    HW222710   0.994   0.860   8.387 -0.6871  0.4485 -0.1592
 3750SOL     OW22711   3.010   2.670   0.639  0.4548  0.1370  0.5760
 3750SOL    HW122712   2.965   2.731   0.581 -0.3020  0.2802  1.3070
 3750SOL    HW222713   3.097   2.707   0.624 -0.5724  2.7621  1.0181
 3751SOL     OW22714   3.344   3.649   0.055 -0.0735 -0.5882 -0.1608
 3751SOL    HW122715   3.342   3.729   0.108 -1.7756 -1.6670  1.3700
 3751SOL    HW222716   3.336   3.580   0.120  0.5417  1.7176  2.3700
 3752SOL     OW22717   4.358   2.735   6.193  0.3169  0.1330  0.0263
 3752SOL    HW122718   4.408   2.817   6.190  1.6833 -0.7176 -0.4877
 3752SOL    HW222719   4.287   2.766   6.249 -1.3301 -2.0544 -0.8583
 3753SOL     OW22720   1.173   1.679   9.520  0.6575 -0.1950 -0.2641
 3753SOL    HW122721   1.133   1.593   9.531  0.9971 -0.6137 -2.4125
 3753SOL    HW222722   1.164   1.710   9.610  0.4218 -1.7623  0.2457
 3754SOL     OW22723   4.605   4.611   8.289  0.0251 -0.4651  0.3650
 3754SOL    HW122724   4.607   4.604   8.385 -0.3823 -0.0439  0.4070
 3754SOL    HW222725   4.573   4.699   8.266 -0.1166 -0.0119  2.2454
 3755SOL     OW22726   1.605   4.653   9.785  0.4731 -0.6619 -0.0563
 3755SOL    HW122727   1.564   0.019   9.765  1.9197  0.3879  1.4373
 3755SOL    HW222728   1.667   4.651   9.712 -0.2711 -2.4335 -0.6457
 3756SOL     OW22729   4.062   4.603   0.542 -0.0712 -0.1128 -0.1872
 3756SOL    HW122730   4.144   4.563   0.571 -1.2303 -1.1317  1.6748
 3756SOL    HW222731   4.077   4.645   0.457  2.0584  0.2253  0.3486
 3757SOL     OW22732   3.270   2.783   3.952 -0.1878 -0.1098 -0.0654
 3757SOL    HW122733   3.323   2.851   3.911  0.1539  0.4969  1.3783
 3757SOL    HW222734   3.296   2.706   3.903 -0.9354  0.8448 -1.9598
 3758SOL     OW22735   1.604   0.988  16.760  0.0580  0.2781  0.1479
 3758SOL    HW122736   1.559   1.042  16.825  1.5567  1.7639 -0.0626
 3758SOL    HW222737   1.634   1.057  16.701  2.0793 -0.6956  0.0274
 3759SOL     OW22738   0.629   3.330   2.908 -0.2315 -0.3997  0.3769
 3759SOL    HW122739   0.648   3.341   2.815  3.0486 -1.0150  0.9704
 3759SOL    HW222740   0.580   3.248   2.901  0.7399 -0.9672  0.1253
 3760SOL     OW22741   4.194   1.653   0.918  0.2488 -0.2016  0.2973
 3760SOL    HW122742   4.123   1.658   0.982  0.5933  0.5422  0.6171
 3760SOL    HW222743   4.153   1.599   0.850 -1.1086  0.8958  0.2456
 3761SOL     OW22744   2.939   3.654   7.399 -0.2941  0.0682  0.1411
 3761SOL    HW122745   2.904   3.571   7.433 -0.6929  0.5237  0.8363
 3761SOL    HW222746   2.933   3.707   7.478 -1.9632  0.6206 -0.3665
 3762SOL     OW22747   4.441   0.126   6.916 -0.4816 -0.7685  0.6964
 3762SOL    HW122748   4.527   0.168   6.918 -1.1534  0.6981 -1.4236
 3762SOL    HW222749   4.403   0.169   6.839 -0.5052 -1.0092  0.5742
 3763SOL     OW22750   4.349   1.875   2.761  0.5256 -0.2912 -0.4163
 3763SOL    HW122751   4.257   1.878   2.736  0.7739  0.4589 -1.2674
 3763SOL    HW222752   4.391   1.899   2.678 -1.0768  1.6237 -0.6847
 3764SOL     OW22753   1.839   3.291   4.221  0.3867 -0.2449 -0.6779
 3764SOL    HW122754   1.778   3.216   4.219 -0.3394  0.3217  0.1384
 3764SOL    HW222755   1.777   3.346   4.269 -0.7662  1.2322 -3.8567
 3765SOL     OW22756   3.257   4.046   7.855  0.2936 -0.5048 -0.0191
 3765SOL    HW122757   3.346   4.080   7.868  0.2440 -0.6068  0.5913
 3765SOL    HW222758   3.273   3.998   7.773 -0.1684  0.7092 -0.8149
 3766SOL     OW22759   4.144   3.225  17.300  0.1295  0.0594  0.4127
 3766SOL    HW122760   4.190   3.180  17.371  0.5688 -0.6346 -0.3060
 3766SOL    HW222761   4.055   3.190  17.305 -0.5137  1.6130 -0.3357
 3767SOL     OW22762   0.831   1.255   7.327  0.3305 -0.2731 -0.0211
 3767SOL    HW122763   0.779   1.332   7.348 -0.6877  0.1364 -4.0716
 3767SOL    HW222764   0.866   1.225   7.412 -1.8457  0.5738  1.1609
 3768SOL     OW22765   3.910   4.355   9.319 -0.3707  0.1585 -0.3936
 3768SOL    HW122766   3.970   4.428   9.334 -0.3491  0.3843 -1.5491
 3768SOL    HW222767   3.873   4.323   9.401  0.9917 -0.7018 -0.1258
 3769SOL     OW22768   3.127   1.197   0.590 -0.1273  0.6129 -0.0092
 3769SOL    HW122769   3.161   1.158   0.509  1.1422  1.2610  0.2209
 3769SOL    HW222770   3.054   1.142   0.619  0.0310 -0.3710 -1.4772
 3770SOL     OW22771   3.441   2.778   5.197  0.0302  0.0525  0.4502
 3770SOL    HW122772   3.397   2.862   5.185 -0.6562 -0.2534  0.8055
 3770SOL    HW222773   3.460   2.754   5.106 -2.0619 -1.9306  0.5288
 3771SOL     OW22774   3.300   4.596   7.647 -0.9025 -0.1612 -0.3365
 3771SOL    HW122775   3.324   4.527   7.708  1.1125  1.6825  0.9646
 3771SOL    HW222776   3.376   4.578   7.591 -1.3098 -0.4243 -0.8028
 3772SOL     OW22777   3.050   2.374   6.793 -0.1461  0.1054 -0.1393
 3772SOL    HW122778   3.041   2.279   6.803  2.2930 -0.0934  0.0070
 3772SOL    HW222779   2.964   2.399   6.827 -1.2609 -0.9467 -2.1985
 3773SOL     OW22780   2.559   3.181   4.767  0.0455 -0.0400 -0.0336
 3773SOL    HW122781   2.612   3.107   4.736 -0.6855 -0.4389 -0.3249
 3773SOL    HW222782   2.537   3.217   4.681  0.8047 -3.6312 -1.7392
 3774SOL     OW22783   0.432   2.350   9.821 -0.0835 -0.5575  0.2594
 3774SOL    HW122784   0.418   2.394   9.905 -2.7117  1.6741 -1.3659
 3774SOL    HW222785   0.341   2.321   9.820 -0.9574  2.1600  1.7058
 3775SOL     OW22786   1.904   4.140   0.044 -0.3728 -0.3861 -0.5261
 3775SOL    HW122787   1.950   4.222   0.025 -1.4324  0.0323 -1.2879
 3775SOL    HW222788   1.943   4.126   0.130 -1.0223 -1.6042 -0.4353
 3776SOL     OW22789   4.226   0.025   7.030 -0.3678  0.0224 -0.5561
 3776SOL    HW122790   4.217   4.658   6.986 -0.2585 -1.1108  1.6530
 3776SOL    HW222791   4.314   0.041   6.994 -0.1293 -2.2602 -0.9852
 3777SOL     OW22792   0.154   3.312  14.758 -0.5186 -0.5152  0.0219
 3777SOL    HW122793   0.106   3.347  14.683 -1.3559 -1.1472  0.2604
 3777SOL    HW222794   0.102   3.232  14.773 -0.3593 -0.6209  0.0074
 3778SOL     OW22795   2.283   4.233   8.323 -0.4203  0.8208 -0.0422
 3778SOL    HW122796   2.216   4.290   8.361 -0.1431  1.2067 -0.1303
 3778SOL    HW222797   2.352   4.242   8.388 -0.4324  2.1501 -0.2221
 3779SOL     OW22798   0.909   1.929   2.480 -0.0569  1.1640 -0.6868
 3779SOL    HW122799   0.939   1.955   2.567 -0.3298  0.1511 -0.2902
 3779SOL    HW222800   0.814   1.927   2.489  0.0164 -2.2073 -0.3991
 3780SOL     OW22801   0.244   0.076   0.574 -0.4777  0.3730  0.1644
 3780SOL    HW122802   0.244   0.049   0.666  0.0115  0.2457  0.1291
 3780SOL    HW222803   0.298   0.155   0.582 -0.0315 -0.0806  1.6390
 3781SOL     OW22804   3.829   4.405   5.373  0.5488 -0.3454  0.3310
 3781SOL    HW122805   3.739   4.371   5.375  0.7484 -0.9708 -1.1244
 3781SOL    HW222806   3.821   4.439   5.284  1.3556 -0.6700  0.1379
 3782SOL     OW22807   2.224   2.227   3.830  0.1308 -0.2347  0.5329
 3782SOL    HW122808   2.173   2.282   3.770 -0.2799  0.8701  1.9020
 3782SOL    HW222809   2.237   2.286   3.904  0.1034 -0.1776  0.4924
 3783SOL     OW22810   3.361   1.676   2.487 -0.2389 -0.0610  0.9855
 3783SOL    HW122811   3.287   1.700   2.431  0.5886 -0.6577 -0.3885
 3783SOL    HW222812   3.404   1.620   2.422  1.4788  0.5352  1.6146
 3784SOL     OW22813   0.168   4.165   4.842  0.0136 -0.0076 -0.5779
 3784SOL    HW122814   0.100   4.221   4.881  1.0764  1.1230 -0.3489
 3784SOL    HW222815   0.239   4.229   4.831 -0.6465  0.9527  0.7630
 3785SOL     OW22816   3.233   3.345   8.990  0.0387  0.0090 -0.5943
 3785SOL    HW122817   3.317   3.387   8.971 -0.2516  0.7770 -0.2202
 3785SOL    HW222818   3.200   3.409   9.054  0.3787  0.8080 -1.2220
 3786SOL     OW22819   2.143   2.114   9.046 -0.0231  0.1002 -0.0725
 3786SOL    HW122820   2.133   2.209   9.056 -0.0248 -0.0591  1.5317
 3786SOL    HW222821   2.238   2.124   9.045  0.3016 -2.6127  3.2057
 3787SOL     OW22822   0.392   3.877  14.690  0.5404 -0.4781 -0.0910
 3787SOL    HW122823   0.426   3.875  14.780 -0.6350  1.4661  0.4102
 3787SOL    HW222824   0.379   3.784  14.677  2.9063 -1.1055  1.9652
 3788SOL     OW22825   4.466   2.314   3.257 -0.0359  0.0845  0.2182
 3788SOL    HW122826   4.528   2.382   3.229  1.9330 -2.7128 -2.1467
 3788SOL    HW222827   4.383   2.348   3.225 -0.3232 -2.2967 -1.5444
 3789SOL     OW22828   0.578   0.910   5.742 -0.3378 -0.5167 -0.0281
 3789SOL    HW122829   0.565   0.857   5.820  1.0432  1.6524  1.6764
 3789SOL    HW222830   0.494   0.896   5.697 -0.1859 -1.0249 -0.1518
 3790SOL     OW22831   0.938   0.704  10.910 -0.4335  0.4714  0.0626
 3790SOL    HW122832   0.999   0.778  10.915  0.5924 -0.4049  0.5254
 3790SOL    HW222833   0.863   0.744  10.867  1.4827  4.2728  0.2589
 3791SOL     OW22834   0.048   4.649   4.598  0.1465 -0.0340 -0.0217
 3791SOL    HW122835   0.042   4.559   4.567 -2.3056 -1.0251  3.3318
 3791SOL    HW222836   0.142   4.655   4.580 -0.0018  1.4577 -0.3215
 3792SOL     OW22837   2.279   0.202  14.075  0.3907 -0.6044  0.1751
 3792SOL    HW122838   2.205   0.255  14.046 -0.1540 -0.6854  1.4316
 3792SOL    HW222839   2.236   0.135  14.128 -1.6561  1.4598  1.0759
 3793SOL     OW22840   3.604   1.491   1.721  0.7888  0.0745  0.1133
 3793SOL    HW122841   3.579   1.461   1.634 -0.9520 -1.8201  1.2698
 3793SOL    HW222842   3.581   1.413   1.770  0.0131  0.2389  0.0222
 3794SOL     OW22843   4.717   2.496   3.772  0.3051  0.1911 -0.3433
 3794SOL    HW122844   4.688   2.443   3.698  2.5608 -0.9986 -0.3928
 3794SOL    HW222845   4.704   2.441   3.849  1.5110  2.3161  1.4121
 3795SOL     OW22846   1.454   3.617   4.428 -0.5588  0.0690 -0.1657
 3795SOL    HW122847   1.465   3.677   4.502  0.0551  2.5491 -2.2660
 3795SOL    HW222848   1.377   3.660   4.392  1.0755  3.2209  0.0381
 3796SOL     OW22849   1.804   1.225   3.439 -0.3108 -0.1364  0.6188
 3796SOL    HW122850   1.718   1.254   3.407 -0.1342  1.0269  1.2076
 3796SOL    HW222851   1.856   1.222   3.360 -0.4909  3.2271  0.3644
 3797SOL     OW22852   2.378   3.657   3.703 -0.0089 -0.2844  0.1629
 3797SOL    HW122853   2.304   3.644   3.644  1.0769 -0.8622 -1.0545
 3797SOL    HW222854   2.359   3.743   3.741 -3.2160 -1.0157  0.2029
 3798SOL     OW22855   2.335   2.600  16.839 -0.1967 -0.1131  0.3605
 3798SOL    HW122856   2.247   2.590  16.875 -0.1308 -0.7039  0.3502
 3798SOL    HW222857   2.401   2.577  16.904 -1.4901 -1.8608  1.0354
 3799SOL     OW22858   1.397   4.657  11.116 -0.1764 -0.1551  0.1918
 3799SOL    HW122859   1.480   4.610  11.119 -1.3383 -2.4031 -3.0299
 3799SOL    HW222860   1.369   4.668  11.207 -0.0528 -1.0934  0.3430
 3800SOL     OW22861   2.117   3.203   3.867  0.2273  0.0899 -0.0464
 3800SOL    HW122862   2.166   3.282   3.890  3.8640 -2.1857 -0.0401
 3800SOL    HW222863   2.044   3.248   3.825 -0.4155 -0.7388  0.1916
 3801SOL     OW22864   3.028   0.949   3.574 -0.5181 -0.1115  0.7270
 3801SOL    HW122865   3.005   0.919   3.662 -2.9293 -1.2749 -0.3000
 3801SOL    HW222866   2.970   1.022   3.554  1.2139  1.2054  0.5269
 3802SOL     OW22867   1.633   4.712   5.461  0.8451 -1.0304  0.1076
 3802SOL    HW122868   1.694   0.048   5.412  0.2303 -0.0456  0.4269
 3802SOL    HW222869   1.580   4.674   5.391  0.1093 -0.7632  0.5109
 3803SOL     OW22870   4.078   3.049  15.553 -0.2645  0.3001  0.1571
 3803SOL    HW122871   4.158   2.997  15.552 -1.4722 -1.4611 -2.6129
 3803SOL    HW222872   4.027   3.011  15.624  1.0415  0.2697  1.0774
 3804SOL     OW22873   0.705   1.112   8.986 -0.1820  0.4960 -0.6523
 3804SOL    HW122874   0.736   1.109   9.076 -0.1708 -1.8037 -0.7311
 3804SOL    HW222875   0.640   1.041   8.990  0.8006 -0.3315  0.6331
 3805SOL     OW22876   2.864   1.951   3.241  0.1016  0.4783  0.5654
 3805SOL    HW122877   2.936   2.003   3.276  0.1169 -0.3979  1.8664
 3805SOL    HW222878   2.856   1.877   3.301  0.6310 -0.7105 -0.8591
 3806SOL     OW22879   3.095   1.626   5.496 -0.6022 -0.2418 -0.2217
 3806SOL    HW122880   3.082   1.535   5.524 -1.3673  0.4988  1.8327
 3806SOL    HW222881   3.137   1.668   5.572 -1.8161 -2.4537  1.6947
 3807SOL     OW22882   3.677   4.583  16.362 -0.7878  0.0581  0.1323
 3807SOL    HW122883   3.694   4.552  16.451 -0.6043 -0.4372 -0.0739
 3807SOL    HW222884   3.722   4.519  16.305  0.4428  1.9023 -0.9549
 3808SOL     OW22885   3.729   2.310   7.776 -0.6200  0.6918  0.0633
 3808SOL    HW122886   3.778   2.281   7.853 -0.7086 -0.0524 -0.1611
 3808SOL    HW222887   3.809   2.339   7.733 -1.3860  1.5253 -0.7962
 3809SOL     OW22888   4.043   4.667   3.608  0.2890 -0.6682 -0.2673
 3809SOL    HW122889   3.972   4.605   3.592 -1.1774  0.9433 -0.0090
 3809SOL    HW222890   4.064   4.654   3.700 -0.7370 -1.2876 -0.1223
 3810SOL     OW22891   1.033   3.349   7.970 -0.2327  0.2877 -0.0562
 3810SOL    HW122892   1.048   3.349   7.875 -1.1694 -3.0859 -0.1851
 3810SOL    HW222893   1.074   3.433   7.993 -0.6395  0.0736  1.4369
 3811SOL     OW22894   2.632   2.615   3.830 -0.5512  0.2467 -0.0044
 3811SOL    HW122895   2.571   2.688   3.843 -0.0712  0.8785 -1.2566
 3811SOL    HW222896   2.713   2.665   3.823 -1.6952  1.7574 -2.3917
 3812SOL     OW22897   4.615   2.587   8.944  0.0788  0.3198  0.5153
 3812SOL    HW122898   4.529   2.629   8.949 -0.6294 -1.1139  0.3502
 3812SOL    HW222899   4.655   2.643   8.877 -0.6244  0.3203  0.0985
 3813SOL     OW22900   4.020   2.907   7.238  0.0615 -0.0068  0.8417
 3813SOL    HW122901   3.930   2.927   7.264 -0.4551 -1.2733 -0.0039
 3813SOL    HW222902   4.066   2.959   7.304 -0.5095  0.6345  0.7405
 3814SOL     OW22903   2.007   2.937  16.751  0.0450 -0.8384  0.0769
 3814SOL    HW122904   2.086   2.908  16.707  0.3990 -2.5759  1.8481
 3814SOL    HW222905   1.952   2.859  16.741 -1.5125  0.5640 -2.2121
 3815SOL     OW22906   3.272   4.249   6.432 -0.1649 -0.0628  0.1083
 3815SOL    HW122907   3.320   4.231   6.351  1.6849 -1.3157  1.4458
 3815SOL    HW222908   3.246   4.161   6.459 -0.7364 -0.2643 -1.1000
 3816SOL     OW22909   4.446   3.627   5.933  0.0018  0.3734 -0.1262
 3816SOL    HW122910   4.432   3.669   5.848 -1.9689 -2.8284 -1.3881
 3816SOL    HW222911   4.496   3.694   5.979 -0.2609  0.4548  0.0401
 3817SOL     OW22912   2.952   0.060   4.115  0.1040  0.5419  0.1714
 3817SOL    HW122913   2.973   4.686   4.100 -1.5819  0.3277 -0.9826
 3817SOL    HW222914   3.000   0.104   4.044  1.2907  1.0140  1.2758
 3818SOL     OW22915   2.077   0.343  13.974  0.2039  0.7048  0.0955
 3818SOL    HW122916   2.007   0.403  13.999  1.2008  2.0849 -0.3961
 3818SOL    HW222917   2.036   0.290  13.906 -0.5143 -1.2380  2.0363
 3819SOL     OW22918   1.856   1.955   3.798 -0.0393  0.2516 -0.7990
 3819SOL    HW122919   1.764   1.940   3.777  0.2337  1.1310 -2.6296
 3819SOL    HW222920   1.884   2.010   3.725  1.1679 -0.2295 -0.6950
 3820SOL     OW22921   1.972   4.629   8.439  0.0845  0.4961 -0.2420
 3820SOL    HW122922   1.903   4.571   8.472  1.3053 -0.8323 -0.0029
 3820SOL    HW222923   2.026   4.553   8.417  2.1148  1.8667  0.0150
 3821SOL     OW22924   4.475   1.211  10.826  0.2924  0.2381 -0.3041
 3821SOL    HW122925   4.546   1.205  10.890  0.3656 -0.4811 -0.4435
 3821SOL    HW222926   4.454   1.117  10.822  0.5285  0.3021 -3.5528
 3822SOL     OW22927   0.777   2.794   8.663 -0.4216  0.4141 -0.2625
 3822SOL    HW122928   0.799   2.776   8.571 -1.8919 -1.5039 -0.2534
 3822SOL    HW222929   0.788   2.708   8.703  0.7251  0.2019 -1.0402
 3823SOL     OW22930   4.430   4.630   4.362 -0.1365 -0.1722 -0.2472
 3823SOL    HW122931   4.403   4.542   4.336 -0.2153  0.1503 -1.2476
 3823SOL    HW222932   4.379   4.638   4.443  0.4684  2.0250 -0.0743
 3824SOL     OW22933   1.864   3.878   5.696 -0.0319  0.7470 -0.6055
 3824SOL    HW122934   1.858   3.782   5.691 -1.7842  0.6789  2.8762
 3824SOL    HW222935   1.819   3.890   5.613 -2.3019  0.3759  0.5691
 3825SOL     OW22936   1.566   1.036   5.755 -0.0168  0.4636 -0.4058
 3825SOL    HW122937   1.512   0.979   5.700  2.7580 -1.8136 -0.7248
 3825SOL    HW222938   1.523   1.034   5.841  0.5231  0.9913 -0.1239
 3826SOL     OW22939   4.222   0.736   9.467 -0.3272  0.4434 -0.4294
 3826SOL    HW122940   4.142   0.713   9.419  0.2599 -0.1031 -1.1447
 3826SOL    HW222941   4.263   0.655   9.496 -0.4670  0.4349 -0.2587
 3827SOL     OW22942   4.135   1.518   3.450  0.3150 -0.5264 -0.6906
 3827SOL    HW122943   4.129   1.441   3.394 -3.8083 -1.7602  1.4494
 3827SOL    HW222944   4.095   1.485   3.530  1.2091  0.9984  0.3962
 3828SOL     OW22945   1.951   0.829   8.455  0.9266 -0.1392 -0.0008
 3828SOL    HW122946   2.035   0.783   8.454  0.9474 -0.0915 -0.4647
 3828SOL    HW222947   1.913   0.814   8.542  0.2065 -1.2348 -0.5025
 3829SOL     OW22948   2.786   4.702   2.720 -0.1034  0.4654 -0.0501
 3829SOL    HW122949   2.736   0.002   2.799  0.9556 -1.0428  0.9563
 3829SOL    HW222950   2.814   0.071   2.691  2.1959  0.5071  2.3472
 3830SOL     OW22951   4.132   0.588   3.091 -0.2907  0.0870 -0.0659
 3830SOL    HW122952   4.149   0.671   3.136 -0.2467 -0.3720  0.7475
 3830SOL    HW222953   4.202   0.594   3.025  0.0752 -0.7365  0.2515
 3831SOL     OW22954   0.966   4.171   3.547  0.0756  0.7002 -0.3980
 3831SOL    HW122955   1.030   4.230   3.587 -0.0099  0.0687  0.6823
 3831SOL    HW222956   0.885   4.195   3.591  2.6118 -0.2351  4.8295
 3832SOL     OW22957   3.512   0.160   4.531  0.5180 -0.1511 -0.1353
 3832SOL    HW122958   3.589   0.103   4.529 -0.2625 -1.1783 -0.5242
 3832SOL    HW222959   3.453   0.114   4.590  1.8152 -1.1114  0.4148
 3833SOL     OW22960   0.962   0.219   3.890 -0.0785  0.5290 -0.3152
 3833SOL    HW122961   1.031   0.163   3.856  0.4428  0.3372  1.0406
 3833SOL    HW222962   1.005   0.249   3.970  1.3378  0.2325 -0.9764
 3834SOL     OW22963   3.954   3.492  15.868 -0.2851 -0.1327  0.1141
 3834SOL    HW122964   3.950   3.545  15.788  1.1194  2.5610  1.8340
 3834SOL    HW222965   4.003   3.422  15.823 -0.7785  0.9055 -2.0567
 3835SOL     OW22966   1.647   4.495  13.535 -0.1525 -0.3711 -0.1168
 3835SOL    HW122967   1.607   4.418  13.496 -2.1992  0.5940  0.0525
 3835SOL    HW222968   1.711   4.512  13.466  0.6324  1.1045  0.9551
 3836SOL     OW22969   3.904   4.360  15.220 -0.0435  0.4153  0.1376
 3836SOL    HW122970   3.997   4.357  15.246 -0.2190  1.9083  0.9867
 3836SOL    HW222971   3.911   4.309  15.140  1.4320 -0.1263  0.5968
 3837SOL     OW22972   0.860   2.035  16.987 -0.3908 -0.3331 -0.5962
 3837SOL    HW122973   0.837   1.995  16.903  1.1290 -1.2010 -0.6085
 3837SOL    HW222974   0.933   2.088  16.954  0.1234 -1.0292 -0.5900
 3838SOL     OW22975   3.976   0.900   3.937 -0.0749 -0.0029  0.1703
 3838SOL    HW122976   4.034   0.836   3.978  1.3851  1.3188  0.1314
 3838SOL    HW222977   4.002   0.980   3.982  0.1233 -0.3688  0.7093
 3839SOL     OW22978   3.382   3.229   0.882 -0.6901  0.4669  0.4317
 3839SOL    HW122979   3.470   3.244   0.915 -1.2498  1.2584  1.5633
 3839SOL    HW222980   3.369   3.136   0.900 -3.3292  0.8392  0.4902
 3840SOL     OW22981   0.513   2.566   9.640  0.1302 -0.2143 -0.0356
 3840SOL    HW122982   0.516   2.473   9.619 -1.6578 -0.1363 -0.5744
 3840SOL    HW222983   0.424   2.577   9.673 -0.5188 -0.6756 -1.6478
 3841SOL     OW22984   3.379   3.065   6.923 -0.3651  0.9670  0.9155
 3841SOL    HW122985   3.382   3.109   6.838  4.1264 -3.8581 -1.3826
 3841SOL    HW222986   3.285   3.063   6.939 -0.4142  2.8296  0.9426
 3842SOL     OW22987   3.375   3.709   5.414 -0.8142 -0.1173 -0.2969
 3842SOL    HW122988   3.307   3.670   5.358 -0.3836 -0.6418 -0.4494
 3842SOL    HW222989   3.384   3.804   5.404 -2.1727  0.2425  1.6480
 3843SOL     OW22990   1.064   3.713   7.229 -0.2774  0.4351 -0.7659
 3843SOL    HW122991   1.114   3.794   7.225  1.2237 -0.4165  0.3342
 3843SOL    HW222992   1.058   3.706   7.324  0.2347 -0.5523 -0.7975
 3844SOL     OW22993   4.590   2.267  14.055 -0.5758  0.2681  0.8792
 3844SOL    HW122994   4.526   2.201  14.083 -2.9875  1.5353 -1.6072
 3844SOL    HW222995   4.639   2.221  13.986 -2.0947  2.7102 -1.8308
 3845SOL     OW22996   0.166   3.996  14.451 -0.5057  0.2278  0.1444
 3845SOL    HW122997   0.204   4.026  14.534  2.3995  0.2585 -1.1867
 3845SOL    HW222998   0.110   4.071  14.433 -0.1990  0.2291 -0.8331
 3846SOL     OW22999   3.915   4.067   6.780 -0.4906  0.2030  0.2218
 3846SOL    HW123000   3.951   4.079   6.692 -0.7189 -2.3663 -0.2301
 3846SOL    HW223001   3.827   4.104   6.769 -1.4542 -2.2205 -0.3301
 3847SOL     OW23002   1.895   1.903  12.750 -0.2465  0.4049  0.3777
 3847SOL    HW123003   1.921   1.822  12.706 -0.4998  1.4862 -1.7627
 3847SOL    HW223004   1.805   1.882  12.775 -0.0414 -2.6356 -1.4311
 3848SOL     OW23005   2.474   3.378  12.309 -0.1964  0.0728 -0.0294
 3848SOL    HW123006   2.492   3.455  12.255 -0.3891  0.9364  1.1266
 3848SOL    HW223007   2.563   3.345  12.307  0.1142  0.9412 -0.3400
 3849SOL     OW23008   0.647   0.131   6.358  0.4613 -0.1308 -0.5057
 3849SOL    HW123009   0.654   0.214   6.404 -2.7665 -0.3082  0.2699
 3849SOL    HW223010   0.699   0.076   6.417  1.2822 -0.5434 -1.5994
 3850SOL     OW23011   0.686   0.976   3.123  0.5852  0.5364 -0.1175
 3850SOL    HW123012   0.624   0.915   3.163  1.7795  1.4255  3.0666
 3850SOL    HW223013   0.624   1.048   3.112 -1.3567 -1.2130 -0.5115
 3851SOL     OW23014   3.978   0.360   9.158  0.4946 -0.3027 -0.0249
 3851SOL    HW123015   3.971   0.273   9.119 -3.0002  0.2866 -0.6593
 3851SOL    HW223016   3.918   0.355   9.232  1.4288  1.6698  0.8603
 3852SOL     OW23017   1.329   4.167  11.514 -0.1596  0.0917 -0.2396
 3852SOL    HW123018   1.302   4.255  11.488  1.6547  0.2191 -1.7227
 3852SOL    HW223019   1.271   4.114  11.460 -0.1547  0.2318 -0.3826
 3853SOL     OW23020   3.018   1.808   7.564 -0.0942  0.2804 -0.4029
 3853SOL    HW123021   3.030   1.873   7.632 -0.3440  0.7103 -0.7662
 3853SOL    HW223022   3.025   1.848   7.477  0.8514  2.2549  0.5880
 3854SOL     OW23023   1.289   0.006   2.212  0.1843 -0.0671 -0.5091
 3854SOL    HW123024   1.365   4.672   2.187  1.0645  0.8357  0.2414
 3854SOL    HW223025   1.333   0.091   2.203  0.2917  0.0197  0.8488
 3855SOL     OW23026   2.122   4.477   4.159  0.2366  0.4929  0.1669
 3855SOL    HW123027   2.181   4.406   4.185  0.2524 -0.3942 -2.2804
 3855SOL    HW223028   2.037   4.436   4.143  1.2863 -1.3548 -0.7366
 3856SOL     OW23029   1.245   1.089   7.892  0.1438 -0.3959 -0.2500
 3856SOL    HW123030   1.299   1.154   7.845  1.2484 -0.7050  0.5944
 3856SOL    HW223031   1.269   1.108   7.982 -0.3273  0.6682 -0.3446
 3857SOL     OW23032   4.629   4.445  15.148  0.3395 -0.3490 -0.2419
 3857SOL    HW123033   4.639   4.375  15.085  0.8188 -0.0881 -0.4554
 3857SOL    HW223034   4.581   4.402  15.219  1.1039  2.6920  2.1662
 3858SOL     OW23035   1.163   4.570   3.164 -0.1277 -0.1042  0.3468
 3858SOL    HW123036   1.165   4.665   3.165  2.3408 -0.1511 -2.7032
 3858SOL    HW223037   1.214   4.546   3.087  0.9237  1.0873  0.6946
 3859SOL     OW23038   1.575   1.124  13.288 -0.7296 -0.8834  0.2852
 3859SOL    HW123039   1.653   1.126  13.233 -1.8813  0.1937 -1.3119
 3859SOL    HW223040   1.517   1.186  13.245  1.0649  0.9675  0.5397
 3860SOL     OW23041   2.930   3.714  11.133 -0.1584  0.0339 -0.0845
 3860SOL    HW123042   3.024   3.697  11.133  0.0472  1.2719  2.1549
 3860SOL    HW223043   2.890   3.627  11.142  0.0730  0.1542  1.9942
 3861SOL     OW23044   3.172   0.295   8.750  0.5317 -0.0191  0.0459
 3861SOL    HW123045   3.182   0.201   8.765  0.4959  0.1395  1.1077
 3861SOL    HW223046   3.077   0.298   8.735  0.4708  0.8814  0.5749
 3862SOL     OW23047   2.866   0.353   9.234  0.0613  0.3195  0.5188
 3862SOL    HW123048   2.911   0.436   9.219  2.6462 -0.6733  2.7648
 3862SOL    HW223049   2.929   0.311   9.293  0.8191  1.6698  0.6900
 3863SOL     OW23050   4.130   1.422  12.343  0.4203 -0.7747 -0.3467
 3863SOL    HW123051   4.092   1.347  12.389 -0.0961  0.3365  1.0302
 3863SOL    HW223052   4.149   1.490  12.407 -0.6869 -1.4923  0.7419
 3864SOL     OW23053   4.103   0.197   8.769 -0.1510 -0.1207 -0.3507
 3864SOL    HW123054   4.083   0.103   8.774 -0.7443  0.0772  0.9578
 3864SOL    HW223055   4.026   0.220   8.716 -1.8606  0.8066  2.5221
 3865SOL     OW23056   1.031   3.988   7.851  0.1951  0.6245 -0.2281
 3865SOL    HW123057   0.978   3.992   7.771  1.3226  2.4042 -0.8883
 3865SOL    HW223058   1.073   4.074   7.846 -0.2276  0.6335 -3.8538
 3866SOL     OW23059   3.322   0.960   6.299  0.5446 -0.0222  0.0511
 3866SOL    HW123060   3.344   1.023   6.367 -0.9294  1.2594 -0.6769
 3866SOL    HW223061   3.242   0.997   6.263 -0.0405 -1.8177 -0.4694
 3867SOL     OW23062   4.154   0.631  12.990  0.0620 -0.6114 -0.5196
 3867SOL    HW123063   4.242   0.662  13.006 -1.5264  3.3290  0.5267
 3867SOL    HW223064   4.158   0.550  13.041 -1.2034 -1.0516 -1.1160
 3868SOL     OW23065   1.708   3.958   4.674  0.0806 -0.0312  0.3267
 3868SOL    HW123066   1.653   4.005   4.737  0.7898  1.7113 -0.3293
 3868SOL    HW223067   1.796   3.996   4.685  0.1062 -0.4117  1.4395
 3869SOL     OW23068   2.574   1.752   7.086 -0.4529  0.4118 -0.1610
 3869SOL    HW123069   2.568   1.738   7.181  0.3272 -2.2959 -0.5168
 3869SOL    HW223070   2.533   1.838   7.090 -0.4936  0.3628  0.5650
 3870SOL     OW23071   4.419   2.596   0.199  0.1870  0.4259  0.2175
 3870SOL    HW123072   4.351   2.575   0.135  0.5018  0.6915 -0.2003
 3870SOL    HW223073   4.479   2.524   0.179  0.4297  1.0397 -1.2442
 3871SOL     OW23074   3.067   2.099  12.493  0.1621  0.1294  0.3055
 3871SOL    HW123075   3.045   2.191  12.509  0.2787  0.0170  1.0895
 3871SOL    HW223076   3.098   2.108  12.403 -1.7245  1.5975 -0.2056
 3872SOL     OW23077   3.525   3.749   8.447  0.1247 -0.1858 -0.4835
 3872SOL    HW123078   3.511   3.817   8.513  0.2426  0.6442 -1.3149
 3872SOL    HW223079   3.618   3.757   8.425  0.4464  2.4161  1.8325
 3873SOL     OW23080   1.120   1.204   7.432  0.7727 -0.1696  0.7007
 3873SOL    HW123081   1.102   1.153   7.510  1.3743  1.8601  2.1824
 3873SOL    HW223082   1.114   1.297   7.454  1.3955  0.3186 -1.1762
 3874SOL     OW23083   1.559   2.013   9.792  0.0660  0.7451 -0.7892
 3874SOL    HW123084   1.480   2.015   9.847 -1.1647 -1.8838 -2.4537
 3874SOL    HW223085   1.542   2.075   9.721 -1.8715  0.5590 -0.4879
 3875SOL     OW23086   1.980   2.964   7.565 -0.1823  0.0338  0.5653
 3875SOL    HW123087   2.042   3.036   7.550 -0.2031  0.0313  0.4663
 3875SOL    HW223088   1.952   2.950   7.475 -1.3329 -0.3912  0.9971
 3876SOL     OW23089   1.763   2.555   2.927 -0.1527 -0.4579  0.3411
 3876SOL    HW123090   1.698   2.551   2.857 -0.9350  1.2464  0.9833
 3876SOL    HW223091   1.711   2.567   3.006 -0.7037  0.7668 -0.2053
 3877SOL     OW23092   0.902   3.703  12.489  0.1797  0.3474  0.0714
 3877SOL    HW123093   0.884   3.698  12.395  1.4459  0.3357 -0.1683
 3877SOL    HW223094   0.837   3.638  12.517  0.9124 -1.3238 -2.1485
 3878SOL     OW23095   1.927   1.062   2.707 -0.6887 -0.0721  0.5010
 3878SOL    HW123096   1.915   1.132   2.771  3.3089 -0.2747  1.5190
 3878SOL    HW223097   1.851   1.072   2.651 -1.6354  2.0219  2.1517
 3879SOL     OW23098   2.189   3.443   7.839 -0.0570 -0.1534 -0.2948
 3879SOL    HW123099   2.116   3.502   7.855  0.7449  0.3094  1.7135
 3879SOL    HW223100   2.143   3.385   7.778 -2.0393 -0.1373  1.1687
 3880SOL     OW23101   0.527   0.156  14.957 -0.9087  0.4525  0.2106
 3880SOL    HW123102   0.581   0.214  14.902  1.3963 -0.9456  0.9873
 3880SOL    HW223103   0.463   0.215  14.995  1.1665  1.4087  2.2065
 3881SOL     OW23104   3.257   2.490   4.275  0.3954 -1.0556 -0.3198
 3881SOL    HW123105   3.246   2.515   4.367 -0.7052  1.7278 -1.2171
 3881SOL    HW223106   3.351   2.472   4.268  0.8936  0.4130  2.6041
 3882SOL     OW23107   1.405   2.892   8.233  0.4745  0.7721  0.5326
 3882SOL    HW123108   1.438   2.919   8.319  1.7003 -1.5736  0.7904
 3882SOL    HW223109   1.353   2.967   8.203 -0.6903  0.1613  1.0244
 3883SOL     OW23110   2.270   4.552   0.984  0.0233 -0.4233 -0.0471
 3883SOL    HW123111   2.197   4.599   1.024  0.0752 -0.8092  0.4976
 3883SOL    HW223112   2.246   4.465   1.016 -0.0530 -0.3789  0.0174
 3884SOL     OW23113   1.521   0.909   3.540  0.2846 -0.5254  0.3840
 3884SOL    HW123114   1.546   0.887   3.629  1.8093  0.4970  0.2102
 3884SOL    HW223115   1.427   0.907   3.554  0.4266  0.6519  1.4803
 3885SOL     OW23116   1.695   4.456   6.848 -0.0782 -0.0554 -0.5801
 3885SOL    HW123117   1.669   4.548   6.857 -2.6260 -0.9833  1.8360
 3885SOL    HW223118   1.661   4.443   6.760 -1.5718  1.3456 -0.2187
 3886SOL     OW23119   0.533   4.509  14.732  0.1667  0.2291  0.3035
 3886SOL    HW123120   0.610   4.491  14.677  1.3397  3.0183  1.0356
 3886SOL    HW223121   0.498   4.591  14.698 -1.8799 -1.1216 -0.8471
 3887SOL     OW23122   4.586   0.802  16.991 -0.4017 -0.1204 -0.3591
 3887SOL    HW123123   4.625   0.815  17.078  0.2246  1.6411 -0.8973
 3887SOL    HW223124   4.571   0.708  16.998  1.7364 -0.4276  0.0552
 3888SOL     OW23125   4.227   3.120   1.605  0.2619  0.0852 -0.0452
 3888SOL    HW123126   4.294   3.108   1.673  0.9977 -1.2902 -1.0040
 3888SOL    HW223127   4.241   3.042   1.551 -1.2132  0.5906 -1.1413
 3889SOL     OW23128   2.972   0.600  15.968 -1.0622 -0.2594 -0.9317
 3889SOL    HW123129   2.936   0.650  16.041  0.5850  0.9645 -0.9773
 3889SOL    HW223130   3.052   0.650  15.952 -1.5554  1.1702  1.0620
 3890SOL     OW23131   2.190   2.942  13.716 -0.0782 -0.4937  0.0288
 3890SOL    HW123132   2.179   2.847  13.712  2.8715 -0.9077  1.2985
 3890SOL    HW223133   2.222   2.960  13.805  1.0892  0.0121 -0.4944
 3891SOL     OW23134   2.457   2.325  12.996  0.0653 -0.1521 -0.4783
 3891SOL    HW123135   2.404   2.382  12.940 -0.5493 -0.4563 -0.2033
 3891SOL    HW223136   2.418   2.343  13.082 -1.3252 -1.4583 -0.8378
 3892SOL     OW23137   1.311   0.020   5.105 -0.7384  0.4555 -0.1552
 3892SOL    HW123138   1.271   0.099   5.141  2.1071  2.3270 -1.1469
 3892SOL    HW223139   1.261   0.022   5.023  1.1649  0.2239 -1.3179
 3893SOL     OW23140   2.961   3.001   8.587 -0.0161  0.3152 -0.8261
 3893SOL    HW123141   3.053   3.026   8.600  0.1774  0.0205 -1.6040
 3893SOL    HW223142   2.973   2.941   8.513 -0.1409 -3.0282  1.8802
 3894SOL     OW23143   4.599   1.885   2.034  0.4688  0.1195  0.1069
 3894SOL    HW123144   4.668   1.866   2.098 -0.3773 -1.9637  0.4162
 3894SOL    HW223145   4.527   1.853   2.089  0.2920  0.3731  0.0230
 3895SOL     OW23146   1.143   1.812   8.984 -0.2268  0.2241  0.0816
 3895SOL    HW123147   1.218   1.853   9.027 -0.1372 -0.1696  0.2993
 3895SOL    HW223148   1.158   1.723   9.016 -1.7890  0.0860  0.4536
 3896SOL     OW23149   1.323   1.873   8.711 -0.0480  0.1115  0.6778
 3896SOL    HW123150   1.341   1.892   8.803  0.6247 -0.2298  0.6179
 3896SOL    HW223151   1.280   1.953   8.680 -0.9381 -1.3403 -1.8345
 3897SOL     OW23152   4.659   2.102   8.961  0.2678 -0.0214  0.1472
 3897SOL    HW123153   0.033   2.118   8.984  0.7517 -2.4704 -0.0676
 3897SOL    HW223154   4.617   2.173   9.009  0.7086 -1.3309  2.4815
 3898SOL     OW23155   2.229   2.702   7.286  0.5169 -0.4314 -0.0031
 3898SOL    HW123156   2.282   2.706   7.366 -0.5144  1.2401  0.5801
 3898SOL    HW223157   2.138   2.684   7.306  0.1199  0.7481 -0.7658
 3899SOL     OW23158   4.308   4.584  16.376  0.0836 -0.1550 -0.4444
 3899SOL    HW123159   4.337   4.538  16.298 -0.7015 -1.0863 -0.1844
 3899SOL    HW223160   4.240   4.643  16.344  0.2157  0.0521 -0.3421
 3900SOL     OW23161   3.721   3.354   1.635 -0.2126 -0.4514 -0.1169
 3900SOL    HW123162   3.796   3.414   1.635  0.5860 -1.4274 -3.9603
 3900SOL    HW223163   3.707   3.337   1.728 -1.0597 -1.7373 -0.4726
 3901SOL     OW23164   3.342   0.868  10.870  0.3023 -0.7948 -0.3471
 3901SOL    HW123165   3.334   0.830  10.957  2.4825 -0.5747 -0.0545
 3901SOL    HW223166   3.435   0.891  10.866 -0.1859  1.5135  1.3273
 3902SOL     OW23167   2.370   2.512   2.438 -0.4348  0.0038  0.1929
 3902SOL    HW123168   2.411   2.595   2.415 -0.6638  0.7584  2.4866
 3902SOL    HW223169   2.292   2.519   2.382  1.1969 -0.5975 -2.1472
 3903SOL     OW23170   0.403   1.745   8.224  0.1625  0.0782 -0.0402
 3903SOL    HW123171   0.336   1.689   8.263 -0.5010  1.9420  1.4679
 3903SOL    HW223172   0.480   1.688   8.226 -0.7432 -1.1475  0.2783
 3904SOL     OW23173   3.069   0.871  14.486 -0.4219  0.2678  0.1279
 3904SOL    HW123174   3.091   0.915  14.403  0.0400  0.3082  0.2719
 3904SOL    HW223175   2.978   0.898  14.498 -1.1767 -1.6302 -1.2207
 3905SOL     OW23176   4.196   1.834   5.524  0.0145  0.1344 -0.0888
 3905SOL    HW123177   4.121   1.864   5.575 -1.5182 -1.2500 -1.5575
 3905SOL    HW223178   4.236   1.795   5.602 -2.4482 -0.3347  0.9443
 3906SOL     OW23179   0.050   4.316   1.149 -0.3857  0.1844 -0.2736
 3906SOL    HW123180   4.681   4.277   1.149  0.8455 -2.5322  2.2702
 3906SOL    HW223181   0.100   4.237   1.169 -0.9448  0.0451  0.5430
 3907SOL     OW23182   2.342   1.898  14.550  0.3353 -0.1106  0.1166
 3907SOL    HW123183   2.421   1.933  14.592  0.3935 -1.6192  1.2687
 3907SOL    HW223184   2.288   1.937  14.619 -0.1690  0.2070 -0.4619
 3908SOL     OW23185   2.345   3.519   1.953 -0.2038 -0.3029  0.1991
 3908SOL    HW123186   2.390   3.599   1.980  0.2620 -0.0150 -1.4160
 3908SOL    HW223187   2.409   3.475   1.896  1.5385 -0.8722  2.6293
 3909SOL     OW23188   3.206   2.219  13.101 -0.3726 -0.1875 -0.0768
 3909SOL    HW123189   3.252   2.221  13.185 -2.3578 -0.0640  1.0024
 3909SOL    HW223190   3.125   2.179  13.132 -0.2050 -1.1674 -0.8857
 3910SOL     OW23191   0.249   0.679   4.070 -1.1003 -0.4117  0.8249
 3910SOL    HW123192   0.194   0.602   4.083  0.7353 -1.6664  1.2116
 3910SOL    HW223193   0.338   0.647   4.089 -0.0153  0.9578 -2.0422
 3911SOL     OW23194   0.956   1.383   6.378  0.0759 -0.7360 -0.3660
 3911SOL    HW123195   1.016   1.456   6.368 -1.2289  0.1720 -1.4785
 3911SOL    HW223196   0.985   1.360   6.466 -0.4856 -0.6603 -0.1619
 3912SOL     OW23197   1.856   0.944   3.554  0.8801 -0.5919 -0.1566
 3912SOL    HW123198   1.836   1.033   3.523 -0.8280 -0.5790  0.9942
 3912SOL    HW223199   1.802   0.940   3.633 -0.9654  1.0633 -1.3234
 3913SOL     OW23200   3.908   2.499  16.650  0.6713  0.3425  0.2826
 3913SOL    HW123201   3.909   2.593  16.669  1.3654 -0.0744  2.3430
 3913SOL    HW223202   3.858   2.508  16.569  0.4319 -0.7696  0.3077
 3914SOL     OW23203   2.991   1.295  10.901 -0.3301 -0.4072 -0.0026
 3914SOL    HW123204   3.045   1.224  10.867 -1.1473  0.1405 -2.4648
 3914SOL    HW223205   3.004   1.262  10.990 -1.4662  0.6130  0.5542
 3915SOL     OW23206   4.291   3.760   3.305  0.3999 -0.7220 -0.2148
 3915SOL    HW123207   4.323   3.671   3.321 -0.5336 -0.8264  1.1101
 3915SOL    HW223208   4.220   3.749   3.242 -1.3648  2.3460  1.2417
 3916SOL     OW23209   3.877   2.203   3.513  0.0866  0.0823 -0.0573
 3916SOL    HW123210   3.876   2.271   3.446  0.6818  1.0503  0.9093
 3916SOL    HW223211   3.811   2.136   3.494  3.0842 -3.1372  0.9976
 3917SOL     OW23212   1.747   4.548   1.799 -0.1786 -0.0686 -0.0560
 3917SOL    HW123213   1.705   4.465   1.775 -0.5844  0.4764 -1.2363
 3917SOL    HW223214   1.743   4.591   1.713 -2.1377  0.1976  0.1861
 3918SOL     OW23215   2.437   0.483   9.192  0.1996  0.3083  0.1605
 3918SOL    HW123216   2.498   0.554   9.211  2.6054 -1.4974 -0.7697
 3918SOL    HW223217   2.471   0.418   9.252 -2.8900 -0.9571  0.5176
 3919SOL     OW23218   1.429   3.609   9.067  0.2723 -0.1705 -0.1012
 3919SOL    HW123219   1.510   3.650   9.036 -1.8128  2.0731 -2.6413
 3919SOL    HW223220   1.413   3.647   9.153  0.6773 -1.9468  0.7614
 3920SOL     OW23221   3.991   2.142   5.862 -0.1901  0.0778  0.1932
 3920SOL    HW123222   4.043   2.066   5.888 -1.0517  0.9597  4.4334
 3920SOL    HW223223   4.035   2.207   5.918  1.9905 -1.0710 -0.1752
 3921SOL     OW23224   4.689   2.007   7.736 -0.0164  0.2605 -0.1122
 3921SOL    HW123225   4.697   2.008   7.641 -0.3717  0.2603 -0.1448
 3921SOL    HW223226   0.007   1.920   7.754  0.5212  0.8956  1.9144
 3922SOL     OW23227   2.609   1.318   6.796 -0.0376  0.0837  0.4232
 3922SOL    HW123228   2.684   1.264   6.822 -1.5605 -0.2001  4.3247
 3922SOL    HW223229   2.566   1.317   6.882 -1.6643  1.5260 -0.3694
 3923SOL     OW23230   4.658   1.442  15.145  0.0094  0.5655 -0.1249
 3923SOL    HW123231   4.631   1.350  15.152 -0.1596  0.6274  0.0162
 3923SOL    HW223232   4.713   1.456  15.222  3.0773 -0.2346 -2.1417
 3924SOL     OW23233   0.781   4.439   6.230  0.1869 -0.0085  0.3033
 3924SOL    HW123234   0.868   4.410   6.204  0.3186 -0.8833  1.7564
 3924SOL    HW223235   0.745   4.461   6.144 -0.2921 -1.2464  0.1822
 3925SOL     OW23236   2.689   2.153   8.331 -0.1563  0.0415  0.2385
 3925SOL    HW123237   2.605   2.198   8.333 -1.3534 -2.2207  0.8185
 3925SOL    HW223238   2.674   2.088   8.400  0.1492  0.1969  0.4493
 3926SOL     OW23239   3.713   0.811   6.704  0.0522  0.0747  0.2314
 3926SOL    HW123240   3.745   0.833   6.617  1.3244 -2.5411  0.0303
 3926SOL    HW223241   3.781   0.852   6.757 -0.4628 -0.7416  1.5498
 3927SOL     OW23242   4.543   3.461  16.866 -1.0510 -0.1959  0.1980
 3927SOL    HW123243   4.568   3.395  16.931 -0.0762 -1.5025 -1.5053
 3927SOL    HW223244   4.449   3.462  16.879 -1.4796  0.3522 -3.1253
 3928SOL     OW23245   2.446   0.018   6.885 -0.1230  0.4260  0.0495
 3928SOL    HW123246   2.417   4.659   6.837  0.7549 -0.1212  0.3901
 3928SOL    HW223247   2.429   4.712   6.976 -1.4223 -0.3031 -0.3854
 3929SOL     OW23248   0.538   3.471   5.526  0.2575 -0.4685 -0.1689
 3929SOL    HW123249   0.621   3.440   5.489  0.6815 -0.5267  0.8411
 3929SOL    HW223250   0.471   3.454   5.460  0.5560  0.6058 -0.7581
 3930SOL     OW23251   2.150   4.485   7.352 -0.2869  0.1334 -0.2165
 3930SOL    HW123252   2.228   4.440   7.385  0.5059  0.8578 -1.0964
 3930SOL    HW223253   2.127   4.420   7.286 -0.2356 -1.1335  1.0010
 3931SOL     OW23254   3.713   0.405   1.443  0.4451  0.1658 -0.4166
 3931SOL    HW123255   3.663   0.325   1.456 -0.0735  0.6629  0.6345
 3931SOL    HW223256   3.655   0.480   1.459  0.8441  0.0137  1.7469
 3932SOL     OW23257   3.205   4.601   6.467  0.6554 -0.4589  0.0238
 3932SOL    HW123258   3.202   4.524   6.524 -0.0634 -1.0079 -0.7467
 3932SOL    HW223259   3.191   4.672   6.530  0.1936  0.2883 -0.9147
 3933SOL     OW23260   0.035   1.135   6.395 -0.2937  0.3307 -0.2709
 3933SOL    HW123261   0.116   1.099   6.357 -1.4904 -1.0171 -1.5309
 3933SOL    HW223262   0.062   1.218   6.434  0.2279  0.8491 -1.7161
 3934SOL     OW23263   2.755   0.163   9.680  0.3543  0.0093 -0.4904
 3934SOL    HW123264   2.756   0.112   9.761  0.2248  0.7912  0.0007
 3934SOL    HW223265   2.669   0.204   9.691 -0.1449 -0.9263 -0.9182
 3935SOL     OW23266   4.095   3.196   2.657 -0.4766  0.3389 -0.0578
 3935SOL    HW123267   4.133   3.184   2.570  2.0278 -0.5928  1.1703
 3935SOL    HW223268   4.072   3.107   2.686 -0.9027  0.6964  0.6944
 3936SOL     OW23269   3.170   3.049  10.404 -0.0676 -0.1974  0.5172
 3936SOL    HW123270   3.223   3.104  10.346 -0.6453 -1.1492 -0.9272
 3936SOL    HW223271   3.087   3.072  10.362 -0.3276  0.6031  1.4835
 3937SOL     OW23272   4.713   0.874   0.324 -0.0409  0.4493 -0.1527
 3937SOL    HW123273   4.686   0.794   0.369  0.4414  0.9300  1.0019
 3937SOL    HW223274   0.067   0.850   0.267  0.1925 -0.3797  0.4905
 3938SOL     OW23275   4.617   1.303   2.308 -0.2931  0.3114  0.4039
 3938SOL    HW123276   4.627   1.241   2.236 -0.1340 -0.2483  0.9100
 3938SOL    HW223277   4.706   1.337   2.306  0.0908 -0.8355 -2.2031
 3939SOL     OW23278   3.408   1.062   5.727  0.4729  0.0207 -0.3684
 3939SOL    HW123279   3.461   1.138   5.702  1.6971 -0.8480 -0.4123
 3939SOL    HW223280   3.457   1.031   5.804 -0.0909  1.7165  0.6850
 3940SOL     OW23281   4.344   1.949   0.324 -0.2797  0.1916  0.2098
 3940SOL    HW123282   4.320   1.909   0.241 -2.2460  0.2631  0.7585
 3940SOL    HW223283   4.392   1.879   0.367  0.8261 -0.5119 -2.1661
 3941SOL     OW23284   0.486   4.241   1.842  0.0515  0.2489 -0.4833
 3941SOL    HW123285   0.436   4.203   1.770  0.9107 -0.2578 -0.8135
 3941SOL    HW223286   0.467   4.335   1.842  0.1535  0.2662  1.6224
 3942SOL     OW23287   3.670   0.646   8.516 -0.4256  0.2496 -0.2674
 3942SOL    HW123288   3.609   0.575   8.539  3.2499 -2.6252  0.5445
 3942SOL    HW223289   3.731   0.597   8.462 -1.2485 -0.3353 -0.6682
 3943SOL     OW23290   4.021   0.636  13.408  0.1786 -0.3927 -0.3909
 3943SOL    HW123291   4.093   0.639  13.345 -0.2861 -2.6416 -1.0223
 3943SOL    HW223292   4.065   0.600  13.485 -1.4201 -0.9953  0.2437
 3944SOL     OW23293   3.333   3.939   5.301  0.0503 -0.0491  0.0725
 3944SOL    HW123294   3.311   3.900   5.217  0.9628  0.0826 -0.2328
 3944SOL    HW223295   3.403   3.997   5.272 -1.7072  2.2039  0.3528
 3945SOL     OW23296   1.445   3.193   4.128  0.1456  0.3080  0.0347
 3945SOL    HW123297   1.419   3.234   4.045 -2.1172  3.0784  2.1174
 3945SOL    HW223298   1.395   3.238   4.196  1.1396  1.3787  0.0510
 3946SOL     OW23299   1.061   2.904   6.766 -0.0745  0.3630  0.2064
 3946SOL    HW123300   0.997   2.919   6.696  0.1217 -3.4452 -0.7978
 3946SOL    HW223301   1.105   2.989   6.769  3.4345 -1.4902  1.3959
 3947SOL     OW23302   3.028   2.793  12.898 -1.0403 -0.5588  0.2035
 3947SOL    HW123303   3.041   2.727  12.830  2.9352 -1.3318  1.6860
 3947SOL    HW223304   3.099   2.766  12.956 -1.0078  2.1243  1.3795
 3948SOL     OW23305   3.884   2.665   3.183 -0.1450  0.4215 -0.4086
 3948SOL    HW123306   3.903   2.746   3.231  0.0872 -0.0676  0.3144
 3948SOL    HW223307   3.797   2.679   3.147 -0.1864 -0.5118 -0.6771
 3949SOL     OW23308   0.352   0.316  15.095 -0.0906 -0.1307  0.1679
 3949SOL    HW123309   0.389   0.339  15.180  0.0427  0.9718 -0.1862
 3949SOL    HW223310   0.325   0.399  15.056 -0.1053  0.3071  1.0999
 3950SOL     OW23311   4.081   0.148   6.769  0.3567  0.7847  0.1002
 3950SOL    HW123312   4.092   0.187   6.855 -1.2656  0.9527  0.2342
 3950SOL    HW223313   4.045   0.060   6.781  2.8987 -0.0380  1.5982
 3951SOL     OW23314   0.787   4.317  15.599 -0.6663 -0.3409  0.1573
 3951SOL    HW123315   0.813   4.406  15.624  0.5202 -0.5028 -0.5124
 3951SOL    HW223316   0.718   4.330  15.534 -0.3212  1.8963  0.2316
 3952SOL     OW23317   1.257   4.385   8.667 -0.5541 -0.4297  0.4898
 3952SOL    HW123318   1.301   4.354   8.587 -1.5072  0.8270 -0.5223
 3952SOL    HW223319   1.283   4.314   8.725  1.2829 -0.5720 -0.4845
 3953SOL     OW23320   1.251   2.777  15.184  0.2192 -0.9850  0.3244
 3953SOL    HW123321   1.160   2.756  15.204 -0.2219 -0.2726 -0.8936
 3953SOL    HW223322   1.297   2.699  15.215  0.7094 -0.6894  0.3380
 3954SOL     OW23323   0.202   2.127   1.869  0.6969 -0.2099 -0.3939
 3954SOL    HW123324   0.173   2.200   1.816  0.7940 -1.1196 -1.7018
 3954SOL    HW223325   0.226   2.177   1.947 -0.8516  2.2894 -1.5422
 3955SOL     OW23326   1.132   1.598   3.973  0.5506  0.1461  0.2693
 3955SOL    HW123327   1.157   1.506   3.989  2.6818  0.7910  0.7297
 3955SOL    HW223328   1.212   1.636   4.010  0.9529  1.5850 -2.1051
 3956SOL     OW23329   1.206   3.828   2.890 -0.6124  0.4954 -0.8159
 3956SOL    HW123330   1.286   3.797   2.934 -0.6146  2.5414  0.6333
 3956SOL    HW223331   1.192   3.908   2.942  3.0258  0.6225  0.0146
 3957SOL     OW23332   2.997   0.389  16.149  0.2532 -0.4694 -0.6814
 3957SOL    HW123333   3.058   0.419  16.216  1.3073 -0.7373 -1.5254
 3957SOL    HW223334   3.010   0.463  16.088 -1.6575  0.8002  0.4598
 3958SOL     OW23335   2.961   2.833  15.200  0.1984 -0.0397 -1.1143
 3958SOL    HW123336   2.934   2.757  15.148 -1.9667  1.2697 -1.8580
 3958SOL    HW223337   3.025   2.787  15.254 -0.3012  0.1704 -0.3479
 3959SOL     OW23338   2.252   0.727   6.164 -0.0338 -0.0281 -0.1032
 3959SOL    HW123339   2.257   0.636   6.192 -3.9638 -0.5722 -1.2259
 3959SOL    HW223340   2.334   0.760   6.203 -0.3475  1.2959 -0.5517
 3960SOL     OW23341   1.116   2.545   8.132 -0.6144  0.6075 -0.4336
 3960SOL    HW123342   1.035   2.550   8.183 -0.1218 -0.6671  0.4867
 3960SOL    HW223343   1.145   2.459   8.163  0.9575  0.6337 -1.8825
 3961SOL     OW23344   4.351   2.632   7.736  0.0077 -0.3162  0.2948
 3961SOL    HW123345   4.389   2.720   7.735 -2.2171  0.6299 -0.3031
 3961SOL    HW223346   4.267   2.649   7.779 -0.7687 -0.3054 -1.2307
 3962SOL     OW23347   3.524   1.536   6.380  0.1602  0.3177 -0.0196
 3962SOL    HW123348   3.612   1.556   6.351  0.7104  1.3925  2.3716
 3962SOL    HW223349   3.530   1.450   6.422 -0.0548  1.9820  3.4675
 3963SOL     OW23350   0.563   4.423   7.796 -0.0461  0.6662  0.4676
 3963SOL    HW123351   0.558   4.512   7.832  2.6856  0.8590  0.3924
 3963SOL    HW223352   0.644   4.425   7.745  0.7979 -0.2604  1.7788
 3964SOL     OW23353   1.435   4.671  10.000  0.0017 -0.3462 -0.1742
 3964SOL    HW123354   1.497   4.670   9.927 -0.0234 -2.0204 -0.1706
 3964SOL    HW223355   1.497   4.653  10.071  0.3902 -0.2076 -0.4760
 3965SOL     OW23356   2.698   1.196  15.555  0.5899  0.8044  0.7557
 3965SOL    HW123357   2.771   1.163  15.606 -0.8588 -1.2427  1.4704
 3965SOL    HW223358   2.678   1.283  15.589  0.8423  1.5855 -1.0630
 3966SOL     OW23359   3.227   0.444   8.987 -0.1516  0.0910 -0.1250
 3966SOL    HW123360   3.213   0.427   8.893 -0.6506 -0.3786  0.0271
 3966SOL    HW223361   3.310   0.491   8.992  0.8509 -1.8919  1.5307
 3967SOL     OW23362   0.557   4.652   7.092  0.0338 -0.0773  0.2966
 3967SOL    HW123363   0.550   0.029   7.102  2.5369  0.0006  1.5043
 3967SOL    HW223364   0.581   4.629   7.182 -0.0000  0.7766  0.5299
 3968SOL     OW23365   4.107   1.554   9.467  0.5945 -0.2988 -0.4198
 3968SOL    HW123366   4.038   1.592   9.520  1.2301 -0.1425  0.3057
 3968SOL    HW223367   4.178   1.615   9.489  0.3123 -0.4146  0.8268
 3969SOL     OW23368   0.599   0.778   5.006  0.2580  0.4684 -0.0165
 3969SOL    HW123369   0.602   0.860   4.957  0.3781  0.7040  0.3845
 3969SOL    HW223370   0.604   0.713   4.936 -1.3811  0.5918 -0.2405
 3970SOL     OW23371   0.469   0.494  16.978  0.1046 -0.5627  0.3062
 3970SOL    HW123372   0.457   0.589  16.974  2.1568 -0.2382  1.9189
 3970SOL    HW223373   0.381   0.459  16.995 -0.5206 -0.0118 -1.8479
 3971SOL     OW23374   0.444   3.174   8.695  0.2671  0.4128 -0.3104
 3971SOL    HW123375   0.418   3.265   8.681  1.0237  0.7974  0.8121
 3971SOL    HW223376   0.510   3.194   8.761 -1.2222  1.7998  0.7690
 3972SOL     OW23377   4.212   4.300   4.544  0.0108 -0.2369  0.3982
 3972SOL    HW123378   4.270   4.283   4.618  0.9011  1.3257  0.0673
 3972SOL    HW223379   4.218   4.395   4.529 -0.0039 -0.1495  0.9465
 3973SOL     OW23380   3.377   2.669   7.567 -0.4885  0.3181  0.0130
 3973SOL    HW123381   3.427   2.645   7.490  1.1880 -0.0484  1.2186
 3973SOL    HW223382   3.449   2.701   7.622 -0.8267  1.4626 -0.2056
 3974SOL     OW23383   0.047   2.133  13.889  0.4622  0.1890  0.0755
 3974SOL    HW123384   0.119   2.161  13.945  1.3055  0.4101 -1.1261
 3974SOL    HW223385   0.095   2.067  13.839 -1.1540 -0.0994 -1.1114
 3975SOL     OW23386   4.441   4.696  16.572 -0.0730  0.1983 -0.3043
 3975SOL    HW123387   4.494   4.617  16.581  1.6017  1.4078  0.5441
 3975SOL    HW223388   4.386   4.672  16.498 -0.3965  2.8816 -0.9405
 3976SOL     OW23389   2.428   4.248  10.285  0.0688  0.7290 -0.6929
 3976SOL    HW123390   2.369   4.294  10.345 -0.4746 -0.9371  0.0316
 3976SOL    HW223391   2.504   4.276  10.337  0.8596 -4.8503  1.1588
 3977SOL     OW23392   2.757   0.654   1.424  0.1008 -0.4832 -0.0815
 3977SOL    HW123393   2.851   0.639   1.437  0.0050 -0.2778  0.8282
 3977SOL    HW223394   2.731   0.708   1.499 -0.9119 -0.5661 -0.3670
 3978SOL     OW23395   1.311   0.580   4.056  0.0560  0.1824  0.4418
 3978SOL    HW123396   1.392   0.595   4.008  0.7500 -1.8712  0.9746
 3978SOL    HW223397   1.334   0.523   4.129  0.6468 -1.6323 -1.1775
 3979SOL     OW23398   4.491   2.436   8.182  0.0198 -0.5999  0.0784
 3979SOL    HW123399   4.584   2.430   8.159 -0.1461 -5.1239  0.6540
 3979SOL    HW223400   4.495   2.448   8.277  1.5994  1.6108 -0.2532
 3980SOL     OW23401   4.061   0.759  16.888 -0.0947 -0.0401 -0.4318
 3980SOL    HW123402   4.136   0.729  16.940  1.0184  2.2020 -0.7499
 3980SOL    HW223403   3.997   0.763  16.960 -0.8692  1.9549 -1.2304
 3981SOL     OW23404   3.915   1.719   9.233  0.1471 -0.4493  0.0596
 3981SOL    HW123405   3.983   1.652   9.230  0.0846 -0.5049 -0.1344
 3981SOL    HW223406   3.885   1.722   9.323  3.4574 -3.3683  1.2545
 3982SOL     OW23407   3.061   2.025   7.737 -0.4448  0.7245  0.3419
 3982SOL    HW123408   3.072   2.113   7.702 -0.6614  0.0989 -1.3192
 3982SOL    HW223409   3.154   2.005   7.750 -0.6464  0.1640  0.9311
 3983SOL     OW23410   0.902   2.366   6.944  0.3692  0.0683  0.0108
 3983SOL    HW123411   0.833   2.431   6.933  0.8348  0.5182 -0.1923
 3983SOL    HW223412   0.853   2.288   6.972 -0.1136 -0.5196 -2.4851
 3984SOL     OW23413   1.091   4.371   2.469 -0.1353  0.3259  0.4132
 3984SOL    HW123414   1.128   4.459   2.460 -2.1793  0.9901 -1.4477
 3984SOL    HW223415   1.018   4.382   2.408 -1.2551  0.5955  1.7813
 3985SOL     OW23416   2.625   2.031   6.293  0.0425  0.4541  0.0829
 3985SOL    HW123417   2.690   2.076   6.240  1.3881 -3.3876 -1.5632
 3985SOL    HW223418   2.587   1.956   6.246  0.1177  1.6257 -1.8341
 3986SOL     OW23419   2.952   1.931   4.938  0.0944 -0.5215 -0.2268
 3986SOL    HW123420   2.881   1.877   4.971  0.0846  0.3802  1.2476
 3986SOL    HW223421   2.901   2.012   4.941  0.7904 -0.1212  1.1224
 3987SOL     OW23422   0.029   1.628   2.329  0.5206  0.4002  0.1382
 3987SOL    HW123423   0.085   1.552   2.315  0.9525  0.8005 -0.3081
 3987SOL    HW223424   0.004   1.601   2.417  0.6024  2.2342  0.7279
 3988SOL     OW23425   4.038   1.149   8.592  0.0708 -0.1838 -1.1598
 3988SOL    HW123426   3.981   1.222   8.617  1.2844  0.4764 -0.3151
 3988SOL    HW223427   4.093   1.205   8.537 -0.4590  2.7169  1.3028
 3989SOL     OW23428   3.083   4.002   0.552  0.1579 -0.0655  0.2436
 3989SOL    HW123429   3.026   3.960   0.488 -0.4525  0.7318  0.2658
 3989SOL    HW223430   3.132   4.061   0.496 -0.7357  2.2451  1.8765
 3990SOL     OW23431   1.462   2.397  13.008 -0.1090 -0.1986  0.1349
 3990SOL    HW123432   1.412   2.317  13.023  1.5173 -0.9094  1.7880
 3990SOL    HW223433   1.460   2.435  13.096  0.0945 -1.2892  0.6076
 3991SOL     OW23434   2.924   1.827   4.303  0.3847 -0.0901 -0.5532
 3991SOL    HW123435   2.900   1.907   4.350 -1.4461  1.0425 -3.3765
 3991SOL    HW223436   3.006   1.798   4.343 -1.1799 -2.8664  0.6403
 3992SOL     OW23437   2.182   4.398  14.137 -0.2263 -0.5586 -0.2741
 3992SOL    HW123438   2.100   4.373  14.093  1.7041 -0.1292 -4.1271
 3992SOL    HW223439   2.145   4.387  14.224  3.6909 -1.3437  1.2682
 3993SOL     OW23440   4.693   1.240  17.171 -0.1732 -0.2814 -0.6005
 3993SOL    HW123441   0.028   1.310  17.210  0.0746 -1.6383  1.5289
 3993SOL    HW223442   4.623   1.233  17.235 -1.5526  0.9476 -1.9940
 3994SOL     OW23443   3.019   1.647   8.696 -0.4330 -0.4595 -0.1128
 3994SOL    HW123444   3.041   1.616   8.609 -1.9017 -1.3795 -0.1683
 3994SOL    HW223445   3.054   1.735   8.681 -2.3604  0.1814 -0.8961
 3995SOL     OW23446   0.504   4.537   7.420  0.3084 -0.4554  0.3156
 3995SOL    HW123447   0.464   4.498   7.498  1.6942  0.4166  1.4745
 3995SOL    HW223448   0.502   4.462   7.361 -1.8672 -1.1771  1.3067
 3996SOL     OW23449   2.708   0.920   6.720 -0.0639 -0.5141 -0.1917
 3996SOL    HW123450   2.717   0.880   6.807 -0.1164  1.3029  0.6398
 3996SOL    HW223451   2.775   0.870   6.673  0.9827  0.3793  0.3564
 3997SOL     OW23452   4.326   4.528   5.304  0.1399 -0.0114  0.3007
 3997SOL    HW123453   4.416   4.513   5.332  0.4700 -0.3543 -0.9152
 3997SOL    HW223454   4.284   4.451   5.344  0.2064 -1.0599 -1.6319
 3998SOL     OW23455   2.696   2.039  12.923 -0.2476 -0.0923 -0.4095
 3998SOL    HW123456   2.785   2.071  12.914 -0.2257  0.1962  0.9094
 3998SOL    HW223457   2.665   2.063  12.835  0.2708 -1.3025 -0.9281
 3999SOL     OW23458   0.638   3.827   6.335  0.3823 -0.1358  0.3152
 3999SOL    HW123459   0.581   3.837   6.412  0.8077  1.8972  0.3494
 3999SOL    HW223460   0.657   3.735   6.356 -0.9604 -0.8842 -1.7501
 4000SOL     OW23461   0.282   3.111   1.842  0.4264 -0.7795  0.4033
 4000SOL    HW123462   0.284   3.134   1.749  0.1836  1.1815  0.8647
 4000SOL    HW223463   0.292   3.192   1.894  0.8803  0.6356 -1.8901
 4001SOL     OW23464   3.563   0.992   3.856 -0.9858 -0.2818  0.3991
 4001SOL    HW123465   3.485   0.988   3.912 -1.7441  1.1081 -0.5629
 4001SOL    HW223466   3.584   0.900   3.841  1.3494  0.3867 -0.4077
 4002SOL     OW23467   3.054   1.913   0.269 -0.1779 -0.0153 -0.0282
 4002SOL    HW123468   3.002   1.933   0.347  1.1218  0.4271  0.7174
 4002SOL    HW223469   3.143   1.912   0.304 -0.0337 -1.6421 -0.4064
 4003SOL     OW23470   3.336   1.779   9.397  0.2575 -0.0731 -0.2301
 4003SOL    HW123471   3.347   1.850   9.460  0.2302  1.0519 -1.4739
 4003SOL    HW223472   3.336   1.825   9.312 -0.1077  1.3329  0.5328
 4004SOL     OW23473   1.808   2.141   4.250  0.6932  0.1254 -0.0275
 4004SOL    HW123474   1.876   2.140   4.317 -0.9246 -1.9313  1.5605
 4004SOL    HW223475   1.851   2.085   4.185 -0.8804 -0.8294 -0.2341
 4005SOL     OW23476   1.555   0.911  14.691 -0.5184  0.4364 -0.3501
 4005SOL    HW123477   1.619   0.866  14.636 -0.4945  0.0770 -0.0278
 4005SOL    HW223478   1.505   0.955  14.622 -1.0293  0.6679  0.1619
 4006SOL     OW23479   1.800   4.001   3.555  0.7129 -0.1091 -0.4960
 4006SOL    HW123480   1.778   4.005   3.462  0.2356  0.0996 -0.3755
 4006SOL    HW223481   1.740   4.061   3.600  4.0434  1.5199  1.7805
 4007SOL     OW23482   0.180   2.581   0.904 -0.0877  0.4624 -0.5364
 4007SOL    HW123483   0.253   2.616   0.854  0.6669 -1.7009 -0.9340
 4007SOL    HW223484   0.230   2.536   0.972 -0.2374  0.8993 -0.1401
 4008SOL     OW23485   0.871   3.140  11.400 -0.1601  0.1925 -0.0200
 4008SOL    HW123486   0.797   3.080  11.405  0.8122 -0.9415  0.7651
 4008SOL    HW223487   0.862   3.178  11.313  0.0627 -2.9956 -1.4172
 4009SOL     OW23488   4.233   2.196   6.874 -0.8876  0.8803 -0.4192
 4009SOL    HW123489   4.143   2.187   6.842 -1.6581  0.1393  1.9387
 4009SOL    HW223490   4.241   2.139   6.950 -0.2385 -1.1826 -2.0494
 4010SOL     OW23491   2.179   3.891  15.079 -0.1698 -0.4989  0.1606
 4010SOL    HW123492   2.147   3.851  15.159 -3.1880  2.2026  0.3105
 4010SOL    HW223493   2.101   3.882  15.024  0.3559 -2.6069 -0.2153
 4011SOL     OW23494   1.588   3.783   7.822 -0.0962 -0.1491  0.4701
 4011SOL    HW123495   1.622   3.726   7.891  0.2534  1.8449  1.9799
 4011SOL    HW223496   1.632   3.728   7.757 -0.3450  1.6487 -1.2113
 4012SOL     OW23497   2.757   3.151   4.020 -0.1368  0.4445 -0.3491
 4012SOL    HW123498   2.785   3.103   4.097  0.4673 -2.5693 -2.4527
 4012SOL    HW223499   2.689   3.200   4.067 -0.3829  1.5801 -1.8618
 4013SOL     OW23500   0.878   0.913  13.649 -0.4053 -0.4204 -0.2825
 4013SOL    HW123501   0.829   0.995  13.641 -0.4913 -0.4092  0.3230
 4013SOL    HW223502   0.967   0.950  13.647 -0.5587 -0.0199  0.1176
 4014SOL     OW23503   3.839   0.089   7.478 -0.1610 -0.1732  0.3349
 4014SOL    HW123504   3.922   0.137   7.482 -0.3604 -0.0095  2.4679
 4014SOL    HW223505   3.790   0.127   7.550  1.4751 -0.9059  1.8338
 4015SOL     OW23506   4.227   2.654  11.569  0.2995 -0.2699  0.1542
 4015SOL    HW123507   4.251   2.624  11.482 -0.3912  1.1923 -0.5469
 4015SOL    HW223508   4.173   2.579  11.595 -2.9526  1.4314 -1.7508
 4016SOL     OW23509   0.336   0.871  13.481 -0.4619 -0.1304  0.3171
 4016SOL    HW123510   0.416   0.838  13.521  0.0623  3.4830  2.3228
 4016SOL    HW223511   0.360   0.952  13.435 -0.0641  0.9033  2.3326
 4017SOL     OW23512   3.568   0.878  11.273  0.2484  0.0605 -0.1968
 4017SOL    HW123513   3.513   0.844  11.203 -0.4725  0.2971  0.2494
 4017SOL    HW223514   3.642   0.912  11.222  1.0502  0.0468  0.9717
 4018SOL     OW23515   1.831   0.721   5.813  0.1441  0.8843 -0.1993
 4018SOL    HW123516   1.781   0.651   5.855  0.4591  0.7696 -0.0146
 4018SOL    HW223517   1.809   0.715   5.720 -0.3731 -1.0548  0.0576
 4019SOL     OW23518   2.888   2.708   3.811 -0.2903 -0.0908 -0.4395
 4019SOL    HW123519   2.957   2.681   3.872 -1.3854  1.0293  1.2815
 4019SOL    HW223520   2.929   2.773   3.755  0.2138 -0.7198 -0.8000
 4020SOL     OW23521   1.621   3.760   6.969 -0.5328 -0.0213 -0.2558
 4020SOL    HW123522   1.608   3.853   6.985  0.4978 -0.1344  1.2587
 4020SOL    HW223523   1.562   3.725   7.035 -0.1392  1.6040  0.9630
 4021SOL     OW23524   3.761   2.602   0.807 -0.9974 -0.1612 -0.2233
 4021SOL    HW123525   3.751   2.602   0.902 -1.8094  2.0910 -0.3059
 4021SOL    HW223526   3.733   2.512   0.793 -1.3935 -0.1451  0.4624
 4022SOL     OW23527   1.575   0.035   3.353  0.0725  0.3349  0.0434
 4022SOL    HW123528   1.669   0.030   3.369  0.2360  0.4271 -0.8986
 4022SOL    HW223529   1.541   0.059   3.439 -2.4767 -2.9405 -0.0220
 4023SOL     OW23530   1.422   0.011   9.094  0.0539  0.4719  0.0631
 4023SOL    HW123531   1.372   4.648   9.102 -0.5856  0.6228 -2.4625
 4023SOL    HW223532   1.370   0.058   9.159 -0.7035 -0.3395  0.0422
 4024SOL     OW23533   3.629   4.479   9.764  0.3497  0.0581 -0.2203
 4024SOL    HW123534   3.546   4.524   9.747  1.2036  0.9929 -1.7911
 4024SOL    HW223535   3.663   4.477   9.675  0.3774 -3.0911 -0.1664
 4025SOL     OW23536   4.135   1.006  11.313 -0.1025  0.2383 -0.4224
 4025SOL    HW123537   4.225   1.032  11.334 -0.3946  1.0257 -0.1596
 4025SOL    HW223538   4.127   0.967  11.400  2.7276  1.2386  0.2817
 4026SOL     OW23539   0.254   3.027   2.114 -0.0642  0.2096 -0.4585
 4026SOL    HW123540   0.174   3.021   2.166  0.3169  1.4271  0.2783
 4026SOL    HW223541   0.222   3.033   2.024 -1.3610  0.5834  0.0195
 4027SOL     OW23542   3.753   1.637   3.901  0.3501  0.8089 -0.2045
 4027SOL    HW123543   3.732   1.626   3.994  2.8535 -0.7760  0.1929
 4027SOL    HW223544   3.799   1.555   3.885 -0.6271  0.1879  0.1665
 4028SOL     OW23545   3.233   0.908   7.986 -0.0191  0.3410  0.3970
 4028SOL    HW123546   3.272   0.992   8.012 -1.9980  2.0308 -2.0768
 4028SOL    HW223547   3.310   0.862   7.952 -0.0238  1.1778 -0.7443
 4029SOL     OW23548   1.430   0.528   2.455  1.2162 -0.2047  1.0688
 4029SOL    HW123549   1.365   0.463   2.429  0.8847  0.4581  0.2310
 4029SOL    HW223550   1.442   0.516   2.549  1.8821 -1.4912  0.8071
 4030SOL     OW23551   4.135   3.737   5.769  0.0187 -0.1834 -0.4316
 4030SOL    HW123552   4.100   3.677   5.702 -1.4756  0.3652 -0.1293
 4030SOL    HW223553   4.188   3.793   5.712 -0.1228  0.2579 -0.1288
 4031SOL     OW23554   4.205   3.886   0.363  0.4200  0.4015  0.3349
 4031SOL    HW123555   4.275   3.896   0.426  0.2635 -0.9516  0.7276
 4031SOL    HW223556   4.247   3.843   0.288 -0.3304  0.0516  0.1108
 4032SOL     OW23557   4.561   1.347   6.804  0.1907  0.5263 -0.3226
 4032SOL    HW123558   4.531   1.325   6.892 -0.5887  1.8193 -0.2594
 4032SOL    HW223559   4.545   1.442   6.802 -1.7909  0.2207  1.0230
 4033SOL     OW23560   4.710   1.260   7.190  0.1891  0.2608  0.2629
 4033SOL    HW123561   4.692   1.171   7.221 -0.4616  0.4162  0.3299
 4033SOL    HW223562   4.631   1.283   7.141  0.0554  0.3543  0.5254
 4034SOL     OW23563   4.089   3.607  10.958  0.1398  0.4311  0.5995
 4034SOL    HW123564   4.149   3.611  11.033  1.9405 -0.3812 -0.7974
 4034SOL    HW223565   4.009   3.594  11.009  0.8816  0.6983  1.8209
 4035SOL     OW23566   0.094   2.730   6.814  0.1473 -0.1123 -0.1819
 4035SOL    HW123567   0.054   2.775   6.740 -0.9639 -0.7630  0.0220
 4035SOL    HW223568   0.020   2.687   6.856  1.2676  0.6614  2.6233
 4036SOL     OW23569   0.924   3.446   2.565  0.4055 -0.2256 -0.8456
 4036SOL    HW123570   0.922   3.530   2.611 -2.2865 -0.7083 -0.1029
 4036SOL    HW223571   0.986   3.462   2.494  0.3921  0.5010 -0.7014
 4037SOL     OW23572   1.931   4.001  11.920 -0.2333 -0.0815 -0.4245
 4037SOL    HW123573   2.002   4.063  11.903  2.1135 -2.7908 -0.6407
 4037SOL    HW223574   1.986   3.925  11.939 -1.2008 -0.0303  2.5854
 4038SOL     OW23575   2.105   0.269   2.113  0.4663  0.1249  0.5323
 4038SOL    HW123576   2.154   0.273   2.031 -1.5566  0.3935 -0.6522
 4038SOL    HW223577   2.083   0.361   2.127  0.4812  0.2328 -0.1677
 4039SOL     OW23578   4.084   4.502   8.198  0.1835 -0.3018  0.0620
 4039SOL    HW123579   4.000   4.475   8.162  1.0888 -1.7066 -0.9550
 4039SOL    HW223580   4.126   4.420   8.222  2.4159  0.6140 -0.7407
 4040SOL     OW23581   4.026   2.171   8.479  0.7443 -0.2401  0.4532
 4040SOL    HW123582   4.092   2.102   8.474  0.3597 -0.5961  0.3991
 4040SOL    HW223583   3.953   2.122   8.516 -0.7101 -0.1404 -2.2459
 4041SOL     OW23584   3.179   2.104  14.345  0.4279  0.3010 -0.3133
 4041SOL    HW123585   3.126   2.160  14.288 -0.3638  0.5039  0.6154
 4041SOL    HW223586   3.251   2.093  14.283 -1.1670 -0.2857 -2.0555
 4042SOL     OW23587   0.409   0.783   8.717  0.3273  0.4814  0.3943
 4042SOL    HW123588   0.328   0.736   8.738 -1.1574  1.9895 -1.9172
 4042SOL    HW223589   0.472   0.711   8.713 -0.4870 -0.3650  2.6341
 4043SOL     OW23590   1.885   1.955   5.058 -0.3232 -0.4909  0.2795
 4043SOL    HW123591   1.941   2.024   5.094 -1.3277 -0.0514  1.0028
 4043SOL    HW223592   1.818   2.009   5.016 -1.0421 -2.2878 -0.8834
 4044SOL     OW23593   4.201   4.052   3.125  0.8769 -0.1346  0.8276
 4044SOL    HW123594   4.278   4.070   3.178  1.4292 -0.6864  0.2146
 4044SOL    HW223595   4.167   3.970   3.160  0.1306 -0.3509 -0.3738
 4045SOL     OW23596   2.255   0.204   9.400 -0.4774 -0.6927 -0.1630
 4045SOL    HW123597   2.227   0.215   9.309 -0.0447 -1.7648 -0.4335
 4045SOL    HW223598   2.345   0.235   9.405 -0.6532 -0.2161  0.0469
 4046SOL     OW23599   1.621   0.326   8.642  0.1095  0.3096 -0.1883
 4046SOL    HW123600   1.595   0.237   8.618  1.2093 -0.2074  0.5512
 4046SOL    HW223601   1.577   0.368   8.568 -1.4833 -2.1159 -0.6231
 4047SOL     OW23602   2.103   3.083   0.832  0.0818 -0.1090 -0.8998
 4047SOL    HW123603   2.037   3.113   0.770  0.6682  1.8453 -0.5904
 4047SOL    HW223604   2.075   2.998   0.865  1.0342  0.1111  0.4700
 4048SOL     OW23605   0.562   0.782   4.425 -0.5991  0.1563  0.0225
 4048SOL    HW123606   0.631   0.746   4.370  0.8652  1.8368  0.7540
 4048SOL    HW223607   0.588   0.770   4.517 -2.0603  0.2642  0.4553
 4049SOL     OW23608   1.706   4.288   9.181 -0.2627 -0.4535 -0.2134
 4049SOL    HW123609   1.711   4.341   9.102 -1.0162  0.6643  0.4734
 4049SOL    HW223610   1.785   4.311   9.230  1.5116  0.8477 -3.6916
 4050SOL     OW23611   1.976   3.073   2.972 -0.5353 -0.2977  0.3755
 4050SOL    HW123612   2.061   3.077   2.930 -1.3084 -0.4284 -1.2103
 4050SOL    HW223613   1.929   3.133   2.914  0.5313 -0.7986 -1.0119
 4051SOL     OW23614   0.943   4.152   1.914  0.7909 -0.2139  0.2659
 4051SOL    HW123615   1.030   4.151   1.875  0.2765 -1.1523 -0.8492
 4051SOL    HW223616   0.954   4.072   1.965 -0.4355  0.1568  1.1166
 4052SOL     OW23617   1.919   0.856   5.365 -0.2699  0.3379  0.1859
 4052SOL    HW123618   1.993   0.917   5.371 -1.1753  1.3013  1.5324
 4052SOL    HW223619   1.890   0.880   5.278 -0.4526 -0.1953  0.0993
 4053SOL     OW23620   4.599   1.557  12.509 -0.2698 -0.1288  0.1618
 4053SOL    HW123621   4.510   1.531  12.534 -0.4786 -0.8318 -1.3216
 4053SOL    HW223622   4.648   1.489  12.555  0.7599 -0.0526 -0.8169
 4054SOL     OW23623   2.478   4.429   3.787  0.3757  0.3309 -0.4657
 4054SOL    HW123624   2.467   4.375   3.865  0.2598  0.4913 -0.3715
 4054SOL    HW223625   2.540   4.382   3.732  1.6874  0.6730  0.7057
 4055SOL     OW23626   0.360   3.506  14.171 -0.6896  0.5792 -0.5154
 4055SOL    HW123627   0.365   3.601  14.161 -1.5326  0.7032  0.2408
 4055SOL    HW223628   0.271   3.478  14.148  0.2356 -1.3131 -1.7716
 4056SOL     OW23629   2.149   2.713   3.546 -0.0397 -0.1816 -0.5689
 4056SOL    HW123630   2.164   2.704   3.452 -3.1386 -1.6671 -0.9051
 4056SOL    HW223631   2.085   2.644   3.561  0.0226  0.2266  1.6791
 4057SOL     OW23632   3.045   2.812   2.528 -0.2740 -0.2812  0.1522
 4057SOL    HW123633   3.055   2.797   2.434 -1.0363 -1.1215  0.2068
 4057SOL    HW223634   3.124   2.864   2.544 -0.7453  0.6775 -0.6747
 4058SOL     OW23635   1.722   1.234  16.673  0.1159  0.6433  0.0460
 4058SOL    HW123636   1.684   1.239  16.586 -2.1466  0.1997  0.9933
 4058SOL    HW223637   1.669   1.303  16.714  0.6041  0.7498  0.5003
 4059SOL     OW23638   2.084   4.392  11.969  0.6759  0.4201  0.0722
 4059SOL    HW123639   2.090   4.301  11.942  0.8242  0.4956 -0.1546
 4059SOL    HW223640   2.135   4.438  11.902  1.1277  0.2030  0.2675
 4060SOL     OW23641   0.021   2.714  11.005  0.2950 -0.1055 -0.1607
 4060SOL    HW123642   0.076   2.646  11.046  1.6596 -0.7448 -3.0603
 4060SOL    HW223643   0.082   2.787  10.996  1.3282 -0.9702 -0.2734
 4061SOL     OW23644   0.091   0.442   4.383  0.5713 -1.0330  0.9294
 4061SOL    HW123645   0.104   0.455   4.289  1.0816 -0.0206  1.1385
 4061SOL    HW223646   0.130   0.524   4.413 -0.2144  0.1221 -1.1300
 4062SOL     OW23647   2.944   1.438   8.868 -0.3636 -0.0748 -0.3688
 4062SOL    HW123648   2.855   1.452   8.901  0.3016 -0.4809  1.6338
 4062SOL    HW223649   2.959   1.519   8.819  2.1070  0.1057  0.6987
 4063SOL     OW23650   0.016   3.362  12.232 -0.7139 -0.4344  0.1730
 4063SOL    HW123651   4.653   3.348  12.281 -2.5487  0.7731 -2.5530
 4063SOL    HW223652   4.716   3.448  12.193  2.9259 -0.1158 -0.8606
 4064SOL     OW23653   1.630   3.010   5.343 -0.0837 -0.3535 -0.4827
 4064SOL    HW123654   1.647   2.973   5.256  0.0744 -3.6559  0.9195
 4064SOL    HW223655   1.670   2.936   5.389 -0.5586 -0.6445 -0.5394
 4065SOL     OW23656   2.366   1.118   8.789 -0.0733  0.1479  0.3934
 4065SOL    HW123657   2.351   1.036   8.742  0.4828  1.0977 -1.4675
 4065SOL    HW223658   2.279   1.140   8.821 -1.1829  2.2023 -3.9091
 4066SOL     OW23659   3.417   2.668   5.696 -0.3876 -0.4025  0.1307
 4066SOL    HW123660   3.344   2.634   5.644 -2.3678  1.0222  1.9984
 4066SOL    HW223661   3.491   2.665   5.635  0.5806  0.3653  1.2688
 4067SOL     OW23662   3.369   4.537   5.112  0.1875 -0.2222  0.5256
 4067SOL    HW123663   3.413   4.485   5.044 -0.3323  0.9665 -0.7029
 4067SOL    HW223664   3.286   4.567   5.074 -1.3442 -4.1118  0.7680
 4068SOL     OW23665   3.620   4.155  12.499 -0.1234 -0.0492  0.1274
 4068SOL    HW123666   3.609   4.098  12.423 -0.7634  0.9093 -0.4926
 4068SOL    HW223667   3.714   4.152  12.512  0.0310 -1.9750 -1.4307
 4069SOL     OW23668   2.023   4.070  10.240  0.2985  0.0032 -0.1874
 4069SOL    HW123669   2.016   4.137  10.172  0.7452  0.6335  0.3934
 4069SOL    HW223670   2.105   4.034  10.203  0.1372 -2.2525  1.6369
 4070SOL     OW23671   3.995   1.697  13.798  0.0649 -0.7586  0.4015
 4070SOL    HW123672   4.076   1.726  13.757  0.9487 -0.9254  2.0766
 4070SOL    HW223673   3.938   1.673  13.724  0.2008  0.6659 -0.1626
 4071SOL     OW23674   3.663   3.393   4.468  0.5958 -0.2330  0.1498
 4071SOL    HW123675   3.716   3.314   4.459 -0.1551 -0.7191 -0.0769
 4071SOL    HW223676   3.635   3.391   4.559  0.8198  1.4141  0.2488
 4072SOL     OW23677   3.190   0.554  11.706  0.1743 -0.1003 -0.2881
 4072SOL    HW123678   3.201   0.606  11.626  2.9233  0.7123  0.5906
 4072SOL    HW223679   3.121   0.605  11.748  1.9386  2.8960 -1.0123
 4073SOL     OW23680   2.025   1.327   9.958  0.0031  0.6324  0.3297
 4073SOL    HW123681   2.010   1.233   9.971  0.3090  0.3610 -1.3376
 4073SOL    HW223682   2.077   1.362  10.031  0.7234 -1.9209  1.0274
 4074SOL     OW23683   4.635   3.080  11.684  0.6076 -0.3364  0.0806
 4074SOL    HW123684   4.582   3.005  11.709  1.0687 -0.4343  0.7726
 4074SOL    HW223685   4.599   3.116  11.603 -1.3253  1.4295  1.7235
 4075SOL     OW23686   3.907   3.545   5.093 -0.3168 -0.1820 -0.3317
 4075SOL    HW123687   3.941   3.628   5.127  2.6793 -1.3030 -0.6089
 4075SOL    HW223688   3.988   3.495   5.088 -0.4097 -0.4121  0.4112
 4076SOL     OW23689   2.840   0.842   0.000 -0.0860 -0.3249 -0.2824
 4076SOL    HW123690   2.804   0.773   0.056 -1.5781  0.2995 -0.4682
 4076SOL    HW223691   2.845   0.802  17.589 -0.7618  1.3002 -1.0850
 4077SOL     OW23692   3.850   3.576   9.946 -0.0087  0.4465  0.0797
 4077SOL    HW123693   3.877   3.657   9.988  1.0071  0.3961 -0.4688
 4077SOL    HW223694   3.783   3.535  10.001 -0.2925  1.3774  0.4200
 4078SOL     OW23695   1.857   4.329   3.796 -0.0158 -0.0130  0.1734
 4078SOL    HW123696   1.914   4.295   3.727 -0.5134 -0.7361  0.1245
 4078SOL    HW223697   1.852   4.424   3.792  0.5828  0.1219  2.8793
 4079SOL     OW23698   4.469   3.081   3.064 -0.0363  0.1727  0.2782
 4079SOL    HW123699   4.398   3.074   3.128  0.3079 -1.9855  0.4249
 4079SOL    HW223700   4.541   3.075   3.127 -0.0878  3.2417  0.6165
 4080SOL     OW23701   1.420   0.413   4.711  0.3841  0.2837  0.0842
 4080SOL    HW123702   1.369   0.443   4.636  0.9903 -1.1929 -0.9095
 4080SOL    HW223703   1.396   0.483   4.772  3.8530 -0.1327  1.9018
 4081SOL     OW23704   0.432   2.714   7.579 -0.0260  0.1384 -0.0558
 4081SOL    HW123705   0.498   2.661   7.534  0.1905 -1.4245  2.0980
 4081SOL    HW223706   0.412   2.659   7.655 -0.0221 -2.7049 -2.0931
 4082SOL     OW23707   2.815   1.779   3.776  0.3915 -0.2858 -0.2725
 4082SOL    HW123708   2.901   1.768   3.737  0.2720 -0.2018 -0.5593
 4082SOL    HW223709   2.777   1.691   3.786 -1.6807  0.5035 -1.1940
 4083SOL     OW23710   2.477   4.018   5.143 -0.6378  0.2604 -0.4623
 4083SOL    HW123711   2.423   3.958   5.091 -1.0710 -0.2920  0.6285
 4083SOL    HW223712   2.480   4.096   5.087  1.2415  0.3865 -0.1756
 4084SOL     OW23713   0.797   2.513   3.061 -0.1094 -0.0015  0.1739
 4084SOL    HW123714   0.750   2.585   3.102 -1.3960 -0.5205 -0.3835
 4084SOL    HW223715   0.803   2.455   3.137 -1.4625 -0.0005  0.2954
 4085SOL     OW23716   0.025   4.424   5.875 -0.7410 -0.4634 -0.1295
 4085SOL    HW123717   0.019   4.518   5.857  1.1971 -0.3530 -0.2568
 4085SOL    HW223718   4.705   4.412   5.962  1.2018  1.1699  0.9306
 4086SOL     OW23719   2.642   2.707   1.172 -0.2740  0.7697  0.1721
 4086SOL    HW123720   2.704   2.772   1.138 -0.2382  0.0969 -1.0718
 4086SOL    HW223721   2.565   2.735   1.122  0.0677  1.1236 -0.1590
 4087SOL     OW23722   1.247   0.870  16.837 -0.4798  0.1524 -0.0976
 4087SOL    HW123723   1.221   0.948  16.885  0.8733  1.8710 -2.1149
 4087SOL    HW223724   1.233   0.905  16.749 -0.3251 -0.8177 -0.5200
 4088SOL     OW23725   0.675   0.359   6.555 -0.8073 -0.0586  0.0946
 4088SOL    HW123726   0.669   0.293   6.624  1.8008  0.7401  1.0880
 4088SOL    HW223727   0.611   0.428   6.575  0.5059  0.9519  0.8441
 4089SOL     OW23728   3.942   0.865   7.126 -0.0530 -0.1376 -0.8325
 4089SOL    HW123729   3.884   0.886   7.199  2.1249 -1.2480  1.1928
 4089SOL    HW223730   3.956   0.771   7.135  3.4623  0.4239 -0.6505
 4090SOL     OW23731   2.620   4.619   9.720 -0.0624  0.1029 -0.1383
 4090SOL    HW123732   2.584   4.579   9.641  1.5844  1.3121 -1.5058
 4090SOL    HW223733   2.697   4.562   9.720 -0.9916 -1.1618 -1.2863
 4091SOL     OW23734   1.819   4.512   5.164  0.7690  0.4633 -0.1385
 4091SOL    HW123735   1.866   4.592   5.138 -1.4806  0.5666 -3.9044
 4091SOL    HW223736   1.836   4.452   5.091 -4.1228 -0.3626 -0.5810
 4092SOL     OW23737   3.346   0.668   1.688 -0.3845  0.1512 -0.5777
 4092SOL    HW123738   3.260   0.707   1.699  0.6765  1.8575  1.7596
 4092SOL    HW223739   3.326   0.580   1.719 -1.6299  0.6283 -0.0499
 4093SOL     OW23740   2.117   0.357   6.165 -0.0364  0.2546 -0.1527
 4093SOL    HW123741   2.123   0.271   6.207  2.2497  0.5290  0.0742
 4093SOL    HW223742   2.192   0.398   6.208  1.4376 -0.1965 -2.2838
 4094SOL     OW23743   1.108   3.302   1.607 -0.1970 -0.1812 -0.0857
 4094SOL    HW123744   1.176   3.287   1.673 -3.0280 -1.8970  2.4168
 4094SOL    HW223745   1.157   3.281   1.528  0.6361  2.3433 -0.2548
 4095SOL     OW23746   0.441   2.169   7.063  0.2332  0.3004  0.2593
 4095SOL    HW123747   0.426   2.261   7.085 -1.1656 -0.8272  4.0526
 4095SOL    HW223748   0.461   2.176   6.970 -0.9117 -3.2305 -0.2275
 4096SOL     OW23749   3.155   4.674   8.870 -0.2715  0.1874  0.2201
 4096SOL    HW123750   3.124   4.682   8.961 -1.5020 -0.3219 -0.1540
 4096SOL    HW223751   3.201   4.591   8.877 -0.9782 -0.1469  1.0219
 4097SOL     OW23752   0.373   3.619   1.034  0.2270  0.8525 -0.4044
 4097SOL    HW123753   0.431   3.627   1.109 -0.6959  0.6673  0.3284
 4097SOL    HW223754   0.300   3.668   1.071 -0.6852 -1.9836  1.5540
 4098SOL     OW23755   4.549   0.716   5.123 -0.3736  0.8197 -0.5026
 4098SOL    HW123756   4.526   0.771   5.048 -2.1948  0.2326 -0.3653
 4098SOL    HW223757   4.565   0.638   5.070  1.3029  0.9623 -0.2169
 4099SOL     OW23758   0.688   0.809   6.486  0.1008 -0.8033  0.1646
 4099SOL    HW123759   0.621   0.876   6.469  2.0008  0.7520 -1.1050
 4099SOL    HW223760   0.717   0.785   6.398  0.8975 -0.1099  0.2348
 4100SOL     OW23761   0.805   4.694  11.859  0.3167  0.3884  0.0034
 4100SOL    HW123762   0.871   0.036  11.894 -1.3858  0.5500  2.9166
 4100SOL    HW223763   0.759   0.026  11.791  1.7852  0.8042 -0.6794
 4101SOL     OW23764   1.419   3.339   6.216 -0.1625 -0.0883  0.2643
 4101SOL    HW123765   1.370   3.382   6.145  1.8579  2.1403  0.2374
 4101SOL    HW223766   1.349   3.294   6.264  0.0013 -0.3101  0.2936
 4102SOL     OW23767   3.704   1.171   9.937  0.5669  0.3187 -0.1183
 4102SOL    HW123768   3.679   1.190   9.846  1.2551 -1.5494 -0.6963
 4102SOL    HW223769   3.799   1.172   9.925  0.5502 -1.7707 -0.5285
 4103SOL     OW23770   4.384   0.030   9.340  0.1378 -0.2907 -0.1035
 4103SOL    HW123771   4.310   0.071   9.384 -1.0335 -0.3863 -1.9626
 4103SOL    HW223772   4.364   4.656   9.351 -2.0444  0.2566  0.5019
 4104SOL     OW23773   0.027   4.270  13.057 -0.0331  0.2037  0.4499
 4104SOL    HW123774   0.069   4.352  13.030 -1.0571  0.1499 -1.3330
 4104SOL    HW223775   0.098   4.224  13.100 -0.5899 -1.4407 -0.3999
 4105SOL     OW23776   3.869   3.881   2.139 -0.4904 -0.2766 -0.1136
 4105SOL    HW123777   3.774   3.889   2.144 -0.4203  0.3285  0.1876
 4105SOL    HW223778   3.894   3.973   2.138 -0.9689 -0.1177  1.7795
 4106SOL     OW23779   4.556   0.812   0.912  0.7124  0.8517 -0.4451
 4106SOL    HW123780   4.486   0.749   0.931  0.6963  1.4885  1.5936
 4106SOL    HW223781   4.511   0.895   0.925  0.0161  0.6532 -1.5612
 4107SOL     OW23782   4.588   3.484  14.847  0.6284 -0.1093 -0.2270
 4107SOL    HW123783   4.572   3.570  14.886  1.7604 -0.0580  0.1199
 4107SOL    HW223784   4.648   3.452  14.915 -0.8323  1.5732  1.8895
 4108SOL     OW23785   2.996   3.575   2.845  0.1659 -0.5552  0.1766
 4108SOL    HW123786   3.073   3.570   2.901 -0.6154  0.5226  1.3583
 4108SOL    HW223787   3.033   3.623   2.771 -2.3295  1.0279 -0.0520
 4109SOL     OW23788   1.049   2.312   3.069 -0.1436 -0.0338  0.1525
 4109SOL    HW123789   0.991   2.294   3.143 -2.5904  2.6044 -1.1023
 4109SOL    HW223790   1.059   2.221   3.040 -3.4704 -1.7197  4.3043
 4110SOL     OW23791   1.442   0.667   7.130 -1.0571 -0.1841  0.8595
 4110SOL    HW123792   1.353   0.700   7.143 -0.2994  1.7140  1.0561
 4110SOL    HW223793   1.482   0.721   7.197 -2.1172  0.9276  0.5825
 4111SOL     OW23794   2.531   2.695   4.333  0.4246  0.0025 -0.0135
 4111SOL    HW123795   2.495   2.778   4.364  1.2639  0.0480  0.8413
 4111SOL    HW223796   2.550   2.654   4.418  2.0154  1.0979  0.1685
 4112SOL     OW23797   3.502   4.227   8.538  0.5821  0.3274  0.2418
 4112SOL    HW123798   3.440   4.206   8.468  0.0192  0.8655  0.5859
 4112SOL    HW223799   3.475   4.318   8.550 -0.8426 -0.1163  0.4090
 4113SOL     OW23800   1.134   1.431   5.015  0.4792 -0.6068  0.3612
 4113SOL    HW123801   1.138   1.378   5.095  0.7168 -0.6902  0.2933
 4113SOL    HW223802   1.224   1.460   5.004  0.8520 -1.2926  1.5514
 4114SOL     OW23803   0.721   0.571  17.114 -0.1796  0.0042  0.1137
 4114SOL    HW123804   0.645   0.520  17.085 -0.4609  0.5141 -0.0380
 4114SOL    HW223805   0.715   0.656  17.071  0.7240 -0.8648 -1.6995
 4115SOL     OW23806   2.397   3.204  14.517  0.3629 -0.2536  0.2750
 4115SOL    HW123807   2.359   3.121  14.545 -0.7087  1.1932  3.1046
 4115SOL    HW223808   2.374   3.213  14.425  2.6555 -0.1917 -0.2828
 4116SOL     OW23809   2.934   0.961   5.913 -0.4596  0.1896 -0.8017
 4116SOL    HW123810   2.841   0.949   5.895 -0.1828 -2.8522 -0.2728
 4116SOL    HW223811   2.942   1.056   5.923  0.8091  0.2263 -2.1555
 4117SOL     OW23812   3.073   3.953  14.442 -0.1467  0.1495 -0.0739
 4117SOL    HW123813   3.102   3.877  14.492  0.9706  2.2122  2.4488
 4117SOL    HW223814   3.134   3.960  14.369 -1.8452 -1.1915 -1.5779
 4118SOL     OW23815   4.257   4.648   3.445  0.1058 -0.0345  0.0039
 4118SOL    HW123816   4.329   4.629   3.506  0.2819  3.2302  0.8240
 4118SOL    HW223817   4.183   4.611   3.492 -1.0436  0.3005 -1.5629
 4119SOL     OW23818   3.527   4.504   3.453 -0.0499 -0.4283 -0.1763
 4119SOL    HW123819   3.443   4.543   3.478 -0.7773 -1.9361 -0.2359
 4119SOL    HW223820   3.579   4.525   3.531 -1.0557  2.1005 -0.1711
 4120SOL     OW23821   2.115   4.685   3.716 -0.3189 -0.3647  0.1149
 4120SOL    HW123822   2.103   0.028   3.643 -0.2632 -1.9247 -1.1983
 4120SOL    HW223823   2.194   4.707   3.766  0.4481  0.4330 -1.4376
 4121SOL     OW23824   3.421   0.255  12.555  0.2506  0.0373  0.8052
 4121SOL    HW123825   3.509   0.244  12.592  1.8923  0.6875 -2.9538
 4121SOL    HW223826   3.449   0.303  12.477  0.2040 -0.8410  0.2441
 4122SOL     OW23827   0.140   3.296   9.312 -0.1077 -0.2886 -0.3158
 4122SOL    HW123828   0.104   3.267   9.228  2.5202  1.4734 -2.0426
 4122SOL    HW223829   0.148   3.391   9.302  1.2739 -0.5838 -2.0428
 4123SOL     OW23830   4.650   4.175   2.453 -0.1551 -0.5946 -0.1368
 4123SOL    HW123831   4.581   4.155   2.517  0.5343  1.6912  1.3269
 4123SOL    HW223832   4.616   4.254   2.412  1.9958 -0.1635 -1.0910
 4124SOL     OW23833   1.363   1.424   7.841 -0.1345  0.4901  0.3386
 4124SOL    HW123834   1.440   1.418   7.785  0.7329 -0.2240  1.6005
 4124SOL    HW223835   1.309   1.495   7.807 -0.9621  0.8351  2.3398
 4125SOL     OW23836   1.774   2.938   3.100 -0.2017 -0.1446  0.1759
 4125SOL    HW123837   1.827   2.859   3.088  0.3927  0.1141  1.1496
 4125SOL    HW223838   1.840   3.002   3.075 -0.4794  0.3209  0.6521
 4126SOL     OW23839   4.258   1.482  13.390 -0.0163 -0.1555 -0.2533
 4126SOL    HW123840   4.348   1.449  13.378  0.3182  0.8175 -0.3809
 4126SOL    HW223841   4.264   1.475  13.485 -3.1276 -0.9547 -0.1239
 4127SOL     OW23842   4.140   2.039   6.189 -0.0096  0.0187  0.5095
 4127SOL    HW123843   4.121   1.963   6.243 -1.1175 -0.5987 -0.7692
 4127SOL    HW223844   4.052   2.077   6.187  0.3562  0.9380  2.3038
 4128SOL     OW23845   3.908   3.177   9.159 -0.5888 -0.2931  0.1313
 4128SOL    HW123846   3.814   3.171   9.175 -0.4956 -2.5856 -0.2612
 4128SOL    HW223847   3.945   3.103   9.207 -2.5618 -0.8791  0.7528
 4129SOL     OW23848   4.669   3.048  13.763  0.2261  0.1174 -0.3774
 4129SOL    HW123849   4.599   2.985  13.777 -0.7480  1.5208  0.9858
 4129SOL    HW223850   4.687   3.079  13.851 -0.4839  0.0408 -0.2054
 4130SOL     OW23851   1.214   3.760  16.986 -0.1496  0.0799 -0.2807
 4130SOL    HW123852   1.251   3.683  17.029 -1.8456 -0.7863 -0.3694
 4130SOL    HW223853   1.248   3.835  17.035 -0.7999  1.2021 -1.5434
 4131SOL     OW23854   0.092   1.502  13.390  0.1939 -0.3429  0.1999
 4131SOL    HW123855   0.098   1.522  13.484 -0.3394 -0.6775  0.3001
 4131SOL    HW223856   0.168   1.446  13.378 -1.2261 -2.0437 -0.7202
 4132SOL     OW23857   3.071   1.395   9.177  0.5110 -0.0005 -0.2365
 4132SOL    HW123858   2.989   1.361   9.213  1.0375 -0.9663  0.0548
 4132SOL    HW223859   3.128   1.379   9.252  1.0264  2.0394 -0.1971
 4133SOL     OW23860   0.419   3.942   6.067  0.2495  0.7030 -0.5803
 4133SOL    HW123861   0.459   3.979   6.146  2.3886  0.3837 -1.5040
 4133SOL    HW223862   0.453   3.853   6.074  0.2409  0.8410  1.3042
 4134SOL     OW23863   0.677   2.722   3.157  0.1481 -0.4388 -0.2058
 4134SOL    HW123864   0.602   2.722   3.217 -0.4450 -0.9926 -0.9560
 4134SOL    HW223865   0.740   2.762   3.217  0.6129  1.4951 -1.9938
 4135SOL     OW23866   0.781   1.322   4.458  0.1673  0.3929  0.3143
 4135SOL    HW123867   0.810   1.247   4.407  2.0047  0.8883  0.6191
 4135SOL    HW223868   0.773   1.381   4.383 -0.3323 -0.5031 -0.3245
 4136SOL     OW23869   4.090   3.487  10.710  0.7744 -0.4529  0.0328
 4136SOL    HW123870   4.089   3.526  10.797  1.4323 -1.4304  0.4664
 4136SOL    HW223871   4.158   3.423  10.727  2.4579  0.9181 -1.4737
 4137SOL     OW23872   0.639   4.006  13.941  0.0631 -0.0827  0.3166
 4137SOL    HW123873   0.693   3.953  13.999  0.8474  0.0832 -0.2635
 4137SOL    HW223874   0.617   3.942  13.873 -0.8142  0.8014 -0.2394
 4138SOL     OW23875   4.636   1.337   8.749 -0.1977  0.5349  0.0414
 4138SOL    HW123876   4.590   1.307   8.670  0.5932 -1.6297  0.4194
 4138SOL    HW223877   4.575   1.408   8.772  0.3163  0.5579  1.3308
 4139SOL     OW23878   0.018   2.141   5.793  0.5261 -0.3775  0.0019
 4139SOL    HW123879   0.032   2.161   5.886  1.2670  2.3726 -0.7070
 4139SOL    HW223880   0.069   2.211   5.752  1.6242 -1.9887 -1.3888
 4140SOL     OW23881   3.893   3.416  17.260  0.3366  0.3482  0.1133
 4140SOL    HW123882   3.807   3.393  17.224  1.8927 -3.5144 -1.1786
 4140SOL    HW223883   3.873   3.388  17.349  0.3442  0.7824  0.2476
 4141SOL     OW23884   3.052   3.997   9.737 -0.0334  0.1404  0.0494
 4141SOL    HW123885   2.958   4.010   9.725  0.2613 -0.1444 -2.4626
 4141SOL    HW223886   3.081   4.002   9.646 -0.5073  0.7278 -0.0680
 4142SOL     OW23887   1.608   4.594   7.812  0.3044 -0.6019  0.7304
 4142SOL    HW123888   1.624   4.594   7.907 -0.9029 -0.9042  0.9468
 4142SOL    HW223889   1.694   4.594   7.771 -1.0593 -0.0101 -2.0740
 4143SOL     OW23890   2.182   4.282   9.964  0.3572  0.0203  0.3349
 4143SOL    HW123891   2.272   4.256   9.986  0.4706 -0.9316 -1.2521
 4143SOL    HW223892   2.156   4.234   9.886  1.4636  0.4011 -0.2737
 4144SOL     OW23893   3.978   2.847   3.389 -0.1307  0.1053 -0.2885
 4144SOL    HW123894   4.057   2.866   3.439 -0.6407  0.9385  0.1959
 4144SOL    HW223895   3.945   2.936   3.385 -0.0084  0.1632 -0.0056
 4145SOL     OW23896   0.056   1.702   2.692  0.3950 -0.3613 -0.3427
 4145SOL    HW123897   0.085   1.611   2.696 -3.9631 -1.6008  3.8935
 4145SOL    HW223898   4.679   1.695   2.706  0.8121 -2.0730  1.6968
 4146SOL     OW23899   2.962   1.913   9.454 -0.0255 -0.1123 -0.1985
 4146SOL    HW123900   2.995   1.912   9.543 -1.8578 -1.5652  0.4550
 4146SOL    HW223901   2.921   1.827   9.447  1.3409 -0.5761 -2.8949
 4147SOL     OW23902   0.615   3.392   3.987  0.2832  0.2834 -0.2748
 4147SOL    HW123903   0.595   3.304   4.018  0.4012  0.5881  0.6516
 4147SOL    HW223904   0.575   3.394   3.900 -0.7255 -1.3040  0.1478
 4148SOL     OW23905   3.601   2.380   6.839  0.7522 -0.2434  0.1703
 4148SOL    HW123906   3.555   2.329   6.905  1.6150 -0.3773  0.6696
 4148SOL    HW223907   3.660   2.312   6.808 -0.9721 -0.5002 -2.5480
 4149SOL     OW23908   1.072   1.558  15.230 -0.4780  0.0407 -0.4433
 4149SOL    HW123909   1.120   1.518  15.157 -0.9138 -1.4849  0.1183
 4149SOL    HW223910   1.132   1.541  15.303  0.7352 -0.6640 -1.5997
 4150SOL     OW23911   4.681   2.774   8.759 -0.0548  0.4350  0.2653
 4150SOL    HW123912   0.035   2.763   8.697  0.3762 -1.5757  1.1223
 4150SOL    HW223913   4.659   2.866   8.746 -0.5565  0.5097  1.6580
 4151SOL     OW23914   4.032   3.238   1.135  0.2095 -0.3267 -0.1893
 4151SOL    HW123915   4.026   3.164   1.195  1.8481  1.2589  1.9410
 4151SOL    HW223916   3.954   3.283   1.167  0.6041 -0.1697  0.5471
 4152SOL     OW23917   3.998   3.675   1.981 -0.0729 -0.1552 -0.2950
 4152SOL    HW123918   3.945   3.736   2.033 -1.4272 -0.6477 -1.1182
 4152SOL    HW223919   4.060   3.736   1.941 -2.2866  1.7026 -0.8382
 4153SOL     OW23920   2.077   0.764   1.385  0.1440  0.1451  0.4047
 4153SOL    HW123921   2.006   0.827   1.369  1.1025  1.3189  0.7923
 4153SOL    HW223922   2.109   0.791   1.471 -2.6713  0.1558  1.4696
 4154SOL     OW23923   0.813   2.175   4.663  0.6002 -0.4857  0.5820
 4154SOL    HW123924   0.749   2.148   4.597  0.1161  1.6837  0.1850
 4154SOL    HW223925   0.804   2.269   4.646 -0.5957 -0.6482  0.3134
 4155SOL     OW23926   0.836   2.091   7.700  0.3181  0.3128 -0.4635
 4155SOL    HW123927   0.917   2.140   7.687  0.3085  0.0790 -1.4056
 4155SOL    HW223928   0.790   2.142   7.767 -1.0306  0.1379 -1.2484
 4156SOL     OW23929   0.777   2.302   9.287 -0.5170 -0.0834 -0.9973
 4156SOL    HW123930   0.740   2.359   9.354  0.4670 -0.4668 -0.1392
 4156SOL    HW223931   0.762   2.216   9.325 -2.3838  1.0214  0.7124
 4157SOL     OW23932   2.546   3.330   6.993  0.1426 -0.4257  0.4429
 4157SOL    HW123933   2.547   3.388   7.069  0.2123 -0.8460  0.7572
 4157SOL    HW223934   2.488   3.374   6.930  0.7383  0.5028  0.5371
 4158SOL     OW23935   2.344   2.908   7.057 -0.7034  0.8310  0.1593
 4158SOL    HW123936   2.370   2.855   7.132 -2.0364 -0.4429 -0.2770
 4158SOL    HW223937   2.426   2.955   7.041  0.3098 -0.6328  1.0598
 4159SOL     OW23938   0.217   0.607   2.740  0.0817 -0.3626  0.4407
 4159SOL    HW123939   0.188   0.587   2.829 -2.3398  0.1726 -0.2511
 4159SOL    HW223940   0.243   0.522   2.704  0.6095 -0.6503  1.4881
 4160SOL     OW23941   3.539   2.050   8.862  0.2389  0.4967 -0.5565
 4160SOL    HW123942   3.520   2.114   8.931  0.1754  0.7934 -0.8478
 4160SOL    HW223943   3.548   2.106   8.785  0.0787 -1.3627 -1.9445
 4161SOL     OW23944   2.338   0.575   6.556 -0.5658  0.3836 -0.0268
 4161SOL    HW123945   2.404   0.549   6.492 -0.9904  1.4222 -0.8908
 4161SOL    HW223946   2.390   0.624   6.620 -1.8119 -0.4550  1.6467
 4162SOL     OW23947   0.413   0.527   3.827 -0.5587  0.2450  0.2565
 4162SOL    HW123948   0.373   0.453   3.871  0.1891 -0.5163 -0.3548
 4162SOL    HW223949   0.454   0.573   3.900  0.0655  1.0779 -0.6085
 4163SOL     OW23950   0.369   1.229   6.600 -0.3883 -0.2413  0.2126
 4163SOL    HW123951   0.281   1.259   6.622 -0.4056  0.3793 -0.6729
 4163SOL    HW223952   0.363   1.138   6.628  0.5074 -0.8016 -1.3872
 4164SOL     OW23953   0.307   2.668  14.170  0.4470 -0.3337 -0.0595
 4164SOL    HW123954   0.367   2.665  14.245  0.3050 -1.4806 -0.0008
 4164SOL    HW223955   0.327   2.586  14.125  0.2304 -0.3626 -0.0997
 4165SOL     OW23956   0.763   0.940  13.031 -0.1351  0.1398  0.3784
 4165SOL    HW123957   0.802   0.975  12.951 -3.4066 -0.6133 -1.5442
 4165SOL    HW223958   0.750   0.849  13.004  0.0985 -0.1840  1.3292
 4166SOL     OW23959   1.413   0.075   5.593 -0.6131 -0.1298  0.0308
 4166SOL    HW123960   1.504   0.052   5.575 -0.2731  2.1526 -1.2082
 4166SOL    HW223961   1.413   0.170   5.582  0.0202 -0.3571 -2.0936
 4167SOL     OW23962   2.474   1.413  17.112  0.2741  0.4593  0.7009
 4167SOL    HW123963   2.543   1.348  17.120 -0.3893 -0.2244  0.8507
 4167SOL    HW223964   2.400   1.352  17.118  0.4316  0.3158  1.1779
 4168SOL     OW23965   0.455   0.560   7.828  0.2329  0.1082 -0.3222
 4168SOL    HW123966   0.517   0.565   7.755 -0.5203  0.0660 -0.9707
 4168SOL    HW223967   0.428   0.651   7.815 -0.3631  0.1235  1.0596
 4169SOL     OW23968   2.285   1.753   8.724 -0.6570 -0.8619 -0.4580
 4169SOL    HW123969   2.224   1.722   8.657  2.2067  0.9696 -3.9112
 4169SOL    HW223970   2.227   1.822   8.757 -0.9365 -0.4667 -1.7474
 4170SOL     OW23971   1.561   4.211  11.619  0.3260  0.0349  0.7438
 4170SOL    HW123972   1.524   4.292  11.655  1.1981  0.0976  1.4925
 4170SOL    HW223973   1.481   4.179  11.578  0.2409 -0.5799  1.3959
 4171SOL     OW23974   1.112   2.356   9.871 -0.3681  0.0091 -0.5028
 4171SOL    HW123975   1.075   2.309   9.796 -2.8703 -0.0182  0.7379
 4171SOL    HW223976   1.068   2.321   9.949 -0.2474 -0.4173 -0.6284
 4172SOL     OW23977   3.783   3.696   1.654  0.4298 -0.3492 -0.3028
 4172SOL    HW123978   3.792   3.620   1.711  0.1944 -0.4096 -0.3445
 4172SOL    HW223979   3.768   3.771   1.712  1.4181 -0.3793 -0.0080
 4173SOL     OW23980   0.270   3.979  16.359 -0.2511  0.3123  0.2485
 4173SOL    HW123981   0.209   3.906  16.372 -0.6256  0.5244 -0.3157
 4173SOL    HW223982   0.251   4.040  16.431  3.3572  1.7719 -0.0296
 4174SOL     OW23983   2.936   2.457  17.181  0.0345 -0.1032  0.2593
 4174SOL    HW123984   3.013   2.500  17.142  0.1338 -0.1272  0.4263
 4174SOL    HW223985   2.883   2.434  17.104 -0.7456  0.8962  0.5058
 4175SOL     OW23986   4.133   3.558   3.592  0.0764 -0.7344 -0.3358
 4175SOL    HW123987   4.096   3.494   3.531 -1.1974  2.2348 -2.6324
 4175SOL    HW223988   4.079   3.634   3.571  1.2460  0.1829 -0.0475
 4176SOL     OW23989   3.930   3.548   8.350  0.0066 -0.3825  0.2506
 4176SOL    HW123990   3.932   3.532   8.445  0.6601  0.3383  0.3625
 4176SOL    HW223991   4.009   3.597   8.328 -0.8067  0.1395 -1.4851
 4177SOL     OW23992   4.670   0.256   6.931  0.0410  0.4485  0.3224
 4177SOL    HW123993   4.647   0.338   6.888 -0.2788  0.2707  0.1466
 4177SOL    HW223994   0.023   0.278   6.990  0.3138 -2.2655  0.9858
 4178SOL     OW23995   1.254   4.110  16.837  0.3271  0.0879  0.0978
 4178SOL    HW123996   1.161   4.087  16.831  1.1653 -2.8808 -1.2470
 4178SOL    HW223997   1.274   4.119  16.744 -0.9753  2.5014  0.0512
 4179SOL     OW23998   0.317   3.845   7.158  0.3119 -0.5541 -0.4319
 4179SOL    HW123999   0.401   3.811   7.190 -0.8199 -2.0839  0.9388
 4179SOL    HW224000   0.318   3.939   7.175  1.1075 -0.5302 -0.6180
 4180SOL     OW24001   4.195   2.665   8.897  0.1148  0.4263  0.1872
 4180SOL    HW124002   4.114   2.714   8.908 -0.1174  0.8557 -3.3333
 4180SOL    HW224003   4.197   2.635   8.806  0.0448  0.9415  0.0150
 4181SOL     OW24004   3.358   2.323  11.157  0.0058 -0.0903 -0.1435
 4181SOL    HW124005   3.301   2.387  11.113 -0.5603 -0.8424 -0.4986
 4181SOL    HW224006   3.322   2.239  11.128  0.2101 -0.6955  1.3903
 4182SOL     OW24007   2.138   0.250   9.149  0.0027 -0.3129  0.2402
 4182SOL    HW124008   2.166   0.337   9.120 -0.9877 -0.6591 -1.7943
 4182SOL    HW224009   2.158   0.202   9.068  0.1598 -2.2443  1.4182
 4183SOL     OW24010   3.486   1.466   4.600 -0.5191  0.0531 -0.4885
 4183SOL    HW124011   3.562   1.506   4.642  1.1254 -0.1156 -3.3307
 4183SOL    HW224012   3.456   1.400   4.663  1.7014  0.9610  1.5413
 4184SOL     OW24013   1.523   1.837   5.643  0.6092  0.0976  0.1189
 4184SOL    HW124014   1.591   1.773   5.623 -0.4232 -1.0741  0.3182
 4184SOL    HW224015   1.455   1.804   5.583  2.0198 -0.4216 -1.1970
 4185SOL     OW24016   1.101   3.487   6.738 -0.7041 -0.5109 -0.1794
 4185SOL    HW124017   1.181   3.457   6.695  0.7158  2.0541  0.6719
 4185SOL    HW224018   1.133   3.562   6.789  1.5602  0.1368 -2.5717
 4186SOL     OW24019   0.180   4.212  17.654 -0.2386 -0.4008 -0.2411
 4186SOL    HW124020   0.159   4.122  17.632 -0.5777 -0.1808 -0.7915
 4186SOL    HW224021   0.093   4.232   0.013 -0.9392 -3.3855 -0.2843
 4187SOL     OW24022   2.887   3.375   7.213 -0.3618  1.1376 -0.3781
 4187SOL    HW124023   2.907   3.376   7.307  0.7037  2.1242 -0.6129
 4187SOL    HW224024   2.839   3.294   7.198 -0.8558  1.1054  1.3602
 4188SOL     OW24025   2.207   4.463   8.421  0.1893 -0.3322  0.3173
 4188SOL    HW124026   2.195   4.497   8.333  2.6926 -3.1602 -1.1067
 4188SOL    HW224027   2.301   4.482   8.426 -0.2076  1.5722  0.7744
 4189SOL     OW24028   0.699   2.990   4.369 -0.7888  0.0602 -0.2330
 4189SOL    HW124029   0.693   3.029   4.281  2.0074  0.0838 -0.4293
 4189SOL    HW224030   0.703   3.067   4.426  4.0981 -0.3391  0.0004
 4190SOL     OW24031   1.939   2.887   1.110  0.2383 -0.4058 -0.1338
 4190SOL    HW124032   1.948   2.797   1.141  0.4071 -0.7963 -1.3199
 4190SOL    HW224033   2.021   2.921   1.145  0.7420  0.1047 -1.8214
 4191SOL     OW24034   1.224   4.094   6.584 -0.1613  0.2012 -0.1993
 4191SOL    HW124035   1.260   4.091   6.495  0.5603 -1.8783  0.1819
 4191SOL    HW224036   1.133   4.106   6.556 -0.5491 -1.7758  0.2161
 4192SOL     OW24037   2.327   1.267   9.454 -0.6585 -1.0995  0.7267
 4192SOL    HW124038   2.340   1.329   9.382  1.1932 -1.0403  1.1153
 4192SOL    HW224039   2.293   1.324   9.524  0.9986 -0.1462  0.7578
 4193SOL     OW24040   3.434   0.486   2.855  0.0789 -0.3372  0.1101
 4193SOL    HW124041   3.393   0.404   2.831 -0.2871 -0.1064 -0.0518
 4193SOL    HW224042   3.465   0.503   2.766  1.7157  2.1222  1.1500
 4194SOL     OW24043   2.021   4.145   5.417 -0.0315 -0.5512  0.2746
 4194SOL    HW124044   1.929   4.148   5.443  0.2015 -0.2122  1.0396
 4194SOL    HW224045   2.035   4.238   5.401 -0.7770 -0.5830 -0.6282
 4195SOL     OW24046   1.925   1.280   4.414 -0.1452  0.0666 -0.0916
 4195SOL    HW124047   1.956   1.276   4.323  1.9010 -3.0189  0.7752
 4195SOL    HW224048   2.002   1.312   4.461 -0.4454  1.0671 -0.2769
 4196SOL     OW24049   4.076   0.019   6.143  0.0981 -0.4887  0.0038
 4196SOL    HW124050   4.040   0.107   6.160  0.1196 -0.1590 -1.6712
 4196SOL    HW224051   4.029   4.699   6.217  0.7553  1.7920  1.6128
 4197SOL     OW24052   4.592   0.370  14.183  0.3675  0.3246 -0.2465
 4197SOL    HW124053   4.622   0.442  14.238 -1.4346  1.2187 -0.4492
 4197SOL    HW224054   4.678   0.335  14.160  0.9759  1.4655  0.2928
 4198SOL     OW24055   2.383   0.811  16.908 -0.1161  0.6462 -0.0783
 4198SOL    HW124056   2.296   0.820  16.869 -0.3539  2.0004  0.7532
 4198SOL    HW224057   2.429   0.890  16.880  0.5631  0.5161  0.6661
 4199SOL     OW24058   4.676   3.345   3.194  0.0721 -0.5837  0.2479
 4199SOL    HW124059   0.009   3.423   3.171 -0.6479 -0.7983 -2.0220
 4199SOL    HW224060   4.650   3.310   3.109  0.6367 -0.0168 -0.1593
 4200SOL     OW24061   0.415   2.703   2.440 -0.2362 -0.0410  0.3775
 4200SOL    HW124062   0.418   2.622   2.491 -0.8847 -1.4631 -1.8338
 4200SOL    HW224063   0.327   2.729   2.465 -0.3007  0.8273 -0.7593
 4201SOL     OW24064   4.411   4.695   8.735 -0.2377  0.2909 -0.4626
 4201SOL    HW124065   4.378   0.044   8.795  0.4381 -0.2008  0.4615
 4201SOL    HW224066   4.339   4.684   8.673 -0.2721 -1.5095 -0.1260
 4202SOL     OW24067   3.313   3.583   2.725 -0.0147  0.4474  0.2548
 4202SOL    HW124068   3.285   3.616   2.810  0.2581 -2.2322  1.3941
 4202SOL    HW224069   3.385   3.641   2.701 -0.9852  1.6783  0.3400
 4203SOL     OW24070   1.858   0.050   3.479 -0.0893 -0.6793  0.3480
 4203SOL    HW124071   1.910   0.125   3.507 -1.6714 -0.5255  2.7953
 4203SOL    HW224072   1.913   4.718   3.419  0.4558  0.4539 -0.0934
 4204SOL     OW24073   3.883   4.353  12.798  0.1385  0.4700 -0.2117
 4204SOL    HW124074   3.971   4.344  12.835 -0.5704  0.6200  1.5103
 4204SOL    HW224075   3.829   4.304  12.859  0.6816 -1.6622 -1.4671
 4205SOL     OW24076   4.661   4.704   1.393 -0.2521 -0.4533  0.4453
 4205SOL    HW124077   0.021   4.648   1.401 -1.2777 -1.6700  1.7501
 4205SOL    HW224078   4.652   0.006   1.486  3.5364 -0.9167  0.9299
 4206SOL     OW24079   1.783   0.396   9.106  0.1203  0.1096 -0.0540
 4206SOL    HW124080   1.818   0.368   9.021  1.9613 -1.7187  1.3234
 4206SOL    HW224081   1.858   0.376   9.162 -1.3247  1.2381  2.2858
 4207SOL     OW24082   3.773   1.562   7.604  0.0545  0.3776  0.7388
 4207SOL    HW124083   3.832   1.634   7.628 -2.2592  2.4413  0.1814
 4207SOL    HW224084   3.703   1.567   7.669  0.7504  0.9063  1.4368
 4208SOL     OW24085   4.069   0.107   6.489 -0.1356  0.1826  0.3844
 4208SOL    HW124086   4.055   0.012   6.478 -1.4754  0.6203 -1.8411
 4208SOL    HW224087   4.045   0.127   6.579 -2.5953 -2.6179  0.3519
 4209SOL     OW24088   1.022   3.344   8.706 -0.3650 -0.1792  0.0918
 4209SOL    HW124089   1.063   3.263   8.674  1.7253 -0.7178  4.1312
 4209SOL    HW224090   1.024   3.338   8.801 -0.5201 -0.9401  0.0488
 4210SOL     OW24091   1.894   3.157   2.411  0.0091 -0.3063  0.1601
 4210SOL    HW124092   1.980   3.156   2.453  0.4762 -1.1857 -0.8159
 4210SOL    HW224093   1.901   3.244   2.373 -0.2635 -0.7865 -1.0286
 4211SOL     OW24094   3.763   1.871  11.915 -0.5632 -0.3357  0.4296
 4211SOL    HW124095   3.770   1.966  11.914 -2.4761 -0.2105 -0.1802
 4211SOL    HW224096   3.687   1.865  11.858 -0.7083 -1.5872  0.7374
 4212SOL     OW24097   1.377   2.441   3.149  0.3527 -0.2204 -0.2545
 4212SOL    HW124098   1.374   2.528   3.110 -0.9999  1.1730  3.0063
 4212SOL    HW224099   1.384   2.399   3.063  0.9244 -1.1804  0.2635
 4213SOL     OW24100   3.357   3.416   4.007  0.3902 -0.1193  0.0124
 4213SOL    HW124101   3.343   3.507   4.034  2.1393 -0.3526  1.6556
 4213SOL    HW224102   3.264   3.401   3.988  0.4009 -0.4364  0.2262
 4214SOL     OW24103   0.525   3.372   5.778 -0.0011 -0.3085  0.2786
 4214SOL    HW124104   0.506   3.418   5.696  0.9810 -1.1220 -0.4094
 4214SOL    HW224105   0.544   3.285   5.742 -0.6598  0.1614 -1.2145
 4215SOL     OW24106   2.909   1.195   3.666 -0.9295 -0.2126  0.5413
 4215SOL    HW124107   2.942   1.165   3.751  1.7639  0.1209 -0.4051
 4215SOL    HW224108   2.976   1.262   3.657  0.2007 -1.6392 -1.6051
 4216SOL     OW24109   4.518   4.085   6.829  0.1620  0.0994 -0.1661
 4216SOL    HW124110   4.595   4.104   6.883 -0.2160 -0.1724  0.4701
 4216SOL    HW224111   4.454   4.062   6.897  0.5665  1.9986  0.8532
 4217SOL     OW24112   2.685   0.161   1.020  0.3514  0.4671 -0.3861
 4217SOL    HW124113   2.728   0.087   1.062 -0.6861 -1.2102 -2.3076
 4217SOL    HW224114   2.683   0.221   1.095  1.6523 -0.7604  0.6144
 4218SOL     OW24115   4.091   2.826   3.792  0.9061  0.3472 -0.4030
 4218SOL    HW124116   4.135   2.905   3.760  2.7437 -0.4982  0.0805
 4218SOL    HW224117   4.057   2.795   3.708  0.5665  1.4419 -0.6751
 4219SOL     OW24118   2.899   3.196   3.067 -0.0394  0.0249  0.5648
 4219SOL    HW124119   2.842   3.257   3.021  1.6028  0.1125 -1.3655
 4219SOL    HW224120   2.945   3.154   2.994 -0.8641 -0.5863  0.4004
 4220SOL     OW24121   4.611   0.109   3.625 -0.2631 -0.5314 -0.2922
 4220SOL    HW124122   4.580   0.153   3.546 -1.4880  2.0184  1.5946
 4220SOL    HW224123   4.540   0.049   3.647  0.9742 -2.3020 -1.1461
 4221SOL     OW24124   2.420   1.641   9.108  0.1336 -0.0799  0.0879
 4221SOL    HW124125   2.376   1.720   9.077 -1.5103 -0.6355  1.0392
 4221SOL    HW224126   2.487   1.676   9.166  0.2192  0.5340 -0.3859
 4222SOL     OW24127   0.574   4.104   8.219 -0.8351 -0.1615 -0.0836
 4222SOL    HW124128   0.659   4.138   8.192 -0.5844 -0.2328  0.6098
 4222SOL    HW224129   0.530   4.190   8.223 -0.6892 -0.0266 -1.4843
 4223SOL     OW24130   2.454   1.214  15.823  1.0760 -0.1138  0.2739
 4223SOL    HW124131   2.490   1.267  15.751 -2.7351  2.9936  0.6656
 4223SOL    HW224132   2.370   1.259  15.833  1.6262  0.7379  1.0587
 4224SOL     OW24133   4.011   3.427  15.447 -0.5418  0.1777  0.2877
 4224SOL    HW124134   4.011   3.481  15.526 -0.1819 -1.2558  1.2586
 4224SOL    HW224135   3.921   3.397  15.431 -0.0574  0.3648 -2.7271
 4225SOL     OW24136   4.184   3.521   5.934  0.2362 -0.3964  0.2912
 4225SOL    HW124137   4.279   3.526   5.940  0.1969  1.7606 -0.7522
 4225SOL    HW224138   4.171   3.609   5.899  0.9021 -0.6376 -0.5447
 4226SOL     OW24139   3.425   1.857   9.144  0.1388 -0.0117 -0.5308
 4226SOL    HW124140   3.458   1.947   9.145 -0.3048  0.1365  1.5304
 4226SOL    HW224141   3.511   1.818   9.131 -0.1634 -0.1968 -1.9603
 4227SOL     OW24142   1.236   1.137  16.361 -0.9184  0.0836  0.1884
 4227SOL    HW124143   1.216   1.122  16.268 -0.3802  0.8775 -0.0551
 4227SOL    HW224144   1.251   1.232  16.364  0.2389 -0.1026  0.1058
 4228SOL     OW24145   3.952   1.006   9.056  0.5311 -0.3775  0.1493
 4228SOL    HW124146   3.906   1.025   8.974 -0.7078  2.0712  1.4323
 4228SOL    HW224147   3.909   0.922   9.074 -2.1026  0.2414 -3.3198
 4229SOL     OW24148   1.530   1.530   6.295 -0.1152 -0.0022  0.8361
 4229SOL    HW124149   1.583   1.452   6.280  0.6405  0.6411  0.1870
 4229SOL    HW224150   1.596   1.594   6.268  0.6592 -1.5686 -0.9656
 4230SOL     OW24151   1.489   3.444   9.419  0.2429 -0.0001  0.1560
 4230SOL    HW124152   1.465   3.354   9.443 -0.1070 -0.2204 -0.9949
 4230SOL    HW224153   1.406   3.474   9.382 -0.1991  0.4213  1.5080
 4231SOL     OW24154   3.020   0.380  10.255 -0.5589 -0.3264  0.2594
 4231SOL    HW124155   3.031   0.305  10.196 -1.5629  0.9304 -1.5452
 4231SOL    HW224156   2.960   0.435  10.204 -1.7155 -1.6423  0.2055
 4232SOL     OW24157   2.887   4.642  16.941 -0.1181  0.4182  0.3199
 4232SOL    HW124158   2.927   4.662  16.857  0.1867  2.2334  0.9011
 4232SOL    HW224159   2.961   4.623  16.998 -0.2008 -0.6765  0.0631
 4233SOL     OW24160   3.332   3.612   3.747  0.8605  0.2611  0.4281
 4233SOL    HW124161   3.383   3.540   3.784 -0.1943 -0.6107  0.1674
 4233SOL    HW224162   3.398   3.680   3.733  0.7692  0.0747 -0.8297
 4234SOL     OW24163   1.677   2.942   7.197  0.2927  0.2616  0.4652
 4234SOL    HW124164   1.596   2.994   7.190 -0.2129 -0.3094  1.8970
 4234SOL    HW224165   1.655   2.877   7.131  1.3141  0.5421 -0.1310
 4235SOL     OW24166   3.543   4.179   4.425  0.7651 -0.0755 -0.3284
 4235SOL    HW124167   3.598   4.113   4.384  1.0628  1.8142 -2.9731
 4235SOL    HW224168   3.470   4.185   4.363 -0.2646  0.4637  0.9401
 4236SOL     OW24169   0.439   0.330   5.898  0.7230  0.0107  0.5003
 4236SOL    HW124170   0.469   0.408   5.945  1.0546 -0.5863  1.2892
 4236SOL    HW224171   0.386   0.373   5.831  1.7132 -0.1344 -0.3804
 4237SOL     OW24172   0.164   1.212   6.974  0.0705 -0.3008 -0.2004
 4237SOL    HW124173   0.206   1.296   6.956 -0.4978  0.1263  0.4660
 4237SOL    HW224174   0.110   1.220   7.053  0.2275  0.6963 -0.1911
 4238SOL     OW24175   0.673   1.537   1.523  0.6110  0.5027  0.5028
 4238SOL    HW124176   0.659   1.545   1.617 -2.1037  0.8502  0.0666
 4238SOL    HW224177   0.588   1.523   1.481  1.9452 -0.1127 -2.0438
 4239SOL     OW24178   3.923   0.278   3.676 -0.0916 -0.5505  0.2135
 4239SOL    HW124179   3.965   0.221   3.612 -2.2919  0.9282 -2.5491
 4239SOL    HW224180   3.903   0.214   3.744  0.5887 -0.7191  0.2480
 4240SOL     OW24181   2.183   4.433   7.724  0.0622 -0.1344  0.3773
 4240SOL    HW124182   2.266   4.420   7.769 -0.8489 -4.2083  0.8805
 4240SOL    HW224183   2.175   4.344   7.692  3.3743 -0.1042 -0.5029
 4241SOL     OW24184   2.698   2.593   7.258 -0.2159  0.4888  0.3943
 4241SOL    HW124185   2.715   2.541   7.180 -1.1848 -0.3687  0.7568
 4241SOL    HW224186   2.614   2.554   7.285 -0.0700 -0.9814 -1.2815
 4242SOL     OW24187   0.180   3.709  16.011  0.0672  0.2906 -0.0606
 4242SOL    HW124188   0.239   3.667  16.073 -0.4380 -0.7538 -0.2715
 4242SOL    HW224189   0.192   3.801  16.033 -0.5784 -0.1629  2.1975
 4243SOL     OW24190   2.336   3.896   6.567  0.0406  0.4264  0.0784
 4243SOL    HW124191   2.259   3.942   6.600 -1.2008 -0.6089 -1.3124
 4243SOL    HW224192   2.307   3.808   6.591  2.5006 -0.1740  0.8809
 4244SOL     OW24193   4.110   3.155   6.100 -0.0418 -0.4063 -0.0124
 4244SOL    HW124194   4.072   3.068   6.091 -0.9925  0.2430 -2.2187
 4244SOL    HW224195   4.053   3.189   6.168 -0.7832 -0.0109 -0.8319
 4245SOL     OW24196   1.853   4.017  14.560  0.1557  0.0694 -0.3516
 4245SOL    HW124197   1.918   3.973  14.615  0.1551  2.6122  1.7087
 4245SOL    HW224198   1.878   4.109  14.570  0.7544 -0.0867 -0.4360
 4246SOL     OW24199   3.923   1.368   4.208 -0.0182  0.4905 -0.7889
 4246SOL    HW124200   3.862   1.382   4.280  0.1305  2.0714 -0.9665
 4246SOL    HW224201   3.941   1.457   4.179  1.8287 -0.1722 -1.6899
 4247SOL     OW24202   1.974   0.390   8.651 -0.0575  0.6012 -0.4032
 4247SOL    HW124203   1.974   0.310   8.599  0.5042  0.5731 -0.3675
 4247SOL    HW224204   2.047   0.371   8.711  1.1517 -1.1486 -2.3971
 4248SOL     OW24205   4.522   0.185  10.154 -0.1095  0.1134  0.2393
 4248SOL    HW124206   4.594   0.128  10.180 -1.0003 -0.9738  0.3364
 4248SOL    HW224207   4.520   0.252  10.223 -0.6433  0.9854 -0.6262
 4249SOL     OW24208   1.960   2.392   8.300  0.1746 -0.1034  0.2485
 4249SOL    HW124209   1.994   2.350   8.221 -0.8319 -1.5573  0.5823
 4249SOL    HW224210   1.869   2.362   8.295 -0.3813  1.4606  1.0000
 4250SOL     OW24211   0.397   4.085   5.172 -0.1432  0.1724 -0.2587
 4250SOL    HW124212   0.438   4.097   5.257  0.1502 -1.2339 -0.2009
 4250SOL    HW224213   0.465   4.040   5.123 -0.5762 -1.1124  0.3316
 4251SOL     OW24214   2.952   1.176   2.685  0.5058 -0.4040 -0.1311
 4251SOL    HW124215   2.949   1.215   2.598  0.9762  1.4026  0.6595
 4251SOL    HW224216   2.892   1.231   2.736  1.3077  1.6820 -1.4121
 4252SOL     OW24217   3.460   4.600   3.041  0.0917  0.2856 -0.6533
 4252SOL    HW124218   3.528   4.582   3.106  0.3505  0.0346 -0.9898
 4252SOL    HW224219   3.472   4.522   2.987  0.9631 -0.8561  1.2083
 4253SOL     OW24220   2.858   3.551   8.391  0.9753  0.2135  0.2856
 4253SOL    HW124221   2.844   3.535   8.298  0.4306 -2.4997  0.8309
 4253SOL    HW224222   2.782   3.503   8.425  2.7998 -2.8329  0.0772
 4254SOL     OW24223   0.915   4.090   5.171 -0.2216  0.0178 -0.7334
 4254SOL    HW124224   0.840   4.076   5.114 -0.9145 -2.5223  0.8339
 4254SOL    HW224225   0.938   4.180   5.146  2.7189 -0.2055  1.1093
 4255SOL     OW24226   4.166   3.245  14.477 -0.6063  0.1592  0.1028
 4255SOL    HW124227   4.154   3.150  14.483 -4.9700  0.7001 -0.0245
 4255SOL    HW224228   4.084   3.277  14.438  0.8273  0.2012 -2.9015
 4256SOL     OW24229   4.563   3.963  15.896  0.5601  0.4512 -0.2330
 4256SOL    HW124230   4.641   3.989  15.849 -0.3105 -0.3190 -2.1085
 4256SOL    HW224231   4.603   3.930  15.977 -2.4260  1.1832  1.5549
 4257SOL     OW24232   2.804   4.344   7.243 -0.0954 -0.1007 -0.2534
 4257SOL    HW124233   2.831   4.277   7.181  1.5506 -0.2427  0.6227
 4257SOL    HW224234   2.843   4.316   7.325  0.9430 -0.5535 -0.9093
 4258SOL     OW24235   1.691   2.782   1.268  0.3432 -0.1587 -0.3744
 4258SOL    HW124236   1.730   2.862   1.231  1.8253  0.0207  1.6064
 4258SOL    HW224237   1.600   2.790   1.240  0.3692 -1.4072 -0.8310
 4259SOL     OW24238   4.274   1.140  12.654 -0.7732 -0.3592 -0.5141
 4259SOL    HW124239   4.273   1.049  12.686  1.7737 -0.5916 -1.1143
 4259SOL    HW224240   4.303   1.181  12.735 -2.9690 -0.5083  0.3583
 4260SOL     OW24241   4.437   2.833   2.354  0.5560 -0.1280 -0.1345
 4260SOL    HW124242   4.484   2.913   2.376 -0.7011  0.6268 -0.2097
 4260SOL    HW224243   4.345   2.845   2.377  0.4423 -1.5208  0.1660
 4261SOL     OW24244   1.639   3.110   3.810  0.0019 -0.1792  0.4524
 4261SOL    HW124245   1.705   3.070   3.867  0.7855 -2.5311 -2.1069
 4261SOL    HW224246   1.671   3.200   3.806  0.8475 -0.4255  1.5718
 4262SOL     OW24247   1.362   1.743   5.416 -0.1744  0.0392 -0.3118
 4262SOL    HW124248   1.288   1.710   5.364 -1.2978  0.8295  0.7928
 4262SOL    HW224249   1.430   1.749   5.349  0.8886  0.5577  0.8081
 4263SOL     OW24250   1.243   1.213   4.045  0.2441  0.0713 -0.3147
 4263SOL    HW124251   1.274   1.287   3.992  3.3518 -1.2822 -0.3551
 4263SOL    HW224252   1.214   1.255   4.126 -0.4702 -0.9665 -0.0435
 4264SOL     OW24253   3.623   2.955  17.246 -0.4799  0.1904 -0.4996
 4264SOL    HW124254   3.549   2.934  17.189  0.2094 -0.4532 -1.1510
 4264SOL    HW224255   3.581   3.006  17.315 -0.6613  0.0005 -0.4720
 4265SOL     OW24256   0.782   1.818   7.824  0.0249 -0.6068 -0.2453
 4265SOL    HW124257   0.769   1.863   7.907  0.6604 -2.3857  0.8274
 4265SOL    HW224258   0.862   1.863   7.798 -0.3252 -0.1592 -0.5554
 4266SOL     OW24259   2.233   2.665  13.675 -0.1081  0.1619 -0.1040
 4266SOL    HW124260   2.307   2.637  13.729 -0.4285  0.5107  0.5106
 4266SOL    HW224261   2.230   2.593  13.611  1.3614  0.4143 -0.4549
 4267SOL     OW24262   0.835   4.239   3.335  0.2226  0.2733 -0.2872
 4267SOL    HW124263   0.858   4.326   3.368 -1.2587  0.5571  0.0047
 4267SOL    HW224264   0.902   4.191   3.383 -1.0827 -1.2237  0.0483
 4268SOL     OW24265   0.544   0.759  16.934  0.3665 -0.4196 -0.1508
 4268SOL    HW124266   0.525   0.820  17.006  2.1670 -0.0469  0.0074
 4268SOL    HW224267   0.490   0.797  16.865  2.4713 -1.1622 -2.1982
 4269SOL     OW24268   1.937   1.830   6.028 -0.0421 -0.1057  0.4094
 4269SOL    HW124269   1.928   1.847   5.934  0.6902 -2.6156 -0.1339
 4269SOL    HW224270   1.951   1.919   6.060  0.8171 -0.2766  0.4949
 4270SOL     OW24271   1.882   3.536   6.248 -0.3479 -0.3814  0.1556
 4270SOL    HW124272   1.947   3.471   6.219 -0.6329 -0.1730 -0.9627
 4270SOL    HW224273   1.853   3.567   6.162 -3.5003 -0.4171  1.1979
 4271SOL     OW24274   0.176   1.059  17.107  0.0677  0.8796 -0.1901
 4271SOL    HW124275   0.109   1.120  17.138 -1.9846 -0.4011 -2.0845
 4271SOL    HW224276   0.142   0.977  17.143  1.4460  0.5246  0.3073
 4272SOL     OW24277   0.108   0.402  17.512  0.0730 -0.0743  0.0323
 4272SOL    HW124278   0.029   0.415  17.565 -1.1062 -0.4374 -1.6541
 4272SOL    HW224279   0.143   0.318  17.540 -0.2286  0.4371  1.9660
 4273SOL     OW24280   3.191   3.130   0.521 -0.1137  0.6878 -1.0079
 4273SOL    HW124281   3.250   3.084   0.462 -1.2630 -2.9078  0.6881
 4273SOL    HW224282   3.109   3.114   0.474  0.2281 -1.0102 -1.0237
 4274SOL     OW24283   0.588   0.934  14.457  0.5198  0.1968  0.2555
 4274SOL    HW124284   0.625   0.904  14.373  0.9784 -2.4947  1.3981
 4274SOL    HW224285   0.539   0.854  14.476 -0.3186  0.0944 -2.3018
 4275SOL     OW24286   0.669   1.681  16.009  0.0631  0.3112 -0.4588
 4275SOL    HW124287   0.675   1.776  16.007  2.1003  0.1578 -1.5173
 4275SOL    HW224288   0.704   1.643  15.928  2.3369  1.1537  0.1320
 4276SOL     OW24289   4.525   0.694  14.703 -0.4354 -0.1153  0.6386
 4276SOL    HW124290   4.566   0.743  14.775 -0.0631 -0.3115  0.5561
 4276SOL    HW224291   4.480   0.768  14.663  1.1943  0.3286 -0.3526
 4277SOL     OW24292   4.207   4.511  13.361  0.1821 -0.8355 -0.0875
 4277SOL    HW124293   4.254   4.594  13.363 -1.7642  0.3317 -1.8626
 4277SOL    HW224294   4.214   4.498  13.266  1.9386  2.4327 -0.4053
 4278SOL     OW24295   0.689   3.687   6.816 -0.1616  0.1774 -0.1069
 4278SOL    HW124296   0.751   3.631   6.770 -1.0695 -0.0176 -1.0791
 4278SOL    HW224297   0.746   3.734   6.877 -1.2185  1.7485 -0.3157
 4279SOL     OW24298   4.580   3.942   5.123  0.4355 -0.6225  0.4733
 4279SOL    HW124299   4.570   3.887   5.201 -1.6478 -2.7739 -1.3204
 4279SOL    HW224300   4.658   3.988   5.153 -0.3731  1.1795 -0.1548
 4280SOL     OW24301   3.821   0.191   7.082  0.4107 -0.7705 -0.3588
 4280SOL    HW124302   3.883   0.217   7.150  2.4682 -1.9211 -1.8367
 4280SOL    HW224303   3.749   0.159   7.137 -1.4458  2.8217 -0.6728
 4281SOL     OW24304   3.034   1.310  16.770 -0.0039  0.6001  0.3877
 4281SOL    HW124305   3.120   1.352  16.767  0.9316 -1.3530  0.0925
 4281SOL    HW224306   3.015   1.323  16.677 -2.7624  1.1147  1.0264
 4282SOL     OW24307   2.162   4.381   1.222 -0.2340 -0.0186 -0.0071
 4282SOL    HW124308   2.158   4.466   1.266 -1.1061  1.8864 -3.7745
 4282SOL    HW224309   2.072   4.349   1.232  0.7810 -1.5152  4.1432
 4283SOL     OW24310   1.209   1.258   8.387 -0.0724 -0.0369  0.5387
 4283SOL    HW124311   1.300   1.285   8.401  0.3515 -1.4336  0.4704
 4283SOL    HW224312   1.203   1.270   8.292 -0.3911 -0.0226  0.5602
 4284SOL     OW24313   0.676   2.277  10.823  0.2959  0.1475  0.2690
 4284SOL    HW124314   0.601   2.333  10.802  2.1723  1.6306 -2.3314
 4284SOL    HW224315   0.673   2.266  10.918 -0.9215 -0.1045  0.2099
 4285SOL     OW24316   2.076   2.152   2.618  0.2433  0.3402  0.8919
 4285SOL    HW124317   2.033   2.218   2.673  1.4059  1.2571  0.7159
 4285SOL    HW224318   1.998   2.106   2.587  1.4098 -2.0779  1.5760
 4286SOL     OW24319   1.680   3.468   8.199  0.5221 -0.2661  0.3718
 4286SOL    HW124320   1.589   3.498   8.201  2.1561  4.7195 -0.5556
 4286SOL    HW224321   1.678   3.389   8.253  2.1552 -0.8595 -0.4377
 4287SOL     OW24322   3.313   0.554   7.399  0.6319  0.2652  0.2882
 4287SOL    HW124323   3.350   0.573   7.312  2.3473  3.3639  1.7067
 4287SOL    HW224324   3.227   0.517   7.378  0.1069  0.1283  2.7386
 4288SOL     OW24325   3.549   3.768   4.650 -0.2990 -0.0274 -0.1541
 4288SOL    HW124326   3.539   3.856   4.688  0.0241 -0.1670  0.2643
 4288SOL    HW224327   3.463   3.750   4.612 -0.4739 -4.6208  2.4178
 4289SOL     OW24328   3.547   3.975   4.825 -0.6172 -0.3061 -0.5879
 4289SOL    HW124329   3.471   4.031   4.842  1.6762  2.5001  0.2648
 4289SOL    HW224330   3.609   4.025   4.772 -1.3360 -1.0121 -2.1100
 4290SOL     OW24331   0.490   1.531   3.299 -0.0367  0.4797  0.0942
 4290SOL    HW124332   0.580   1.502   3.308 -0.8510 -1.8681  0.5047
 4290SOL    HW224333   0.454   1.467   3.238 -0.7543  0.1982  0.8137
 4291SOL     OW24334   4.045   2.949   1.239  0.6203  0.8114  0.0049
 4291SOL    HW124335   4.045   2.874   1.179  0.6514  1.0055 -0.2401
 4291SOL    HW224336   4.034   2.903   1.322 -0.2944  0.3625 -0.3694
 4292SOL     OW24337   2.981   2.002   8.114  0.0815  0.2916  0.3164
 4292SOL    HW124338   3.035   2.078   8.091  0.4057  0.3572  1.3116
 4292SOL    HW224339   2.958   2.029   8.203 -3.2199 -0.2643 -0.3528
 4293SOL     OW24340   2.394   2.227  14.688 -0.1331 -0.1462 -0.2735
 4293SOL    HW124341   2.395   2.295  14.755 -1.5426 -0.9368  0.5543
 4293SOL    HW224342   2.331   2.258  14.624  0.5264 -0.8955 -1.2840
 4294SOL     OW24343   0.191   4.396  16.953  0.2377  0.1628 -0.2475
 4294SOL    HW124344   0.160   4.467  17.009 -0.3578 -0.4881  0.2447
 4294SOL    HW224345   0.273   4.440  16.932  1.0472 -0.6562  1.2286
 4295SOL     OW24346   2.843   3.950  11.006 -0.2444 -0.2201  0.1773
 4295SOL    HW124347   2.859   3.861  11.039 -1.4702  0.1329  1.7413
 4295SOL    HW224348   2.930   3.973  10.973  0.2375 -1.4015  0.5937
 4296SOL     OW24349   3.724   0.073   3.554  0.0806 -0.2312 -0.3911
 4296SOL    HW124350   3.652   0.087   3.492  0.2604  2.1868 -0.0779
 4296SOL    HW224351   3.772   0.003   3.511 -0.7209 -1.2518  0.3696
 4297SOL     OW24352   4.316   4.062   7.011 -0.4445 -0.1907  0.3360
 4297SOL    HW124353   4.308   4.155   7.032  0.1902 -0.0651  0.0232
 4297SOL    HW224354   4.327   4.018   7.096  1.4421  0.1576  0.2640
 4298SOL     OW24355   1.094   4.454   4.268 -0.0706  0.2457  0.0281
 4298SOL    HW124356   1.147   4.532   4.286 -1.3556  0.3643  3.3069
 4298SOL    HW224357   1.105   4.390   4.337  0.2493 -0.5854 -0.7920
 4299SOL     OW24358   1.769   1.727   2.024  0.9431  0.6597  0.5176
 4299SOL    HW124359   1.777   1.757   1.933 -0.0637 -2.6987 -0.6761
 4299SOL    HW224360   1.815   1.644   2.014 -0.7435 -0.2833  0.5218
 4300SOL     OW24361   1.910   2.678  16.219 -0.6135 -0.3040 -0.1382
 4300SOL    HW124362   1.993   2.678  16.172 -1.7017  0.6004 -2.0681
 4300SOL    HW224363   1.943   2.714  16.301 -0.8695 -0.2923 -0.0400
 4301SOL     OW24364   3.076   1.231   8.955 -0.4944  0.0227  0.2461
 4301SOL    HW124365   3.051   1.268   9.039  2.4282 -0.6860  1.4218
 4301SOL    HW224366   3.016   1.286   8.904 -0.7706 -0.6231 -0.1302
 4302SOL     OW24367   4.358   0.200   3.831 -0.3931  0.2326  0.5170
 4302SOL    HW124368   4.424   0.174   3.895 -1.9710  2.7620  3.2149
 4302SOL    HW224369   4.289   0.229   3.891 -0.6108  0.3569  0.2069
 4303SOL     OW24370   2.098   2.019   6.778  0.1662 -0.2168 -0.3653
 4303SOL    HW124371   2.017   1.998   6.825  1.9708 -3.0284  1.4420
 4303SOL    HW224372   2.080   2.096   6.724 -0.8475 -1.0822 -1.2669
 4304SOL     OW24373   0.177   3.570   6.841  0.2740  0.6307 -0.4386
 4304SOL    HW124374   0.175   3.495   6.901 -3.2504  0.1876 -1.1344
 4304SOL    HW224375   0.092   3.612   6.857  1.4612  2.5558  0.9110
 4305SOL     OW24376   3.126   4.342   3.186  0.5887 -0.2712 -0.1245
 4305SOL    HW124377   3.056   4.362   3.124 -0.3789 -0.3501  0.9522
 4305SOL    HW224378   3.166   4.275   3.130  1.0926 -3.0755  3.6112
 4306SOL     OW24379   1.424   2.412   8.482  0.0909 -0.5346 -0.0928
 4306SOL    HW124380   1.506   2.449   8.514 -1.1189 -0.1297  2.5165
 4306SOL    HW224381   1.452   2.321   8.470 -1.2916 -0.7241 -1.9435
 4307SOL     OW24382   2.329   4.160   9.526 -0.1296 -0.4524  0.1166
 4307SOL    HW124383   2.408   4.106   9.528 -1.0505 -1.8169 -0.5656
 4307SOL    HW224384   2.287   4.119   9.451  1.9417  1.8334 -2.2996
 4308SOL     OW24385   2.964   4.295   0.246  0.6134  0.1201 -0.1707
 4308SOL    HW124386   2.935   4.344   0.323  2.3439 -0.8974  1.1426
 4308SOL    HW224387   2.981   4.204   0.271  1.9128  0.9861  2.0750
 4309SOL     OW24388   0.452   2.528   5.927 -0.0683 -0.0435  0.2459
 4309SOL    HW124389   0.359   2.549   5.919  0.0140  0.6699  1.2236
 4309SOL    HW224390   0.467   2.551   6.018 -2.4214 -0.2688  0.6826
 4310SOL     OW24391   3.253   2.605   8.758 -0.8503  0.0166 -0.2744
 4310SOL    HW124392   3.259   2.639   8.668 -0.1758 -2.3303 -1.1116
 4310SOL    HW224393   3.313   2.664   8.803  0.3839  0.3985 -2.4048
 4311SOL     OW24394   0.892   0.562   5.896 -0.3541 -0.5027 -0.3860
 4311SOL    HW124395   0.884   0.622   5.822 -0.5311  1.1030  0.9136
 4311SOL    HW224396   0.860   0.480   5.859  2.4463 -0.9175 -1.8866
 4312SOL     OW24397   2.868   1.426   1.914  0.2322  0.7190  0.6970
 4312SOL    HW124398   2.847   1.357   1.978 -1.5159 -0.4470 -1.1466
 4312SOL    HW224399   2.811   1.400   1.842 -0.8873  0.6986  1.5982
 4313SOL     OW24400   3.570   4.388   4.943 -0.6106 -0.0444 -0.3984
 4313SOL    HW124401   3.590   4.364   4.852 -1.8734  2.3232 -1.3154
 4313SOL    HW224402   3.514   4.311   4.955  1.5835 -1.8751 -1.6985
 4314SOL     OW24403   2.995   2.654  11.632  0.4743  0.3818  0.4424
 4314SOL    HW124404   2.904   2.678  11.648  0.5757  2.3602 -2.0161
 4314SOL    HW224405   3.031   2.673  11.718 -0.5790  2.0285  0.5213
 4315SOL     OW24406   1.229   3.064  12.472 -0.1508 -0.7524 -0.2750
 4315SOL    HW124407   1.158   3.120  12.440 -1.0938 -1.9340 -0.2404
 4315SOL    HW224408   1.302   3.100  12.422  0.6069 -1.5297  0.2871
 4316SOL     OW24409   2.747   0.998   9.405 -0.3781 -0.0763 -0.3306
 4316SOL    HW124410   2.711   1.080   9.438 -0.9785 -0.2529 -0.5459
 4316SOL    HW224411   2.670   0.942   9.414 -0.7840  0.9338  2.7619
 4317SOL     OW24412   2.869   4.608   5.951  0.0058 -0.2288 -0.1477
 4317SOL    HW124413   2.843   4.593   6.042 -2.2891 -1.1862 -0.9582
 4317SOL    HW224414   2.797   4.668   5.930 -0.6068 -0.6755  0.6439
 4318SOL     OW24415   3.329   4.141   4.271  0.4426  0.3667 -0.0496
 4318SOL    HW124416   3.245   4.120   4.229  0.3607 -3.5051  2.0359
 4318SOL    HW224417   3.346   4.223   4.226 -1.2428  0.7933  0.0669
 4319SOL     OW24418   4.227   0.675  17.091 -0.1170 -0.6676 -0.0159
 4319SOL    HW124419   4.232   0.708  17.181  0.8343 -2.9995  0.7897
 4319SOL    HW224420   4.308   0.628  17.070 -0.7195  0.0457 -3.8683
 4320SOL     OW24421   2.419   3.739  11.440  0.6511 -0.2247  0.2726
 4320SOL    HW124422   2.422   3.646  11.461  1.1276 -0.1216  0.6707
 4320SOL    HW224423   2.373   3.776  11.516  0.8947 -2.3799  1.4624
 4321SOL     OW24424   3.502   0.863   7.912 -0.0210  0.5704  0.5208
 4321SOL    HW124425   3.543   0.917   7.979 -0.7168  0.3131  1.1522
 4321SOL    HW224426   3.563   0.789   7.919 -1.2905 -0.6259 -0.9143
 4322SOL     OW24427   4.543   3.849   8.874  0.1113 -0.4950 -0.1279
 4322SOL    HW124428   4.616   3.838   8.813 -0.1225 -2.0928 -0.1148
 4322SOL    HW224429   4.488   3.772   8.860  0.5020 -0.8147  0.0989
 4323SOL     OW24430   0.034   3.779  14.703  0.2142 -0.1997 -0.2247
 4323SOL    HW124431   0.062   3.710  14.762 -1.4094  0.2523  1.0595
 4323SOL    HW224432   0.019   3.727  14.624 -0.3193  1.3539 -1.1442
 4324SOL     OW24433   0.487   1.381   4.733 -0.0476 -0.2743  0.2556
 4324SOL    HW124434   0.517   1.456   4.681 -0.9991  0.8712  1.3570
 4324SOL    HW224435   0.446   1.323   4.669 -0.6778  0.1204  0.3017
 4325SOL     OW24436   1.001   4.705   5.821 -0.0751 -0.0969  0.4887
 4325SOL    HW124437   1.012   4.633   5.884 -0.5526  2.2000  3.2226
 4325SOL    HW224438   1.029   0.062   5.874 -0.1310  1.0334 -1.1136
 4326SOL     OW24439   0.202   4.475   4.138  0.1212 -0.4895  0.3281
 4326SOL    HW124440   0.230   4.404   4.195 -0.2783 -1.1817 -0.3448
 4326SOL    HW224441   0.123   4.480   4.192 -0.1649  0.2512 -0.1505
 4327SOL     OW24442   0.182   3.226   0.505 -0.1911  0.1607 -0.0572
 4327SOL    HW124443   0.157   3.185   0.587  0.2640 -0.2687 -0.1354
 4327SOL    HW224444   0.202   3.147   0.454 -0.9689 -0.4265  0.5507
 4328SOL     OW24445   3.903   4.056   4.905 -0.2014  0.6905  0.2878
 4328SOL    HW124446   3.958   4.019   4.835  0.2902 -0.1583  1.1162
 4328SOL    HW224447   3.848   3.983   4.930  1.4604 -0.4885  0.5148
 4329SOL     OW24448   2.751   4.238   3.799  0.5307 -0.8539 -0.4731
 4329SOL    HW124449   2.714   4.171   3.742 -0.7042  0.1880 -0.9081
 4329SOL    HW224450   2.742   4.188   3.881  4.2565 -0.1750  0.3186
 4330SOL     OW24451   2.084   4.289   0.816 -0.0580 -0.0223  0.1563
 4330SOL    HW124452   2.014   4.346   0.849 -0.5952 -0.7173  0.2374
 4330SOL    HW224453   2.105   4.333   0.733 -2.2545  0.6749 -0.0411
 4331SOL     OW24454   3.676   0.185   7.668  0.3322  0.5947 -0.3036
 4331SOL    HW124455   3.636   0.193   7.754 -1.1984  1.2928 -1.0838
 4331SOL    HW224456   3.664   0.276   7.641  3.4039  1.2178  0.3500
 4332SOL     OW24457   4.109   2.217   7.186 -0.6913  0.5656 -0.2385
 4332SOL    HW124458   4.086   2.125   7.171 -1.6105  0.7885 -0.2041
 4332SOL    HW224459   4.052   2.225   7.263  1.6043 -1.3560  1.6555
 4333SOL     OW24460   2.789   0.419   1.757  0.0744 -0.3421  0.1573
 4333SOL    HW124461   2.779   0.361   1.832  0.2019 -0.6321 -0.0523
 4333SOL    HW224462   2.867   0.473   1.774  1.1200 -1.7173 -0.2936
 4334SOL     OW24463   3.948   4.308   3.537  0.1744  0.3605 -0.3304
 4334SOL    HW124464   3.944   4.253   3.459 -2.2116 -1.0639  0.7820
 4334SOL    HW224465   4.040   4.293   3.557 -0.5128 -1.7309  1.2617
 4335SOL     OW24466   2.241   4.568   9.814  0.4212 -0.9815  0.0665
 4335SOL    HW124467   2.188   4.525   9.747 -0.6317  0.0648  0.2265
 4335SOL    HW224468   2.210   4.528   9.895 -0.5828 -0.5565 -0.1088
 4336SOL     OW24469   2.574   1.729   5.705  0.3105  0.0911  0.0184
 4336SOL    HW124470   2.595   1.652   5.652 -0.1884 -0.1572  0.1822
 4336SOL    HW224471   2.598   1.803   5.649  0.1547 -0.6668 -1.0591
 4337SOL     OW24472   3.543   3.928   0.780 -0.1104  0.1470  0.1690
 4337SOL    HW124473   3.478   3.933   0.709 -0.3022  2.0744  0.4754
 4337SOL    HW224474   3.551   3.835   0.801 -1.3789  0.5769  2.5085
 4338SOL     OW24475   4.439   1.405  15.606  0.4202  0.2452 -0.5515
 4338SOL    HW124476   4.427   1.476  15.544  2.9753  1.7701  0.6931
 4338SOL    HW224477   4.392   1.451  15.675 -0.2888  0.2538 -1.0393
 4339SOL     OW24478   3.047   1.298   6.922  0.3261 -0.2667 -0.3269
 4339SOL    HW124479   2.955   1.287   6.944  0.2514  0.3812 -0.3096
 4339SOL    HW224480   3.082   1.233   6.983  1.0844  1.9538  1.6169
 4340SOL     OW24481   0.894   0.328  13.327  0.0477  0.1140  0.2936
 4340SOL    HW124482   0.972   0.367  13.366 -0.1765  1.1764 -0.3433
 4340SOL    HW224483   0.924   0.306  13.239 -2.7803 -1.5010 -0.2788
 4341SOL     OW24484   4.664   3.091  10.620 -0.6646 -0.0053  0.3293
 4341SOL    HW124485   0.015   3.025  10.622  1.6256  2.4044  0.5194
 4341SOL    HW224486   4.622   3.082  10.705 -0.4810 -1.6452  0.2366
 4342SOL     OW24487   4.337   3.339  14.302  0.2701 -0.1510  0.4052
 4342SOL    HW124488   4.384   3.406  14.351 -1.2211 -0.6105  2.4491
 4342SOL    HW224489   4.284   3.310  14.376  0.7911 -0.6368  0.5881
 4343SOL     OW24490   3.243   1.088   2.488  0.1142  0.5921  0.8776
 4343SOL    HW124491   3.241   1.184   2.491  1.1040  0.6196  0.7196
 4343SOL    HW224492   3.158   1.071   2.529 -0.2176  2.6686  1.0328
 4344SOL     OW24493   3.877   4.297  12.501  0.2661  0.2043 -0.3539
 4344SOL    HW124494   3.925   4.373  12.468  1.8958 -0.4735  0.4543
 4344SOL    HW224495   3.874   4.323  12.593  1.0056 -0.7842 -0.0454
 4345SOL     OW24496   2.220   0.589  12.724  0.3085  0.1742 -0.0661
 4345SOL    HW124497   2.312   0.587  12.699 -0.0069 -0.2205 -1.2214
 4345SOL    HW224498   2.197   0.681  12.713 -2.5649 -0.6621 -1.1755
 4346SOL     OW24499   1.362   2.654   6.319 -0.4561  0.1872 -0.0819
 4346SOL    HW124500   1.359   2.744   6.353 -0.0173  0.2909 -0.3177
 4346SOL    HW224501   1.406   2.675   6.237  1.8532  0.1406  1.1337
 4347SOL     OW24502   3.448   0.701   8.195  0.3590 -0.6192  0.3500
 4347SOL    HW124503   3.399   0.650   8.130  1.1517  1.0449 -1.5497
 4347SOL    HW224504   3.388   0.720   8.267 -0.5203  1.6307 -0.9974
 4348SOL     OW24505   0.844   2.553   7.162 -0.2842 -0.1859  0.0651
 4348SOL    HW124506   0.921   2.497   7.168  0.2234  0.5655  0.4714
 4348SOL    HW224507   0.897   2.631   7.149 -1.7622  1.0856  1.6341
 4349SOL     OW24508   4.398   0.233   6.024 -0.0281 -0.3777 -0.7912
 4349SOL    HW124509   4.379   0.156   6.077  0.4097  0.0788  0.0248
 4349SOL    HW224510   4.491   0.239   6.045 -0.8873 -0.5277  3.1027
 4350SOL     OW24511   0.994   2.636   7.462 -0.0247 -0.0762 -0.5547
 4350SOL    HW124512   0.906   2.621   7.497  0.3543 -2.0185 -0.4168
 4350SOL    HW224513   0.987   2.719   7.415  1.4826  0.5361  0.3028
 4351SOL     OW24514   3.658   4.106   0.938  0.1783 -0.6102  0.0947
 4351SOL    HW124515   3.698   4.035   0.989  0.4194  1.3384  2.6790
 4351SOL    HW224516   3.602   4.059   0.878  0.0588  0.3331 -0.5280
 4352SOL     OW24517   4.429   4.450   2.355 -0.3050  0.1237 -0.2204
 4352SOL    HW124518   4.392   4.525   2.309 -2.1257 -0.3106  0.5358
 4352SOL    HW224519   4.347   4.401   2.358  0.3006 -0.9965 -1.8607
 4353SOL     OW24520   3.555   0.599   1.512  0.3598  0.3916 -1.2751
 4353SOL    HW124521   3.606   0.669   1.553  1.1182 -0.3919 -0.8838
 4353SOL    HW224522   3.474   0.609   1.563  0.4794  2.0566 -1.4302
 4354SOL     OW24523   3.513   0.025  16.243 -0.1824  0.1375  0.3437
 4354SOL    HW124524   3.568   4.673  16.276 -2.0534 -0.2793  2.6041
 4354SOL    HW224525   3.448   4.694  16.194  0.7853  1.4478 -2.2551
 4355SOL     OW24526   3.126   0.018  15.898  0.1875  0.5947  0.2498
 4355SOL    HW124527   3.188   4.711  15.829  1.3780  2.2834  0.6962
 4355SOL    HW224528   3.045   0.032  15.849  1.7342  0.6531 -2.3030
 4356SOL     OW24529   4.381   2.829   4.506 -0.2348 -0.2970 -0.0377
 4356SOL    HW124530   4.339   2.870   4.431  0.5301  0.2133 -0.1926
 4356SOL    HW224531   4.391   2.905   4.562  0.3312 -1.0594  0.9096
 4357SOL     OW24532   3.080   4.628  17.135  0.0293 -0.7067 -0.8555
 4357SOL    HW124533   3.093   4.570  17.210 -0.2247 -2.4327 -2.1419
 4357SOL    HW224534   3.166   4.631  17.095 -0.1203  0.0882 -1.1259
 4358SOL     OW24535   4.467   2.853  14.051  0.8247  0.3117  0.5134
 4358SOL    HW124536   4.441   2.932  14.099 -1.1455  0.6554 -1.0863
 4358SOL    HW224537   4.383   2.809  14.037  0.9230  0.2743  0.0354
 4359SOL     OW24538   2.094   0.485   6.589 -0.1495 -0.8533 -0.6292
 4359SOL    HW124539   2.183   0.505   6.562  0.6154 -1.8482  1.1103
 4359SOL    HW224540   2.039   0.554   6.553 -0.8317 -1.0957 -0.0812
 4360SOL     OW24541   2.093   3.097   6.128  0.2704  0.5944  0.0286
 4360SOL    HW124542   2.014   3.045   6.144  2.0166 -1.5030  1.9393
 4360SOL    HW224543   2.164   3.040   6.160  1.3286  0.7339 -2.0659
 4361SOL     OW24544   3.993   3.416   7.734  0.1988  0.6485 -0.5981
 4361SOL    HW124545   4.036   3.376   7.809 -0.5854  0.6697 -0.1375
 4361SOL    HW224546   3.898   3.417   7.751  0.3355  0.8933  0.1198
 4362SOL     OW24547   1.957   4.093  16.105  0.0682 -0.3918  0.3810
 4362SOL    HW124548   2.009   4.017  16.131  0.6104 -0.0047  0.4426
 4362SOL    HW224549   1.979   4.100  16.012 -0.3972 -1.5998  0.1770
 4363SOL     OW24550   0.459   3.774   2.828 -0.5156  0.3251 -0.6133
 4363SOL    HW124551   0.514   3.809   2.759  1.8690 -1.3603  0.4558
 4363SOL    HW224552   0.440   3.685   2.797  0.7287 -0.7452  1.6808
 4364SOL     OW24553   3.728   2.313  11.487  0.2249  0.2053  0.0593
 4364SOL    HW124554   3.789   2.352  11.549 -0.6314 -0.4353  1.3066
 4364SOL    HW224555   3.780   2.308  11.407  2.1149 -2.8014  1.4896
 4365SOL     OW24556   0.781   3.398   5.439 -0.4940 -0.1311 -0.3139
 4365SOL    HW124557   0.774   3.330   5.372 -0.7111  1.3794 -1.8200
 4365SOL    HW224558   0.820   3.349   5.511  0.8455  1.4865  0.0727
 4366SOL     OW24559   3.092   4.299   5.046 -0.3884  0.2361  0.0757
 4366SOL    HW124560   3.091   4.282   5.140  2.5784 -2.1420 -0.3229
 4366SOL    HW224561   3.022   4.362   5.034  0.1688  1.0605  1.1303
 4367SOL     OW24562   0.857   1.312   0.701 -0.1907  0.1090 -0.6593
 4367SOL    HW124563   0.902   1.367   0.637  1.1731  0.7790  0.8640
 4367SOL    HW224564   0.816   1.241   0.652 -1.7789 -1.7561  3.4068
 4368SOL     OW24565   3.658   3.950  10.213  0.5478 -0.0257 -0.2158
 4368SOL    HW124566   3.700   3.938  10.298 -1.1752 -1.3413  0.4559
 4368SOL    HW224567   3.645   4.044  10.209  2.1946  0.3315  3.1684
 4369SOL     OW24568   3.464   1.953   3.978  0.0331  0.1325 -0.2937
 4369SOL    HW124569   3.462   2.005   4.059  0.0829  0.2543 -0.3714
 4369SOL    HW224570   3.542   1.974   3.926  0.4316 -0.1912  0.1755
 4370SOL     OW24571   2.023   2.867  14.429 -0.0272 -0.0166 -0.2154
 4370SOL    HW124572   2.038   2.773  14.423 -0.2913 -0.1284  0.8186
 4370SOL    HW224573   2.102   2.897  14.473 -0.3656  3.1324 -1.7839
 4371SOL     OW24574   4.575   2.956   9.224  0.1064  0.3190 -0.2635
 4371SOL    HW124575   4.595   2.898   9.297 -3.0572 -0.0006  0.3371
 4371SOL    HW224576   4.582   2.892   9.153  1.1472  2.2929 -1.9477
 4372SOL     OW24577   3.704   3.372  10.903 -0.7184 -0.5871 -0.9317
 4372SOL    HW124578   3.776   3.418  10.946 -2.1194  2.6992 -2.0609
 4372SOL    HW224579   3.752   3.319  10.839  1.6284 -0.4018  0.7026
 4373SOL     OW24580   2.901   0.634   3.710  0.1938 -0.3699 -0.2720
 4373SOL    HW124581   2.971   0.666   3.767 -0.7159  0.5273  0.3461
 4373SOL    HW224582   2.944   0.595   3.634 -0.3018 -0.4837 -0.4925
 4374SOL     OW24583   1.929   2.707  10.115 -0.1830 -0.2524  0.5605
 4374SOL    HW124584   1.989   2.733  10.045 -1.6177 -0.9806 -0.9440
 4374SOL    HW224585   1.859   2.771  10.102  1.3899  0.9925 -1.7932
 4375SOL     OW24586   1.215   0.583   2.980  0.0691  0.2925  0.7596
 4375SOL    HW124587   1.172   0.665   3.005  0.6518  0.5706  0.8623
 4375SOL    HW224588   1.206   0.579   2.885 -0.2918  2.3987  0.7025
 4376SOL     OW24589   2.588   3.638   2.198 -0.1005  0.1900  0.0093
 4376SOL    HW124590   2.578   3.544   2.187 -0.0397  0.5202 -2.9071
 4376SOL    HW224591   2.683   3.651   2.198 -0.0161 -0.5399 -1.2445
 4377SOL     OW24592   2.062   0.354   7.510  0.1446  0.0702  0.5429
 4377SOL    HW124593   2.068   0.350   7.414 -1.3517  1.1233  0.4003
 4377SOL    HW224594   2.088   0.265   7.534 -1.3923 -0.3957  0.4611
 4378SOL     OW24595   4.131   4.162   1.144 -0.8420 -0.2176  0.7716
 4378SOL    HW124596   4.125   4.255   1.123 -1.1372 -0.5228 -0.4953
 4378SOL    HW224597   4.067   4.146   1.213 -0.1469  1.0693  1.7368
 4379SOL     OW24598   1.851   0.249  13.558  0.3091 -0.0018  0.1996
 4379SOL    HW124599   1.872   0.291  13.642 -1.0815  0.7988  0.1429
 4379SOL    HW224600   1.771   0.203  13.583  0.1746 -0.1385 -0.4872
 4380SOL     OW24601   2.760   4.018   7.743 -0.3537  0.5932  0.6869
 4380SOL    HW124602   2.704   4.060   7.678 -0.3294 -1.1061 -0.4327
 4380SOL    HW224603   2.814   4.087   7.781  0.4549 -0.2085  0.9998
 4381SOL     OW24604   0.186   1.091   3.705  0.3833 -0.3392 -0.3258
 4381SOL    HW124605   0.227   1.085   3.791 -1.1709 -0.3008  0.4151
 4381SOL    HW224606   0.227   1.164   3.658 -1.2216  0.5687 -0.3338
 4382SOL     OW24607   1.849   0.554   2.494  0.6186  0.3334 -0.1301
 4382SOL    HW124608   1.757   0.576   2.509  0.1667 -0.3081 -2.0348
 4382SOL    HW224609   1.872   0.620   2.429 -0.2464 -0.8607 -1.6327
 4383SOL     OW24610   0.059   1.749   7.789 -0.1049  0.2596  0.5565
 4383SOL    HW124611   0.149   1.727   7.816  0.7476  1.9339 -0.9454
 4383SOL    HW224612   0.028   1.658   7.794 -0.5078  0.4098  0.7292
 4384SOL     OW24613   1.718   0.637   7.372 -0.6424  1.1205 -0.0084
 4384SOL    HW124614   1.648   0.615   7.434 -0.6982  0.6045 -0.2632
 4384SOL    HW224615   1.688   0.716   7.326 -0.2004 -0.5988 -3.2222
 4385SOL     OW24616   3.357   1.001   9.954  0.6368 -0.2740 -0.5040
 4385SOL    HW124617   3.350   1.056   9.875  2.6165 -0.6720 -0.9464
 4385SOL    HW224618   3.265   0.983   9.975  0.7120  1.6254  1.3848
 4386SOL     OW24619   4.516   3.623   0.555 -0.2365 -0.6401  0.2062
 4386SOL    HW124620   4.514   3.655   0.645 -1.8065  0.4189 -0.2116
 4386SOL    HW224621   4.496   3.531   0.576  1.1165 -0.9915  0.0026
 4387SOL     OW24622   4.045   3.993   0.556  0.0696  0.0109  0.4911
 4387SOL    HW124623   4.085   3.945   0.483 -0.5446  0.4115 -0.1013
 4387SOL    HW224624   4.025   4.081   0.524 -2.7776 -1.8249 -2.8448
 4388SOL     OW24625   2.178   4.025   7.885 -0.2412  0.2352  0.4950
 4388SOL    HW124626   2.082   4.018   7.883  0.0341 -3.7799 -0.5665
 4388SOL    HW224627   2.198   4.107   7.928 -0.8018  0.2979  0.6400
 4389SOL     OW24628   2.445   3.437   6.750  0.2782 -0.3533  0.6916
 4389SOL    HW124629   2.390   3.367   6.715  1.4021 -3.1934  4.5887
 4389SOL    HW224630   2.512   3.450   6.683  1.9647 -1.4691  2.1688
 4390SOL     OW24631   4.112   0.040  16.765  0.2127  0.1767  0.3041
 4390SOL    HW124632   4.103   0.119  16.818  0.4473  0.9088 -0.7550
 4390SOL    HW224633   4.138   4.701  16.837  1.2339 -0.4129 -0.5499
 4391SOL     OW24634   2.787   1.438  11.716  0.3625 -0.0010  0.5115
 4391SOL    HW124635   2.780   1.393  11.633 -1.1602 -0.3224  0.8071
 4391SOL    HW224636   2.852   1.506  11.697 -0.9812  1.0958 -0.1664
 4392SOL     OW24637   1.832   4.465   4.767  0.5050  0.4779  0.1501
 4392SOL    HW124638   1.840   4.478   4.672 -0.0149  0.9457  0.1687
 4392SOL    HW224639   1.853   4.372   4.773 -1.1664  0.0639 -0.4912
 4393SOL     OW24640   1.928   4.296  10.101  0.1576  0.1534 -0.0374
 4393SOL    HW124641   1.949   4.352  10.176  1.8396 -2.0240  1.1327
 4393SOL    HW224642   1.997   4.317  10.039 -0.7635  0.9597 -0.7766
 4394SOL     OW24643   0.189   0.096   6.478  0.0476 -0.0286 -0.4263
 4394SOL    HW124644   0.100   0.100   6.444 -0.1296 -0.7712 -0.0494
 4394SOL    HW224645   0.182   0.154   6.554  0.8681  0.0581 -0.4158
 4395SOL     OW24646   3.162   0.373   8.066 -0.6508  0.4113 -0.2824
 4395SOL    HW124647   3.216   0.448   8.041 -3.1128  1.4880 -2.2593
 4395SOL    HW224648   3.225   0.307   8.096 -0.1803  1.3669  0.8376
 4396SOL     OW24649   1.021   2.967   5.974 -0.5003 -0.5773  0.4639
 4396SOL    HW124650   0.948   2.966   6.037 -0.1270  0.1966  0.9193
 4396SOL    HW224651   1.075   2.900   6.016  1.5451  0.8046  0.0495
 4397SOL     OW24652   2.310   4.511  10.110 -0.0676 -0.5502  0.2940
 4397SOL    HW124653   2.403   4.525  10.091 -0.0389 -2.0003 -0.6806
 4397SOL    HW224654   2.313   4.422  10.146  2.7834 -0.0470  1.2667
 4398SOL     OW24655   3.194   1.618  10.148 -0.1103 -0.0088  0.0767
 4398SOL    HW124656   3.193   1.693  10.207 -0.1699  0.8634 -1.0461
 4398SOL    HW224657   3.162   1.550  10.208  0.7722 -0.6002 -0.1190
 4399SOL     OW24658   0.471   0.265  14.648 -0.3833  0.0309  0.0349
 4399SOL    HW124659   0.435   0.192  14.698  1.6948 -2.2202 -1.7811
 4399SOL    HW224660   0.478   0.221  14.563  1.2629 -2.0438  1.2532
 4400SOL     OW24661   1.451   2.473  15.527  0.1967  0.6287 -0.3158
 4400SOL    HW124662   1.431   2.461  15.619  1.5526 -0.9517 -0.2293
 4400SOL    HW224663   1.523   2.414  15.506  0.4950  0.4012  1.3922
 4401SOL     OW24664   0.722   4.415   2.805 -0.1299  0.1462 -0.0521
 4401SOL    HW124665   0.718   4.353   2.878 -1.1661 -1.8712 -1.7984
 4401SOL    HW224666   0.801   4.384   2.760 -0.4645 -1.4598  0.4721
 4402SOL     OW24667   2.112   3.033   4.531 -0.3315  0.1412 -0.3600
 4402SOL    HW124668   2.112   2.946   4.491 -0.7962  0.1592 -0.3958
 4402SOL    HW224669   2.017   3.042   4.538 -0.2957 -0.0788  0.3596
 4403SOL     OW24670   3.958   3.546   2.436  0.3211  0.1098 -0.2758
 4403SOL    HW124671   3.929   3.518   2.349  0.2386  0.1438 -0.2588
 4403SOL    HW224672   3.884   3.505   2.480 -1.3044  0.6058 -2.5685
 4404SOL     OW24673   3.967   0.758  12.864 -0.2212  0.1328  0.0511
 4404SOL    HW124674   4.045   0.720  12.906  1.6823  1.1795 -2.4983
 4404SOL    HW224675   3.993   0.850  12.852  0.0035  0.3576  2.2680
 4405SOL     OW24676   1.496   4.410   1.795 -1.0882  0.4744 -0.1975
 4405SOL    HW124677   1.422   4.400   1.735 -1.3254  0.3331  0.1125
 4405SOL    HW224678   1.481   4.497   1.832  1.0224  0.8172 -0.1657
 4406SOL     OW24679   0.955   4.027  10.425 -0.4516 -0.0744 -0.1812
 4406SOL    HW124680   1.028   4.024  10.487 -0.5046 -1.6708 -0.1864
 4406SOL    HW224681   0.918   3.940  10.440  3.3216 -2.0443 -2.1777
 4407SOL     OW24682   1.191   3.125   3.181  0.1997 -0.1200  0.1984
 4407SOL    HW124683   1.241   3.047   3.204  2.5743  1.8777  1.8240
 4407SOL    HW224684   1.151   3.148   3.265 -0.3460 -0.0796 -0.0726
 4408SOL     OW24685   1.586   1.271  14.698 -0.5682 -0.2393  0.1355
 4408SOL    HW124686   1.563   1.364  14.694  0.3739  0.0377  1.3530
 4408SOL    HW224687   1.502   1.228  14.679  0.2051 -3.0027  2.9932
 4409SOL     OW24688   4.341   2.174   2.798  0.0837  0.6102  0.4297
 4409SOL    HW124689   4.264   2.121   2.815 -0.1032  0.7758  0.0987
 4409SOL    HW224690   4.317   2.233   2.726 -2.4569 -0.4315  0.4225
 4410SOL     OW24691   3.559   0.788   3.249 -0.0942 -0.3545  0.6125
 4410SOL    HW124692   3.632   0.753   3.301 -0.0332 -0.0310  0.7415
 4410SOL    HW224693   3.507   0.707   3.246  0.0989 -0.5029  1.3058
 4411SOL     OW24694   0.391   1.903   5.900  0.0001  1.0148  0.0558
 4411SOL    HW124695   0.380   1.918   5.994  1.6970  0.5336  0.3193
 4411SOL    HW224696   0.486   1.909   5.893  0.0998  0.4148  0.9161
 4412SOL     OW24697   4.372   0.576   2.959  0.0231  0.1637 -0.6350
 4412SOL    HW124698   4.328   0.628   2.891  0.1496 -0.6918 -1.3803
 4412SOL    HW224699   4.448   0.631   2.976  0.8578 -0.9490 -0.7133
 4413SOL     OW24700   2.916   1.074  10.610  0.0773 -0.6647  0.4760
 4413SOL    HW124701   2.979   1.081  10.681 -0.2392 -1.2369  0.8111
 4413SOL    HW224702   2.952   0.995  10.569  1.5942  1.5915 -2.5529
 4414SOL     OW24703   0.556   0.471  16.728  0.5593  0.2766  0.6216
 4414SOL    HW124704   0.533   0.416  16.803 -3.0132  2.7626  1.3720
 4414SOL    HW224705   0.567   0.555  16.772  2.5696  0.1146  0.4442
 4415SOL     OW24706   4.229   0.275   9.221 -0.0445 -0.7134 -0.3759
 4415SOL    HW124707   4.219   0.241   9.310 -0.2358 -0.3415 -0.2576
 4415SOL    HW224708   4.140   0.290   9.191  0.2720 -0.3402 -1.1221
 4416SOL     OW24709   1.865   1.571   1.150  0.4075 -0.0277 -0.1727
 4416SOL    HW124710   1.875   1.647   1.093  1.7451  0.3852  0.6047
 4416SOL    HW224711   1.849   1.606   1.237 -0.7618  1.1576 -0.8637
 4417SOL     OW24712   2.003   0.741   8.941 -0.3906 -0.4260  0.4076
 4417SOL    HW124713   2.094   0.730   8.971 -0.3208 -1.9744 -0.3390
 4417SOL    HW224714   1.971   0.796   9.013 -0.7481 -0.9895  0.6755
 4418SOL     OW24715   3.881   2.116  12.014 -0.2247 -0.0448  0.5730
 4418SOL    HW124716   3.915   2.154  11.933  1.7105  0.4154  1.5887
 4418SOL    HW224717   3.958   2.062  12.034 -1.5562 -2.0420  0.2889
 4419SOL     OW24718   4.164   1.889   7.834  0.2001 -0.4325 -0.4457
 4419SOL    HW124719   4.240   1.899   7.777  1.3753 -0.2966  1.1259
 4419SOL    HW224720   4.207   1.871   7.918 -2.7040  0.0244  1.1525
 4420SOL     OW24721   3.990   1.158   7.047 -0.5356 -0.7059  0.3178
 4420SOL    HW124722   3.985   1.065   7.069  1.3285 -0.9195 -0.1542
 4420SOL    HW224723   4.010   1.191   7.135 -2.9311  0.5003  0.3889
 4421SOL     OW24724   2.342   4.523   5.706 -0.3534 -0.2189 -0.9281
 4421SOL    HW124725   2.406   4.484   5.647  1.5505  0.3101  0.7597
 4421SOL    HW224726   2.329   4.613   5.678 -0.9340 -0.1268 -0.3653
 4422SOL     OW24727   4.193   2.142   0.443  0.7735 -0.3848 -0.6914
 4422SOL    HW124728   4.155   2.081   0.506  1.6137 -0.9864 -0.7734
 4422SOL    HW224729   4.232   2.073   0.390 -1.5324 -1.1786 -1.3519
 4423SOL     OW24730   1.372   1.115  13.451 -0.4184  0.2843  0.5083
 4423SOL    HW124731   1.374   1.175  13.525  0.6543 -1.5275  1.9444
 4423SOL    HW224732   1.454   1.143  13.409  0.6237 -0.7821  1.8262
 4424SOL     OW24733   0.806   1.906   9.739  0.0954  0.6769  0.2818
 4424SOL    HW124734   0.726   1.955   9.761 -1.4434 -1.4700 -0.5559
 4424SOL    HW224735   0.816   1.843   9.810  0.3816  0.2042 -0.1849
 4425SOL     OW24736   0.441   2.441   7.018  0.4175  0.1250  0.5517
 4425SOL    HW124737   0.396   2.521   6.991  1.2871 -0.1843 -1.7930
 4425SOL    HW224738   0.493   2.433   6.938 -1.6240 -0.8214 -0.6997
 4426SOL     OW24739   0.670   4.639  12.533  0.8063 -0.4027 -0.2513
 4426SOL    HW124740   0.648   4.552  12.499  2.1755 -0.3206 -1.3489
 4426SOL    HW224741   0.766   4.639  12.525  0.7518 -1.0091 -0.8819
 4427SOL     OW24742   0.001   2.095   3.071  0.3137 -0.0985 -0.3524
 4427SOL    HW124743   4.705   2.187   3.047 -0.8066 -0.6749 -1.8950
 4427SOL    HW224744   4.640   2.052   3.038 -0.0964  0.1228  0.3551
 4428SOL     OW24745   3.120   2.773   6.763 -0.0312  0.2607  0.0779
 4428SOL    HW124746   3.054   2.761   6.831  0.3241  0.6462  0.4891
 4428SOL    HW224747   3.191   2.730   6.811 -0.5276  0.2435  0.7944
 4429SOL     OW24748   0.027   3.945   2.323 -0.4204  0.1791  0.2224
 4429SOL    HW124749   0.061   3.988   2.245  0.1701 -0.9520 -0.1563
 4429SOL    HW224750   4.710   4.013   2.380 -2.2845  0.8190 -1.7399
 4430SOL     OW24751   2.025   2.154  17.453 -0.3069  0.7852  0.2778
 4430SOL    HW124752   2.005   2.241  17.487 -1.1892  0.5518  0.3543
 4430SOL    HW224753   2.100   2.126  17.505 -0.0424 -0.3991 -0.7196
 4431SOL     OW24754   3.141   2.562   6.424 -0.1570 -1.3013  0.0627
 4431SOL    HW124755   3.165   2.627   6.490  2.9651 -0.8033 -1.5952
 4431SOL    HW224756   3.075   2.505   6.464 -0.4972 -0.1500  1.1355
 4432SOL     OW24757   1.213   0.965   4.887 -0.0991 -0.1381 -0.1409
 4432SOL    HW124758   1.251   1.013   4.814 -0.9434  1.8523  0.7351
 4432SOL    HW224759   1.156   1.035   4.919 -0.1126 -0.2395  0.0534
 4433SOL     OW24760   2.992   3.618   7.980  0.5250 -1.1733 -0.1517
 4433SOL    HW124761   3.063   3.593   8.039 -0.6080 -0.7761  1.3787
 4433SOL    HW224762   2.956   3.531   7.965  0.8239 -1.5166  1.1285
 4434SOL     OW24763   2.328   1.359   3.061 -0.9042  0.7521 -0.1489
 4434SOL    HW124764   2.423   1.364   3.052 -0.5872  0.4253  2.7742
 4434SOL    HW224765   2.315   1.297   2.989 -0.7363 -0.6583  1.0315
 4435SOL     OW24766   1.240   4.672   7.225 -0.1298 -0.0104 -0.2132
 4435SOL    HW124767   1.287   4.640   7.148 -3.1582 -0.4622 -1.8674
 4435SOL    HW224768   1.159   4.688   7.177 -0.3743 -3.4566 -0.9142
 4436SOL     OW24769   0.981   0.829   9.481 -0.3537  0.0088  0.3436
 4436SOL    HW124770   0.893   0.856   9.508 -1.4318 -2.7910 -0.3616
 4436SOL    HW224771   0.997   0.769   9.554  1.6491  1.2829  0.9358
 4437SOL     OW24772   0.751   1.302  17.038 -0.0288  0.0741 -0.1177
 4437SOL    HW124773   0.692   1.230  17.061  0.6712  0.3809  2.6509
 4437SOL    HW224774   0.687   1.365  17.003 -0.9630 -1.4370 -1.0998
 4438SOL     OW24775   3.104   1.275   4.283  0.1975  0.1079  0.0998
 4438SOL    HW124776   3.111   1.180   4.281 -0.7088  0.0272  1.2147
 4438SOL    HW224777   3.180   1.307   4.332  0.8675  1.1175 -1.5879
 4439SOL     OW24778   1.749   3.412   4.657  0.0589 -0.1881 -0.5006
 4439SOL    HW124779   1.737   3.392   4.564  1.6259 -0.1636 -0.7183
 4439SOL    HW224780   1.657   3.423   4.679  0.4238 -2.1548  1.9524
 4440SOL     OW24781   0.074   0.057   6.765  0.5606 -0.0356 -0.7956
 4440SOL    HW124782   0.002   0.105   6.806 -0.1485 -0.7642 -1.1802
 4440SOL    HW224783   0.107   0.017   6.845  1.3644  0.5331 -0.8467
 4441SOL     OW24784   4.031   1.470  11.507 -0.3582  0.3774  0.3712
 4441SOL    HW124785   3.955   1.470  11.448  0.5630  0.8592 -0.8126
 4441SOL    HW224786   3.983   1.458  11.589  0.9711  4.1702  1.7236
 4442SOL     OW24787   1.835   0.768   7.951 -0.0335  0.3575 -0.5593
 4442SOL    HW124788   1.872   0.689   7.991 -0.8325  1.2747  2.0397
 4442SOL    HW224789   1.794   0.724   7.877 -1.2802 -1.4263  1.1739
 4443SOL     OW24790   2.645   0.759  16.701 -0.1542  0.5976 -0.5493
 4443SOL    HW124791   2.609   0.835  16.747  1.8471  0.3504  1.4105
 4443SOL    HW224792   2.614   0.775  16.611  0.0577  0.2147 -0.6861
 4444SOL     OW24793   2.292   4.009   2.783 -0.8077  0.1263  0.4694
 4444SOL    HW124794   2.319   4.027   2.693  2.4033  3.1315  1.9943
 4444SOL    HW224795   2.324   3.919   2.792  0.1656  0.4851  0.6751
 4445SOL     OW24796   3.369   2.943   0.899  0.1071  0.4271  0.2719
 4445SOL    HW124797   3.333   2.886   0.967  2.0888 -2.4971 -1.1307
 4445SOL    HW224798   3.295   2.957   0.840  2.0885  1.1574 -2.0601
 4446SOL     OW24799   1.516   2.715   0.555 -0.7241  0.3556 -0.0698
 4446SOL    HW124800   1.569   2.769   0.614  3.0639 -1.4996 -1.7891
 4446SOL    HW224801   1.543   2.753   0.471  1.2998  2.6478  1.6112
 4447SOL     OW24802   4.091   1.011  12.841 -0.4647 -0.3553 -0.0019
 4447SOL    HW124803   4.118   1.090  12.887 -0.2371  0.5824 -1.7415
 4447SOL    HW224804   4.176   0.970  12.826  0.8687  1.9127  1.2872
 4448SOL     OW24805   2.078   3.753  16.734  0.6678 -0.3636  0.5375
 4448SOL    HW124806   2.044   3.814  16.800 -0.9553  0.2911 -0.9039
 4448SOL    HW224807   2.102   3.684  16.796 -0.5888 -0.8825  0.4574
 4449SOL     OW24808   4.673   3.533   1.211  0.1005  0.1478  0.1661
 4449SOL    HW124809   4.709   3.445   1.224  1.0773  0.5387  0.1152
 4449SOL    HW224810   4.710   3.551   1.125  2.9169 -4.3822  0.4273
 4450SOL     OW24811   3.633   2.539   1.102 -0.1403 -0.0538  0.0207
 4450SOL    HW124812   3.727   2.548   1.119  0.1815 -2.5751 -0.5070
 4450SOL    HW224813   3.598   2.624   1.128  1.6929  0.7667 -0.1811
 4451SOL     OW24814   3.721   4.181   9.831  0.6432  0.1548  0.1764
 4451SOL    HW124815   3.738   4.265   9.872  3.4245  1.4264 -3.5687
 4451SOL    HW224816   3.766   4.188   9.747 -0.8452 -0.5319 -0.6740
 4452SOL     OW24817   0.861   0.326   8.649 -0.0173 -0.2550 -0.0890
 4452SOL    HW124818   0.807   0.377   8.589 -0.3207 -1.9680 -1.2908
 4452SOL    HW224819   0.949   0.358   8.632 -0.4622  1.3198  0.5537
 4453SOL     OW24820   0.936   1.164  14.986 -0.0811  0.1357 -0.0216
 4453SOL    HW124821   1.010   1.112  15.018 -0.0597  0.4945  0.5053
 4453SOL    HW224822   0.885   1.086  14.966  0.2294 -0.1845  0.4474
 4454SOL     OW24823   2.396   4.198   3.570 -0.2991  1.1139  0.5404
 4454SOL    HW124824   2.368   4.214   3.660 -1.4139 -2.7025  0.8482
 4454SOL    HW224825   2.333   4.233   3.507 -1.4433 -2.2300 -0.1708
 4455SOL     OW24826   0.937   1.830   4.838 -0.4741 -0.6677 -0.0622
 4455SOL    HW124827   1.019   1.825   4.789  0.3687 -0.6111  1.3517
 4455SOL    HW224828   0.938   1.763   4.905  0.4242  0.1788  0.7759
 4456SOL     OW24829   1.490   2.208   7.252  0.1846  0.1785  0.3448
 4456SOL    HW124830   1.419   2.240   7.196  1.0200  1.2995 -0.0892
 4456SOL    HW224831   1.565   2.255   7.217  1.2418  0.0082  2.3393
 4457SOL     OW24832   0.160   0.327   2.644 -0.0060  0.0418  0.1526
 4457SOL    HW124833   0.070   0.293   2.648  0.1352 -0.2593  0.9318
 4457SOL    HW224834   0.147   0.374   2.562 -1.6225 -2.3770 -0.9906
 4458SOL     OW24835   3.188   2.693   6.030  0.2883  0.2675 -0.3282
 4458SOL    HW124836   3.229   2.641   6.099 -4.0423 -2.7092 -0.0444
 4458SOL    HW224837   3.260   2.741   5.989  0.3020  0.8494  0.3934
 4459SOL     OW24838   3.691   1.040   3.530 -0.6147  0.6260  0.6429
 4459SOL    HW124839   3.623   0.991   3.576 -1.3402  0.7887 -0.2611
 4459SOL    HW224840   3.767   0.987   3.556 -1.5510 -0.4760  1.1701
 4460SOL     OW24841   1.118   2.476   3.413 -0.2378 -0.3319 -0.3806
 4460SOL    HW124842   1.157   2.402   3.366 -1.2475  0.5131 -2.5253
 4460SOL    HW224843   1.047   2.432   3.460 -0.7939  0.9704 -0.0085
 4461SOL     OW24844   4.189   3.238   0.125  0.7735 -0.1090 -0.0287
 4461SOL    HW124845   4.247   3.312   0.109  1.0036  0.0316  1.4493
 4461SOL    HW224846   4.147   3.212   0.043  0.6409 -1.2031  0.3875
 4462SOL     OW24847   0.585   4.283  16.873  0.0354 -0.0907  0.3883
 4462SOL    HW124848   0.542   4.257  16.792  1.2514  1.7099 -0.8164
 4462SOL    HW224849   0.540   4.362  16.900 -0.4808 -0.1560 -0.2805
 4463SOL     OW24850   3.851   4.231   6.132 -0.5001 -0.0474  0.3728
 4463SOL    HW124851   3.806   4.147   6.130  0.6712 -0.6409 -0.6295
 4463SOL    HW224852   3.776   4.282   6.163 -0.4646  1.2338 -1.6320
 4464SOL     OW24853   1.313   3.186   6.493  0.2747 -0.2036  0.3821
 4464SOL    HW124854   1.382   3.125   6.520  1.7232  0.4613 -1.7910
 4464SOL    HW224855   1.231   3.159   6.533 -1.3215  1.3218 -1.9188
 4465SOL     OW24856   2.645   2.511   6.600 -0.0911 -0.5293 -0.2897
 4465SOL    HW124857   2.606   2.437   6.554  0.0383 -0.3150 -0.7455
 4465SOL    HW224858   2.561   2.552   6.622  0.9806  1.7012 -0.2936
 4466SOL     OW24859   4.342   3.090  11.063  0.1420 -0.3281 -0.0287
 4466SOL    HW124860   4.264   3.075  11.009  0.1013  0.9107 -0.3197
 4466SOL    HW224861   4.324   3.175  11.103 -0.4458 -1.4737  2.1843
 4467SOL     OW24862   3.552   1.062   6.662  0.7680  0.5398 -0.1202
 4467SOL    HW124863   3.614   0.995   6.689 -0.2936 -0.1869  0.4715
 4467SOL    HW224864   3.575   1.130   6.726 -0.3837 -0.1364  1.0005
 4468SOL     OW24865   0.513   1.079  14.984  0.1220 -0.4539 -0.2541
 4468SOL    HW124866   0.603   1.061  15.012  0.6527 -0.6407 -2.1162
 4468SOL    HW224867   0.519   1.174  14.974 -3.7193 -0.4122 -2.2724
 4469SOL     OW24868   0.373   4.222   3.290 -0.1649  0.4462 -0.2179
 4469SOL    HW124869   0.377   4.252   3.199 -0.9296  2.3087  0.3653
 4469SOL    HW224870   0.339   4.301   3.332 -3.5502 -0.3857 -1.3039
 4470SOL     OW24871   0.069   2.867   8.226 -0.2607  0.7917  0.7599
 4470SOL    HW124872   0.063   2.858   8.321  2.5237  0.8690  0.9496
 4470SOL    HW224873   4.695   2.871   8.198  0.4880 -1.1585 -1.9203
 4471SOL     OW24874   1.412   0.267   3.860 -0.6882 -1.0390  0.5066
 4471SOL    HW124875   1.499   0.241   3.889 -0.5152 -1.1892 -0.1374
 4471SOL    HW224876   1.432   0.355   3.829 -0.4866 -0.7355  1.5137
 4472SOL     OW24877   3.886   2.422   7.075  0.0746 -0.1381  0.2303
 4472SOL    HW124878   3.957   2.440   7.014 -0.7159 -0.9453 -0.9320
 4472SOL    HW224879   3.882   2.497   7.135  0.7266  1.8328 -2.1802
 4473SOL     OW24880   3.051   1.180   1.939  0.4133  0.2187  0.3328
 4473SOL    HW124881   2.983   1.232   1.981  0.6397  1.5494 -0.9362
 4473SOL    HW224882   3.032   1.091   1.967 -2.5649  1.3165  1.7758
 4474SOL     OW24883   0.341   3.475   9.942  0.2135 -0.0635  0.3766
 4474SOL    HW124884   0.281   3.519   9.882  0.3143  0.3943  0.6125
 4474SOL    HW224885   0.402   3.424   9.889  0.5219  1.1640 -0.4349
 4475SOL     OW24886   0.385   4.220   8.513  0.0426  0.6751 -0.0113
 4475SOL    HW124887   0.393   4.308   8.475 -1.2881  1.3157  1.1752
 4475SOL    HW224888   0.321   4.190   8.448  0.3125  1.2397 -0.5461
 4476SOL     OW24889   2.374   3.724   7.063 -0.0531 -0.1152 -0.2146
 4476SOL    HW124890   2.442   3.719   6.996 -0.3735 -0.7556 -0.5005
 4476SOL    HW224891   2.343   3.634   7.074  0.9919 -0.5181 -0.5410
 4477SOL     OW24892   1.618   3.883   3.888 -0.4311 -0.0107 -0.2375
 4477SOL    HW124893   1.627   3.978   3.888  0.5452 -0.1014  0.0379
 4477SOL    HW224894   1.542   3.863   3.833  0.1082 -1.9276 -0.2695
 4478SOL     OW24895   1.367   3.877   5.983 -0.3319  0.0123  0.5458
 4478SOL    HW124896   1.346   3.868   6.076 -0.9918  0.3492  0.4330
 4478SOL    HW224897   1.420   3.799   5.969 -0.0184 -0.1626  2.6755
 4479SOL     OW24898   1.897   0.064   7.351 -0.0006  0.0624 -0.2989
 4479SOL    HW124899   1.893   4.696   7.309  0.9728 -0.9584  1.7223
 4479SOL    HW224900   1.991   0.079   7.347 -0.2703  2.1306  0.8441
 4480SOL     OW24901   3.466   2.549  15.411 -0.0005  0.6214 -0.0575
 4480SOL    HW124902   3.445   2.622  15.469  0.0332  1.3276 -0.9333
 4480SOL    HW224903   3.422   2.567  15.328  0.4338  2.3063  0.0658
 4481SOL     OW24904   1.729   3.655   7.615 -0.3440  0.0427  0.2400
 4481SOL    HW124905   1.717   3.685   7.525 -1.0998  1.2879  0.7547
 4481SOL    HW224906   1.785   3.580   7.598 -0.3806 -0.0375  0.4741
 4482SOL     OW24907   2.837   1.324   4.307 -0.5074 -0.3846 -0.5207
 4482SOL    HW124908   2.930   1.301   4.297 -0.6070  0.3301 -3.1507
 4482SOL    HW224909   2.846   1.413   4.340 -0.3642 -1.4666  2.3257
 4483SOL     OW24910   3.447   4.058   3.205 -0.0203  0.3335  0.2030
 4483SOL    HW124911   3.414   4.093   3.122  0.9938  2.4075  0.6792
 4483SOL    HW224912   3.396   4.113   3.264  1.4313  0.8266  0.9868
 4484SOL     OW24913   3.840   2.408  10.115 -1.0425  0.3753  0.3997
 4484SOL    HW124914   3.781   2.343  10.078  0.4934 -1.1247  0.5527
 4484SOL    HW224915   3.810   2.492  10.080 -0.7818  0.7619  1.0881
 4485SOL     OW24916   3.492   2.593   5.422  0.3318  0.1102  0.1149
 4485SOL    HW124917   3.556   2.648   5.468  0.4070  0.4093 -0.3417
 4485SOL    HW224918   3.480   2.649   5.345 -2.3329  0.4309  0.7886
 4486SOL     OW24919   1.169   4.245   7.407  0.3977 -0.2229 -0.0479
 4486SOL    HW124920   1.172   4.239   7.311 -2.8505 -0.2680 -0.1224
 4486SOL    HW224921   1.254   4.216   7.441 -0.5381  0.2317  2.6487
 4487SOL     OW24922   1.180   0.830   9.301 -0.7709 -0.1995 -0.6430
 4487SOL    HW124923   1.121   0.850   9.374 -1.5361  1.0902 -1.5963
 4487SOL    HW224924   1.266   0.832   9.341 -1.0122 -1.3011 -0.0819
 4488SOL     OW24925   4.093   2.579   4.531  0.1065 -0.0422 -0.2343
 4488SOL    HW124926   4.024   2.516   4.510  1.0121 -0.6686 -1.3071
 4488SOL    HW224927   4.056   2.650   4.478 -0.4831 -2.6668 -3.3336
 4489SOL     OW24928   2.527   4.443   6.356  0.0908  0.0000 -0.2926
 4489SOL    HW124929   2.442   4.457   6.399  0.8526 -0.2351  1.2679
 4489SOL    HW224930   2.566   4.528   6.380  1.3583 -0.6743  0.0109
 4490SOL     OW24931   1.487   1.382  14.999 -0.8968 -0.5753  0.2852
 4490SOL    HW124932   1.516   1.463  14.957  0.1063 -0.2889  1.5242
 4490SOL    HW224933   1.399   1.403  15.029 -1.2518 -0.1198 -1.0655
 4491SOL     OW24934   3.687   3.874   0.028  0.6112  0.3762 -0.4919
 4491SOL    HW124935   3.676   3.969   0.025 -1.0607  0.2335  1.1394
 4491SOL    HW224936   3.699   3.852   0.120 -1.2904  0.5492 -0.2063
 4492SOL     OW24937   4.321   2.844   4.814 -0.1832  0.6157  0.0461
 4492SOL    HW124938   4.339   2.755   4.784  0.0446  0.7033 -0.0800
 4492SOL    HW224939   4.341   2.831   4.906 -0.8086  2.6083  0.4661
 4493SOL     OW24940   1.676   0.712  15.006 -0.0475 -0.1148 -0.0260
 4493SOL    HW124941   1.730   0.782  14.970 -1.0927 -0.4814 -2.3174
 4493SOL    HW224942   1.617   0.762  15.063  1.0217 -0.5129  1.4349
 4494SOL     OW24943   3.386   0.583   4.570  0.2287  0.6220  0.3509
 4494SOL    HW124944   3.385   0.579   4.474 -1.7867  2.7618  0.2969
 4494SOL    HW224945   3.433   0.666   4.581  0.4354  0.3457  1.6103
 4495SOL     OW24946   1.926   0.148  13.328  0.0697  0.4055  0.1094
 4495SOL    HW124947   1.889   0.185  13.408 -1.1184  0.9634 -0.6825
 4495SOL    HW224948   1.983   0.222  13.307 -0.6900  0.8805 -0.2983
 4496SOL     OW24949   0.872   1.407  16.570 -0.2827  0.1606  0.2138
 4496SOL    HW124950   0.904   1.458  16.496  0.2124  0.5806  0.7152
 4496SOL    HW224951   0.858   1.473  16.638  1.0012  1.2414 -0.5619
 4497SOL     OW24952   3.177   3.926   7.531  0.0975 -0.0585  0.7668
 4497SOL    HW124953   3.184   4.020   7.550  1.7387  0.6066 -3.3309
 4497SOL    HW224954   3.240   3.907   7.462 -0.2258  0.7901  0.2357
 4498SOL     OW24955   0.551   2.226  13.381  0.0601  0.2226  0.1071
 4498SOL    HW124956   0.512   2.217  13.468 -1.3698 -0.9988 -0.6614
 4498SOL    HW224957   0.574   2.135  13.365 -3.0663 -0.0842 -2.7462
 4499SOL     OW24958   3.073   3.764   1.158 -0.1101  0.2843 -0.2662
 4499SOL    HW124959   3.099   3.856   1.160  1.0743 -0.0009 -2.3857
 4499SOL    HW224960   3.002   3.764   1.094  0.4844 -2.1729 -0.9013
 4500SOL     OW24961   4.349   1.642   0.622  0.6870  0.6048  0.2914
 4500SOL    HW124962   4.406   1.603   0.689  1.0102 -1.1638 -1.0276
 4500SOL    HW224963   4.259   1.621   0.643 -0.0669  0.7273 -2.8312
 4501SOL     OW24964   0.245   3.061  15.961  0.9019  0.1128 -0.0268
 4501SOL    HW124965   0.208   3.003  15.894  0.2087 -0.6959  1.0561
 4501SOL    HW224966   0.315   3.100  15.908  1.0866 -0.7516 -0.4293
 4502SOL     OW24967   1.255   4.249   3.131 -0.1112  0.0452  0.1488
 4502SOL    HW124968   1.190   4.265   3.063 -0.6283  1.0884  0.8817
 4502SOL    HW224969   1.334   4.288   3.093  0.1145  0.1520  0.7292
 4503SOL     OW24970   4.329   2.514  11.982 -0.2520  0.2328 -0.9131
 4503SOL    HW124971   4.332   2.478  11.893  3.1533  0.1716 -0.7696
 4503SOL    HW224972   4.271   2.590  11.979 -1.4311 -0.6864 -1.3742
 4504SOL     OW24973   3.826   0.824   7.631  0.0491  0.0487  0.0921
 4504SOL    HW124974   3.899   0.887   7.632 -0.1788  0.2800  1.8173
 4504SOL    HW224975   3.871   0.741   7.642 -0.0824 -0.0460 -0.0822
 4505SOL     OW24976   0.227   4.275   5.727 -0.2339  0.5150 -0.0296
 4505SOL    HW124977   0.233   4.213   5.799 -2.7347  1.1265  0.6999
 4505SOL    HW224978   0.165   4.338   5.763 -0.6878  0.4393 -0.6831
 4506SOL     OW24979   4.580   2.432  11.233 -0.0800 -0.0572 -0.0552
 4506SOL    HW124980   4.659   2.483  11.213  0.8081 -1.3240  0.2163
 4506SOL    HW224981   4.539   2.410  11.150  1.3699 -0.6655 -0.6080
 4507SOL     OW24982   1.501   3.942   4.190  0.4094 -0.0575 -0.1365
 4507SOL    HW124983   1.567   3.889   4.147 -0.4463 -1.3363  0.1114
 4507SOL    HW224984   1.539   3.967   4.274  1.0315 -0.0290 -0.4252
 4508SOL     OW24985   0.845   3.519   6.666 -0.0907  0.0524  0.3568
 4508SOL    HW124986   0.813   3.434   6.694  0.2797 -0.4587 -0.7751
 4508SOL    HW224987   0.939   3.513   6.684  0.7890  1.8656 -3.5764
 4509SOL     OW24988   0.534   3.867   5.588 -0.4888  0.0064 -0.2974
 4509SOL    HW124989   0.485   3.947   5.609 -1.3464  0.0575 -2.4504
 4509SOL    HW224990   0.459   3.809   5.586 -1.1706  0.8344  1.3718
 4510SOL     OW24991   3.181   2.433  12.849  0.2441  0.1341 -0.1471
 4510SOL    HW124992   3.266   2.420  12.807 -1.0871  0.3479 -2.9047
 4510SOL    HW224993   3.131   2.483  12.784 -0.5451  0.9430  1.0656
 4511SOL     OW24994   3.569   2.584   3.291 -0.1459  0.3584 -0.3662
 4511SOL    HW124995   3.618   2.651   3.339  0.4397 -1.4131  1.5119
 4511SOL    HW224996   3.574   2.508   3.349 -0.8897  0.1009 -0.6415
 4512SOL     OW24997   0.041   0.372   5.151 -0.1477 -0.4736 -0.0757
 4512SOL    HW124998   0.087   0.432   5.209 -2.5741  1.0979  0.2382
 4512SOL    HW224999   4.678   0.415   5.123  0.0241  0.3571  0.6927
 4513SOL     OW25000   2.997   2.676   7.800  0.2596  0.1810  0.0239
 4513SOL    HW125001   2.967   2.762   7.771  1.9527  0.2806 -1.3738
 4513SOL    HW225002   3.066   2.692   7.865  0.5819  0.0262 -0.2854
 4514SOL     OW25003   1.803   0.955  16.428  0.6841 -0.3060  1.1992
 4514SOL    HW125004   1.756   0.962  16.345  1.8187 -0.8023  0.5155
 4514SOL    HW225005   1.794   1.048  16.450  0.6922 -0.3914  1.5760
 4515SOL     OW25006   2.218   2.783  17.010  0.5219 -0.9837 -0.2094
 4515SOL    HW125007   2.239   2.697  17.048 -1.2662 -0.5626  1.7174
 4515SOL    HW225008   2.278   2.841  17.057 -0.9980  1.1345 -0.8882
 4516SOL     OW25009   1.743   3.451   7.229 -0.3097 -0.6333 -0.7230
 4516SOL    HW125010   1.808   3.521   7.225 -1.5429  0.5580  0.0408
 4516SOL    HW225011   1.727   3.451   7.135 -1.8532 -1.1586 -0.4586
 4517SOL     OW25012   0.566   2.448   6.728  0.4305 -0.0414  0.0533
 4517SOL    HW125013   0.660   2.465   6.726  0.2432  1.0240  0.4102
 4517SOL    HW225014   0.527   2.532   6.703 -1.6182 -0.7207  1.0007
 4518SOL     OW25015   0.203   3.005   8.707  0.1477 -0.6554 -0.0779
 4518SOL    HW125016   0.223   2.944   8.779  0.1681 -1.0251 -0.3944
 4518SOL    HW225017   0.277   3.065   8.712  0.5583 -1.2443  1.0980
 4519SOL     OW25018   2.047   1.626   4.117  0.1646 -0.0582 -0.1280
 4519SOL    HW125019   1.975   1.652   4.060  0.2671  0.2712 -0.1032
 4519SOL    HW225020   2.083   1.562   4.055  0.3249 -0.9206  0.8476
 4520SOL     OW25021   0.416   1.981   2.875 -0.2079 -0.3015 -0.2618
 4520SOL    HW125022   0.411   1.970   2.780 -2.0354 -0.7994 -0.1056
 4520SOL    HW225023   0.326   1.951   2.885 -0.8025  1.3684 -0.7370
 4521SOL     OW25024   0.175   2.153   6.689 -0.0645  0.0831  0.5276
 4521SOL    HW125025   0.153   2.245   6.703 -0.7144  0.3074 -1.9951
 4521SOL    HW225026   0.095   2.106   6.712  0.6170 -0.2891  2.1670
 4522SOL     OW25027   0.313   3.568   5.218  0.5310 -0.5616  0.8862
 4522SOL    HW125028   0.259   3.645   5.205  0.9556 -0.2226  1.1358
 4522SOL    HW225029   0.257   3.507   5.267  1.7486 -1.3944  1.2413
 4523SOL     OW25030   0.546   0.605   5.478  0.1492  0.3857  0.1807
 4523SOL    HW125031   0.495   0.646   5.548 -1.0623 -0.6786 -0.0743
 4523SOL    HW225032   0.515   0.515   5.475  1.1309  0.1097 -1.4517
 4524SOL     OW25033   0.917   3.912   3.503  0.2082  0.2190  0.4383
 4524SOL    HW125034   0.924   3.887   3.411  2.1572 -1.5329  1.0529
 4524SOL    HW225035   0.927   4.007   3.505  3.0854 -0.0923  1.3527
 4525SOL     OW25036   3.798   3.465   3.693  0.8740 -0.1718 -0.0146
 4525SOL    HW125037   3.709   3.431   3.695  0.4592  0.9589  0.5917
 4525SOL    HW225038   3.842   3.398   3.641  1.8814 -1.4869  2.5400
 4526SOL     OW25039   4.560   0.160   7.836  0.3585 -0.0311  0.1197
 4526SOL    HW125040   4.525   0.243   7.803 -0.7152 -0.2670  0.6851
 4526SOL    HW225041   4.646   0.163   7.794  0.1972  1.1037 -0.1132
 4527SOL     OW25042   4.451   2.290   7.653 -0.3206 -0.1569 -0.5003
 4527SOL    HW125043   4.508   2.363   7.678  1.7192 -2.4858  1.6971
 4527SOL    HW225044   4.505   2.223   7.610  0.2315  0.8085 -1.2987
 4528SOL     OW25045   1.376   2.970   1.356  0.1475  0.1789 -0.0103
 4528SOL    HW125046   1.398   2.924   1.275  1.0406  0.1840  0.2192
 4528SOL    HW225047   1.359   3.061   1.331 -0.2203 -0.1229 -0.8350
 4529SOL     OW25048   3.602   4.704   1.414  0.1496 -0.4352  0.3410
 4529SOL    HW125049   3.633   0.012   1.327  2.4421 -2.1779  0.6490
 4529SOL    HW225050   3.514   4.673   1.394  0.4050 -0.9326  0.0023
 4530SOL     OW25051   0.366   1.357   9.016  0.2161  1.1859 -0.4650
 4530SOL    HW125052   0.433   1.382   8.951  1.5742  0.5706  0.7009
 4530SOL    HW225053   0.418   1.337   9.094 -0.8272 -1.1939 -0.4016
 4531SOL     OW25054   2.137   4.121   9.755  0.4474 -0.0354  0.3509
 4531SOL    HW125055   2.053   4.087   9.724 -0.3923  1.0512  1.3958
 4531SOL    HW225056   2.200   4.084   9.693 -1.4057 -3.2612  0.4200
 4532SOL     OW25057   2.188   2.136   6.542 -0.0741 -0.4188 -0.5034
 4532SOL    HW125058   2.107   2.186   6.532 -2.1555 -3.3288  1.9410
 4532SOL    HW225059   2.191   2.082   6.462 -0.4129 -1.8955  0.4720
 4533SOL     OW25060   0.204   1.080   7.685  0.0920  0.1861 -0.0675
 4533SOL    HW125061   0.167   0.992   7.686  0.5679  0.0216  2.5095
 4533SOL    HW225062   0.129   1.132   7.715 -0.9927 -1.4399 -0.0132
 4534SOL     OW25063   0.654   4.637   6.639  0.2249  0.2665 -0.0679
 4534SOL    HW125064   0.713   4.627   6.565  1.6783  0.4978  1.0525
 4534SOL    HW225065   0.566   4.630   6.601  0.7810 -1.4898 -0.9979
 4535SOL     OW25066   3.711   4.663  15.704 -0.8201  0.0194 -0.1978
 4535SOL    HW125067   3.630   4.624  15.671 -0.4152 -1.6813  0.8437
 4535SOL    HW225068   3.702   0.033  15.669 -0.1964 -0.0296 -0.4807
 4536SOL     OW25069   0.500   0.525   0.906 -0.1779  0.6905 -0.1256
 4536SOL    HW125070   0.464   0.550   0.991  1.5322  0.3188  0.7242
 4536SOL    HW225071   0.461   0.439   0.893 -2.3218  1.6782 -0.2202
 4537SOL     OW25072   1.044   0.966  10.927 -0.0035 -0.3357  0.2606
 4537SOL    HW125073   1.075   0.985  10.839  0.3828 -0.6021  0.3383
 4537SOL    HW225074   0.959   1.009  10.934 -0.7073 -1.8210  0.8548
 4538SOL     OW25075   0.040   2.324  15.257  0.3564 -0.4469  0.3693
 4538SOL    HW125076   0.069   2.234  15.242 -1.8507 -1.0546 -0.2982
 4538SOL    HW225077   0.043   2.363  15.170  2.1229  0.3921  0.8149
 4539SOL     OW25078   0.022   4.202  10.480 -0.4035 -0.2626 -0.0277
 4539SOL    HW125079   4.700   4.128  10.525  0.7706 -2.1326 -2.0577
 4539SOL    HW225080   0.113   4.193  10.507  0.0268  2.8340 -0.3903
 4540SOL     OW25081   3.801   1.088   5.847  0.1466 -0.0591  0.4609
 4540SOL    HW125082   3.834   1.123   5.764  1.8929 -1.4985  0.5605
 4540SOL    HW225083   3.776   0.998   5.825  0.6480 -0.2634  0.7452
 4541SOL     OW25084   1.845   1.179   6.895 -0.0361  0.1860 -0.3628
 4541SOL    HW125085   1.833   1.166   6.801  0.0971  0.8761 -0.4760
 4541SOL    HW225086   1.897   1.101   6.916 -0.1882  0.8202  2.3818
 4542SOL     OW25087   4.497   3.415   5.045 -0.4162 -0.2843  0.1965
 4542SOL    HW125088   4.458   3.482   5.101 -0.1791  1.2615 -1.4691
 4542SOL    HW225089   4.444   3.340   5.071  0.5248 -0.7711  0.7025
 4543SOL     OW25090   2.100   3.308   6.475  0.0305 -0.0811 -0.2233
 4543SOL    HW125091   2.165   3.295   6.544 -0.8044  0.4812  0.6651
 4543SOL    HW225092   2.155   3.357   6.414  0.1452  0.3230  0.2041
 4544SOL     OW25093   2.128   1.916   3.590  0.1839  0.1426 -0.1764
 4544SOL    HW125094   2.216   1.882   3.610 -0.6240 -1.9923 -0.2714
 4544SOL    HW225095   2.134   1.995   3.645 -1.6947 -0.1323  0.4259
 4545SOL     OW25096   2.442   2.013   8.146  0.4482 -0.2362  0.0700
 4545SOL    HW125097   2.385   2.089   8.133  0.0120 -0.4308  0.8303
 4545SOL    HW225098   2.487   2.047   8.224  1.7111  0.0542 -0.7846
 4546SOL     OW25099   3.284   0.207  11.237  0.6489  0.1901 -0.2786
 4546SOL    HW125100   3.321   0.292  11.261 -0.1073  1.1621 -2.5579
 4546SOL    HW225101   3.270   0.229  11.145 -1.5616 -0.1455 -0.0201
 4547SOL     OW25102   1.182   0.290   8.148  0.6361 -0.4336  0.0908
 4547SOL    HW125103   1.132   0.232   8.090  0.5977  2.2126 -2.5433
 4547SOL    HW225104   1.123   0.363   8.162  1.9162  0.6076  0.0647
 4548SOL     OW25105   0.861   4.488   3.487  0.5233 -0.2985 -0.5244
 4548SOL    HW125106   0.873   4.571   3.441  0.2199 -0.1010 -0.2494
 4548SOL    HW225107   0.918   4.501   3.564 -2.9415 -0.2336  2.0346
 4549SOL     OW25108   0.918   1.639   3.823  0.1289 -0.0762 -0.3530
 4549SOL    HW125109   0.892   1.567   3.765  0.9901 -0.8952  0.2880
 4549SOL    HW225110   1.006   1.617   3.853  0.7975  1.7074 -0.9784
 4550SOL     OW25111   0.099   2.568  13.981  0.0049  0.2809  0.2992
 4550SOL    HW125112   0.156   2.496  14.005  0.9140  0.6574 -0.7242
 4550SOL    HW225113   0.158   2.643  13.986  0.1746  0.3168 -1.8583
 4551SOL     OW25114   0.439   1.122  16.680 -0.6740  0.2248  0.1244
 4551SOL    HW125115   0.461   1.030  16.694 -0.0989  0.5299  1.2524
 4551SOL    HW225116   0.521   1.172  16.684 -1.9086  2.4000 -1.7322
 4552SOL     OW25117   2.791   4.238   8.286  0.6640  0.1450  0.3277
 4552SOL    HW125118   2.871   4.207   8.243  0.2813  2.6200 -2.1330
 4552SOL    HW225119   2.757   4.306   8.229 -1.1725 -0.6297  0.5038
 4553SOL     OW25120   2.391   0.759   1.187 -0.6941  0.3730  0.2314
 4553SOL    HW125121   2.394   0.826   1.255  0.9388  0.6152 -0.0786
 4553SOL    HW225122   2.404   0.677   1.234  0.2515  0.7354  0.5832
 4554SOL     OW25123   2.656   4.330   9.898 -0.2806  0.1276 -0.1978
 4554SOL    HW125124   2.705   4.319   9.980 -0.4016 -1.1162 -0.2932
 4554SOL    HW225125   2.603   4.406   9.923 -1.5431 -1.1628  1.0329
 4555SOL     OW25126   4.504   3.208   7.031  0.2793  0.1295  0.2543
 4555SOL    HW125127   4.586   3.164   7.054  1.0438  1.5655  0.2484
 4555SOL    HW225128   4.436   3.151   7.067 -0.2884  0.3011 -0.5371
 4556SOL     OW25129   0.869   0.822   2.559  0.3202  0.4635  0.2960
 4556SOL    HW125130   0.908   0.902   2.524 -1.7941  0.4782 -1.9235
 4556SOL    HW225131   0.783   0.829   2.519  0.1020  0.2144  0.7254
 4557SOL     OW25132   1.520   0.465  15.960  0.2421  0.7869 -0.0333
 4557SOL    HW125133   1.560   0.487  16.044  1.9619  0.3244 -0.7204
 4557SOL    HW225134   1.583   0.401  15.925  0.4537  0.4017  1.0542
 4558SOL     OW25135   3.275   4.031   8.140 -0.1714  0.4635 -0.1788
 4558SOL    HW125136   3.277   3.948   8.187  0.6890  1.0462  0.7800
 4558SOL    HW225137   3.276   4.009   8.046  0.7150 -1.8037  0.3720
 4559SOL     OW25138   0.007   3.535   7.898  0.2055  0.2322 -0.2644
 4559SOL    HW125139   0.073   3.561   7.833  0.3767 -0.8179 -0.5126
 4559SOL    HW225140   0.039   3.568   7.981  2.0049  1.4550 -1.4379
 4560SOL     OW25141   4.487   1.078   6.315  0.4183  0.5853  0.1655
 4560SOL    HW125142   4.571   1.099   6.356 -0.1030  0.7634  1.1402
 4560SOL    HW225143   4.444   1.158   6.284  1.8547  0.7850 -1.3179
 4561SOL     OW25144   1.184   1.098   5.266  0.3895  0.4289 -0.4144
 4561SOL    HW125145   1.150   1.022   5.218  1.1341 -1.0516  1.3706
 4561SOL    HW225146   1.105   1.141   5.298  0.6498  1.9266 -1.7994
 4562SOL     OW25147   0.515   4.189   4.466  0.0734 -0.0223 -0.3266
 4562SOL    HW125148   0.568   4.132   4.411 -0.6260 -0.6939 -0.2985
 4562SOL    HW225149   0.572   4.217   4.538  0.3816  3.7951 -2.0323
 4563SOL     OW25150   0.588   3.898   7.641  0.1696  0.5123  0.0533
 4563SOL    HW125151   0.502   3.861   7.619  0.9190 -0.8276 -0.6302
 4563SOL    HW225152   0.581   3.915   7.735 -1.9396 -0.4273  0.0588
 4564SOL     OW25153   1.955   0.579  12.655 -0.6953 -0.1529  0.3740
 4564SOL    HW125154   1.963   0.559  12.561 -1.7706  1.4354 -0.0490
 4564SOL    HW225155   2.043   0.557  12.687 -0.7371 -0.0106  0.5803
 4565SOL     OW25156   3.461   1.635  10.403 -0.2507 -0.0511  0.4121
 4565SOL    HW125157   3.373   1.668  10.422 -1.4427 -1.6723 -2.3474
 4565SOL    HW225158   3.448   1.542  10.386 -0.2074 -0.2390  1.3767
 4566SOL     OW25159   0.156   0.421   2.392 -0.2734 -0.1592  0.2943
 4566SOL    HW125160   0.191   0.332   2.386 -2.6527 -1.0779  0.1775
 4566SOL    HW225161   0.232   0.471   2.361 -0.7014 -1.0725 -2.1679
 4567SOL     OW25162   3.752   2.218   5.294 -0.0165  0.0823 -0.2588
 4567SOL    HW125163   3.846   2.199   5.293  0.4376  2.3063 -0.1302
 4567SOL    HW225164   3.749   2.313   5.285  1.4408  0.5072  3.8442
 4568SOL     OW25165   3.345   3.475   0.256 -0.4560  0.7794  0.0811
 4568SOL    HW125166   3.422   3.420   0.244  0.2566  1.9290 -0.5071
 4568SOL    HW225167   3.325   3.461   0.349  0.2891 -2.1667 -0.1861
 4569SOL     OW25168   2.524   1.628   6.853  0.1150  0.0749  0.3439
 4569SOL    HW125169   2.554   1.679   6.928  0.6285  0.3275 -0.0271
 4569SOL    HW225170   2.582   1.556   6.876 -2.5353 -1.5834  1.7861
 4570SOL     OW25171   2.732   4.279   5.281  0.9496 -0.1070  0.1621
 4570SOL    HW125172   2.822   4.303   5.257  0.3318  2.1674  0.1083
 4570SOL    HW225173   2.682   4.323   5.212  1.9286  0.5451 -0.1254
 4571SOL     OW25174   1.092   1.249   0.491 -0.6022  0.6501 -0.2984
 4571SOL    HW125175   0.997   1.240   0.481 -0.2518 -3.8161  0.5891
 4571SOL    HW225176   1.112   1.183   0.425 -0.7203 -0.9277  1.2325
 4572SOL     OW25177   2.110   1.328   5.650 -0.3177 -0.2942  0.1297
 4572SOL    HW125178   2.132   1.419   5.672  0.6865 -0.6271  0.4500
 4572SOL    HW225179   2.194   1.284   5.657  0.4991  0.6650 -3.1081
 4573SOL     OW25180   2.013   2.538   7.915 -0.4271  0.0809  0.0285
 4573SOL    HW125181   1.959   2.574   7.985 -2.1353  1.1207 -1.8377
 4573SOL    HW225182   2.006   2.608   7.850 -0.6621 -0.0215 -0.0571
 4574SOL     OW25183   1.236   3.608   6.458  0.5518 -0.6761  0.3690
 4574SOL    HW125184   1.180   3.544   6.414 -0.5357 -0.5921  1.5975
 4574SOL    HW225185   1.287   3.553   6.518  0.8528 -0.5116  0.2606
 4575SOL     OW25186   0.923   2.073  10.529 -0.2732  0.2337 -0.0899
 4575SOL    HW125187   0.952   2.123  10.453 -2.0293 -0.1533 -1.0288
 4575SOL    HW225188   0.946   1.980  10.524  3.1468  1.1410 -1.0909
 4576SOL     OW25189   0.107   0.211   7.659  0.1434  0.8214 -0.1048
 4576SOL    HW125190   0.177   0.152   7.632  0.4145  0.5647  1.1607
 4576SOL    HW225191   0.152   0.273   7.716  1.4994  0.8965 -1.2643
 4577SOL     OW25192   3.833   1.384  13.753 -0.1670 -0.0894 -0.0515
 4577SOL    HW125193   3.879   1.306  13.721 -0.5597  0.0176 -0.8947
 4577SOL    HW225194   3.879   1.448  13.699  0.8850  0.1817  1.1905
 4578SOL     OW25195   4.667   3.482   0.017  0.1329 -0.1311  0.4371
 4578SOL    HW125196   4.633   3.488   0.106 -0.5566 -0.1253  0.1701
 4578SOL    HW225197   4.585   3.463  17.647 -1.0006  0.8754  2.0524
 4579SOL     OW25198   3.199   1.329   5.379 -0.1274 -0.3220 -0.2075
 4579SOL    HW125199   3.128   1.376   5.335  1.1140 -0.1708 -2.0560
 4579SOL    HW225200   3.188   1.238   5.351  2.2632 -0.0566 -2.0620
 4580SOL     OW25201   4.701   3.095   6.832  0.2980  0.8479 -0.3447
 4580SOL    HW125202   0.055   3.092   6.894  0.1771  0.8881 -0.2038
 4580SOL    HW225203   4.705   3.182   6.793 -4.9933  0.2846 -2.1870
 4581SOL     OW25204   1.371   3.861   3.732  0.1022  0.3497  0.7804
 4581SOL    HW125205   1.400   3.941   3.689 -0.7803 -0.6025 -1.5678
 4581SOL    HW225206   1.288   3.837   3.691  1.2442 -0.0489 -1.2664
 4582SOL     OW25207   2.432   3.965   3.428 -0.3735  0.1207  0.3892
 4582SOL    HW125208   2.440   4.058   3.449 -0.7355  0.0290  0.9347
 4582SOL    HW225209   2.338   3.947   3.422 -0.3288  0.2844 -0.8506
 4583SOL     OW25210   3.980   4.268  16.074  0.1889 -0.1752  0.0560
 4583SOL    HW125211   3.948   4.222  15.996  0.3961 -1.1496  0.5416
 4583SOL    HW225212   4.045   4.327  16.035  2.5033 -2.6349  0.1995
 4584SOL     OW25213   2.725   1.030   7.562  0.2312  0.1617 -0.1997
 4584SOL    HW125214   2.731   1.005   7.654  0.4123 -0.3001 -0.3377
 4584SOL    HW225215   2.666   1.106   7.562  0.4484  0.3333  1.7122
 4585SOL     OW25216   3.837   3.813   0.798  0.5206  0.0428 -0.0920
 4585SOL    HW125217   3.743   3.826   0.786  0.7773  0.1479 -2.0497
 4585SOL    HW225218   3.845   3.732   0.849 -0.6480 -0.3658 -0.5499
 4586SOL     OW25219   4.534   0.874   6.137 -0.1100  0.0505 -0.2344
 4586SOL    HW125220   4.538   0.956   6.186  0.4949  0.6964 -1.3460
 4586SOL    HW225221   4.440   0.856   6.141 -0.5745  2.3503 -0.8632
 4587SOL     OW25222   2.848   0.063   9.191 -0.8152 -0.2412  0.4454
 4587SOL    HW125223   2.845   0.157   9.176 -2.0340 -0.1258  1.4562
 4587SOL    HW225224   2.834   0.067   9.286  2.4530 -0.1095  0.9309
 4588SOL     OW25225   1.067   0.125   8.605  0.1403 -0.2583 -0.1770
 4588SOL    HW125226   0.985   0.115   8.558 -0.5828  0.6450  0.9026
 4588SOL    HW225227   1.131   0.160   8.542  1.2992 -1.4493  0.3438
 4589SOL     OW25228   4.155   3.459   0.405  0.5180  0.0600  0.0753
 4589SOL    HW125229   4.171   3.478   0.498 -0.3382 -1.1075  0.4655
 4589SOL    HW225230   4.205   3.377   0.395 -0.8765 -0.7301 -0.3828
 4590SOL     OW25231   1.374   4.390   6.466  0.0957  0.0533 -0.7513
 4590SOL    HW125232   1.354   4.305   6.429 -3.6946 -0.0745  1.5962
 4590SOL    HW225233   1.313   4.402   6.539  1.3769  1.1027  0.1469
 4591SOL     OW25234   3.433   2.334  12.750 -0.4792  0.1519 -0.1827
 4591SOL    HW125235   3.465   2.350  12.839  1.3178 -1.8521 -0.4446
 4591SOL    HW225236   3.512   2.304  12.705 -2.0490 -2.7426 -1.0004
 4592SOL     OW25237   4.666   0.808   8.734 -0.1543  0.2095  0.8126
 4592SOL    HW125238   4.613   0.883   8.707  1.6293  1.1086 -0.2732
 4592SOL    HW225239   4.610   0.762   8.796 -1.0123  1.3353  0.8571
 4593SOL     OW25240   1.124   4.313   0.815  0.3363  0.1885  0.4764
 4593SOL    HW125241   1.108   4.385   0.753  0.9673  0.2621  0.3939
 4593SOL    HW225242   1.188   4.347   0.878  1.9099  2.9427 -2.5843
 4594SOL     OW25243   2.326   2.562  15.118 -0.2919 -0.3358 -0.1999
 4594SOL    HW125244   2.349   2.601  15.202  0.2839 -2.4142  0.5836
 4594SOL    HW225245   2.232   2.580  15.108 -0.4143  1.6269  4.3764
 4595SOL     OW25246   0.389   3.544  10.337  0.1776  0.2445  0.0488
 4595SOL    HW125247   0.429   3.535  10.250  0.2349 -0.3389  0.1343
 4595SOL    HW225248   0.303   3.505  10.324 -0.2589  1.1910  0.0845
 4596SOL     OW25249   0.915   3.803   2.270 -0.2419 -0.0025 -0.4620
 4596SOL    HW125250   0.824   3.831   2.266 -0.5254 -0.9480 -0.5806
 4596SOL    HW225251   0.953   3.850   2.195  2.1463  0.6142  1.1257
 4597SOL     OW25252   1.006   3.804  17.438  0.4044  0.1152  0.2261
 4597SOL    HW125253   1.035   3.738  17.375  1.2848  0.3994  0.3283
 4597SOL    HW225254   1.082   3.794  17.494  0.3817  0.1968  0.2726
 4598SOL     OW25255   0.035   3.983  17.656 -0.7228  0.0883 -0.2865
 4598SOL    HW125256   4.668   3.949   0.007 -0.8622  0.5262 -0.1756
 4598SOL    HW225257   0.075   3.988   0.067 -1.8934  2.7422  0.1121
 4599SOL     OW25258   4.183   0.048   5.349 -0.0163 -0.1159 -0.5749
 4599SOL    HW125259   4.228   4.683   5.361 -1.4895 -1.0413 -1.5436
 4599SOL    HW225260   4.235   0.105   5.406  0.1396  0.7688 -1.6044
 4600SOL     OW25261   2.442   1.381   9.231  0.2341 -0.4813  0.1590
 4600SOL    HW125262   2.358   1.357   9.193  1.1422 -1.3069 -1.3567
 4600SOL    HW225263   2.441   1.475   9.214 -0.3569 -0.5078  0.0419
 4601SOL     OW25264   2.653   1.211   4.843  0.0699  0.5263  0.1138
 4601SOL    HW125265   2.634   1.288   4.789  0.8808  0.2182 -0.6273
 4601SOL    HW225266   2.745   1.191   4.822 -0.0600  1.0610 -0.9565
 4602SOL     OW25267   0.837   4.578   9.271  0.2792 -0.0019 -0.1210
 4602SOL    HW125268   0.764   4.517   9.279 -0.3457  0.7925  0.1971
 4602SOL    HW225269   0.786   4.653   9.301 -0.4192  0.1097 -1.5879
 4603SOL     OW25270   0.350   1.159   4.590  0.0317 -0.1537 -0.0587
 4603SOL    HW125271   0.294   1.106   4.534 -1.1208  0.7408  0.2491
 4603SOL    HW225272   0.314   1.125   4.672  1.5274  0.6529  0.9430
 4604SOL     OW25273   0.260   4.225  12.009  0.8641 -0.1789 -0.3860
 4604SOL    HW125274   0.191   4.208  11.945 -0.2914 -1.8615  1.2738
 4604SOL    HW225275   0.337   4.224  11.952  0.7659 -1.2080 -0.5020
 4605SOL     OW25276   3.496   2.390   5.583 -0.2586 -0.5354 -0.3757
 4605SOL    HW125277   3.451   2.312   5.549  0.1794 -0.0393 -2.1031
 4605SOL    HW225278   3.481   2.454   5.514  0.3960 -1.1382 -1.0698
 4606SOL     OW25279   3.248   3.090   4.784  0.2972 -0.2434  0.7280
 4606SOL    HW125280   3.332   3.050   4.809  0.7728  0.9819  1.0645
 4606SOL    HW225281   3.194   3.011   4.774  1.5811 -1.0580  0.2119
 4607SOL     OW25282   3.261   1.704   5.761 -0.4108  0.4423  0.0464
 4607SOL    HW125283   3.344   1.724   5.806 -1.1374 -0.3874  1.7797
 4607SOL    HW225284   3.232   1.637   5.823 -1.0656  1.6532  1.0337
 4608SOL     OW25285   2.053   2.943  16.231 -0.0425 -0.3162  0.6676
 4608SOL    HW125286   2.109   3.010  16.192  1.9464 -1.0486  2.3082
 4608SOL    HW225287   1.969   2.986  16.250 -0.6444 -1.3836  0.4728
 4609SOL     OW25288   0.594   2.504   4.043  0.1401 -0.4573  0.2472
 4609SOL    HW125289   0.640   2.434   3.996  1.2842  0.2665  0.2763
 4609SOL    HW225290   0.636   2.507   4.129 -0.6184  4.0903  0.4863
 4610SOL     OW25291   2.272   1.392   7.197 -0.1620  0.3474  0.1222
 4610SOL    HW125292   2.246   1.330   7.130  0.0207 -1.0143  1.3079
 4610SOL    HW225293   2.365   1.391   7.178 -0.0300  0.1467  0.7733
 4611SOL     OW25294   0.251   2.701  15.069  0.2752  0.0478 -0.3111
 4611SOL    HW125295   0.176   2.748  15.107  0.5746  0.3442 -0.0916
 4611SOL    HW225296   0.231   2.694  14.975 -1.1061  1.4907 -0.1192
 4612SOL     OW25297   0.855   2.252  12.124 -0.2538 -0.7242  0.3019
 4612SOL    HW125298   0.772   2.283  12.159  1.3230  1.9225  1.7352
 4612SOL    HW225299   0.862   2.163  12.157  1.6642 -0.0740  1.6542
 4613SOL     OW25300   3.848   2.112   4.539  0.4232  0.0541  0.2689
 4613SOL    HW125301   3.824   2.059   4.615 -2.3732 -1.1894 -1.4555
 4613SOL    HW225302   3.939   2.087   4.525 -0.3450 -3.0732  0.7504
 4614SOL     OW25303   1.864   4.169   8.473 -0.5039  0.1310 -0.2648
 4614SOL    HW125304   1.788   4.111   8.463 -1.6653  1.6718 -0.4679
 4614SOL    HW225305   1.935   4.108   8.491  0.3156  2.0318  2.9751
 4615SOL     OW25306   0.391   4.335   2.580 -0.0479  0.1792 -0.3778
 4615SOL    HW125307   0.473   4.346   2.532  1.7455 -1.4104  2.3152
 4615SOL    HW225308   0.335   4.307   2.508 -2.5339 -1.3833  2.1608
 4616SOL     OW25309   2.565   1.056  15.366  0.5321 -0.1238  0.0891
 4616SOL    HW125310   2.624   1.082  15.437 -0.2737  1.4541  0.1839
 4616SOL    HW225311   2.597   1.114  15.296  0.6604 -1.0269 -0.6077
 4617SOL     OW25312   4.286   2.838   7.554  0.5498  0.6241 -0.0392
 4617SOL    HW125313   4.364   2.791   7.525  0.6674 -0.3700  1.8941
 4617SOL    HW225314   4.215   2.809   7.496  1.1775 -0.8077 -0.0891
 4618SOL     OW25315   1.325   0.378   8.978 -0.3767 -0.0454  0.2052
 4618SOL    HW125316   1.382   0.453   8.995 -0.2430 -0.2966  0.8635
 4618SOL    HW225317   1.256   0.388   9.044 -0.9966  0.6648 -0.5583
 4619SOL     OW25318   4.326   0.617   0.965  0.7160 -0.0482  0.1760
 4619SOL    HW125319   4.233   0.621   0.941  1.1067  0.9664 -1.1390
 4619SOL    HW225320   4.326   0.603   1.060  1.4723 -0.5743  0.0910
 4620SOL     OW25321   2.621   0.985   9.818  0.4035  0.6199 -0.2244
 4620SOL    HW125322   2.548   0.940   9.860  1.4871 -1.0726 -0.1638
 4620SOL    HW225323   2.657   1.022   9.898 -3.6806 -0.0650  1.9360
 4621SOL     OW25324   4.601   3.648   2.693  0.3686 -0.1818  0.4799
 4621SOL    HW125325   4.563   3.573   2.740  0.3895 -2.2529 -2.7971
 4621SOL    HW225326   4.544   3.641   2.616  1.9803 -0.8805 -0.6490
 4622SOL     OW25327   0.879   1.966  12.204 -0.0946 -0.1398  0.0373
 4622SOL    HW125328   0.870   1.913  12.125 -0.4784 -1.9124  1.2744
 4622SOL    HW225329   0.932   1.908  12.257 -1.4977 -0.8654  0.6388
 4623SOL     OW25330   4.516   2.323   1.248 -0.2695  0.6201  0.3597
 4623SOL    HW125331   4.587   2.350   1.189 -2.9375  3.9249 -1.3972
 4623SOL    HW225332   4.521   2.398   1.307  0.2590 -0.3480  1.5411
 4624SOL     OW25333   4.707   1.098   4.875 -0.3087  0.3049 -0.4323
 4624SOL    HW125334   4.699   1.145   4.792 -0.0532 -0.6209 -0.9848
 4624SOL    HW225335   0.065   1.141   4.913 -1.9048  4.2255 -1.7181
 4625SOL     OW25336   0.261   4.426  10.747  0.3736 -0.6482 -0.2228
 4625SOL    HW125337   0.221   4.341  10.732  0.5175 -0.8330  0.4616
 4625SOL    HW225338   0.265   4.469  10.662 -1.1328 -1.6412 -0.7963
 4626SOL     OW25339   2.705   3.895  15.098 -0.1642  0.1294  0.1256
 4626SOL    HW125340   2.705   3.901  15.003 -0.6847 -2.1221 -0.0363
 4626SOL    HW225341   2.614   3.901  15.126 -0.2723  1.9869 -0.6495
 4627SOL     OW25342   2.691   4.129   5.867  0.4003 -0.4629  0.3382
 4627SOL    HW125343   2.752   4.161   5.933  1.4461  1.1358 -1.4225
 4627SOL    HW225344   2.750   4.099   5.799 -0.6075  0.3806 -0.9049
 4628SOL     OW25345   0.130   3.441   5.408  0.3096 -0.3642  0.1001
 4628SOL    HW125346   0.151   3.355   5.443  0.4444 -0.6545 -0.7013
 4628SOL    HW225347   0.035   3.434   5.409  0.2206  0.9501  1.0381
 4629SOL     OW25348   4.625   2.081   6.580  0.5693  0.2061 -0.4409
 4629SOL    HW125349   4.586   2.051   6.662 -0.8861  1.2465 -0.7696
 4629SOL    HW225350   4.623   2.176   6.592  0.3911  0.2820 -1.0408
 4630SOL     OW25351   2.540   4.143   2.839 -0.4458 -0.1851  0.1446
 4630SOL    HW125352   2.520   4.106   2.753 -0.2367 -0.5017  0.2308
 4630SOL    HW225353   2.635   4.132   2.843 -0.0893  2.8381 -0.3721
 4631SOL     OW25354   3.672   0.401  16.257  0.1704 -0.1726 -0.1947
 4631SOL    HW125355   3.611   0.351  16.202  0.4316  0.1941 -0.8168
 4631SOL    HW225356   3.610   0.472  16.275  0.2683  0.4318 -2.2680
 4632SOL     OW25357   2.159   1.786   5.687 -0.0835  0.0360 -0.4056
 4632SOL    HW125358   2.104   1.831   5.623 -1.8612  0.9601  1.7613
 4632SOL    HW225359   2.201   1.856   5.736  0.7270  0.2522 -1.4096
 4633SOL     OW25360   4.616   1.641   7.011 -0.4414  0.0345  0.3168
 4633SOL    HW125361   4.668   1.667   6.935  0.0038 -0.8299  0.3304
 4633SOL    HW225362   4.676   1.613   7.080  0.8509 -1.5006 -1.4512
 4634SOL     OW25363   4.432   0.593  12.729  0.4175  0.6088 -0.5074
 4634SOL    HW125364   4.494   0.542  12.782  2.1800  0.1284 -3.0191
 4634SOL    HW225365   4.490   0.613  12.656  0.0025  0.4636 -0.8738
 4635SOL     OW25366   1.339   3.327   5.368 -0.1494 -0.4433 -0.0683
 4635SOL    HW125367   1.400   3.401   5.376 -1.1820  0.2521  1.2871
 4635SOL    HW225368   1.377   3.269   5.434  0.9037 -0.1065 -0.3773
 4636SOL     OW25369   2.532   3.759   8.278  0.3467  0.9346  0.1350
 4636SOL    HW125370   2.478   3.813   8.337 -2.1758 -2.2386  0.7271
 4636SOL    HW225371   2.615   3.803   8.298  2.1025 -3.0506  1.5539
 4637SOL     OW25372   1.291   3.410  15.191 -0.5178 -0.1838 -0.2581
 4637SOL    HW125373   1.243   3.329  15.210 -0.8260  0.2575  0.8348
 4637SOL    HW225374   1.237   3.478  15.230  1.5276  0.3954  1.5331
 4638SOL     OW25375   4.382   3.164   1.010  0.0682 -0.1913  0.7578
 4638SOL    HW125376   4.356   3.082   0.968 -1.1458  0.7011 -0.2101
 4638SOL    HW225377   4.365   3.138   1.101 -0.2170 -3.7962 -0.2879
 4639SOL     OW25378   0.445   3.187   4.745 -0.4758 -0.1000  0.5591
 4639SOL    HW125379   0.468   3.130   4.819  1.3466  0.1285  0.1773
 4639SOL    HW225380   0.407   3.262   4.790  0.0266 -0.3282  1.3656
 4640SOL     OW25381   0.019   3.147   9.783  0.0628 -0.9215  0.0183
 4640SOL    HW125382   0.046   3.179   9.869 -1.8230  0.6555  0.0409
 4640SOL    HW225383   4.644   3.130   9.796 -0.3507  0.3360 -1.3107
 4641SOL     OW25384   1.062   4.073   4.669  0.2148 -0.0033  0.1032
 4641SOL    HW125385   1.112   4.063   4.750  1.5777 -0.8259 -0.8247
 4641SOL    HW225386   1.126   4.046   4.603 -0.2925  1.9158 -1.1525
 4642SOL     OW25387   0.826   2.998   0.612 -0.0483 -0.3813 -0.6728
 4642SOL    HW125388   0.858   2.952   0.690  1.6176  1.9686  0.0101
 4642SOL    HW225389   0.813   3.089   0.638  0.8160 -0.7437  1.0286
 4643SOL     OW25390   1.857   0.040  13.984 -0.9051 -0.4270 -0.4914
 4643SOL    HW125391   1.847   0.049  14.079 -0.3688  2.2942 -0.6853
 4643SOL    HW225392   1.939   4.709  13.980 -0.8320 -0.4797  1.7879
 4644SOL     OW25393   4.618   2.628  15.632  0.2032 -0.1434  0.5001
 4644SOL    HW125394   4.711   2.651  15.622 -0.4748  1.8838 -1.0196
 4644SOL    HW225395   4.587   2.644  15.543  2.1417  0.8417  0.0089
 4645SOL     OW25396   3.556   2.686   8.392 -0.4866 -0.2776 -1.3216
 4645SOL    HW125397   3.482   2.629   8.411  1.0732 -2.4550 -1.8483
 4645SOL    HW225398   3.513   2.769   8.369 -0.4490  0.2066  0.3996
 4646SOL     OW25399   4.413   1.338   8.981  0.2335  0.5027 -0.1227
 4646SOL    HW125400   4.482   1.298   8.928  0.7979  0.0731  0.9279
 4646SOL    HW225401   4.427   1.432   8.972  0.6820  0.4082 -0.4302
 4647SOL     OW25402   0.801   3.367   8.102  0.0274 -0.3377  0.5921
 4647SOL    HW125403   0.879   3.349   8.050 -0.8411  2.4603 -1.6844
 4647SOL    HW225404   0.834   3.369   8.191 -1.5056  2.3057  1.0985
 4648SOL     OW25405   1.345   2.247  10.777  0.3743  0.2970 -0.5733
 4648SOL    HW125406   1.251   2.233  10.769  0.0470  3.3112 -1.7431
 4648SOL    HW225407   1.377   2.157  10.772 -1.3401 -0.3223 -0.3768
 4649SOL     OW25408   0.791   1.091   8.359  0.7976 -0.2933  0.0037
 4649SOL    HW125409   0.864   1.060   8.413  3.0908  0.0921 -2.9084
 4649SOL    HW225410   0.783   1.178   8.398 -0.5253 -1.0011  1.3004
 4650SOL     OW25411   3.733   3.317   7.811  0.2838  0.2168  0.4169
 4650SOL    HW125412   3.640   3.293   7.813  0.5040 -0.6007  0.8078
 4650SOL    HW225413   3.759   3.259   7.883  2.7772  0.8668  0.0376
 4651SOL     OW25414   1.207   0.513  17.125 -0.2771  0.6332  0.3985
 4651SOL    HW125415   1.122   0.478  17.097  0.0971  0.8328 -1.0202
 4651SOL    HW225416   1.261   0.436  17.107 -1.0457  0.3499 -0.7287
 4652SOL     OW25417   2.919   0.754  10.042 -0.4457 -0.5886  0.1355
 4652SOL    HW125418   2.834   0.751   9.997  0.4917  1.6535 -1.7883
 4652SOL    HW225419   2.962   0.680   9.999 -1.3643  0.5427 -2.7938
 4653SOL     OW25420   3.970   2.817   6.985 -0.6492 -0.0369 -0.4490
 4653SOL    HW125421   3.963   2.907   6.952  3.9676  1.6310  2.9690
 4653SOL    HW225422   4.022   2.831   7.065 -0.0339  0.0594 -0.8646
 4654SOL     OW25423   2.131   4.562   5.143 -0.3105  0.6937  0.1453
 4654SOL    HW125424   2.121   4.647   5.187  1.7738 -0.0875  2.1127
 4654SOL    HW225425   2.116   4.502   5.216 -0.6628  0.6648  0.0489
 4655SOL     OW25426   0.184   2.751   3.485  0.4619  0.4058  0.1108
 4655SOL    HW125427   0.208   2.687   3.552  0.0271 -0.6831 -0.7685
 4655SOL    HW225428   0.096   2.774   3.514 -0.3711 -1.5574 -0.8314
 4656SOL     OW25429   0.652   2.771   4.510 -0.1208  0.1571 -0.2295
 4656SOL    HW125430   0.687   2.786   4.597  0.4442 -0.2028 -0.3954
 4656SOL    HW225431   0.663   2.859   4.472  2.2908 -0.1816 -0.2905
 4657SOL     OW25432   0.726   0.196   7.391  0.0821  0.3653 -0.1938
 4657SOL    HW125433   0.742   0.115   7.441  0.4928  0.1068 -0.7491
 4657SOL    HW225434   0.808   0.196   7.341  0.4785  2.0750  0.4559
 4658SOL     OW25435   3.312   0.578   7.994  0.5405 -0.2668  0.0771
 4658SOL    HW125436   3.341   0.580   7.903  1.0474  1.4668  0.2745
 4658SOL    HW225437   3.229   0.624   7.982 -0.3285 -1.7891  0.2530
 4659SOL     OW25438   3.100   2.750   7.493 -0.4001 -0.3767 -0.1855
 4659SOL    HW125439   3.058   2.830   7.460 -3.2192 -1.2753  1.1967
 4659SOL    HW225440   3.194   2.755   7.476 -0.4239  1.3675  0.2471
 4660SOL     OW25441   0.778   3.544   3.056 -0.3327 -0.1166 -0.5869
 4660SOL    HW125442   0.743   3.632   3.072  1.7513  0.5161  0.4595
 4660SOL    HW225443   0.704   3.502   3.013 -1.7489  2.6343 -0.8426
 4661SOL     OW25444   0.135   0.599   9.311  0.3618  0.0216 -0.2988
 4661SOL    HW125445   0.218   0.630   9.346  0.1060 -0.3743  0.6861
 4661SOL    HW225446   0.161   0.514   9.275 -1.3670 -0.4091 -0.5551
 4662SOL     OW25447   3.404   3.761   3.073  0.4757 -1.0118 -0.9728
 4662SOL    HW125448   3.396   3.840   3.126 -1.0419 -2.5710  1.1254
 4662SOL    HW225449   3.486   3.726   3.109  0.4365 -0.6317 -0.5188
 4663SOL     OW25450   2.356   2.139   2.633  0.0002  0.2614  0.5956
 4663SOL    HW125451   2.380   2.048   2.619  0.1137  0.1133  1.7048
 4663SOL    HW225452   2.261   2.139   2.631 -0.0108 -0.2349  1.2151
 4664SOL     OW25453   2.562   0.633   8.663 -0.8605 -0.2186  0.4735
 4664SOL    HW125454   2.579   0.612   8.755 -2.9258 -1.4913  0.5484
 4664SOL    HW225455   2.484   0.580   8.647 -0.0654 -0.5855 -2.1088
 4665SOL     OW25456   0.864   1.364   4.744  0.2034  0.3463 -0.0091
 4665SOL    HW125457   0.862   1.364   4.648 -1.2294 -0.1079  0.0245
 4665SOL    HW225458   0.848   1.457   4.757  1.5679  0.7960 -1.5633
 4666SOL     OW25459   0.993   2.799   6.287 -0.1945  0.0297 -0.1598
 4666SOL    HW125460   0.928   2.776   6.220 -0.9986 -1.4285  1.1330
 4666SOL    HW225461   1.023   2.714   6.318  2.2008  0.8492 -0.2126
 4667SOL     OW25462   0.723   4.180   3.659 -0.5074  0.3671 -0.2280
 4667SOL    HW125463   0.649   4.160   3.716 -0.0860 -3.2525 -0.9228
 4667SOL    HW225464   0.682   4.172   3.573 -1.1101  0.0888  0.0824
 4668SOL     OW25465   3.296   4.477  13.527 -0.4663 -0.0886  0.0790
 4668SOL    HW125466   3.272   4.389  13.556  1.6315 -0.8956 -0.6405
 4668SOL    HW225467   3.275   4.473  13.433  1.3453  1.2730 -0.3960
 4669SOL     OW25468   0.160   0.465  14.600 -0.3279 -0.1676 -0.5172
 4669SOL    HW125469   0.140   0.476  14.507  2.0423  0.0650 -0.9873
 4669SOL    HW225470   0.244   0.419  14.595 -0.3703 -0.3049  0.0510
 4670SOL     OW25471   0.372   1.197   0.517 -0.1487  0.3100 -0.5338
 4670SOL    HW125472   0.281   1.194   0.486 -0.5576  2.4926  0.4557
 4670SOL    HW225473   0.406   1.108   0.505 -1.6716 -0.4793  1.0513
 4671SOL     OW25474   1.756   1.154   9.000 -0.1319  0.1765  0.8037
 4671SOL    HW125475   1.682   1.094   8.991 -1.5744  2.1562 -0.5659
 4671SOL    HW225476   1.815   1.107   8.941 -1.0881  0.8528 -0.6966
 4672SOL     OW25477   0.937   4.576   9.015  0.4236  0.4616 -0.1832
 4672SOL    HW125478   0.901   4.597   9.101 -0.2898 -1.3358 -0.0469
 4672SOL    HW225479   0.984   4.493   9.028  0.0663  0.2400 -0.3151
 4673SOL     OW25480   4.343   0.888   7.450 -0.0362 -0.2830 -0.6085
 4673SOL    HW125481   4.412   0.835   7.489 -2.5401 -1.8941  1.6514
 4673SOL    HW225482   4.338   0.854   7.361 -2.6422  1.2389 -1.0394
 4674SOL     OW25483   2.982   1.946   3.910 -0.3493  0.2249 -0.1877
 4674SOL    HW125484   2.903   1.892   3.903 -1.1675  1.5269 -1.0647
 4674SOL    HW225485   3.041   1.880   3.946 -1.2378 -1.7218 -2.3096
 4675SOL     OW25486   4.269   0.315   5.746 -0.0702  0.3932  0.2309
 4675SOL    HW125487   4.255   0.290   5.837 -1.1825  0.1518 -0.0054
 4675SOL    HW225488   4.250   0.409   5.748 -0.8021  0.2417  0.3414
 4676SOL     OW25489   0.689   2.302   3.867  0.1336 -0.4860 -0.1048
 4676SOL    HW125490   0.769   2.266   3.828  0.6507 -1.0905  1.5100
 4676SOL    HW225491   0.660   2.222   3.912  2.1385 -0.9532  0.3855
 4677SOL     OW25492   0.188   4.155  17.317  0.7314  0.6330 -0.6465
 4677SOL    HW125493   0.277   4.148  17.350  1.2228  0.8074 -1.9297
 4677SOL    HW225494   0.155   4.218  17.382  0.9080 -0.3914  0.4271
 4678SOL     OW25495   4.023   3.875   7.884 -0.0729  0.3510 -0.3300
 4678SOL    HW125496   4.103   3.915   7.918  1.5526 -1.7608 -1.5923
 4678SOL    HW225497   4.060   3.796   7.844 -0.9605 -0.4484  0.4334
 4679SOL     OW25498   1.287   1.496  15.443 -0.9153  0.6897 -0.6412
 4679SOL    HW125499   1.352   1.551  15.398 -1.5631  0.4415 -1.8828
 4679SOL    HW225500   1.262   1.550  15.518 -1.7325 -0.5771 -0.0086
 4680SOL     OW25501   0.595   0.920  11.330  0.2714 -0.2045  0.3520
 4680SOL    HW125502   0.614   0.956  11.417 -0.9201 -0.9156  0.9239
 4680SOL    HW225503   0.686   0.908  11.303  0.7468  0.9201  1.4622
 4681SOL     OW25504   3.917   0.543   3.582  0.0610 -0.5210 -0.6692
 4681SOL    HW125505   3.957   0.512   3.501  0.8540 -0.9247 -0.1255
 4681SOL    HW225506   3.921   0.460   3.630  0.1392 -0.3963 -0.4612
 4682SOL     OW25507   2.075   1.089   5.394  0.1434  0.3257  0.1058
 4682SOL    HW125508   2.120   1.165   5.359  2.0337 -2.1237 -2.7929
 4682SOL    HW225509   2.105   1.084   5.485  0.9706 -1.8581 -0.2798
 4683SOL     OW25510   4.367   1.258   4.590  0.5503  0.8953  0.6827
 4683SOL    HW125511   4.279   1.283   4.562  1.3152  1.0919 -1.5141
 4683SOL    HW225512   4.413   1.338   4.567 -0.4175  0.7046 -1.8353
 4684SOL     OW25513   3.222   1.859   8.107  0.0998 -0.0455 -0.0155
 4684SOL    HW125514   3.289   1.914   8.149  0.3753  0.2077 -0.7801
 4684SOL    HW225515   3.146   1.917   8.116  0.5680  0.5650  0.0615
 4685SOL     OW25516   4.440   3.246   4.472 -0.5806 -0.6418  0.1453
 4685SOL    HW125517   4.437   3.179   4.404 -1.5568  0.1072 -0.5596
 4685SOL    HW225518   4.435   3.189   4.549  1.3543 -0.8609  0.1004
 4686SOL     OW25519   1.318   4.177   6.326  0.2531  0.4151  0.0257
 4686SOL    HW125520   1.251   4.118   6.292  1.3472 -0.6924 -0.2324
 4686SOL    HW225521   1.398   4.129   6.304  0.4645  0.1868  1.3276
 4687SOL     OW25522   2.488   0.733   7.680 -0.3760  0.0047 -0.2316
 4687SOL    HW125523   2.522   0.796   7.744  0.8776 -1.6843  0.7821
 4687SOL    HW225524   2.414   0.707   7.734  0.0370  0.8004  0.7100
 4688SOL     OW25525   1.702   2.089   4.943  0.1335  0.4445  0.2795
 4688SOL    HW125526   1.642   2.065   4.872 -0.4006 -0.3786  1.0104
 4688SOL    HW225527   1.653   2.156   4.990  1.2651  1.8865 -0.5981
 4689SOL     OW25528   2.940   0.722   7.281 -0.1932  0.6715  0.1782
 4689SOL    HW125529   2.886   0.694   7.207 -1.5843 -2.9474  2.5464
 4689SOL    HW225530   3.030   0.738   7.253  0.0015 -0.0605  0.3868
 4690SOL     OW25531   0.268   3.961   2.594 -0.0469 -0.3959 -0.5496
 4690SOL    HW125532   0.326   3.905   2.542 -1.3396 -1.7189 -0.5601
 4690SOL    HW225533   0.243   3.913   2.673 -0.9126 -1.3742 -1.4265
 4691SOL     OW25534   3.489   2.163   6.939  0.3366  0.8447  0.2663
 4691SOL    HW125535   3.544   2.090   6.909 -0.6551 -0.5130  1.8001
 4691SOL    HW225536   3.410   2.141   6.890  0.4159 -1.2608  1.0689
 4692SOL     OW25537   4.234   3.994   5.946 -0.2148  0.1296  0.0820
 4692SOL    HW125538   4.209   4.086   5.945  0.6740  0.3618 -0.1147
 4692SOL    HW225539   4.154   3.946   5.921 -0.5022 -0.4609  2.1744
 4693SOL     OW25540   3.981   1.072  10.470  0.0400  0.0484 -1.0134
 4693SOL    HW125541   3.939   0.987  10.455  0.3917  0.1732 -2.7605
 4693SOL    HW225542   3.912   1.122  10.426  1.0006  1.0991 -1.3093
 4694SOL     OW25543   0.629   2.325   5.810 -0.0000  0.1117  0.2164
 4694SOL    HW125544   0.581   2.260   5.759  0.5264 -0.5037  0.5025
 4694SOL    HW225545   0.555   2.384   5.822  1.8621  2.1793  1.4886
 4695SOL     OW25546   3.558   1.238   1.851 -0.7828 -0.3033  0.5142
 4695SOL    HW125547   3.601   1.226   1.936 -0.6139 -2.2622  0.1603
 4695SOL    HW225548   3.580   1.155   1.809  1.0444  0.6275 -0.4070
 4696SOL     OW25549   0.919   3.158   3.832 -0.2813  0.4975  0.5277
 4696SOL    HW125550   0.935   3.120   3.746  0.5497  0.5632  0.6578
 4696SOL    HW225551   0.824   3.165   3.820  0.3465  2.3937 -3.3181
 4697SOL     OW25552   1.753   2.446   3.319 -0.2907  0.1032  0.1638
 4697SOL    HW125553   1.743   2.351   3.314  1.5568 -0.2105  2.6057
 4697SOL    HW225554   1.664   2.470   3.346 -0.9005 -1.5421 -0.3233
 4698SOL     OW25555   4.434   3.215  17.558  0.0703 -0.4359 -0.3208
 4698SOL    HW125556   4.498   3.143  17.559 -0.8142 -1.2504 -2.0134
 4698SOL    HW225557   4.372   3.168  17.502 -2.1216  2.2111 -0.0882
 4699SOL     OW25558   2.722   2.559  15.905  0.4332 -1.1480  0.0182
 4699SOL    HW125559   2.755   2.517  15.826 -0.5279  1.9794 -2.0474
 4699SOL    HW225560   2.649   2.596  15.855  0.5822 -0.8496  0.0266
 4700SOL     OW25561   4.634   2.470   4.417 -0.1698 -0.1632  0.3834
 4700SOL    HW125562   4.548   2.513   4.412  0.6155  1.2938 -0.7386
 4700SOL    HW225563   4.682   2.531   4.360  0.6492 -0.3068  0.9152
 4701SOL     OW25564   2.533   0.038   4.504  0.0042 -0.0929  0.6203
 4701SOL    HW125565   2.623   0.010   4.485 -0.7576  0.9314 -4.2799
 4701SOL    HW225566   2.495   0.048   4.417 -0.7660 -2.0071  0.7448
 4702SOL     OW25567   2.732   3.482   8.726 -0.0578 -0.1189  0.2877
 4702SOL    HW125568   2.779   3.401   8.707 -1.3807 -0.7795 -0.1702
 4702SOL    HW225569   2.796   3.552   8.713  0.4672 -0.9014 -1.2308
 4703SOL     OW25570   1.813   3.685  16.373  0.2144  0.0460 -0.0063
 4703SOL    HW125571   1.873   3.690  16.447 -0.3039 -1.1685  0.4965
 4703SOL    HW225572   1.870   3.707  16.299  0.1552  1.4864  0.3668
 4704SOL     OW25573   0.386   1.512  15.952  0.0495  0.4039  0.0307
 4704SOL    HW125574   0.397   1.509  16.047 -0.5926 -1.1655  0.0626
 4704SOL    HW225575   0.474   1.538  15.927  0.2614 -1.2325 -0.9512
 4705SOL     OW25576   4.180   1.295   6.157 -1.2727  0.3633 -0.3948
 4705SOL    HW125577   4.202   1.252   6.074 -1.1138 -1.7988  0.7777
 4705SOL    HW225578   4.121   1.230   6.196 -0.5795  0.6452  1.0985
 4706SOL     OW25579   1.345   3.582  17.143  0.0322  1.1766  0.3238
 4706SOL    HW125580   1.427   3.622  17.172  0.0461  0.7996  0.7849
 4706SOL    HW225581   1.297   3.612  17.221 -1.6167 -1.0132  0.1463
 4707SOL     OW25582   2.950   1.995  14.695 -0.2923 -0.2829  0.4625
 4707SOL    HW125583   2.968   2.083  14.726 -2.9032  1.0429 -1.8040
 4707SOL    HW225584   2.856   2.007  14.694 -0.2775 -0.1882  0.2012
 4708SOL     OW25585   2.611   1.258   7.681  0.0514 -0.4518  0.0743
 4708SOL    HW125586   2.701   1.266   7.710  0.2387  0.6129 -0.7901
 4708SOL    HW225587   2.563   1.296   7.755  1.2171  1.4552 -0.1418
 4709SOL     OW25588   2.272   0.471  12.986 -0.2518 -0.0489 -0.5025
 4709SOL    HW125589   2.237   0.504  12.904  0.8095  2.1686 -0.0654
 4709SOL    HW225590   2.349   0.528  12.989 -0.1486 -0.0391 -3.0420
 4710SOL     OW25591   2.532   1.661   3.184  0.1644 -0.0697  0.6099
 4710SOL    HW125592   2.452   1.611   3.200 -0.1918  0.8658  1.7393
 4710SOL    HW225593   2.508   1.751   3.207 -1.4400 -0.3544  0.0891
 4711SOL     OW25594   3.320   2.265  17.385 -0.4223  0.2036 -0.3630
 4711SOL    HW125595   3.258   2.299  17.450 -1.8425 -0.2601 -1.4822
 4711SOL    HW225596   3.353   2.347  17.349  0.4458  0.2245  0.4607
 4712SOL     OW25597   2.486   3.373  14.713  0.2562  0.9150  0.2627
 4712SOL    HW125598   2.423   3.341  14.649  1.8791 -0.7339 -0.5190
 4712SOL    HW225599   2.471   3.305  14.778 -0.1201  1.6367  0.9378
 4713SOL     OW25600   3.799   0.680  16.683 -0.8672  0.2800  0.3726
 4713SOL    HW125601   3.860   0.728  16.739 -2.2217  1.4523  0.8169
 4713SOL    HW225602   3.767   0.744  16.620  1.1452 -1.9985 -2.9616
 4714SOL     OW25603   2.184   0.456  16.797 -0.6471 -0.2006  0.3139
 4714SOL    HW125604   2.160   0.548  16.789  0.7081  0.3381  2.4495
 4714SOL    HW225605   2.120   0.417  16.738 -0.5980 -0.7018  0.5885
 4715SOL     OW25606   2.405   3.733  17.559  0.3764  0.0530  0.4638
 4715SOL    HW125607   2.339   3.724  17.628 -1.0764 -2.3550 -1.2119
 4715SOL    HW225608   2.445   3.816  17.582 -1.5478  1.3468 -0.8613
 4716SOL     OW25609   0.309   4.623   5.709 -0.0229 -0.1843 -0.3280
 4716SOL    HW125610   0.396   4.630   5.749 -0.5292  0.1969  0.7164
 4716SOL    HW225611   0.260   4.632   5.791 -0.6680  0.3262 -0.7660
 4717SOL     OW25612   3.201   1.994  13.461  0.0744 -0.6382 -0.0149
 4717SOL    HW125613   3.152   1.911  13.463  0.0593 -0.6048  0.9304
 4717SOL    HW225614   3.272   1.965  13.403  1.9405 -0.8893  2.3855
 4718SOL     OW25615   2.863   1.796   7.013 -0.2872  0.5066  0.8142
 4718SOL    HW125616   2.785   1.776   7.065  0.4006 -1.3344  1.1393
 4718SOL    HW225617   2.811   1.842   6.948 -0.8696 -2.8406 -1.1104
 4719SOL     OW25618   1.329   3.046  12.998  0.1091 -0.0296 -0.0134
 4719SOL    HW125619   1.302   2.993  12.923 -0.1593  1.6355 -1.1126
 4719SOL    HW225620   1.299   3.126  12.956  2.0192 -0.0792 -1.4887
 4720SOL     OW25621   0.066   0.967   1.714 -0.2007  0.4374  0.2437
 4720SOL    HW125622   0.138   0.957   1.777 -0.1345 -0.9746 -0.0590
 4720SOL    HW225623   0.040   1.059   1.725 -0.5111  0.1873  1.5380
 4721SOL     OW25624   4.379   1.173   5.496  0.5494  0.3859 -0.1071
 4721SOL    HW125625   4.430   1.247   5.464 -0.2759  0.9420 -0.1265
 4721SOL    HW225626   4.406   1.105   5.434  2.0912  0.0404  0.9318
 4722SOL     OW25627   2.784   3.919   8.954  0.6793 -0.7341  0.5883
 4722SOL    HW125628   2.712   3.917   9.018  2.0294 -1.4135  2.0735
 4722SOL    HW225629   2.737   3.936   8.872  1.1828  1.3684  0.7440
 4723SOL     OW25630   2.229   4.149   0.519  0.0283 -0.3928 -0.0565
 4723SOL    HW125631   2.219   4.244   0.525 -1.0365 -0.4435 -0.9892
 4723SOL    HW225632   2.298   4.139   0.454  0.0443  0.3178 -0.1516
 4724SOL     OW25633   0.533   1.459   6.548 -0.1989  0.2194  0.4576
 4724SOL    HW125634   0.580   1.429   6.626 -0.2643 -0.5011  0.2174
 4724SOL    HW225635   0.459   1.399   6.561  1.4983 -1.7509  0.9351
 4725SOL     OW25636   1.667   0.719   1.627 -0.6334 -0.4960  0.0506
 4725SOL    HW125637   1.714   0.802   1.627  0.5436 -1.1618 -1.0493
 4725SOL    HW225638   1.654   0.707   1.533  1.7914 -0.1531 -0.3200
 4726SOL     OW25639   0.948   2.548   7.926 -0.4588 -0.1298 -0.3016
 4726SOL    HW125640   0.993   2.537   8.010 -3.1107  0.8745  1.2709
 4726SOL    HW225641   0.928   2.642   7.929  2.7591  0.4553  3.3204
 4727SOL     OW25642   0.440   4.578   6.215  0.0310  0.2462 -0.0422
 4727SOL    HW125643   0.500   4.590   6.141 -0.5744 -2.4003 -0.9564
 4727SOL    HW225644   0.460   4.492   6.250  2.0785  0.0993 -1.5497
 4728SOL     OW25645   2.073   2.782   2.045  0.5955  0.2419  0.6484
 4728SOL    HW125646   2.053   2.863   2.093 -0.3962  1.4724 -1.8431
 4728SOL    HW225647   2.080   2.805   1.953  0.0525  0.0499  0.5590
 4729SOL     OW25648   3.017   0.004   6.283  0.1558  0.0532 -0.1211
 4729SOL    HW125649   2.970   4.641   6.266 -2.6082  1.1218  2.4575
 4729SOL    HW225650   3.087   4.695   6.342 -1.4402 -1.9164  0.8095
 4730SOL     OW25651   3.116   3.054  16.773  0.6094  0.0640 -0.0891
 4730SOL    HW125652   3.156   3.080  16.690 -0.9731  2.1725 -0.1892
 4730SOL    HW225653   3.034   3.102  16.764 -1.0821 -2.7087  0.4294
 4731SOL     OW25654   3.738   3.233   8.072  0.2954  0.4971 -0.1731
 4731SOL    HW125655   3.694   3.317   8.055 -0.5278  0.3798  1.3014
 4731SOL    HW225656   3.690   3.194   8.145 -0.3717  0.9533 -0.3601
 4732SOL     OW25657   3.373   4.429   3.823  0.2225  0.4118  0.2807
 4732SOL    HW125658   3.409   4.485   3.892  1.1785 -0.2015  0.2870
 4732SOL    HW225659   3.431   4.464   3.755  1.4167 -3.0075 -0.4479
 4733SOL     OW25660   4.602   3.037  15.102 -0.0806  0.5447 -0.0528
 4733SOL    HW125661   4.678   3.095  15.096  2.0642 -2.4532 -1.7095
 4733SOL    HW225662   4.533   3.101  15.083 -1.5692 -1.2907 -0.8966
 4734SOL     OW25663   1.403   3.604  16.806 -0.1818 -0.0950  0.4175
 4734SOL    HW125664   1.381   3.525  16.855 -0.6515  0.6351  1.3794
 4734SOL    HW225665   1.319   3.648  16.798 -1.1951 -2.2823 -1.0097
 4735SOL     OW25666   2.360   4.560  15.236  0.0681  0.8250 -0.2065
 4735SOL    HW125667   2.304   4.630  15.202 -1.0489  0.1494  0.2332
 4735SOL    HW225668   2.356   4.590  15.327 -0.1684  1.2666 -0.3635
 4736SOL     OW25669   2.346   0.107   8.446 -0.3073 -0.1008 -0.1012
 4736SOL    HW125670   2.418   0.054   8.412  1.6125  3.3601 -1.4063
 4736SOL    HW225671   2.394   0.187   8.465  0.5885 -0.1851 -2.0435
 4737SOL     OW25672   4.123   3.749   2.895 -0.6046  0.1080  0.5235
 4737SOL    HW125673   4.146   3.838   2.868  2.8915 -0.3123  2.0133
 4737SOL    HW225674   4.050   3.727   2.837 -0.2337  0.9026 -0.2413
 4738SOL     OW25675   4.078   4.022   4.704 -0.0867 -0.1431  0.0135
 4738SOL    HW125676   4.134   3.950   4.674  0.8376 -0.0494  1.4864
 4738SOL    HW225677   4.140   4.083   4.745  0.4244 -0.6469  0.0054
 4739SOL     OW25678   4.427   0.116   8.332  0.0246  0.1236  0.4077
 4739SOL    HW125679   4.350   0.060   8.315 -0.3807  0.8213 -0.0630
 4739SOL    HW225680   4.448   0.153   8.246 -0.5498 -0.3749  0.0531
 4740SOL     OW25681   4.145   4.613   3.880 -0.4176 -0.0258  0.4514
 4740SOL    HW125682   4.077   4.655   3.933 -2.6149 -0.0167 -2.3957
 4740SOL    HW225683   4.193   4.559   3.943  2.3802  1.4748 -0.3739
 4741SOL     OW25684   3.885   0.137   9.045 -0.1873 -0.1356  0.3291
 4741SOL    HW125685   3.838   0.168   8.968  0.3160  2.5484  1.1306
 4741SOL    HW225686   3.814   0.137   9.109 -1.2036 -2.0790 -0.7616
 4742SOL     OW25687   1.915   2.592  10.354 -0.5762 -0.3183 -0.8852
 4742SOL    HW125688   1.905   2.670  10.410 -0.3782 -0.0153 -1.2717
 4742SOL    HW225689   1.909   2.625  10.264 -1.1142  0.7570 -0.4650
 4743SOL     OW25690   3.745   1.540   7.066 -0.6325 -0.3658  0.2800
 4743SOL    HW125691   3.717   1.522   7.155 -2.1248 -1.2648 -0.3727
 4743SOL    HW225692   3.833   1.566   7.095 -0.2437 -0.9179 -0.3955
 4744SOL     OW25693   3.441   2.305  11.422  0.1374  0.1445 -1.0967
 4744SOL    HW125694   3.529   2.304  11.383  0.2783  0.3753 -0.7768
 4744SOL    HW225695   3.386   2.300  11.343 -1.4175 -2.8991  0.2012
 4745SOL     OW25696   2.358   1.627   8.161 -0.5491  0.6217  0.1313
 4745SOL    HW125697   2.287   1.679   8.124 -0.7569  1.2875  1.4770
 4745SOL    HW225698   2.324   1.540   8.185 -0.4297  0.4107 -0.4628
 4746SOL     OW25699   0.022   3.171  10.367  0.0121  0.1021 -0.3316
 4746SOL    HW125700   4.684   3.143  10.440 -1.0836  1.9805 -0.4634
 4746SOL    HW225701   0.110   3.183  10.401  0.6105 -0.2769 -1.7329
 4747SOL     OW25702   2.795   3.779   4.808 -0.1944  0.5371  0.2256
 4747SOL    HW125703   2.709   3.822   4.806  0.1086  1.1506  0.1362
 4747SOL    HW225704   2.809   3.781   4.902 -1.9913  0.4089  0.4972
 4748SOL     OW25705   2.687   0.613   0.883 -0.4960 -0.0424 -0.1117
 4748SOL    HW125706   2.710   0.522   0.864  0.1073  0.0810  0.0267
 4748SOL    HW225707   2.697   0.603   0.977 -0.8104  0.4718 -0.0237
 4749SOL     OW25708   0.073   1.875   2.233 -0.2327 -0.0554 -0.7689
 4749SOL    HW125709   0.039   1.791   2.262  0.8990  0.2509  1.4056
 4749SOL    HW225710   0.084   1.909   2.322  1.7169 -1.1084 -0.6149
 4750SOL     OW25711   0.680   3.727  11.883 -0.0986 -0.4673  0.5772
 4750SOL    HW125712   0.705   3.640  11.914  4.8713  0.5982 -0.5602
 4750SOL    HW225713   0.649   3.702  11.796 -0.9717 -1.5159  1.1809
 4751SOL     OW25714   4.672   1.629   5.980  0.2132  0.2906 -0.7806
 4751SOL    HW125715   4.673   1.612   5.886 -0.0461 -0.5481 -0.6319
 4751SOL    HW225716   4.714   1.712   6.004 -0.9857 -0.0336  2.3910
 4752SOL     OW25717   0.451   1.434   8.009 -0.3587  0.1509 -0.0933
 4752SOL    HW125718   0.525   1.476   7.967 -0.1186 -1.8901 -1.7027
 4752SOL    HW225719   0.492   1.400   8.088 -1.2622  3.1830  1.6932
 4753SOL     OW25720   4.499   1.399   8.349 -0.2224  0.6151  0.3605
 4753SOL    HW125721   4.500   1.353   8.433  1.1303 -1.2838 -0.6868
 4753SOL    HW225722   4.405   1.416   8.356 -0.1870  0.3303  1.5476
 4754SOL     OW25723   4.532   1.174  17.471  0.4588 -0.1413 -0.4079
 4754SOL    HW125724   4.615   1.215  17.494  0.1587  0.5119 -0.5140
 4754SOL    HW225725   4.501   1.249  17.421  1.6897  1.3271  1.0444
 4755SOL     OW25726   2.741   2.636   3.313 -0.2898 -0.0640  0.0929
 4755SOL    HW125727   2.770   2.693   3.243 -1.0323  1.2554  0.8485
 4755SOL    HW225728   2.810   2.659   3.375 -0.5682  1.7750 -0.2819
 4756SOL     OW25729   0.261   2.677  15.425 -0.4619  0.4845  0.4146
 4756SOL    HW125730   0.179   2.658  15.381  1.4466 -0.6135 -2.6891
 4756SOL    HW225731   0.227   2.753  15.472 -0.2130  0.5721  0.4552
 4757SOL     OW25732   2.191   4.688  14.252 -0.6808  0.5218  0.2613
 4757SOL    HW125733   2.197   0.024  14.331  1.5755  0.1286  0.3684
 4757SOL    HW225734   2.261   4.623  14.260 -1.5450 -0.3946  0.5212
 4758SOL     OW25735   0.064   3.635   6.182 -0.3918  0.7006  0.1296
 4758SOL    HW125736   0.132   3.653   6.246  0.6270  0.6203 -0.9335
 4758SOL    HW225737   4.702   3.628   6.233 -1.5395 -1.8619 -2.0048
 4759SOL     OW25738   2.513   4.208   9.259  0.4138 -0.2441  0.0419
 4759SOL    HW125739   2.447   4.140   9.272 -0.5609  0.7498  0.2787
 4759SOL    HW225740   2.582   4.145   9.282 -2.2557 -3.4811 -0.6806
 4760SOL     OW25741   3.105   0.959  16.577  0.1190  0.6122 -0.8698
 4760SOL    HW125742   3.053   1.018  16.522  0.2784 -0.0692 -1.7513
 4760SOL    HW225743   3.075   0.871  16.550  0.0621  0.0359  1.0973
 4761SOL     OW25744   2.621   1.520   7.552  0.9816  0.0267  0.2315
 4761SOL    HW125745   2.617   1.432   7.589 -1.5237  0.1208  0.1683
 4761SOL    HW225746   2.692   1.495   7.492  1.3797  0.6988  0.4173
 4762SOL     OW25747   1.605   1.795   8.514  0.4106 -0.1324 -0.2550
 4762SOL    HW125748   1.585   1.794   8.608 -0.5223 -0.2610 -0.4548
 4762SOL    HW225749   1.594   1.707   8.481  1.7678 -0.5990  0.5410
 4763SOL     OW25750   2.041   1.917   2.083 -0.1834  0.1488  0.3139
 4763SOL    HW125751   2.081   1.858   2.020 -1.0333  0.2493 -0.3111
 4763SOL    HW225752   2.048   1.877   2.170  2.2521  0.3402  0.2133
 4764SOL     OW25753   1.390   1.252  17.640 -0.3772  0.9351 -0.4104
 4764SOL    HW125754   1.476   1.211  17.626  0.9569  3.8792 -0.6614
 4764SOL    HW225755   1.357   1.261  17.550 -0.1190  0.9397 -0.5047
 4765SOL     OW25756   1.087   3.639  11.447  0.3567 -0.1411 -0.1815
 4765SOL    HW125757   1.011   3.604  11.494 -0.6208  4.6498  1.8227
 4765SOL    HW225758   1.056   3.730  11.442 -0.3127 -0.2775  1.5272
 4766SOL     OW25759   1.969   2.956   6.860 -0.0641 -0.4937  0.2681
 4766SOL    HW125760   1.908   3.020   6.896 -1.4907 -0.9900 -1.3042
 4766SOL    HW225761   1.926   2.870   6.862 -0.1244 -0.4776 -0.4008
 4767SOL     OW25762   1.508   1.676  17.419  0.1060  0.4620  0.2317
 4767SOL    HW125763   1.431   1.671  17.363  1.1162  0.3710 -1.1593
 4767SOL    HW225764   1.491   1.750  17.477 -0.6644  0.6773 -0.2789
 4768SOL     OW25765   2.747   2.546   6.077  0.1672 -0.1912  0.3900
 4768SOL    HW125766   2.723   2.627   6.122 -0.7998  0.0914 -0.6282
 4768SOL    HW225767   2.812   2.569   6.011  0.5147 -0.6859  0.5565
 4769SOL     OW25768   4.330   4.101  15.854  0.3036  0.7935  0.2263
 4769SOL    HW125769   4.304   4.141  15.937  1.2174  0.4253  0.6928
 4769SOL    HW225770   4.401   4.048  15.891 -0.3163  0.2910  0.6926
 4770SOL     OW25771   2.466   0.191   1.475 -0.4000 -0.4185  0.4864
 4770SOL    HW125772   2.477   0.098   1.458  4.0036 -0.6617  4.7487
 4770SOL    HW225773   2.549   0.213   1.518  1.1619 -2.2045 -1.6334
 4771SOL     OW25774   0.195   3.152  16.245 -0.0253  0.8235 -0.0164
 4771SOL    HW125775   0.207   3.104  16.163  0.5583  0.8708  0.0458
 4771SOL    HW225776   0.241   3.101  16.311 -0.2235  0.0335 -0.4976
 4772SOL     OW25777   0.317   1.156  10.286 -0.1634 -0.1453  0.0745
 4772SOL    HW125778   0.246   1.106  10.328 -0.0470 -1.3500 -1.1524
 4772SOL    HW225779   0.393   1.115  10.326  0.4229  1.0106  0.1520
 4773SOL     OW25780   2.458   4.319   4.537  0.2883 -0.1499 -0.2493
 4773SOL    HW125781   2.515   4.386   4.575  0.8378 -0.5608 -0.3523
 4773SOL    HW225782   2.376   4.367   4.528  0.7926  1.4535  3.9900
 4774SOL     OW25783   2.690   4.505   2.440 -0.0283  0.0294 -0.0118
 4774SOL    HW125784   2.634   4.448   2.492 -0.0005 -1.6926 -1.8886
 4774SOL    HW225785   2.633   4.580   2.460  0.1962  0.3716 -0.6303
 4775SOL     OW25786   0.647   0.259   8.814  0.5371 -0.6505 -0.4154
 4775SOL    HW125787   0.721   0.249   8.754  3.1684 -1.4403  2.9719
 4775SOL    HW225788   0.686   0.240   8.899  1.7554  0.1589 -0.7837
 4776SOL     OW25789   0.898   2.235   0.598 -0.6862 -0.0817 -0.1661
 4776SOL    HW125790   0.862   2.210   0.683 -2.1656  3.0300  0.1069
 4776SOL    HW225791   0.899   2.154   0.547 -0.4810 -0.3889  0.3223
 4777SOL     OW25792   1.136   2.010   0.340  0.2935  0.1869  0.3864
 4777SOL    HW125793   1.137   2.105   0.346 -1.5513  0.2286  0.1827
 4777SOL    HW225794   1.053   1.989   0.383  0.5875 -0.1023  0.8075
 4778SOL     OW25795   2.628   0.573  17.546  0.2372 -0.4866 -0.2045
 4778SOL    HW125796   2.698   0.620  17.501  0.8562 -0.9140  0.3052
 4778SOL    HW225797   2.660   0.580  17.636 -2.9454  0.2506  0.8810
 4779SOL     OW25798   0.444   4.349   8.139 -0.5522  0.3761 -0.0985
 4779SOL    HW125799   0.351   4.360   8.158 -1.1862 -0.1195 -3.0069
 4779SOL    HW225800   0.487   4.422   8.184  0.5765 -1.1149  1.2674
 4780SOL     OW25801   4.411   3.392   6.598 -0.0877 -0.6899  0.0521
 4780SOL    HW125802   4.390   3.480   6.565 -2.0061 -0.4496  1.8498
 4780SOL    HW225803   4.414   3.340   6.518 -0.2476 -0.0467 -0.3796
 4781SOL     OW25804   4.094   1.522   9.194  0.0918  0.5094 -0.0060
 4781SOL    HW125805   4.052   1.448   9.150 -1.4914  0.9363  0.7991
 4781SOL    HW225806   4.119   1.491   9.281 -1.4317  0.7631  0.5129
 4782SOL     OW25807   0.652   3.957   4.074  0.2351  0.1410 -0.6442
 4782SOL    HW125808   0.625   3.886   4.015  3.4124 -0.8139 -0.9599
 4782SOL    HW225809   0.622   4.032   4.022 -0.4481 -0.3510 -0.9706
 4783SOL     OW25810   0.111   2.980  14.558 -0.0364 -0.5839  0.1354
 4783SOL    HW125811   0.032   2.934  14.531  0.5664 -2.7198  1.9803
 4783SOL    HW225812   0.079   3.026  14.636  0.6523 -0.4064  0.3153
 4784SOL     OW25813   1.269   1.929   2.423 -0.3840 -0.5918  0.2535
 4784SOL    HW125814   1.261   1.879   2.342  2.3432 -0.3754 -0.1541
 4784SOL    HW225815   1.240   2.012   2.385  0.3214  0.9275  2.9958
 4785SOL     OW25816   3.214   2.265  17.098 -0.3969 -0.0862  0.2081
 4785SOL    HW125817   3.263   2.213  17.162 -0.6858  0.4669  0.8752
 4785SOL    HW225818   3.155   2.310  17.158  1.3215  2.7919 -0.2494
 4786SOL     OW25819   2.253   3.191   1.410  0.7809 -0.5631  0.1956
 4786SOL    HW125820   2.232   3.102   1.439 -1.1764 -0.3720 -0.6372
 4786SOL    HW225821   2.324   3.157   1.356  0.4655  0.1209 -0.6513
 4787SOL     OW25822   1.358   3.153   1.123  0.3503 -0.0468  0.0999
 4787SOL    HW125823   1.402   3.071   1.103  1.2532  1.2572 -3.1628
 4787SOL    HW225824   1.330   3.177   1.035 -0.3844  1.3655  0.7182
 4788SOL     OW25825   3.655   0.852   1.518 -0.3572 -0.6371 -0.0185
 4788SOL    HW125826   3.742   0.851   1.559 -0.6688 -1.6384  0.6224
 4788SOL    HW225827   3.680   0.868   1.427  1.5797  0.4932  0.7116
 4789SOL     OW25828   2.109   0.842   3.589  0.1152  0.1452  0.4869
 4789SOL    HW125829   2.039   0.894   3.550 -0.6048 -0.3496  1.1065
 4789SOL    HW225830   2.061   0.765   3.621  0.3208  0.1055  0.6997
 4790SOL     OW25831   2.682   1.584  17.506 -0.1681 -0.0899  0.0588
 4790SOL    HW125832   2.736   1.632  17.444 -1.3988  2.3904  0.9421
 4790SOL    HW225833   2.746   1.564  17.574  2.2506  1.0099 -1.9147
 4791SOL     OW25834   0.454   3.663   7.767 -0.7144 -0.1171 -0.1289
 4791SOL    HW125835   0.382   3.673   7.829  1.4305  1.9519  2.0191
 4791SOL    HW225836   0.530   3.627   7.812 -1.2693  1.8492  2.3476
 4792SOL     OW25837   0.189   0.613   8.756 -0.3922 -0.3492  0.4273
 4792SOL    HW125838   0.138   0.599   8.835  0.0362 -2.2008  0.3646
 4792SOL    HW225839   0.238   0.531   8.750 -2.4678 -1.3448 -3.4106
 4793SOL     OW25840   3.720   3.548   6.894 -0.7131 -0.1057 -0.0057
 4793SOL    HW125841   3.729   3.476   6.832  1.0197  1.1962 -1.2562
 4793SOL    HW225842   3.731   3.504   6.978  1.6990  0.9731  0.2524
 4794SOL     OW25843   2.274   0.780   8.964  0.1113  0.9308  0.2741
 4794SOL    HW125844   2.363   0.762   8.994 -0.5911  0.0398  1.8151
 4794SOL    HW225845   2.293   0.780   8.870 -2.0514 -0.9275 -0.1666
 4795SOL     OW25846   2.189   4.603   2.875 -0.3526  0.0182  0.0800
 4795SOL    HW125847   2.237   4.607   2.958 -1.5396 -0.0596  0.7664
 4795SOL    HW225848   2.097   4.615   2.896 -0.4133  3.1815 -2.0878
 4796SOL     OW25849   1.706   3.843   5.481  0.0801  0.2270  0.2343
 4796SOL    HW125850   1.652   3.915   5.448  0.6405  0.8837  0.7352
 4796SOL    HW225851   1.772   3.846   5.412 -1.4805  0.1039 -1.2508
 4797SOL     OW25852   3.520   3.240   3.890 -0.3767 -0.0395  0.0466
 4797SOL    HW125853   3.465   3.304   3.936 -0.8981  0.1373 -0.8179
 4797SOL    HW225854   3.537   3.280   3.804 -0.2440 -1.2304 -0.4777
 4798SOL     OW25855   3.749   3.083   4.102 -0.1003  0.7767  0.0085
 4798SOL    HW125856   3.661   3.121   4.106 -0.3747 -0.0162  1.3186
 4798SOL    HW225857   3.790   3.151   4.047  0.3201 -1.2387 -2.1774
 4799SOL     OW25858   0.255   1.083  14.722 -0.1353  0.2670 -0.4462
 4799SOL    HW125859   0.225   1.160  14.771 -0.4135 -0.5363  0.6439
 4799SOL    HW225860   0.324   1.123  14.670 -0.1891  1.8298  0.6714
 4800SOL     OW25861   0.725   1.126  12.417 -0.6309 -0.3999 -0.3292
 4800SOL    HW125862   0.710   1.085  12.502 -0.4432 -0.8308 -0.5003
 4800SOL    HW225863   0.717   1.049  12.361  0.0505 -1.0269  0.4437
 4801SOL     OW25864   0.948   4.298   2.717 -0.6196  0.2926  0.2266
 4801SOL    HW125865   0.904   4.233   2.661 -0.8352  0.9445 -0.3577
 4801SOL    HW225866   1.018   4.319   2.654  1.3005 -0.6445  2.0678
 4802SOL     OW25867   3.159   4.441   7.298  0.3033 -0.7954 -0.5867
 4802SOL    HW125868   3.105   4.387   7.241 -0.6989 -0.6839  0.2634
 4802SOL    HW225869   3.146   4.529   7.263  0.3249 -0.1830  0.9364
 4803SOL     OW25870   2.469   1.857  13.298 -0.0659 -0.1789 -0.1166
 4803SOL    HW125871   2.543   1.828  13.351 -0.5321  0.9130  1.1410
 4803SOL    HW225872   2.399   1.832  13.358 -0.3155  2.7423  0.8018
 4804SOL     OW25873   0.536   3.924   4.980 -0.9098 -0.2464  0.0607
 4804SOL    HW125874   0.493   3.841   4.999  1.2066 -1.1275  0.9270
 4804SOL    HW225875   0.618   3.921   5.029 -1.9116 -1.7383  1.6224
 4805SOL     OW25876   0.873   1.894   5.256 -0.3208 -0.4693  0.5110
 4805SOL    HW125877   0.864   1.832   5.329  0.2553  0.8498  1.7147
 4805SOL    HW225878   0.968   1.894   5.249 -0.5677  1.1940 -2.4496
 4806SOL     OW25879   1.856   2.192   7.887 -0.0484  0.2885 -0.4281
 4806SOL    HW125880   1.824   2.272   7.928 -1.6868 -2.0520  2.8765
 4806SOL    HW225881   1.774   2.143   7.894 -0.4665  1.0879  0.2822
 4807SOL     OW25882   3.934   1.140  11.226 -0.0481  0.1616 -0.1247
 4807SOL    HW125883   3.978   1.225  11.229 -0.4210  0.3631 -0.3008
 4807SOL    HW225884   4.007   1.084  11.253  0.3301  1.5838  1.7961
 4808SOL     OW25885   2.010   3.913   6.986 -0.0859  0.1602  0.0352
 4808SOL    HW125886   1.953   3.838   7.001  0.3770  0.0844  1.4794
 4808SOL    HW225887   2.083   3.890   7.044  0.2110 -0.8642 -0.7388
 4809SOL     OW25888   3.381   3.956   7.347  0.5583  0.0692  0.5836
 4809SOL    HW125889   3.467   3.945   7.307 -0.3920 -4.1649 -0.2766
 4809SOL    HW225890   3.383   4.052   7.354 -1.9535  0.3866 -2.7525
 4810SOL     OW25891   1.408   2.121  11.967 -0.8308 -0.0614  0.5391
 4810SOL    HW125892   1.461   2.074  12.031  0.0998  3.1551  2.1338
 4810SOL    HW225893   1.325   2.138  12.013 -0.8601 -0.4355  0.6188
 4811SOL     OW25894   2.587   4.354  12.156 -0.6805 -0.0882  0.3409
 4811SOL    HW125895   2.585   4.414  12.231  1.6722 -0.2471  0.5051
 4811SOL    HW225896   2.531   4.409  12.100  1.4946  0.6189 -1.1429
 4812SOL     OW25897   4.291   3.923   0.734 -0.2139  0.5467 -0.2694
 4812SOL    HW125898   4.358   3.968   0.682  0.2187  2.0279  1.5850
 4812SOL    HW225899   4.216   3.928   0.674 -0.8872  1.1874  0.6119
 4813SOL     OW25900   3.272   2.444   6.686 -0.1970 -0.6069  0.6616
 4813SOL    HW125901   3.185   2.431   6.725  0.1907 -0.4340  1.5967
 4813SOL    HW225902   3.269   2.380   6.615  1.0298  1.2719 -1.0673
 4814SOL     OW25903   3.373   2.997   7.978 -0.1455 -0.7672  0.2402
 4814SOL    HW125904   3.450   3.000   8.035 -0.9003 -1.8042  1.3075
 4814SOL    HW225905   3.412   2.995   7.890 -0.2769  3.1507  0.0773
 4815SOL     OW25906   0.165   2.343   2.825 -0.2344  0.0793 -0.2489
 4815SOL    HW125907   0.229   2.413   2.815 -0.6214  0.6561  1.3895
 4815SOL    HW225908   0.200   2.271   2.772  2.2368  1.8215 -0.9644
 4816SOL     OW25909   2.273   4.079   7.068  0.6802 -0.0893  0.1031
 4816SOL    HW125910   2.352   4.052   7.115 -0.9689  1.0011  3.5451
 4816SOL    HW225911   2.302   4.100   6.979  0.2487  0.6460  0.1337
 4817SOL     OW25912   1.134   3.777   1.262 -0.2975  0.2178  0.6703
 4817SOL    HW125913   1.142   3.763   1.357 -1.2351 -0.0273  0.7144
 4817SOL    HW225914   1.224   3.795   1.237 -1.8659  2.2650 -3.5037
 4818SOL     OW25915   2.527   0.346   8.472  0.4386  0.0106 -0.5380
 4818SOL    HW125916   2.621   0.336   8.462  0.3405 -0.3123 -1.1220
 4818SOL    HW225917   2.506   0.395   8.393 -1.9784 -0.1410  0.0075
 4819SOL     OW25918   4.469   4.593   7.919 -0.0363 -0.1601  0.3076
 4819SOL    HW125919   4.447   4.565   7.830 -1.2720  0.4224  0.4220
 4819SOL    HW225920   4.436   4.683   7.923  0.9827  0.2845 -1.2133
 4820SOL     OW25921   4.618   0.728   6.968  0.1321 -0.8085  0.3187
 4820SOL    HW125922   4.664   0.693   7.044 -0.6866 -2.7409 -0.0805
 4820SOL    HW225923   4.682   0.705   6.901  1.0028  3.0772 -0.2099
 4821SOL     OW25924   1.417   2.532   5.072 -0.0251 -0.0822 -0.1008
 4821SOL    HW125925   1.325   2.520   5.095 -0.7679  1.1726 -2.4181
 4821SOL    HW225926   1.424   2.583   4.992 -1.8014 -0.4903 -0.5299
 4822SOL     OW25927   2.821   0.130   9.433  0.2712 -0.2754  0.2280
 4822SOL    HW125928   2.791   0.152   9.521 -1.0173  1.2416 -0.5740
 4822SOL    HW225929   2.866   0.048   9.453 -1.5234 -1.3190 -0.0963
 4823SOL     OW25930   2.982   4.552   2.587  0.1929 -0.5635  0.3025
 4823SOL    HW125931   2.919   4.553   2.516 -0.3660  0.2418  0.8065
 4823SOL    HW225932   2.927   4.600   2.649 -1.1775 -2.0767  0.2413
 4824SOL     OW25933   4.653   4.058   7.238  0.5033 -0.2861  0.1544
 4824SOL    HW125934   4.607   4.134   7.204 -0.7248 -1.8078 -1.5589
 4824SOL    HW225935   4.687   4.039   7.151 -0.4840  0.6544 -0.4267
 4825SOL     OW25936   4.398   3.883   8.370  0.0910  0.2613 -0.7844
 4825SOL    HW125937   4.471   3.945   8.374  1.2446 -1.4005  3.5836
 4825SOL    HW225938   4.386   3.864   8.463  3.4301  1.7321 -0.0392
 4826SOL     OW25939   2.239   2.233   6.968 -0.1792  0.1004  0.9327
 4826SOL    HW125940   2.145   2.233   6.982 -0.2947 -2.6554  0.0290
 4826SOL    HW225941   2.273   2.183   7.042  2.1558 -0.1454 -0.2893
 4827SOL     OW25942   4.402   2.170   0.737  0.2715 -0.8855 -0.5629
 4827SOL    HW125943   4.377   2.078   0.730 -0.5169 -0.8268  1.2395
 4827SOL    HW225944   4.357   2.188   0.820 -1.1351 -0.6139 -1.3881
 4828SOL     OW25945   1.466   3.381   3.700  0.1221  0.2605  0.4982
 4828SOL    HW125946   1.396   3.430   3.657  1.1227  0.6081 -0.7511
 4828SOL    HW225947   1.437   3.290   3.708  3.8876 -1.1212 -1.7017
 4829SOL     OW25948   1.000   1.217   6.126 -0.7927 -0.4470 -0.0828
 4829SOL    HW125949   0.967   1.164   6.199 -2.3478  0.0988 -0.3922
 4829SOL    HW225950   0.969   1.304   6.153  1.2216  0.7315 -1.6243
 4830SOL     OW25951   2.614   3.396   7.567  0.1280 -0.0226 -0.6526
 4830SOL    HW125952   2.570   3.312   7.551  1.8431 -1.1683  0.6239
 4830SOL    HW225953   2.581   3.420   7.654  1.1829  0.6221 -0.4350
 4831SOL     OW25954   4.673   3.684   1.671 -0.2756  0.4167 -0.5061
 4831SOL    HW125955   4.676   3.684   1.575 -0.1976 -0.6319 -0.5000
 4831SOL    HW225956   4.582   3.657   1.679  0.3643 -1.0718  1.5225
 4832SOL     OW25957   0.100   1.494   9.949  0.2031  0.1386  0.3629
 4832SOL    HW125958   0.177   1.454   9.989  0.2900 -0.8700 -0.8048
 4832SOL    HW225959   0.056   1.510  10.032 -1.3829 -0.9980 -0.2720
 4833SOL     OW25960   2.190   1.365   8.195  0.3194  0.5494  0.4954
 4833SOL    HW125961   2.206   1.363   8.290 -0.5120  0.0910  0.6216
 4833SOL    HW225962   2.096   1.349   8.195  0.3932  0.1281 -0.9632
 4834SOL     OW25963   2.152   0.175   4.642 -0.2331  0.1996  0.2360
 4834SOL    HW125964   2.088   0.239   4.672 -1.3147 -0.8854  0.2621
 4834SOL    HW225965   2.120   0.166   4.552 -2.8257 -1.2251  1.3026
 4835SOL     OW25966   3.494   3.866  15.055 -0.7438 -1.0819  0.4319
 4835SOL    HW125967   3.425   3.825  15.003  0.6626 -2.1216 -0.6132
 4835SOL    HW225968   3.575   3.835  15.016  1.3050  3.0127  1.4107
 4836SOL     OW25969   1.811   4.399   0.188 -0.3270 -0.1237 -0.1017
 4836SOL    HW125970   1.858   4.378   0.268 -0.5912 -1.1252 -0.2111
 4836SOL    HW225971   1.744   4.332   0.173 -1.1726  0.2250  2.1344
 4837SOL     OW25972   3.459   2.031  17.360  0.5617 -0.7202 -0.3966
 4837SOL    HW125973   3.410   2.113  17.366  2.7561  0.5372  0.3170
 4837SOL    HW225974   3.400   1.975  17.309  2.1403 -0.0878 -2.8931
 4838SOL     OW25975   3.618   1.949   9.385  0.3094  0.4881  0.0863
 4838SOL    HW125976   3.594   1.999   9.307 -2.2412 -0.8539  0.0336
 4838SOL    HW225977   3.714   1.945   9.389  0.2403  0.2663  1.7208
 4839SOL     OW25978   2.234   1.246   9.101 -0.0927 -0.7789 -0.0205
 4839SOL    HW125979   2.227   1.155   9.129  4.4610 -1.4441 -1.0051
 4839SOL    HW225980   2.197   1.233   9.013 -0.6001 -0.4755  0.1428
 4840SOL     OW25981   3.038   2.244  14.782 -0.5579  0.2776 -0.7727
 4840SOL    HW125982   3.126   2.219  14.755 -1.7536 -0.6914 -3.7368
 4840SOL    HW225983   3.030   2.335  14.754 -0.6609 -0.1905 -2.2541
 4841SOL     OW25984   4.304   2.640   5.394 -0.3970  0.5019  0.7325
 4841SOL    HW125985   4.295   2.585   5.472 -1.0779  1.2641  1.1953
 4841SOL    HW225986   4.276   2.724   5.429  0.1541  0.5581  1.0380
 4842SOL     OW25987   4.044   2.545   5.324 -0.2757 -0.4746 -0.2952
 4842SOL    HW125988   4.038   2.451   5.344 -2.2193  0.4352  3.4672
 4842SOL    HW225989   4.137   2.566   5.326  0.3002 -2.9268 -0.9227
 4843SOL     OW25990   4.182   4.653   1.355 -0.5772 -0.3488  0.0460
 4843SOL    HW125991   4.252   4.643   1.291 -0.2390 -1.6938  0.6219
 4843SOL    HW225992   4.238   4.665   1.431 -1.3242  1.9966  0.2379
 4844SOL     OW25993   2.939   0.102   8.575  0.3061  0.5804  0.6854
 4844SOL    HW125994   2.920   0.154   8.653 -0.3816  0.3775  0.6502
 4844SOL    HW225995   2.895   0.021   8.601 -2.8713  1.8599 -0.7719
 4845SOL     OW25996   0.173   4.593   6.172 -0.5164 -0.6486 -0.2199
 4845SOL    HW125997   0.162   4.502   6.146  0.4564 -0.6394 -0.6725
 4845SOL    HW225998   0.269   4.603   6.169 -0.4684 -0.3475  1.7519
 4846SOL     OW25999   2.508   2.898   7.376  0.0332  0.5059 -0.2943
 4846SOL    HW126000   2.589   2.941   7.351  0.9965 -0.7512  0.6359
 4846SOL    HW226001   2.534   2.812   7.410  0.8844  0.5008 -0.9680
 4847SOL     OW26002   1.296   4.285   2.632 -0.4592 -0.3146  0.1582
 4847SOL    HW126003   1.228   4.310   2.569 -1.7670  2.9699  2.8497
 4847SOL    HW226004   1.301   4.190   2.625 -0.0215 -0.4180  1.7953
 4848SOL     OW26005   1.296   0.128   6.028  0.7997 -0.1984  0.2164
 4848SOL    HW126006   1.280   0.185   6.104 -0.3602  0.6304 -0.6331
 4848SOL    HW226007   1.376   0.168   5.995  0.3477  0.9802  0.5528
 4849SOL     OW26008   2.487   2.096   4.949  0.8348 -0.7104 -0.0522
 4849SOL    HW126009   2.401   2.076   4.912  0.4958  1.2524 -0.3075
 4849SOL    HW226010   2.469   2.154   5.023  1.2235  1.5861 -1.7811
 4850SOL     OW26011   0.216   3.670   2.522  0.4816 -0.3279 -0.1757
 4850SOL    HW126012   0.135   3.620   2.535 -1.2804  2.8173  0.9902
 4850SOL    HW226013   0.185   3.758   2.503 -0.9054 -0.1007  3.1461
 4851SOL     OW26014   1.111   2.564   6.348  0.3269 -0.2678 -0.0617
 4851SOL    HW126015   1.122   2.479   6.305 -0.0566 -1.0001  1.2659
 4851SOL    HW226016   1.201   2.594   6.342  0.3189 -0.1808  0.2601
 4852SOL     OW26017   0.727   1.916   3.039 -0.1540 -0.3949 -0.0055
 4852SOL    HW126018   0.704   1.938   2.948  1.0737  1.7707  0.2155
 4852SOL    HW226019   0.711   2.003   3.075 -1.0833 -1.9128  3.1717
 4853SOL     OW26020   2.188   4.551   1.764 -0.1788 -0.8024 -0.2754
 4853SOL    HW126021   2.128   4.516   1.699  1.9237 -1.3031 -1.9641
 4853SOL    HW226022   2.164   4.644   1.773  2.8483  0.0040 -0.4175
 4854SOL     OW26023   3.959   0.152   7.986  0.1218  0.3466  0.6669
 4854SOL    HW126024   3.908   0.073   8.006 -0.4932  0.1041 -1.7753
 4854SOL    HW226025   3.950   0.203   8.066 -1.2587  0.7471  0.2477
 4855SOL     OW26026   3.440   3.597   6.003  0.3671 -0.0887  0.4788
 4855SOL    HW126027   3.420   3.576   5.912  0.5160  1.9419 -0.0232
 4855SOL    HW226028   3.440   3.507   6.033 -0.1179  0.3322  1.7374
 4856SOL     OW26029   2.744   1.252   6.454  0.2951 -0.3180 -0.7123
 4856SOL    HW126030   2.799   1.249   6.532 -1.0955 -3.3264  0.1542
 4856SOL    HW226031   2.668   1.206   6.490  1.3689 -1.9669 -0.5741
 4857SOL     OW26032   0.847   3.310  11.188  0.3032  0.0251 -0.9170
 4857SOL    HW126033   0.939   3.335  11.183 -1.1555  5.0612 -2.4278
 4857SOL    HW226034   0.809   3.320  11.100  0.2603 -2.5975 -1.2130
 4858SOL     OW26035   3.976   3.473   8.064  0.2345 -0.0118 -0.0541
 4858SOL    HW126036   3.929   3.500   8.143  3.0180  1.1892  1.2079
 4858SOL    HW226037   3.958   3.379   8.068  3.6057 -0.5190  3.5319
 4859SOL     OW26038   4.424   3.486   6.172  0.1612  0.0737  0.5826
 4859SOL    HW126039   4.500   3.512   6.223 -0.1465  0.7462  0.7059
 4859SOL    HW226040   4.404   3.572   6.135  2.0553  0.8266  1.3438
 4860SOL     OW26041   3.625   1.965   1.785 -0.2740  0.1080 -0.4384
 4860SOL    HW126042   3.589   1.882   1.753  0.0904 -0.5305  0.7888
 4860SOL    HW226043   3.542   2.009   1.770 -0.3376  0.2209  0.2467
 4861SOL     OW26044   3.863   1.276  10.123 -0.0823  0.2103  0.5395
 4861SOL    HW126045   3.844   1.253  10.214 -1.7445  1.7975  0.6109
 4861SOL    HW226046   3.789   1.237  10.077 -2.1169  1.1239  3.0419
 4862SOL     OW26047   1.124   1.245  13.958 -0.0009 -0.5515 -0.2548
 4862SOL    HW126048   1.146   1.337  13.945 -0.2283 -0.5154 -0.3832
 4862SOL    HW226049   1.053   1.246  14.022  2.5029 -0.4125  2.4970
 4863SOL     OW26050   4.375   3.653  14.713 -0.3420 -0.6486 -0.4109
 4863SOL    HW126051   4.370   3.654  14.809 -1.3035 -2.1009 -0.4388
 4863SOL    HW226052   4.425   3.733  14.697 -0.3819 -0.5243  0.0653
 4864SOL     OW26053   2.508   0.232   2.432  0.1591  0.1970 -0.0694
 4864SOL    HW126054   2.448   0.256   2.361 -0.3161 -0.5115  0.0964
 4864SOL    HW226055   2.545   0.315   2.461  0.6389  0.2237 -0.7599
 4865SOL     OW26056   4.285   0.442   4.987 -0.1615 -0.4360  0.1908
 4865SOL    HW126057   4.260   0.515   5.044  2.3673 -0.3544  1.1885
 4865SOL    HW226058   4.336   0.493   4.923  0.5210  0.0262  1.0991
 4866SOL     OW26059   2.892   3.742   7.149 -0.2295 -0.0873  0.5199
 4866SOL    HW126060   2.909   3.679   7.219  1.2667 -1.0084 -0.6745
 4866SOL    HW226061   2.937   3.686   7.086 -2.0335 -0.5985 -0.3154
 4867SOL     OW26062   0.765   3.302   7.727 -0.3646 -0.2111 -0.2338
 4867SOL    HW126063   0.690   3.358   7.706 -1.7696 -2.1472 -0.3664
 4867SOL    HW226064   0.719   3.221   7.704 -0.5139 -0.5705  1.3124
 4868SOL     OW26065   3.073   2.968  10.669 -0.0585 -0.3454 -0.0397
 4868SOL    HW126066   3.102   2.891  10.718 -0.7392  0.0189  0.9497
 4868SOL    HW226067   3.120   2.961  10.586 -1.0172 -0.6517 -0.5515
 4869SOL     OW26068   2.805   3.588   5.246 -0.0302 -0.1194 -0.5118
 4869SOL    HW126069   2.837   3.529   5.179 -1.3150 -0.9269 -0.4121
 4869SOL    HW226070   2.729   3.623   5.199 -0.2565 -0.2003 -0.2079
 4870SOL     OW26071   2.841   2.400   5.002 -0.6742 -0.1549  0.1290
 4870SOL    HW126072   2.935   2.402   4.983 -0.7475  0.9877 -0.0797
 4870SOL    HW226073   2.808   2.463   4.939  0.5202  0.1886 -0.1558
 4871SOL     OW26074   0.947   0.325  17.321 -0.2366 -0.2621 -0.0626
 4871SOL    HW126075   1.041   0.314  17.334 -0.2385 -0.5064 -0.2547
 4871SOL    HW226076   0.907   0.249  17.362 -4.1533  1.8909  0.1652
 4872SOL     OW26077   1.539   4.055   6.298 -0.0837  0.0024 -0.0669
 4872SOL    HW126078   1.577   3.995   6.234 -3.5676 -2.1584 -0.1266
 4872SOL    HW226079   1.580   4.022   6.378 -0.6303 -0.6938 -0.0730
 4873SOL     OW26080   2.518   3.629   8.639  0.0836 -0.6828 -0.0122
 4873SOL    HW126081   2.566   3.613   8.557  0.9002  0.5482  0.2269
 4873SOL    HW226082   2.565   3.566   8.694 -0.4270 -0.0141  1.1703
 4874SOL     OW26083   0.723   1.296   5.236 -0.0377  0.4970 -1.1442
 4874SOL    HW126084   0.669   1.275   5.313 -0.1972 -1.9045 -1.9036
 4874SOL    HW226085   0.752   1.208   5.210 -2.2358 -0.7006  0.4221
 4875SOL     OW26086   4.223   1.337  15.292  0.7816  0.0997  0.1314
 4875SOL    HW126087   4.232   1.363  15.200 -1.7544  3.2397  0.7588
 4875SOL    HW226088   4.132   1.353  15.315  0.8406  0.0338  0.4008
 4876SOL     OW26089   0.102   3.839  15.560 -0.3891  0.6372 -0.3259
 4876SOL    HW126090   0.011   3.836  15.530 -0.6637 -1.7461  0.7585
 4876SOL    HW226091   0.086   3.818  15.652 -1.6875 -0.0846 -0.7035
 4877SOL     OW26092   3.487   2.199   7.679 -0.0153  0.3475  0.2874
 4877SOL    HW126093   3.509   2.171   7.590 -1.1245 -0.2379  0.1857
 4877SOL    HW226094   3.577   2.207   7.709  0.3937  1.6320 -1.2563
 4878SOL     OW26095   4.188   4.382  15.232 -0.3572 -0.0157  0.1093
 4878SOL    HW126096   4.232   4.303  15.263 -0.5976 -0.7641 -1.4808
 4878SOL    HW226097   4.192   4.360  15.140 -0.3999  2.1675 -0.4284
 4879SOL     OW26098   3.076   2.326   7.134  0.6758 -0.1694  0.3256
 4879SOL    HW126099   3.170   2.338   7.118  0.0858  2.3902 -1.2032
 4879SOL    HW226100   3.072   2.394   7.201  1.8713  0.3478 -0.1286
 4880SOL     OW26101   0.024   0.415   0.381 -0.6659  0.3194 -0.0196
 4880SOL    HW126102   0.049   0.366   0.303 -1.6568  0.7280 -0.5987
 4880SOL    HW226103   0.030   0.344   0.445  0.5830  0.5779  0.1456
 4881SOL     OW26104   1.132   4.145   1.195 -0.5834  0.5158 -0.1864
 4881SOL    HW126105   1.186   4.077   1.154 -0.4588 -0.0143  0.8545
 4881SOL    HW226106   1.051   4.124   1.148  0.3329 -0.5193 -1.3187
 4882SOL     OW26107   2.819   4.179   7.012 -0.2603  0.3636 -0.0317
 4882SOL    HW126108   2.792   4.242   6.945 -0.0314  1.9215  1.3467
 4882SOL    HW226109   2.774   4.098   6.988  1.0805 -0.7031  1.1312
 4883SOL     OW26110   1.922   3.019   7.280  0.2156 -0.2883 -0.3329
 4883SOL    HW126111   1.912   3.112   7.303  0.9883 -0.7089  1.6739
 4883SOL    HW226112   1.833   3.000   7.249 -0.7093  0.9421  1.5342
 4884SOL     OW26113   0.441   1.064   4.332 -0.3104  0.4261  0.2451
 4884SOL    HW126114   0.402   1.012   4.262 -0.8533 -0.2688  1.0632
 4884SOL    HW226115   0.466   1.006   4.403  1.2241  1.3137  0.4211
 4885SOL     OW26116   2.739   1.544   9.206 -0.3658  0.4563 -0.0017
 4885SOL    HW126117   2.698   1.630   9.202  0.7479  1.0507  1.2712
 4885SOL    HW226118   2.744   1.533   9.111 -1.2007  0.9837 -0.1095
 4886SOL     OW26119   1.751   3.306   6.001 -0.1068 -0.0655 -0.4432
 4886SOL    HW126120   1.840   3.336   6.016 -0.3519  0.4444 -0.0147
 4886SOL    HW226121   1.727   3.260   6.082  1.8343  0.3267  0.3400
 4887SOL     OW26122   0.996   0.143   8.919 -0.2337 -0.4150 -0.4306
 4887SOL    HW126123   0.980   0.104   9.005  2.3173 -0.0400  0.2168
 4887SOL    HW226124   0.960   0.232   8.924 -0.6550 -0.6260  0.3233
 4888SOL     OW26125   1.929   0.665   8.683 -0.0934  0.0975  0.0053
 4888SOL    HW126126   1.972   0.657   8.768  1.9360  1.9606 -0.8273
 4888SOL    HW226127   1.947   0.577   8.649  1.9203  1.0721 -1.5080
 4889SOL     OW26128   4.128   4.140   8.851 -0.2843  0.5597  0.1455
 4889SOL    HW126129   4.033   4.146   8.857 -0.3946 -0.6723 -0.4250
 4889SOL    HW226130   4.148   4.230   8.826  0.0190  0.2728 -0.6504
 4890SOL     OW26131   4.083   0.116   5.109  0.4734 -0.2277  0.6218
 4890SOL    HW126132   3.996   0.087   5.137 -0.3361 -0.9928 -2.7030
 4890SOL    HW226133   4.128   0.095   5.190  0.1403 -0.3565  0.7758
 4891SOL     OW26134   4.548   1.509   9.725  0.4255  0.0030  0.1527
 4891SOL    HW126135   4.501   1.535   9.646  1.8894  1.3123 -0.3117
 4891SOL    HW226136   4.492   1.562   9.782  1.5632 -0.4109  1.6686
 4892SOL     OW26137   4.113   2.079   5.209 -0.0229 -0.0336  0.1580
 4892SOL    HW126138   4.186   2.138   5.225 -0.9055  0.5385  2.1280
 4892SOL    HW226139   4.153   2.032   5.136  1.0639  1.9505 -0.5193
 4893SOL     OW26140   2.068   3.294   3.391  0.4470  0.4682 -0.0724
 4893SOL    HW126141   2.136   3.283   3.458 -0.8450 -1.0389  0.9906
 4893SOL    HW226142   2.018   3.213   3.388  0.2524  0.5590  0.6137
 4894SOL     OW26143   1.224   2.300   9.285 -0.4325  0.2202 -0.1180
 4894SOL    HW126144   1.254   2.292   9.375 -0.7864 -2.4689 -0.2465
 4894SOL    HW226145   1.298   2.340   9.239  1.3492 -2.5356  0.3291
 4895SOL     OW26146   4.208   1.344   1.196 -0.7343 -0.4628  0.3527
 4895SOL    HW126147   4.151   1.367   1.123  2.1519  1.3036 -1.3754
 4895SOL    HW226148   4.141   1.303   1.250  1.4491 -2.2642  1.6850
 4896SOL     OW26149   1.343   2.038  16.829 -0.3795  0.4740  0.1182
 4896SOL    HW126150   1.388   2.075  16.753 -0.6159  0.2849 -0.1137
 4896SOL    HW226151   1.412   2.033  16.896 -0.8670  0.2377  0.6025
 4897SOL     OW26152   3.171   4.263   8.660  0.3287  0.1462  0.2512
 4897SOL    HW126153   3.136   4.284   8.747  1.8413  1.9542  0.4290
 4897SOL    HW226154   3.234   4.335   8.649 -0.3253  0.5446 -0.7905
 4898SOL     OW26155   2.175   4.580   8.157  0.4357 -0.0443  0.4327
 4898SOL    HW126156   2.124   4.573   8.077  0.6535  0.1107  0.2807
 4898SOL    HW226157   2.256   4.620   8.128 -0.0081  1.2881  1.0453
 4899SOL     OW26158   0.195   1.139  16.819  0.0915  0.2320  0.1698
 4899SOL    HW126159   0.272   1.154  16.764 -1.2259 -0.3465 -1.8449
 4899SOL    HW226160   0.240   1.114  16.900  0.1233  1.2757  0.4718
 4900SOL     OW26161   4.049   0.255   7.542 -0.7414  0.6560 -0.2477
 4900SOL    HW126162   4.140   0.275   7.523 -0.4610 -2.1419 -1.9731
 4900SOL    HW226163   4.045   0.290   7.631 -2.8126 -2.6672  0.9495
 4901SOL     OW26164   1.534   1.001   8.975 -0.5467 -0.5044  0.2494
 4901SOL    HW126165   1.447   1.003   9.014  0.2314  1.2385  1.8769
 4901SOL    HW226166   1.532   0.925   8.918  0.9336 -1.6824  1.7655
 4902SOL     OW26167   3.875   4.507   8.487  0.7122  0.6839 -0.4428
 4902SOL    HW126168   3.892   4.416   8.462 -0.9397  0.4544 -0.7337
 4902SOL    HW226169   3.840   4.500   8.575 -1.8700  1.9765 -1.3485
 4903SOL     OW26170   1.418   2.397   4.051 -0.1128  0.0335 -0.1225
 4903SOL    HW126171   1.396   2.462   4.117  3.9742  1.9721 -0.6606
 4903SOL    HW226172   1.495   2.347   4.079  0.3446  0.6149 -0.3350
 4904SOL     OW26173   4.298   0.701   6.210  0.3507 -0.0706  0.0644
 4904SOL    HW126174   4.258   0.669   6.291 -3.4206  0.1330 -1.7171
 4904SOL    HW226175   4.325   0.620   6.168  1.4843  0.4991 -0.3122
 4905SOL     OW26176   1.351   1.157  14.647 -0.0338  0.4005 -0.0513
 4905SOL    HW126177   1.326   1.086  14.589  2.1680  0.2793 -0.8552
 4905SOL    HW226178   1.291   1.149  14.721 -2.1135  1.7385 -1.5894
 4906SOL     OW26179   1.888   0.028   7.039 -0.3645 -0.3692  0.0002
 4906SOL    HW126180   1.974   4.705   7.052  0.5344  1.0433 -1.5734
 4906SOL    HW226181   1.841   4.703   7.111 -2.3596 -0.1873 -1.1962
 4907SOL     OW26182   0.378   2.270   9.227  0.0939  0.0157 -0.6006
 4907SOL    HW126183   0.373   2.177   9.246  1.0648  0.3831  1.5151
 4907SOL    HW226184   0.386   2.310   9.314  0.0064 -0.3281 -0.4337
 4908SOL     OW26185   3.225   1.318   3.129  0.3734  0.4981 -0.2477
 4908SOL    HW126186   3.286   1.244   3.123 -3.4046 -2.8038  2.0583
 4908SOL    HW226187   3.289   1.383   3.157  0.3784  0.0208  0.8355
 4909SOL     OW26188   1.755   3.065   7.717  0.4311 -0.1450  0.2628
 4909SOL    HW126189   1.728   3.019   7.796 -0.7737 -0.6769 -0.4622
 4909SOL    HW226190   1.823   3.015   7.671 -0.1469  2.4843 -3.5181
 4910SOL     OW26191   1.477   4.442   2.418  0.4433 -0.1534  0.2323
 4910SOL    HW126192   1.415   4.371   2.436 -1.4011  0.9079 -1.9140
 4910SOL    HW226193   1.456   4.499   2.492 -2.4268 -1.6876  0.5869
 4911SOL     OW26194   2.020   2.294   7.682  0.1579  0.3424  0.4585
 4911SOL    HW126195   1.975   2.236   7.743 -3.2348  0.0545 -2.3175
 4911SOL    HW226196   2.031   2.373   7.734  0.8805  0.6239 -0.1187
 4912SOL     OW26197   0.568   3.126  11.193  0.1950 -0.1742 -0.4482
 4912SOL    HW126198   0.603   3.056  11.247 -0.4348  0.0638  0.2588
 4912SOL    HW226199   0.586   3.200  11.250 -0.9950  0.0565 -0.3685
 4913SOL     OW26200   1.082   0.010  13.069 -0.2183 -0.2516  0.1632
 4913SOL    HW126201   1.054   0.097  13.098 -5.4402 -2.0016  0.3863
 4913SOL    HW226202   1.044   4.670  13.135  1.1296 -3.1718 -1.6503
 4914SOL     OW26203   2.752   1.634   2.093  0.2593 -0.3578 -0.1173
 4914SOL    HW126204   2.774   1.726   2.080 -1.1447 -0.3361 -2.4245
 4914SOL    HW226205   2.835   1.587   2.089 -0.2137 -1.1169 -1.2181
 4915SOL     OW26206   3.247   3.486   1.565  0.7181 -0.1137 -0.1319
 4915SOL    HW126207   3.329   3.444   1.539  0.6022  0.0607 -0.7900
 4915SOL    HW226208   3.228   3.541   1.489 -2.7923  0.8495  1.4552
 4916SOL     OW26209   3.058   0.515   6.753  0.1671  0.3395  0.3367
 4916SOL    HW126210   3.131   0.538   6.696  0.6734  1.7475  1.5499
 4916SOL    HW226211   3.074   0.421   6.751 -0.9601  0.1598 -0.3794
 4917SOL     OW26212   0.098   0.845   8.964  0.7393  0.2417  0.5673
 4917SOL    HW126213   0.062   0.845   8.875 -1.3238  1.9566  1.4053
 4917SOL    HW226214   0.049   0.779   9.013  0.9339 -0.3317 -0.0031
 4918SOL     OW26215   1.246   2.763   4.730  0.0956  0.0305  0.4427
 4918SOL    HW126216   1.235   2.853   4.760 -2.7434 -0.7730  1.7848
 4918SOL    HW226217   1.327   2.748   4.780  0.2339 -0.5851  0.0327
 4919SOL     OW26218   3.735   3.856  17.438 -0.7866 -0.7489  0.4179
 4919SOL    HW126219   3.699   3.871  17.526 -2.9208 -2.9775 -0.0898
 4919SOL    HW226220   3.698   3.774  17.407  1.5970 -0.8918 -1.9878
 4920SOL     OW26221   0.243   0.331   1.966  0.2762 -0.2225  0.2077
 4920SOL    HW126222   0.243   0.326   1.871  1.6234  1.4996  0.1187
 4920SOL    HW226223   0.245   0.239   1.991 -1.1371 -0.0019  1.1529
 4921SOL     OW26224   1.518   1.214  16.489  0.1247  0.4993 -0.6492
 4921SOL    HW126225   1.457   1.218  16.563  2.2075 -3.4535  1.2778
 4921SOL    HW226226   1.477   1.284  16.438  0.2707 -0.7569 -2.4829
 4922SOL     OW26227   2.843   4.528   9.057  0.4949 -0.0494  0.4289
 4922SOL    HW126228   2.753   4.506   9.080  1.0417 -1.3915  1.2599
 4922SOL    HW226229   2.853   4.607   9.109  1.8884  0.2197 -0.2523
 4923SOL     OW26230   1.225   0.735   2.261  0.3350 -0.1311 -0.4100
 4923SOL    HW126231   1.268   0.671   2.205 -0.9768  0.6869 -2.3243
 4923SOL    HW226232   1.299   0.793   2.281 -0.9748  0.4903  2.5999
 4924SOL     OW26233   1.304   0.727   6.713  0.0130 -0.3991 -0.3317
 4924SOL    HW126234   1.351   0.758   6.790 -1.1884 -0.7921  0.5501
 4924SOL    HW226235   1.228   0.683   6.751  1.0394  1.1152  3.4212
 4925SOL     OW26236   1.451   1.276   7.491  0.0578  0.2751 -0.4985
 4925SOL    HW126237   1.387   1.341   7.463  0.8184  1.7082  1.1062
 4925SOL    HW226238   1.392   1.204   7.515 -1.1758  0.7576 -2.0801
 4926SOL     OW26239   2.590   1.872   4.794  0.4437 -0.1837 -0.1562
 4926SOL    HW126240   2.575   1.938   4.861  0.5769  0.5224 -0.8224
 4926SOL    HW226241   2.542   1.796   4.827  2.6062 -2.1488 -1.5063
 4927SOL     OW26242   4.662   3.799   9.194 -0.3052 -0.4766  0.4275
 4927SOL    HW126243   4.663   3.808   9.099 -0.6424  0.8176  0.5484
 4927SOL    HW226244   4.583   3.848   9.218  1.2346  2.2994 -0.1839
 4928SOL     OW26245   2.522   0.946   7.934  0.4358  0.2349  0.7720
 4928SOL    HW126246   2.550   0.892   8.008  1.0341  1.0526  1.1453
 4928SOL    HW226247   2.604   0.991   7.916  0.4906  0.4940  1.6768
 4929SOL     OW26248   4.315   3.980   7.536 -0.5492  0.5018 -0.0545
 4929SOL    HW126249   4.354   3.998   7.621  0.7435 -1.9501 -0.1144
 4929SOL    HW226250   4.225   4.011   7.551  0.0642  1.5385  1.4355
 4930SOL     OW26251   3.263   1.365   2.466 -0.0882  0.4588 -0.1224
 4930SOL    HW126252   3.216   1.437   2.508 -0.0754  0.3184  0.1279
 4930SOL    HW226253   3.221   1.367   2.380  0.0142 -1.7523 -0.2397
 4931SOL     OW26254   0.045   3.408   0.678  0.2731  0.2449 -0.6253
 4931SOL    HW126255   0.096   3.364   0.609  1.3141  1.2849 -0.5297
 4931SOL    HW226256   4.674   3.396   0.647  0.2390 -1.8640  0.2913
 4932SOL     OW26257   4.535   2.143   2.206 -0.8943  0.2732 -0.0129
 4932SOL    HW126258   4.589   2.151   2.285 -1.3729 -1.9037  0.5640
 4932SOL    HW226259   4.523   2.048   2.216  0.2977 -0.1178 -2.3490
 4933SOL     OW26260   2.303   1.533   8.875 -0.1471 -0.2640 -0.2417
 4933SOL    HW126261   2.340   1.552   8.962 -0.1278 -0.5683 -0.1827
 4933SOL    HW226262   2.295   1.623   8.843  0.6093  0.0228  0.3708
 4934SOL     OW26263   0.476   3.619   3.056  0.2301  0.2843  0.6136
 4934SOL    HW126264   0.406   3.568   3.016  0.5627 -0.3010  0.7740
 4934SOL    HW226265   0.479   3.688   2.990  1.9071 -2.1381 -1.8876
 4935SOL     OW26266   3.526   2.415   5.127  0.5132  0.0766  0.7062
 4935SOL    HW126267   3.585   2.473   5.176  1.5267  1.0813 -1.7349
 4935SOL    HW226268   3.508   2.350   5.195 -1.8847  0.9856  0.9308
 4936SOL     OW26269   3.076   1.654   6.906 -0.4597  0.5434 -0.3625
 4936SOL    HW126270   3.098   1.594   6.976 -0.9985 -0.3888 -0.9857
 4936SOL    HW226271   3.012   1.706   6.956  1.0496 -0.6967  2.8132
 4937SOL     OW26272   0.185   2.342   5.298 -0.2548 -0.1111 -0.1569
 4937SOL    HW126273   0.220   2.334   5.209 -0.8198 -0.0099 -0.3845
 4937SOL    HW226274   0.200   2.250   5.322 -3.2156 -0.8346 -1.1033
 4938SOL     OW26275   1.418   2.548   6.939 -0.5004  0.0757  0.0436
 4938SOL    HW126276   1.338   2.552   6.887 -0.2542 -0.1806 -0.3609
 4938SOL    HW226277   1.455   2.471   6.895 -0.1109 -0.0699  0.6308
 4939SOL     OW26278   3.486   3.386   1.517  0.3286 -0.1681 -0.2504
 4939SOL    HW126279   3.506   3.327   1.444  0.6044 -2.0901  1.3849
 4939SOL    HW226280   3.563   3.374   1.573 -1.6749 -1.0354  2.2863
 4940SOL     OW26281   4.605   0.900   2.473 -0.4615 -0.1328  0.1022
 4940SOL    HW126282   4.529   0.851   2.504 -1.7712  1.1819 -1.0668
 4940SOL    HW226283   4.606   0.865   2.384 -2.3618  0.0025  0.0405
 4941SOL     OW26284   1.147   1.783   9.787 -0.1052  0.5507 -0.0753
 4941SOL    HW126285   1.090   1.815   9.857  0.8703  0.8818  0.5653
 4941SOL    HW226286   1.210   1.747   9.850 -0.5085  1.1743  0.6877
 4942SOL     OW26287   2.932   0.779  13.884 -0.7852  0.4096 -0.0631
 4942SOL    HW126288   2.856   0.817  13.929  0.8335  0.9431  2.2446
 4942SOL    HW226289   2.903   0.776  13.793  1.9854 -0.3978 -0.9179
 4943SOL     OW26290   4.184   1.047   3.379  0.0415  0.1045 -0.1446
 4943SOL    HW126291   4.237   1.096   3.316  1.6355 -2.4432 -0.7865
 4943SOL    HW226292   4.190   1.102   3.457  1.0636 -0.4916  0.2013
 4944SOL     OW26293   2.793   3.016   3.758  0.4134 -0.5904  0.2956
 4944SOL    HW126294   2.762   3.077   3.825 -1.0050 -0.7865 -0.1743
 4944SOL    HW226295   2.727   3.033   3.691  0.0261  0.5284  0.9713
 4945SOL     OW26296   4.343   2.565  11.338  0.1904 -0.2239 -0.0547
 4945SOL    HW126297   4.419   2.518  11.304 -0.5893 -2.6793  1.6038
 4945SOL    HW226298   4.283   2.537  11.269  2.6242  0.6288 -2.5044
 4946SOL     OW26299   1.741   1.041   4.478 -0.5457  0.8253 -0.3685
 4946SOL    HW126300   1.777   1.000   4.556 -1.2900 -0.1579 -0.5446
 4946SOL    HW226301   1.818   1.095   4.461  0.6809  0.2576  3.3893
 4947SOL     OW26302   1.950   0.989   6.109 -0.4023 -0.3112 -0.3761
 4947SOL    HW126303   1.979   1.079   6.123  0.6537 -0.5378 -1.1743
 4947SOL    HW226304   1.974   0.968   6.019 -0.1809 -0.3989 -0.2963
 4948SOL     OW26305   0.774   1.799  17.165  0.3021 -0.0282 -0.0078
 4948SOL    HW126306   0.804   1.852  17.091  2.0883  1.5455  1.8489
 4948SOL    HW226307   0.712   1.738  17.125  0.6955 -0.5704  0.2104
 4949SOL     OW26308   1.190   1.953  17.025 -0.2712 -0.1656  0.0747
 4949SOL    HW126309   1.246   1.958  16.948  1.7696  0.0471  1.5619
 4949SOL    HW226310   1.172   2.045  17.043 -0.2151  0.4559 -3.1576
 4950SOL     OW26311   1.479   1.309   6.700  0.0931  0.0574  0.0201
 4950SOL    HW126312   1.447   1.276   6.615 -0.1115  1.6867 -0.5344
 4950SOL    HW226313   1.573   1.310   6.685 -0.4940  0.7493 -3.6537
 4951SOL     OW26314   1.932   0.449  12.393 -0.5335 -0.0110 -0.2290
 4951SOL    HW126315   1.886   0.448  12.309 -0.0444 -1.7510 -0.4620
 4951SOL    HW226316   1.887   0.376  12.435  1.4125 -0.8105  0.4597
 4952SOL     OW26317   2.682   3.950   8.696  0.3911 -0.4224 -0.7186
 4952SOL    HW126318   2.706   3.929   8.605  2.9563  1.1268 -0.4081
 4952SOL    HW226319   2.696   4.044   8.685  0.3741 -0.3720 -0.3028
 4953SOL     OW26320   2.985   1.518  17.090  0.9435 -0.5968  0.2137
 4953SOL    HW126321   2.979   1.452  17.021  2.5078 -0.1115 -0.3932
 4953SOL    HW226322   3.030   1.583  17.035  0.3721 -1.6294 -1.4709
 4954SOL     OW26323   0.740   0.662   4.244 -0.6966 -0.2244 -0.2620
 4954SOL    HW126324   0.802   0.633   4.310 -1.9241 -0.6722  0.6987
 4954SOL    HW226325   0.792   0.684   4.167  1.1539 -0.1109  1.0207
 4955SOL     OW26326   3.242   1.028  10.304  0.6782  0.2369  0.2521
 4955SOL    HW126327   3.242   1.078  10.223 -0.3256 -0.1429  0.0254
 4955SOL    HW226328   3.156   0.991  10.286  0.8937 -0.7544  1.1956
 4956SOL     OW26329   3.625   3.695   5.175 -0.5292  0.0478  0.0405
 4956SOL    HW126330   3.582   3.610   5.182 -0.6662  0.0848 -0.3113
 4956SOL    HW226331   3.669   3.697   5.259 -0.5061 -1.9310  0.0685
 4957SOL     OW26332   3.414   2.079   4.243  0.1761  0.3056  0.3549
 4957SOL    HW126333   3.323   2.099   4.267 -0.1050 -1.8384  1.1009
 4957SOL    HW226334   3.463   2.123   4.313  0.1109 -1.9508  1.8505
 4958SOL     OW26335   3.660   4.041   8.303  0.4503  0.3788  0.3281
 4958SOL    HW126336   3.746   4.001   8.306  0.6477  0.9416  2.2108
 4958SOL    HW226337   3.601   3.966   8.292 -1.5944  1.8560  1.2441
 4959SOL     OW26338   0.072   2.785   1.971 -0.6910  0.4834 -0.2631
 4959SOL    HW126339   0.025   2.703   1.958 -2.7438  2.2588 -4.0055
 4959SOL    HW226340   0.163   2.758   1.966 -0.9552  0.0319 -2.4948
 4960SOL     OW26341   2.501   2.773   8.890 -0.2091 -0.0390  0.0729
 4960SOL    HW126342   2.494   2.846   8.951 -0.8458  0.9192 -1.1339
 4960SOL    HW226343   2.552   2.813   8.820 -1.2655  0.7961 -0.2080
 4961SOL     OW26344   4.226   3.849   6.858 -0.0069 -0.0830  0.1595
 4961SOL    HW126345   4.257   3.932   6.893  0.8392 -0.7353  0.9828
 4961SOL    HW226346   4.278   3.786   6.908  0.4279 -0.5458 -0.8811
 4962SOL     OW26347   3.343   0.697   9.047 -0.5218 -0.4586 -0.0388
 4962SOL    HW126348   3.285   0.733   9.114 -0.3998 -0.1251 -0.1117
 4962SOL    HW226349   3.284   0.694   8.971  0.3819  0.0741 -0.7610
 4963SOL     OW26350   2.588   2.025  14.650 -0.2748 -0.0292 -0.2705
 4963SOL    HW126351   2.521   2.090  14.671  0.9092  1.3422 -0.7522
 4963SOL    HW226352   2.645   2.060  14.582  1.7443  1.3917  2.1513
 4964SOL     OW26353   4.406   1.289  12.428 -0.5578 -0.7095  0.1287
 4964SOL    HW126354   4.432   1.262  12.516  1.0006  1.9451  0.4786
 4964SOL    HW226355   4.338   1.354  12.448  2.1137  1.6957  1.4679
 4965SOL     OW26356   2.882   2.922   0.448 -0.1548 -0.0984  0.4794
 4965SOL    HW126357   2.848   2.880   0.369 -0.1497  0.5642  0.1176
 4965SOL    HW226358   2.922   2.999   0.407 -0.4813 -0.3086 -0.2416
 4966SOL     OW26359   3.124   4.427  11.592 -0.1317  0.3783 -0.0136
 4966SOL    HW126360   3.062   4.355  11.584  1.9819 -1.7386  2.7814
 4966SOL    HW226361   3.124   4.471  11.507 -2.5177  0.3223 -0.0186
 4967SOL     OW26362   1.463   0.221   2.882  0.1981  0.1284  0.2422
 4967SOL    HW126363   1.462   0.199   2.975 -1.2838 -0.9048 -0.0331
 4967SOL    HW226364   1.384   0.174   2.856 -1.1246  1.4705  1.8670
 4968SOL     OW26365   4.632   2.660  13.786 -0.2125 -0.3055 -0.2291
 4968SOL    HW126366   4.663   2.571  13.806  3.3695  1.2182  1.0408
 4968SOL    HW226367   4.675   2.676  13.702  0.3672 -0.0125  0.1227
 4969SOL     OW26368   0.197   2.311   2.536  0.0777 -0.0783 -0.2657
 4969SOL    HW126369   0.208   2.217   2.523 -1.9919 -0.0624 -2.1576
 4969SOL    HW226370   0.286   2.346   2.541 -0.5881  1.0830  2.8570
 4970SOL     OW26371   0.603   3.404  13.042  0.3416 -0.3025  0.1172
 4970SOL    HW126372   0.643   3.432  13.125 -1.2015 -1.6248  1.3221
 4970SOL    HW226373   0.530   3.347  13.066  2.1258 -1.9195  1.8086
 4971SOL     OW26374   3.244   3.778   8.260  0.3650  0.1312  0.1779
 4971SOL    HW126375   3.210   3.777   8.350  1.0778  0.7866  0.4592
 4971SOL    HW226376   3.210   3.694   8.229  1.5443  0.0127 -0.8146
 4972SOL     OW26377   1.075   1.929   6.345 -0.0054 -0.2042  0.1866
 4972SOL    HW126378   0.979   1.921   6.349 -0.0767  0.9480  0.8607
 4972SOL    HW226379   1.096   2.020   6.365  0.1175 -0.4592  1.2094
 4973SOL     OW26380   2.070   3.304   7.654  0.5775 -0.2684  0.5521
 4973SOL    HW126381   2.083   3.355   7.574 -0.0748  0.2625  0.7865
 4973SOL    HW226382   1.977   3.311   7.673 -0.2259 -2.3885 -2.5981
 4974SOL     OW26383   3.396   4.539  14.674 -0.2391 -0.4992  0.2194
 4974SOL    HW126384   3.446   4.476  14.726  1.8399  0.8305 -0.2224
 4974SOL    HW226385   3.368   4.469  14.614 -0.0615 -0.6907  0.3620
 4975SOL     OW26386   4.550   4.273   4.721  0.6225  0.2699  0.0840
 4975SOL    HW126387   4.578   4.362   4.739  0.5871 -0.2370  2.6024
 4975SOL    HW226388   4.608   4.235   4.787  0.5480 -0.1293 -0.0785
 4976SOL     OW26389   4.015   3.735   5.471 -0.0374  0.1839 -0.3324
 4976SOL    HW126390   3.973   3.792   5.406 -0.5826  1.1883  0.8968
 4976SOL    HW226391   4.099   3.724   5.427  0.3931  2.2672 -0.0335
 4977SOL     OW26392   3.093   0.993   1.462 -0.2203  0.4826 -0.5230
 4977SOL    HW126393   3.081   0.970   1.370 -2.0866  1.5496 -0.5497
 4977SOL    HW226394   3.166   1.055   1.454  1.3516 -1.1613  1.3227
 4978SOL     OW26395   1.525   3.704  13.308  0.3810  0.2786  0.0355
 4978SOL    HW126396   1.447   3.759  13.310  0.0677 -0.0661 -2.5434
 4978SOL    HW226397   1.601   3.756  13.282 -0.7819  1.2915 -1.3269
 4979SOL     OW26398   0.715   3.965   7.404 -0.7810 -0.0844  0.4082
 4979SOL    HW126399   0.697   3.949   7.497  0.5186 -1.4160  0.4228
 4979SOL    HW226400   0.808   3.945   7.402  0.1126  4.0841 -1.2382
 4980SOL     OW26401   0.918   0.542   3.786 -0.0578  0.5477  0.2822
 4980SOL    HW126402   0.917   0.447   3.789 -0.3325  0.5974  2.0770
 4980SOL    HW226403   1.011   0.567   3.795  0.3532 -0.1835 -2.0481
 4981SOL     OW26404   2.861   0.038   7.410  0.0014  0.1924  0.7889
 4981SOL    HW126405   2.856   4.678   7.354  2.7715  1.4273 -1.1537
 4981SOL    HW226406   2.952   0.067   7.408  0.2764 -0.6626  0.9056
 4982SOL     OW26407   0.644   0.795  12.504 -0.2189 -0.3967 -0.5899
 4982SOL    HW126408   0.728   0.750  12.496 -0.6035 -1.0467 -0.9504
 4982SOL    HW226409   0.654   0.840  12.588  0.3932 -1.7276  0.0619
 4983SOL     OW26410   4.403   3.920   5.711  0.0537  0.0255 -0.4110
 4983SOL    HW126411   4.346   3.950   5.782 -0.2812  0.3207 -0.7995
 4983SOL    HW226412   4.362   3.963   5.635  0.7929  2.0743  0.3407
 4984SOL     OW26413   4.530   4.483  14.688  0.0752 -0.2326 -0.5342
 4984SOL    HW126414   4.466   4.476  14.759 -0.2821  2.0366 -0.6299
 4984SOL    HW226415   4.472   4.504  14.614 -0.3897  0.2135 -0.0485
 4985SOL     OW26416   0.873   1.989  17.328  0.1299  0.0006 -0.4145
 4985SOL    HW126417   0.868   1.944  17.413 -1.3174 -0.4563 -0.7334
 4985SOL    HW226418   0.822   1.931  17.271  0.6675 -0.4495 -0.4416
 4986SOL     OW26419   1.220   2.781  12.505 -0.0867  0.6990  0.1423
 4986SOL    HW126420   1.138   2.765  12.552  0.6764  1.1050  1.5945
 4986SOL    HW226421   1.229   2.876  12.515 -0.2926  0.6936  0.3681
 4987SOL     OW26422   3.656   1.189   1.488  0.4736  0.1655  0.0973
 4987SOL    HW126423   3.626   1.122   1.427 -0.6571 -0.5199  1.4029
 4987SOL    HW226424   3.653   1.264   1.429  1.6428  2.3959  2.8157
 4988SOL     OW26425   3.819   4.454   5.059 -0.2297 -0.1174  0.1446
 4988SOL    HW126426   3.733   4.457   5.019  0.3723 -0.1999 -1.1400
 4988SOL    HW226427   3.878   4.430   4.988  0.7081  0.5818  0.6703
 4989SOL     OW26428   1.143   0.157   5.510  0.3594 -0.3850 -0.0812
 4989SOL    HW126429   1.232   0.122   5.502  0.3823 -0.6065  1.1442
 4989SOL    HW226430   1.142   0.217   5.585  0.0782  0.6618 -0.9264
 4990SOL     OW26431   2.967   3.400  15.105  0.8672  0.3113 -0.1720
 4990SOL    HW126432   2.898   3.351  15.148  0.6468  2.1061  1.4948
 4990SOL    HW226433   2.943   3.492  15.117 -1.1016 -0.2602  0.1695
 4991SOL     OW26434   1.360   1.057  12.837 -0.2871 -0.0854  0.3135
 4991SOL    HW126435   1.283   1.027  12.789 -1.4850  2.7261  0.4552
 4991SOL    HW226436   1.367   1.145  12.798 -4.1658 -0.7190 -1.8296
 4992SOL     OW26437   3.069   3.186  13.447 -0.0672  0.8707  0.3409
 4992SOL    HW126438   3.128   3.157  13.517  1.0223  0.4509 -0.7480
 4992SOL    HW226439   3.124   3.248  13.400 -2.8443  3.1091  0.0615
 4993SOL     OW26440   2.268   0.161   0.670  0.3512  0.1240 -0.1425
 4993SOL    HW126441   2.200   0.175   0.736  0.7620 -1.1353  0.5472
 4993SOL    HW226442   2.341   0.149   0.730 -1.3707 -0.6449  1.7771
 4994SOL     OW26443   2.082   4.047  14.731  0.1279  0.5156 -0.0194
 4994SOL    HW126444   2.173   4.019  14.746  0.1342  1.4328  1.6467
 4994SOL    HW226445   2.077   4.131  14.776 -1.8301  1.0934 -1.3626
 4995SOL     OW26446   4.661   4.018   5.768 -0.5836  0.1981  0.2872
 4995SOL    HW126447   4.568   3.999   5.756 -0.6228  1.4360 -1.3074
 4995SOL    HW226448   4.712   3.937   5.760  0.1332  0.6914 -0.1251
 4996SOL     OW26449   4.349   3.451   0.011  0.3098  0.0450  0.1085
 4996SOL    HW126450   4.365   3.533  17.641  0.1577 -0.1337 -0.2595
 4996SOL    HW226451   4.388   3.386  17.629  1.8868  0.6007  0.5451
 4997SOL     OW26452   1.732   2.756   7.435  0.2149 -0.5749 -0.7208
 4997SOL    HW126453   1.679   2.797   7.504  1.2034  0.0990 -0.3514
 4997SOL    HW226454   1.727   2.829   7.372 -3.3576  0.0248  0.2654
 4998SOL     OW26455   0.800   3.385   0.265 -0.0163  0.1036  0.3420
 4998SOL    HW126456   0.873   3.424   0.313 -0.3318  0.1868  0.7507
 4998SOL    HW226457   0.726   3.392   0.325 -0.1644 -0.3927  0.2196
 4999SOL     OW26458   4.645   0.821   8.031 -0.0569 -0.8730 -0.1466
 4999SOL    HW126459   4.631   0.749   8.092 -1.1855 -1.2115 -0.8118
 4999SOL    HW226460   4.666   0.887   8.097 -0.6424  2.0599 -2.8636
 5000SOL     OW26461   1.372   2.063  10.251  0.5872 -0.6834  0.3354
 5000SOL    HW126462   1.454   2.087  10.294  0.2960 -0.8479  0.9882
 5000SOL    HW226463   1.323   2.032  10.328  1.4502 -0.5226  0.9481
 5001SOL     OW26464   1.577   1.196  14.306 -0.0600  0.2840  0.7800
 5001SOL    HW126465   1.618   1.195  14.392 -2.3384 -0.1164  1.8589
 5001SOL    HW226466   1.552   1.104  14.294 -2.3125  1.0891 -0.7188
 5002SOL     OW26467   0.369   3.004  12.957 -0.0040 -0.4504 -0.9160
 5002SOL    HW126468   0.356   2.910  12.947 -0.7329 -0.4963  0.5664
 5002SOL    HW226469   0.301   3.021  12.891  0.2991 -0.8820 -1.3434
 5003SOL     OW26470   3.561   3.495   9.045 -0.1631  0.5450  0.0734
 5003SOL    HW126471   3.521   3.543   8.972  3.6238  2.9237 -0.4666
 5003SOL    HW226472   3.611   3.562   9.091  0.0266 -0.0697  0.7651
 5004SOL     OW26473   3.090   2.812  11.072  0.0838 -0.0117 -0.3319
 5004SOL    HW126474   3.129   2.814  10.985  2.6972  0.1171  0.8577
 5004SOL    HW226475   3.001   2.838  11.047 -0.4852 -0.9520  0.7223
 5005SOL     OW26476   3.824   0.695   9.454  0.2708  0.1821 -0.2655
 5005SOL    HW126477   3.770   0.740   9.519 -0.4837  0.2559 -0.9401
 5005SOL    HW226478   3.781   0.610   9.444  0.0637  0.2427  0.1059
 5006SOL     OW26479   0.216   0.427   7.774 -0.1653 -0.4596 -0.0160
 5006SOL    HW126480   0.172   0.457   7.854  0.3389  0.3476 -0.0432
 5006SOL    HW226481   0.303   0.467   7.779 -0.6928  0.5214  1.5338
 5007SOL     OW26482   0.917   2.907   3.004 -0.3122  0.0638  0.3373
 5007SOL    HW126483   0.956   2.892   3.090  1.5467  1.2611 -0.3049
 5007SOL    HW226484   0.928   3.001   2.990 -0.7666  0.1680  0.6521
 5008SOL     OW26485   1.792   4.146   6.462  0.2474  0.1659  0.2217
 5008SOL    HW126486   1.737   4.137   6.540 -0.0698 -3.2473 -0.4408
 5008SOL    HW226487   1.752   4.221   6.418  0.6510 -1.1384 -2.3721
 5009SOL     OW26488   0.893   4.053   9.196  0.0659  0.1978  0.5079
 5009SOL    HW126489   0.828   4.096   9.253 -1.4309 -2.8155  1.0442
 5009SOL    HW226490   0.972   4.086   9.241 -0.3644  0.5580  1.0072
 5010SOL     OW26491   0.266   3.538   3.303 -0.2464 -0.2855 -0.2268
 5010SOL    HW126492   0.202   3.526   3.233 -0.5016 -0.5851  0.0608
 5010SOL    HW226493   0.300   3.449   3.311 -0.1791 -0.3384 -1.1816
 5011SOL     OW26494   3.821   4.336   2.031 -0.1707 -0.1101  0.0419
 5011SOL    HW126495   3.887   4.267   2.033  1.0630  1.0804 -0.2253
 5011SOL    HW226496   3.845   4.382   2.112  1.4300  0.0925 -0.5517
 5012SOL     OW26497   4.499   3.732   8.140  0.0232  0.0868 -0.2779
 5012SOL    HW126498   4.446   3.779   8.204  1.1089 -2.0788  2.2031
 5012SOL    HW226499   4.482   3.646   8.178  1.4001 -0.0558  0.0376
 5013SOL     OW26500   0.210   0.047   3.680 -0.2131 -0.6569 -0.5562
 5013SOL    HW126501   0.174   0.136   3.670 -2.0473 -1.0121  3.0412
 5013SOL    HW226502   0.144   0.018   3.742  0.8735 -0.7321  0.5592
 5014SOL     OW26503   4.482   1.884   8.534  0.1111 -0.1659 -0.1629
 5014SOL    HW126504   4.490   1.885   8.630 -0.5403  1.8911 -0.1410
 5014SOL    HW226505   4.571   1.906   8.505  0.4149 -1.0057  0.1294
 5015SOL     OW26506   1.126   4.000   4.337 -0.2375  0.1220 -0.0592
 5015SOL    HW126507   1.221   3.998   4.332 -0.2940 -2.0647 -0.2229
 5015SOL    HW226508   1.109   3.960   4.252 -1.8720 -2.8702  1.6522
 5016SOL     OW26509   3.904   2.617   1.109 -0.5349  0.2632  0.2265
 5016SOL    HW126510   3.951   2.617   1.192 -1.2721 -2.6786  0.6412
 5016SOL    HW226511   3.973   2.646   1.050 -0.3370  1.7774  1.2112
 5017SOL     OW26512   0.258   0.436   5.315 -0.3470  0.4158  0.1224
 5017SOL    HW126513   0.351   0.416   5.303 -0.3359  0.2109  0.5390
 5017SOL    HW226514   0.237   0.388   5.395 -3.8834  0.4059 -0.7972
 5018SOL     OW26515   2.128   2.474  13.523 -0.6615 -0.0134  0.2049
 5018SOL    HW126516   2.083   2.470  13.438  0.0433 -2.5773 -0.0577
 5018SOL    HW226517   2.176   2.392  13.531 -0.4156  0.0083 -1.0821
 5019SOL     OW26518   4.543   0.325   5.745 -0.6106  0.4904  0.1612
 5019SOL    HW126519   4.451   0.322   5.719 -0.1348 -0.4303 -1.3795
 5019SOL    HW226520   4.567   0.412   5.712  1.1409 -0.1277 -0.1980
 5020SOL     OW26521   2.840   1.248   3.985  0.3128 -0.4588  0.4174
 5020SOL    HW126522   2.848   1.224   4.078  0.2645 -2.0688  0.0123
 5020SOL    HW226523   2.776   1.180   3.963  1.6115 -1.9674  1.3238
 5021SOL     OW26524   1.269   0.774   0.473 -0.2406 -0.5633  0.7366
 5021SOL    HW126525   1.338   0.835   0.446  0.0979 -1.9332 -1.5220
 5021SOL    HW226526   1.190   0.825   0.454 -0.4774 -1.2286 -0.0585
 5022SOL     OW26527   3.027   2.279   9.849  0.0354 -0.1853 -0.9193
 5022SOL    HW126528   3.077   2.256   9.771 -1.0292 -1.6275 -1.1743
 5022SOL    HW226529   2.973   2.339   9.798  1.0445  0.7271 -0.9148
 5023SOL     OW26530   0.512   2.988   3.597 -0.0641  0.6473 -0.1755
 5023SOL    HW126531   0.427   2.988   3.641 -0.4126 -1.3579 -0.8340
 5023SOL    HW226532   0.561   2.917   3.639  0.6858  2.4773  2.0364
 5024SOL     OW26533   2.303   1.239  14.984  0.1818 -0.5257 -0.0397
 5024SOL    HW126534   2.211   1.248  14.959  0.4929  0.3551 -0.8797
 5024SOL    HW226535   2.343   1.261  14.900  1.2853  0.6685  0.7940
 5025SOL     OW26536   4.708   1.350  10.437  0.0024 -0.5065  0.1666
 5025SOL    HW126537   4.707   1.381  10.527 -2.0003  1.4244 -0.5105
 5025SOL    HW226538   0.068   1.393  10.402  0.2303 -2.1363 -1.3463
 5026SOL     OW26539   3.040   4.566   4.957 -0.2261  0.4486  0.3615
 5026SOL    HW126540   3.086   4.569   5.041  0.8258  0.9931 -0.2369
 5026SOL    HW226541   3.028   4.660   4.944 -2.8917  0.0602 -0.0172
 5027SOL     OW26542   1.230   3.878   5.082  0.2313  0.6326  0.1266
 5027SOL    HW126543   1.283   3.886   5.161 -2.7348  0.1193  2.1672
 5027SOL    HW226544   1.140   3.853   5.102 -0.1760  2.8764  1.0904
 5028SOL     OW26545   0.877   3.783   9.135  0.2850  0.0790  0.3559
 5028SOL    HW126546   0.868   3.875   9.161  0.2612 -0.0941  0.9713
 5028SOL    HW226547   0.852   3.795   9.043 -1.3604  1.2753  0.9473
 5029SOL     OW26548   2.767   3.740   6.633 -0.3498  0.0406 -0.1918
 5029SOL    HW126549   2.790   3.691   6.554  3.4086 -0.0858  0.9921
 5029SOL    HW226550   2.818   3.821   6.627  0.6328 -0.5521  0.1261
 5030SOL     OW26551   3.252   1.626   2.150 -0.2810 -0.3919 -0.0916
 5030SOL    HW126552   3.321   1.692   2.155 -0.5789 -0.1353  0.6469
 5030SOL    HW226553   3.292   1.539   2.139  2.2962  0.5675  1.6362
 5031SOL     OW26554   1.387   2.833  14.243  0.2021 -0.0770  0.1695
 5031SOL    HW126555   1.446   2.908  14.241  1.1068 -0.8073 -0.4579
 5031SOL    HW226556   1.316   2.867  14.297  1.3996  1.5550  0.7024
 5032SOL     OW26557   3.121   4.368   3.917  0.2652 -0.3888  0.1201
 5032SOL    HW126558   3.180   4.429   3.873 -0.5806 -0.1393 -0.6665
 5032SOL    HW226559   3.124   4.290   3.862  0.2972  0.6974 -1.4006
 5033SOL     OW26560   3.972   2.370   7.643  0.0586  0.3316  0.9140
 5033SOL    HW126561   4.040   2.430   7.612  0.0104 -0.0349  0.0910
 5033SOL    HW226562   4.025   2.321   7.706  0.0423 -1.3729 -0.4044
 5034SOL     OW26563   0.806   0.572  14.034  0.2223  0.1957 -0.0562
 5034SOL    HW126564   0.773   0.612  13.954  1.1263  0.0959 -0.4815
 5034SOL    HW226565   0.723   0.551  14.077  1.5902 -0.3897  2.3109
 5035SOL     OW26566   1.463   0.983  16.293  0.8025 -0.5639  0.2888
 5035SOL    HW126567   1.376   1.001  16.328  0.0475  1.2699 -2.5703
 5035SOL    HW226568   1.505   1.060  16.332  2.1729 -0.8939 -0.5488
 5036SOL     OW26569   2.133   2.795   0.291  0.0747 -0.7037  0.2173
 5036SOL    HW126570   2.210   2.850   0.304 -1.9295  2.0105  0.5512
 5036SOL    HW226571   2.100   2.802   0.381 -0.7972  3.3871 -0.4116
 5037SOL     OW26572   3.401   3.013   3.883  0.5353  0.2039 -0.0648
 5037SOL    HW126573   3.341   3.036   3.812 -0.2707  0.0576  0.5669
 5037SOL    HW226574   3.444   3.098   3.885  1.0106 -0.1012  1.9374
 5038SOL     OW26575   2.905   3.284   8.531  0.1317  0.2956 -0.6355
 5038SOL    HW126576   2.973   3.315   8.472  0.1137 -0.6846 -1.1728
 5038SOL    HW226577   2.861   3.215   8.480 -1.4360  1.7238 -1.2117
 5039SOL     OW26578   3.518   1.947   6.127 -0.4811  0.0860 -0.0893
 5039SOL    HW126579   3.550   1.994   6.050 -2.8017  1.7200 -0.0619
 5039SOL    HW226580   3.502   1.858   6.094 -2.9328  1.4574 -2.5837
 5040SOL     OW26581   4.064   1.064   9.329  0.0622 -0.0577  0.5000
 5040SOL    HW126582   4.022   1.104   9.405 -0.7131  1.6133 -0.8197
 5040SOL    HW226583   4.038   1.133   9.268  1.6993  0.3463  0.2614
 5041SOL     OW26584   4.656   3.340  14.284 -0.8777  0.0526 -0.1127
 5041SOL    HW126585   0.016   3.288  14.263 -3.0483 -2.7009 -1.2556
 5041SOL    HW226586   4.650   3.392  14.204 -0.6376  0.4121  0.1017
 5042SOL     OW26587   3.788   0.309   8.858 -0.1747  0.3437  0.1804
 5042SOL    HW126588   3.697   0.339   8.863 -0.2634 -0.2419  1.9946
 5042SOL    HW226589   3.825   0.375   8.800  0.9249 -0.8554 -0.4980
 5043SOL     OW26590   3.971   4.621   4.122  0.5541 -0.2674 -0.3194
 5043SOL    HW126591   4.021   4.543   4.099  0.4336 -0.3966 -0.1422
 5043SOL    HW226592   3.908   4.591   4.187  0.3619  2.9741  1.0050
 5044SOL     OW26593   2.260   3.399   4.389 -0.2564  0.1970  0.0641
 5044SOL    HW126594   2.227   3.381   4.301 -2.3421 -0.6584  1.0297
 5044SOL    HW226595   2.335   3.454   4.365 -0.1168  0.1199  0.3300
 5045SOL     OW26596   4.435   1.465   9.430  0.6598  0.0692  0.3994
 5045SOL    HW126597   4.389   1.548   9.446  0.4614  0.0383 -0.0107
 5045SOL    HW226598   4.381   1.438   9.355  0.6989 -0.2191  0.4757
 5046SOL     OW26599   4.045   1.634   9.801  0.3113  0.0775  0.2154
 5046SOL    HW126600   4.072   1.726   9.796 -1.3392  0.5612  0.3707
 5046SOL    HW226601   3.959   1.650   9.839 -0.2110  0.3686 -1.0959
 5047SOL     OW26602   2.849   2.626  17.357 -0.6363 -0.2496 -0.1720
 5047SOL    HW126603   2.801   2.571  17.418 -1.2576 -0.1885 -0.6102
 5047SOL    HW226604   2.883   2.557  17.300  0.8752  0.5880 -0.3161
 5048SOL     OW26605   0.106   3.545   6.573 -0.4599 -0.5136  0.2038
 5048SOL    HW126606   0.134   3.615   6.514 -4.2845  0.6812 -0.2036
 5048SOL    HW226607   0.119   3.577   6.662  2.3085  0.4794 -0.5673
 5049SOL     OW26608   1.910   0.175   8.508  0.9796  0.0653  0.0737
 5049SOL    HW126609   1.931   0.083   8.492  1.4602 -0.1265  1.8591
 5049SOL    HW226610   1.839   0.177   8.444 -0.6027  0.5103  1.8601
 5050SOL     OW26611   2.391   1.273  10.723 -0.3038  0.4733 -1.0383
 5050SOL    HW126612   2.402   1.368  10.718 -0.0583  0.4915 -0.1868
 5050SOL    HW226613   2.397   1.267  10.628 -1.6982  0.2796 -1.1015
 5051SOL     OW26614   3.486   3.175   0.492 -0.5183 -0.1448  0.6701
 5051SOL    HW126615   3.481   3.081   0.473 -1.7738  0.1603 -0.5703
 5051SOL    HW226616   3.578   3.198   0.481 -0.1350 -1.8802  0.2366
 5052SOL     OW26617   1.229   1.998  10.462  0.5872 -0.6392  0.0340
 5052SOL    HW126618   1.146   1.951  10.462  0.5883 -0.6387 -0.9875
 5052SOL    HW226619   1.268   1.960  10.540  0.1145 -2.3537 -0.5631
 5053SOL     OW26620   0.711   3.402  10.402 -1.1377  0.1886 -0.1452
 5053SOL    HW126621   0.693   3.470  10.338 -0.5347  0.0682 -0.4316
 5053SOL    HW226622   0.794   3.371  10.367 -0.0405  1.0174  1.6819
 5054SOL     OW26623   2.902   0.967   8.289 -0.3269  0.5524  0.3992
 5054SOL    HW126624   2.881   0.895   8.349 -0.9874  0.7333  0.3900
 5054SOL    HW226625   2.971   1.013   8.337  0.2008  2.5009 -2.2796
 5055SOL     OW26626   2.393   0.542  10.446  0.0900 -0.1639 -0.2131
 5055SOL    HW126627   2.428   0.539  10.357 -1.6398  0.0900 -0.9072
 5055SOL    HW226628   2.396   0.636  10.467 -0.5508  0.2148 -1.7505
 5056SOL     OW26629   3.992   2.766   4.859 -0.6302  0.1866 -0.3954
 5056SOL    HW126630   3.988   2.673   4.837 -0.7483  0.3151 -0.8939
 5056SOL    HW226631   4.039   2.762   4.942  0.6581 -1.2902 -1.2124
 5057SOL     OW26632   2.299   0.957   7.468 -0.0710  0.3781  0.7976
 5057SOL    HW126633   2.324   1.049   7.453 -0.7456  0.6613  1.4191
 5057SOL    HW226634   2.352   0.931   7.542 -0.5439 -0.8328  0.7187
 5058SOL     OW26635   2.560   0.805   8.143  0.2906 -0.2431 -0.2504
 5058SOL    HW126636   2.582   0.878   8.201  0.4703  0.3539 -1.0691
 5058SOL    HW226637   2.466   0.810   8.128 -0.0534  0.3317  2.1519
 5059SOL     OW26638   0.233   3.733   4.336  0.6945  0.2086 -0.0516
 5059SOL    HW126639   0.304   3.702   4.393 -0.4871 -1.2516  0.6250
 5059SOL    HW226640   0.276   3.775   4.262  1.1713  0.6676  0.4866
 5060SOL     OW26641   2.361   2.507   4.465 -0.0129  0.0466  0.1539
 5060SOL    HW126642   2.398   2.430   4.422  0.7392  0.1472  0.6140
 5060SOL    HW226643   2.384   2.580   4.406  1.5056  0.2268  0.9597
 5061SOL     OW26644   1.806   0.261   5.596  0.2894  0.1383 -0.3706
 5061SOL    HW126645   1.759   0.224   5.522  1.3010 -1.5905 -0.1344
 5061SOL    HW226646   1.819   0.352   5.569 -0.0356  0.2088 -0.2940
 5062SOL     OW26647   4.380   0.878   3.758 -0.9314 -0.7577  0.6735
 5062SOL    HW126648   4.404   0.930   3.682  0.7198  0.1006  1.7736
 5062SOL    HW226649   4.324   0.931   3.815  1.5204  0.7066  1.7298
 5063SOL     OW26650   1.894   0.571   3.411  0.0352  0.3008 -0.1322
 5063SOL    HW126651   1.957   0.530   3.352  1.4421  0.7087  1.0717
 5063SOL    HW226652   1.872   0.654   3.368 -0.9892  0.2449  0.3006
 5064SOL     OW26653   2.021   4.134  15.838 -0.2744  0.1339 -0.6506
 5064SOL    HW126654   1.977   4.216  15.814 -0.9229 -0.4166 -1.3172
 5064SOL    HW226655   2.113   4.158  15.822 -0.5082  1.2959 -0.2350
 5065SOL     OW26656   3.744   2.997  10.695 -0.1486 -0.1793 -0.0128
 5065SOL    HW126657   3.802   3.057  10.742  0.5013 -0.9595  0.1895
 5065SOL    HW226658   3.746   2.917  10.748 -0.7229 -1.3100 -1.6982
 5066SOL     OW26659   4.096   2.635   5.737  0.6084  0.7250  0.2832
 5066SOL    HW126660   4.135   2.629   5.650  0.1798  2.5357 -0.0496
 5066SOL    HW226661   4.171   2.617   5.793 -0.2387  1.3973  1.6405
 5067SOL     OW26662   4.006   1.747  12.004 -0.2964  0.4695  0.9255
 5067SOL    HW126663   4.037   1.834  12.028 -2.7928  1.1877  1.5571
 5067SOL    HW226664   3.915   1.772  11.988 -0.3999 -0.3664  0.2310
 5068SOL     OW26665   4.179   1.590   5.020 -0.0940  0.3437  0.1358
 5068SOL    HW126666   4.122   1.637   4.959 -1.4553 -1.3554  0.1120
 5068SOL    HW226667   4.242   1.557   4.956  0.1281  0.4723  0.2877
 5069SOL     OW26668   1.762   0.042   8.261  0.4504  0.3434 -0.3086
 5069SOL    HW126669   1.700   4.701   8.219 -1.4483  1.3210  1.1166
 5069SOL    HW226670   1.832   4.704   8.295 -0.8410 -0.7686  0.4796
 5070SOL     OW26671   0.153   1.487  13.667  0.0359  0.0093  0.1218
 5070SOL    HW126672   0.073   1.501  13.719 -0.1644  0.5429 -0.3269
 5070SOL    HW226673   0.169   1.396  13.689 -1.4410 -0.3375 -0.2530
 5071SOL     OW26674   2.905   0.271   6.213 -0.4801  0.0306 -0.8022
 5071SOL    HW126675   2.950   0.331   6.273  0.0943 -1.2787  0.0845
 5071SOL    HW226676   2.979   0.210   6.209  2.3160  3.2385  1.6246
 5072SOL     OW26677   1.445   4.280   3.339 -0.2187 -0.0656 -0.2384
 5072SOL    HW126678   1.409   4.366   3.317  0.0381  0.2172  0.4304
 5072SOL    HW226679   1.399   4.221   3.279 -0.9626 -0.7942  1.0416
 5073SOL     OW26680   4.246   1.699   3.216 -0.2705 -0.3397  0.1919
 5073SOL    HW126681   4.233   1.634   3.285  2.1603 -2.0281 -0.9362
 5073SOL    HW226682   4.237   1.647   3.136 -0.0492  2.1159 -1.4252
 5074SOL     OW26683   0.012   0.736   6.000 -0.2409 -0.1504 -1.1919
 5074SOL    HW126684   4.678   0.802   6.046  1.6208  1.9159 -2.0941
 5074SOL    HW226685   4.684   0.657   6.029  1.8933 -0.6863  0.7051
 5075SOL     OW26686   1.858   2.866   8.514  0.6695  0.4481  0.1852
 5075SOL    HW126687   1.811   2.889   8.434 -1.2189 -2.6205  0.3948
 5075SOL    HW226688   1.944   2.835   8.485  0.5493  1.6048 -1.4031
 5076SOL     OW26689   1.743   3.434  10.291 -0.3145  0.3573 -0.1455
 5076SOL    HW126690   1.650   3.416  10.275 -0.6781  3.0784 -1.2014
 5076SOL    HW226691   1.730   3.529  10.293 -1.6198  0.1243  1.8373
 5077SOL     OW26692   4.458   4.067   7.742 -0.3225  0.4560  0.1045
 5077SOL    HW126693   4.507   4.003   7.795  0.3382  0.0709 -0.9700
 5077SOL    HW226694   4.524   4.135   7.733 -0.1235  0.3854  0.9700
 5078SOL     OW26695   2.632   4.400   5.032  0.4857  0.1497 -0.7813
 5078SOL    HW126696   2.678   4.479   5.061  1.8057 -0.4978 -1.1443
 5078SOL    HW226697   2.702   4.363   4.979  1.3698  1.6310 -0.6297
 5079SOL     OW26698   1.856   4.462   4.499  0.5654 -0.1571 -0.1058
 5079SOL    HW126699   1.806   4.471   4.418  0.2653  0.1837  0.1168
 5079SOL    HW226700   1.837   4.368   4.511  0.3764  0.0207  1.0113
 5080SOL     OW26701   3.197   0.588   5.424  0.3419  0.1613  0.1965
 5080SOL    HW126702   3.215   0.680   5.409 -0.2575 -0.0181 -1.7493
 5080SOL    HW226703   3.102   0.584   5.436  0.0753 -2.5030 -2.6958
 5081SOL     OW26704   1.982   3.292   8.105  0.5099 -0.7664  0.3114
 5081SOL    HW126705   1.909   3.239   8.136 -0.1854  0.2544  0.4231
 5081SOL    HW226706   1.929   3.360   8.062  1.1368 -2.4012 -3.1041
 5082SOL     OW26707   2.171   0.564   7.066  0.0867 -0.4942 -0.2445
 5082SOL    HW126708   2.231   0.624   7.021 -1.3759  0.9880 -0.2347
 5082SOL    HW226709   2.144   0.613   7.144 -2.3193 -1.3636 -0.5405
 5083SOL     OW26710   2.392   3.747   7.706  0.5379 -0.1284  0.4146
 5083SOL    HW126711   2.372   3.655   7.694 -0.7948  0.3166 -0.7982
 5083SOL    HW226712   2.372   3.758   7.799  0.1864 -0.2744  0.3564
 5084SOL     OW26713   4.000   3.239   1.720  0.0808 -0.2646 -0.5608
 5084SOL    HW126714   4.063   3.210   1.654  1.1512 -2.7145  1.5392
 5084SOL    HW226715   3.947   3.159   1.719 -0.0282 -0.1743 -1.4923
 5085SOL     OW26716   1.615   4.120   8.207  0.5644  0.4093 -0.0236
 5085SOL    HW126717   1.708   4.095   8.204  0.6817  0.8120  0.2975
 5085SOL    HW226718   1.596   4.110   8.114 -0.4591  1.3703  0.0967
 5086SOL     OW26719   0.502   1.945   4.120  0.6026 -0.0448  0.1884
 5086SOL    HW126720   0.472   1.926   4.031  0.4060  0.5192  0.1332
 5086SOL    HW226721   0.581   1.995   4.101 -0.2953  1.6921  1.0984
 5087SOL     OW26722   0.917   1.111   5.482  0.3175  0.0569 -0.9542
 5087SOL    HW126723   0.959   1.048   5.541 -1.9283 -1.2171 -0.7093
 5087SOL    HW226724   0.828   1.076   5.473  0.5376 -0.6442 -0.3900
 5088SOL     OW26725   3.229   1.711   3.357  0.1203  0.3184  0.5735
 5088SOL    HW126726   3.182   1.791   3.382  3.2539  2.6467 -0.8487
 5088SOL    HW226727   3.262   1.733   3.270  0.8830  2.4668  1.3757
 5089SOL     OW26728   0.544   3.853  13.728  0.0355 -0.3302  0.0836
 5089SOL    HW126729   0.511   3.872  13.640 -0.3521  0.4931  0.4166
 5089SOL    HW226730   0.467   3.815  13.769 -0.3307  1.1271  0.7268
 5090SOL     OW26731   0.436   3.991   0.724  0.3449 -0.4137 -0.0929
 5090SOL    HW126732   0.466   3.909   0.763  0.0257  1.0249  3.2043
 5090SOL    HW226733   0.522   4.027   0.703 -0.3412  1.4104  0.1446
 5091SOL     OW26734   0.290   0.352   8.749 -0.0196 -0.0365  0.1086
 5091SOL    HW126735   0.342   0.320   8.823 -1.3010  0.0474  1.0565
 5091SOL    HW226736   0.211   0.299   8.756 -0.2694  0.2684 -0.4334
 5092SOL     OW26737   2.529   1.545   0.924 -0.5928 -0.0254 -0.0677
 5092SOL    HW126738   2.604   1.535   0.866 -0.1535  2.3314  0.1091
 5092SOL    HW226739   2.498   1.455   0.935  0.0277 -0.5683 -2.7706
 5093SOL     OW26740   0.144   1.879   5.776 -0.0024 -0.8340 -0.1237
 5093SOL    HW126741   0.106   1.961   5.804  3.0691  0.5106  0.1348
 5093SOL    HW226742   0.233   1.902   5.802  0.4307 -0.2606 -2.0794
 5094SOL     OW26743   0.580   2.266   4.483 -0.3793  0.2020  0.9568
 5094SOL    HW126744   0.581   2.360   4.463 -1.0583  0.2057  0.9416
 5094SOL    HW226745   0.488   2.241   4.490 -0.2612 -0.4270  0.3721
 5095SOL     OW26746   1.450   3.765   7.192 -0.3655  0.0958 -0.1389
 5095SOL    HW126747   1.403   3.847   7.181 -1.7808 -0.5532  1.0402
 5095SOL    HW226748   1.400   3.722   7.261  0.9135 -0.0440  0.7109
 5096SOL     OW26749   1.558   1.414  16.796  0.3785 -0.2747  0.0252
 5096SOL    HW126750   1.518   1.495  16.766 -0.7749 -0.9161 -0.1729
 5096SOL    HW226751   1.482   1.359  16.813 -0.8060  2.1137  2.4304
 5097SOL     OW26752   4.545   3.075   2.429  0.5482  0.2156  0.2538
 5097SOL    HW126753   4.563   3.139   2.360 -1.6403  0.9161  0.3605
 5097SOL    HW226754   4.537   3.132   2.506 -1.6225  0.0454  0.1314
 5098SOL     OW26755   0.060   1.826   0.280 -0.4485  0.6993  0.2145
 5098SOL    HW126756   0.009   1.746   0.276 -1.3881  1.2413  1.4011
 5098SOL    HW226757   0.058   1.837   0.375  1.6550 -0.2246  0.3655
 5099SOL     OW26758   3.662   0.594   5.502 -0.1237  1.2489  0.3896
 5099SOL    HW126759   3.660   0.523   5.438  0.0139 -0.0445  1.8260
 5099SOL    HW226760   3.586   0.576   5.557  0.1782 -0.1264  0.3428
 5100SOL     OW26761   0.129   2.501  11.199  0.3085 -0.2945  0.2180
 5100SOL    HW126762   0.214   2.542  11.217  0.5211  0.6014 -2.8761
 5100SOL    HW226763   0.149   2.412  11.227 -3.9221  0.0379  4.3288
 5101SOL     OW26764   0.050   1.725   6.779  0.3626 -0.2080  0.0589
 5101SOL    HW126765   0.097   1.651   6.742  0.3285 -0.5623  0.7282
 5101SOL    HW226766   0.120   1.790   6.769 -0.7477  1.0684  0.4939
 5102SOL     OW26767   4.566   4.439   0.778  0.6041 -0.1124  0.4023
 5102SOL    HW126768   4.562   4.516   0.835 -0.9548  1.3425 -1.6850
 5102SOL    HW226769   4.627   4.474   0.713 -0.0404  1.0922  0.4546
 5103SOL     OW26770   0.956   1.117   9.398  0.2157 -0.4506  0.5623
 5103SOL    HW126771   0.987   1.030   9.424  0.8896  0.1386  1.7386
 5103SOL    HW226772   1.036   1.170   9.407 -1.1313  1.2158  2.7832
 5104SOL     OW26773   2.571   0.263   9.332 -0.1564 -0.0921 -0.4083
 5104SOL    HW126774   2.664   0.248   9.344  0.0341  0.1708 -1.5301
 5104SOL    HW226775   2.542   0.175   9.305 -0.7945  0.1971 -0.6613
 5105SOL     OW26776   4.008   2.774  17.597 -0.4400 -0.7446  0.2104
 5105SOL    HW126777   3.939   2.785  17.531 -0.2194 -0.9378 -0.0536
 5105SOL    HW226778   3.956   2.755  17.675  1.5349 -1.0178  1.4440
 5106SOL     OW26779   3.315   1.763   7.536 -0.6031  0.0941 -0.6256
 5106SOL    HW126780   3.354   1.733   7.454  0.2314  1.0519 -0.5855
 5106SOL    HW226781   3.231   1.720   7.524  0.1764 -1.0956 -1.7835
 5107SOL     OW26782   1.304   3.951   8.633  0.5988 -0.3635 -0.4559
 5107SOL    HW126783   1.242   3.892   8.590 -1.4914  1.1423  0.5076
 5107SOL    HW226784   1.303   4.012   8.559  0.8193  0.9412  0.5983
 5108SOL     OW26785   1.480   4.149  12.239 -0.5190 -0.1243 -0.0453
 5108SOL    HW126786   1.536   4.080  12.206  1.7536  1.1427  1.1490
 5108SOL    HW226787   1.399   4.143  12.189 -0.6914 -2.4184  0.5196
 5109SOL     OW26788   3.319   2.218   6.009 -0.0536  0.1987  0.1927
 5109SOL    HW126789   3.227   2.199   6.025  0.2599 -0.5282  1.1860
 5109SOL    HW226790   3.311   2.287   5.944  2.7039  0.3882  0.0466
 5110SOL     OW26791   4.295   0.339  15.814  0.2887 -0.2005  0.0604
 5110SOL    HW126792   4.272   0.400  15.745  2.3452 -0.9282 -1.2658
 5110SOL    HW226793   4.338   0.402  15.872 -0.2712  0.2659 -0.0421
 5111SOL     OW26794   0.398   0.393   4.300  0.3921  0.1865  0.3912
 5111SOL    HW126795   0.346   0.469   4.323 -0.7129 -0.4518 -0.0106
 5111SOL    HW226796   0.373   0.342   4.377  0.1256  1.4186  1.1095
 5112SOL     OW26797   4.090   3.672   7.720  0.0811  0.3873  0.0743
 5112SOL    HW126798   4.038   3.688   7.641  1.1232 -1.5282 -1.0211
 5112SOL    HW226799   4.063   3.583   7.744  1.4648 -0.8640 -3.0335
 5113SOL     OW26800   4.454   0.868   0.509  0.2448  0.3976  0.2300
 5113SOL    HW126801   4.489   0.825   0.431  0.6663 -1.3428  1.3850
 5113SOL    HW226802   4.541   0.881   0.549 -0.0866  1.7097  0.5449
 5114SOL     OW26803   3.904   0.473   8.687  0.3315 -0.5582 -0.0944
 5114SOL    HW126804   3.875   0.483   8.596  0.5296  0.6210 -0.0387
 5114SOL    HW226805   3.980   0.531   8.688  0.7538 -1.1238  0.4691
 5115SOL     OW26806   4.308   3.363  11.501  0.2442 -0.0645 -0.2060
 5115SOL    HW126807   4.218   3.332  11.489 -0.1903  0.6601  1.2572
 5115SOL    HW226808   4.307   3.450  11.462 -0.3737 -0.1733 -0.4224
 5116SOL     OW26809   3.696   2.425  10.627  0.1471  0.3965 -0.2308
 5116SOL    HW126810   3.665   2.379  10.705 -0.4204  1.4069  0.1457
 5116SOL    HW226811   3.615   2.431  10.576  0.8115  1.7329 -1.1077
 5117SOL     OW26812   4.199   4.396   7.953  0.5166  0.8443  0.1286
 5117SOL    HW126813   4.287   4.379   7.988 -0.2325 -1.5600  0.8210
 5117SOL    HW226814   4.175   4.446   8.031  1.5727  0.7661  0.5109
 5118SOL     OW26815   3.639   0.243   5.670 -0.6913 -0.4504  0.2077
 5118SOL    HW126816   3.543   0.252   5.669 -0.8013 -1.8880 -0.8563
 5118SOL    HW226817   3.644   0.155   5.633  1.0067 -0.4119  0.3545
 5119SOL     OW26818   1.401   4.309   5.980 -0.0917  0.0911 -0.4325
 5119SOL    HW126819   1.395   4.393   6.025 -1.1987  1.4873 -3.1678
 5119SOL    HW226820   1.475   4.325   5.922 -0.3278  1.4539 -0.3577
 5120SOL     OW26821   3.224   1.992   7.118 -0.0544 -0.2039 -0.2628
 5120SOL    HW126822   3.253   2.014   7.207  0.8962 -1.1292 -0.3318
 5120SOL    HW226823   3.275   1.912   7.103  0.7259 -0.0822  1.6839
 5121SOL     OW26824   1.716   3.614  17.642 -0.0906  0.0295 -0.2861
 5121SOL    HW126825   1.623   3.637  17.639  0.6846  3.2077 -0.6612
 5121SOL    HW226826   1.758   3.693  17.675  0.6987  0.3844 -2.1364
 5122SOL     OW26827   3.714   1.878  10.570 -0.7870 -1.2563  0.3565
 5122SOL    HW126828   3.718   1.974  10.571 -0.0081 -1.2617 -1.2774
 5122SOL    HW226829   3.627   1.865  10.607 -0.1150 -2.3388  1.5671
 5123SOL     OW26830   0.488   2.702   8.376  0.5332  0.0210  0.3431
 5123SOL    HW126831   0.432   2.755   8.432  0.2111 -0.9547  0.9525
 5123SOL    HW226832   0.430   2.647   8.323 -0.2760  1.0961  0.1192
 5124SOL     OW26833   3.112   4.287   6.044  0.1997  0.1160 -0.1804
 5124SOL    HW126834   3.176   4.244   6.102  0.4817  0.1895 -0.4386
 5124SOL    HW226835   3.136   4.373   6.078  1.2456 -0.2109 -0.0905
 5125SOL     OW26836   1.735   3.943   8.414  0.2169 -0.2717  0.1788
 5125SOL    HW126837   1.654   3.904   8.381  1.8254 -1.7048 -2.1122
 5125SOL    HW226838   1.788   3.948   8.334 -1.3684  2.5062 -0.6830
 5126SOL     OW26839   0.941   3.435   2.163  0.2306  0.3495 -0.5299
 5126SOL    HW126840   0.868   3.440   2.102  0.7744  0.9295 -1.1217
 5126SOL    HW226841   0.954   3.340   2.159  0.7835  0.4538 -1.2284
 5127SOL     OW26842   3.131   3.769   4.175 -0.5041  0.6930  0.5893
 5127SOL    HW126843   3.152   3.764   4.082  0.9136 -1.3710  1.0439
 5127SOL    HW226844   3.105   3.678   4.186  0.5888  0.3705  0.4723
 5128SOL     OW26845   0.572   1.769   9.312  0.3839 -0.7141  0.0487
 5128SOL    HW126846   0.631   1.767   9.237 -0.3270 -1.6997 -0.4914
 5128SOL    HW226847   0.626   1.788   9.388  0.7784  0.6317 -0.5668
 5129SOL     OW26848   0.306   2.787  14.583 -0.2168 -0.0397 -0.2092
 5129SOL    HW126849   0.227   2.836  14.605 -0.4029 -0.6540  0.4978
 5129SOL    HW226850   0.335   2.752  14.667 -0.5151 -0.5893 -0.3292
 5130SOL     OW26851   0.810   0.655  16.119  0.3077  0.0314  0.0167
 5130SOL    HW126852   0.885   0.713  16.134 -0.2294  1.0673 -1.2609
 5130SOL    HW226853   0.742   0.722  16.115 -3.2879 -3.5928  1.5208
 5131SOL     OW26854   2.689   0.270  10.016 -0.5610  0.2678 -0.1360
 5131SOL    HW126855   2.619   0.291  10.078 -0.2615  2.1391 -0.4384
 5131SOL    HW226856   2.699   0.177  10.038  1.5596  0.2453 -1.2272
 5132SOL     OW26857   1.257   4.684   6.785 -0.3331  0.3950  0.9328
 5132SOL    HW126858   1.339   0.004   6.753 -0.5944  1.5029  1.5647
 5132SOL    HW226859   1.199   0.026   6.739  0.4285  0.2218 -0.2282
 5133SOL     OW26860   0.824   3.187   5.217 -0.1170  0.0792  0.4197
 5133SOL    HW126861   0.809   3.222   5.129  1.8003 -1.6966 -0.6030
 5133SOL    HW226862   0.913   3.220   5.224 -0.5297  0.8673  2.1090
 5134SOL     OW26863   0.571   2.782   3.848 -0.1313  0.2133 -0.1693
 5134SOL    HW126864   0.494   2.838   3.845  1.5409  2.4035 -2.6522
 5134SOL    HW226865   0.567   2.751   3.938  1.2261  1.7562  0.4136
 5135SOL     OW26866   1.724   4.606   5.956 -0.4932 -0.2266 -0.4159
 5135SOL    HW126867   1.705   4.607   5.863  1.4158 -2.2486 -0.8107
 5135SOL    HW226868   1.637   4.631   5.988  0.0041 -0.5729  1.2208
 5136SOL     OW26869   0.360   3.436   0.574  0.1175 -0.2693 -0.3991
 5136SOL    HW126870   0.298   3.364   0.561 -0.7828  0.1522  1.5788
 5136SOL    HW226871   0.372   3.415   0.666 -0.1778 -0.7851 -0.4753
 5137SOL     OW26872   4.711   3.301   1.511 -0.3680  0.5712  0.4928
 5137SOL    HW126873   0.011   3.290   1.418 -0.2172 -0.7258  0.6802
 5137SOL    HW226874   4.620   3.269   1.512  0.4565 -1.8447 -1.2105
 5138SOL     OW26875   1.541   0.302  15.245 -0.2640 -0.0687 -0.3618
 5138SOL    HW126876   1.585   0.232  15.294  0.0836  3.1689  3.9398
 5138SOL    HW226877   1.518   0.243  15.173 -1.0772 -0.5045  0.2544
 5139SOL     OW26878   2.563   1.430   8.485  0.4318  0.2452  0.4486
 5139SOL    HW126879   2.526   1.408   8.571 -0.8441  0.8229  0.0444
 5139SOL    HW226880   2.520   1.373   8.422  2.3401 -1.1060  0.3580
 5140SOL     OW26881   1.344   3.801   6.268  0.3732 -0.1057  0.7443
 5140SOL    HW126882   1.407   3.774   6.336  1.4383  0.9614  0.1879
 5140SOL    HW226883   1.274   3.737   6.279 -0.8084  1.1490  0.4740
 5141SOL     OW26884   3.196   3.229   4.551  0.8136  0.2304  0.3148
 5141SOL    HW126885   3.224   3.207   4.640  0.6377 -1.5377 -0.0566
 5141SOL    HW226886   3.234   3.316   4.541  0.8895  0.3195  1.3903
 5142SOL     OW26887   3.840   1.169   1.665  0.2284  0.1617 -0.5466
 5142SOL    HW126888   3.771   1.186   1.600  0.3130 -1.1427 -0.9881
 5142SOL    HW226889   3.843   1.074   1.649  3.3143  0.4132 -1.3314
 5143SOL     OW26890   2.089   3.186  12.349 -0.3698 -0.3547  0.0249
 5143SOL    HW126891   2.161   3.125  12.362  0.8242  1.0188 -0.2726
 5143SOL    HW226892   2.131   3.261  12.308 -2.1421  0.7321  0.2010
 5144SOL     OW26893   1.972   1.115  16.717  0.0957  0.1545 -0.4495
 5144SOL    HW126894   2.017   1.198  16.734 -0.0323  0.1616 -0.1414
 5144SOL    HW226895   1.888   1.155  16.696 -0.3469  0.1718  1.3331
 5145SOL     OW26896   2.897   2.114   6.530  0.1206  0.6444 -0.2379
 5145SOL    HW126897   2.915   2.043   6.590  1.6589  0.5414 -0.8145
 5145SOL    HW226898   2.959   2.092   6.460 -1.2143 -1.0290 -0.8959
 5146SOL     OW26899   3.282   1.565   3.784  0.5520 -0.2269  0.4348
 5146SOL    HW126900   3.353   1.616   3.821  3.2096 -3.1648 -0.6174
 5146SOL    HW226901   3.250   1.519   3.862 -0.4668 -0.9172 -0.3733
 5147SOL     OW26902   0.964   3.902   3.233  0.8478  0.0831  0.2137
 5147SOL    HW126903   0.881   3.906   3.186 -0.7621 -1.4385  2.9456
 5147SOL    HW226904   1.026   3.940   3.170 -1.3602 -1.5238 -2.9221
 5148SOL     OW26905   1.170   2.286   0.731 -0.2824  0.1764 -0.3726
 5148SOL    HW126906   1.084   2.254   0.705 -0.7824  1.1764  0.0597
 5148SOL    HW226907   1.149   2.357   0.791  0.0695  1.1867 -1.4603
 5149SOL     OW26908   0.881   3.426   6.975  0.0949 -0.0306 -0.2536
 5149SOL    HW126909   0.838   3.357   6.924  0.8617 -2.7860  2.8443
 5149SOL    HW226910   0.958   3.449   6.923 -0.7623 -0.8044 -1.8433
 5150SOL     OW26911   2.020   4.204   3.603 -0.4110 -0.4284 -0.0290
 5150SOL    HW126912   1.996   4.124   3.557 -0.5988 -0.4519  0.1119
 5150SOL    HW226913   1.960   4.256   3.550  1.1229  2.1654  0.7491
 5151SOL     OW26914   4.394   3.130   8.369  0.0245 -0.0839  0.0867
 5151SOL    HW126915   4.331   3.192   8.333 -1.2055 -1.4485 -0.1064
 5151SOL    HW226916   4.396   3.153   8.462  4.9505 -2.3371  0.5047
 5152SOL     OW26917   2.361   2.654   7.514 -0.4322 -0.6756 -0.1549
 5152SOL    HW126918   2.428   2.604   7.561 -1.0733 -1.3572  0.0524
 5152SOL    HW226919   2.320   2.703   7.585 -0.3777 -2.5053  1.1572
 5153SOL     OW26920   4.556   3.459  11.686 -0.0398 -0.2783  0.0703
 5153SOL    HW126921   4.468   3.446  11.649  0.9009 -0.3210 -2.1729
 5153SOL    HW226922   4.595   3.409  11.614 -1.0794 -0.9268 -0.0440
 5154SOL     OW26923   0.191   4.561   1.656 -0.4064 -0.7754 -0.4718
 5154SOL    HW126924   0.096   4.560   1.645 -0.6689  0.9797  1.4979
 5154SOL    HW226925   0.189   4.493   1.724 -0.3404  0.9716  1.2785
 5155SOL     OW26926   1.130   2.999   4.844  0.4988  0.1829 -0.1937
 5155SOL    HW126927   1.091   3.058   4.779  0.6191  1.4334  0.8801
 5155SOL    HW226928   1.190   3.057   4.890  1.5351  0.8144 -2.3520
 5156SOL     OW26929   3.966   1.979  11.584  0.3724  0.1161  0.0251
 5156SOL    HW126930   3.874   2.000  11.569  0.3620  0.7231  0.9484
 5156SOL    HW226931   3.961   1.902  11.640  2.7708 -0.5171 -0.6545
 5157SOL     OW26932   0.597   2.983   6.021 -0.4093  0.7450  0.2783
 5157SOL    HW126933   0.598   3.032   6.103  1.0517  3.2211 -1.2189
 5157SOL    HW226934   0.502   2.986   6.008 -0.4493  1.8463  0.7993
 5158SOL     OW26935   2.216   1.940   4.054  0.1440 -0.1273  0.4237
 5158SOL    HW126936   2.300   1.906   4.023 -0.5717 -1.0277 -0.5076
 5158SOL    HW226937   2.241   1.978   4.138  2.7671  1.7663 -1.2331
 5159SOL     OW26938   1.197   3.674  14.687  0.5246 -0.3262  0.4751
 5159SOL    HW126939   1.284   3.648  14.657  0.0315  1.2586 -2.3252
 5159SOL    HW226940   1.163   3.601  14.739 -2.1417  1.6443  1.5104
 5160SOL     OW26941   4.249   4.442   4.955  0.0763 -0.1867 -0.7933
 5160SOL    HW126942   4.283   4.400   5.034 -0.4191 -0.6754 -0.8422
 5160SOL    HW226943   4.268   4.533   4.980  2.7234 -1.4024  1.6503
 5161SOL     OW26944   1.592   1.760   9.090  0.4255  0.1568 -0.4465
 5161SOL    HW126945   1.577   1.669   9.114 -0.3040  0.2140 -0.6598
 5161SOL    HW226946   1.508   1.801   9.114  1.1418  2.1202 -1.3280
 5162SOL     OW26947   3.791   3.007  14.385  0.4913 -0.0893  0.1992
 5162SOL    HW126948   3.719   2.993  14.447  1.6040  3.1001  2.1950
 5162SOL    HW226949   3.866   3.012  14.444  1.3031 -0.1540 -0.8314
 5163SOL     OW26950   1.108   2.659   2.657 -0.3749 -0.2549 -0.2134
 5163SOL    HW126951   1.050   2.731   2.632 -1.5906 -0.6359  1.4999
 5163SOL    HW226952   1.081   2.666   2.749  1.1184  2.9760 -0.0520
 5164SOL     OW26953   4.535   1.687   7.624  0.3055 -0.6969 -0.2654
 5164SOL    HW126954   4.532   1.767   7.677  1.0026 -1.4410  0.8938
 5164SOL    HW226955   4.562   1.620   7.687  0.4058 -0.2422  0.1730
 5165SOL     OW26956   4.192   1.951   3.104  0.2253  0.7236 -0.1190
 5165SOL    HW126957   4.248   1.879   3.134 -0.8352 -0.8114 -1.7834
 5165SOL    HW226958   4.215   2.023   3.162  1.2391 -1.8588  2.7052
 5166SOL     OW26959   0.005   1.626  10.165  0.1945  0.0912 -0.0379
 5166SOL    HW126960   4.655   1.630  10.232 -0.3311  1.7536 -0.6787
 5166SOL    HW226961   4.676   1.675  10.097 -0.1189 -3.1855 -2.1580
 5167SOL     OW26962   4.475   3.989   0.521  0.6473 -0.5010  0.1472
 5167SOL    HW126963   4.513   4.075   0.537  1.6007 -0.9061  0.0645
 5167SOL    HW226964   4.548   3.935   0.490  1.1459  0.7782 -0.8761
 5168SOL     OW26965   2.537   2.557   3.579  0.1061  1.1126 -0.2958
 5168SOL    HW126966   2.574   2.571   3.666  0.0258 -1.5538  0.1751
 5168SOL    HW226967   2.614   2.508   3.552 -0.8338 -0.9284  0.6977
 5169SOL     OW26968   0.869   3.073   7.915  0.2529  0.0192  0.3282
 5169SOL    HW126969   0.905   3.159   7.893 -1.1515  0.3577 -0.6078
 5169SOL    HW226970   0.853   3.035   7.830  1.3857 -1.7161  0.8909
 5170SOL     OW26971   3.273   2.999   2.535  0.2648  0.1650  0.7444
 5170SOL    HW126972   3.318   2.918   2.511 -1.2180 -0.6039  0.5743
 5170SOL    HW226973   3.311   3.019   2.621 -0.1589 -1.1537  1.2385
 5171SOL     OW26974   2.690   1.700  13.465  0.5012  0.6318 -0.4241
 5171SOL    HW126975   2.651   1.755  13.533 -1.7502  0.2758 -1.4572
 5171SOL    HW226976   2.740   1.629  13.506 -1.0725 -0.1809  0.0538
 5172SOL     OW26977   1.671   3.230   0.910 -0.0520  0.2766  0.1775
 5172SOL    HW126978   1.642   3.310   0.954 -0.5717  0.0840  0.1781
 5172SOL    HW226979   1.673   3.166   0.982  2.4852 -1.4952 -1.4437
 5173SOL     OW26980   1.510   0.724   7.902 -0.2389 -0.0906  0.2039
 5173SOL    HW126981   1.417   0.706   7.885  0.1491 -2.1121  0.3086
 5173SOL    HW226982   1.551   0.683   7.826 -1.7423 -0.2052 -0.5361
 5174SOL     OW26983   4.340   4.691   2.245 -0.0709 -0.0577 -0.0325
 5174SOL    HW126984   4.354   4.704   2.151 -1.0977  1.3749  0.0224
 5174SOL    HW226985   4.382   0.053   2.274  1.1945  0.2491 -2.6619
 5175SOL     OW26986   2.098   0.595   0.480 -0.6043 -0.0232 -0.5413
 5175SOL    HW126987   2.051   0.602   0.563  1.0905  1.7382  0.2744
 5175SOL    HW226988   2.159   0.668   0.491  1.5777 -1.7671 -0.9352
 5176SOL     OW26989   3.701   1.603   8.881 -0.5725  0.4264  0.2810
 5176SOL    HW126990   3.632   1.653   8.837  0.6031  0.9089 -1.0250
 5176SOL    HW226991   3.754   1.673   8.919 -0.9218  2.3885 -2.8295
 5177SOL     OW26992   0.047   4.596   0.665 -0.1676  0.0205  0.1770
 5177SOL    HW126993   0.111   4.624   0.599  0.8472 -0.8909  0.7814
 5177SOL    HW226994   0.098   4.598   0.745  1.0397 -2.5491 -0.5437
 5178SOL     OW26995   3.413   3.150   6.625 -0.3904 -0.4943  0.6915
 5178SOL    HW126996   3.457   3.107   6.552 -0.0533  2.9111 -1.1190
 5178SOL    HW226997   3.375   3.234   6.597  1.6027  0.3721  0.6121
 5179SOL     OW26998   3.904   1.663  14.089  0.3146  0.0598  0.6673
 5179SOL    HW126999   3.947   1.740  14.125 -0.3071 -0.1198  1.7837
 5179SOL    HW227000   3.919   1.659  13.995 -3.2354  0.7032  0.0621
 5180SOL     OW27001   3.829   3.926   9.094  0.1757 -0.3471  0.2048
 5180SOL    HW127002   3.817   4.007   9.045 -3.1046 -0.1380  1.3604
 5180SOL    HW227003   3.740   3.910   9.125  1.4787 -0.8703  3.7423
 5181SOL     OW27004   3.319   4.031   2.713 -0.0247 -0.0536 -0.3392
 5181SOL    HW127005   3.413   4.041   2.696 -0.2162  0.9306 -0.8384
 5181SOL    HW227006   3.311   4.090   2.787  1.0784 -0.1498 -0.1325
 5182SOL     OW27007   4.542   1.693   1.821 -0.2441 -0.4028 -0.0230
 5182SOL    HW127008   4.564   1.759   1.888  1.3587 -0.9823  0.0367
 5182SOL    HW227009   4.476   1.728   1.762 -0.7706  1.3421  1.5940
 5183SOL     OW27010   0.990   0.726   9.722 -0.1503  0.0728  0.9205
 5183SOL    HW127011   0.922   0.760   9.780 -0.5934  0.9153 -0.0932
 5183SOL    HW227012   1.048   0.671   9.774 -2.3802 -3.2236 -0.0647
 5184SOL     OW27013   4.714   0.568  16.002  0.4266 -0.2030  0.8304
 5184SOL    HW127014   0.063   0.499  16.007  2.7413  2.0201  0.6051
 5184SOL    HW227015   0.045   0.649  16.016 -2.3759  1.2242  2.1691
 5185SOL     OW27016   1.197   1.440   0.664 -0.1843  0.0886  0.1583
 5185SOL    HW127017   1.159   1.391   0.591 -0.0556 -2.2900  1.6897
 5185SOL    HW227018   1.274   1.387   0.688 -0.7581 -0.1167  1.5677
 5186SOL     OW27019   0.131   0.565   2.982 -0.4586 -0.1499  0.0520
 5186SOL    HW127020   0.091   0.630   3.040 -0.0797 -1.0497  1.3287
 5186SOL    HW227021   0.089   0.485   3.016  0.3218 -0.4732  0.2401
 5187SOL     OW27022   2.971   0.335   9.614  0.3705 -0.8446 -0.0419
 5187SOL    HW127023   3.014   0.271   9.671 -1.9500 -1.5573  0.8865
 5187SOL    HW227024   2.878   0.320   9.625  0.3107 -2.2876 -2.5296
 5188SOL     OW27025   3.262   2.447   3.065  0.1156 -0.1891  0.7240
 5188SOL    HW127026   3.257   2.416   2.975  3.0076 -0.4701  0.6683
 5188SOL    HW227027   3.175   2.474   3.097 -0.6999 -1.2206 -0.5940
 5189SOL     OW27028   2.293   2.866  13.392 -0.4702  0.0470  0.7169
 5189SOL    HW127029   2.383   2.843  13.411  0.0545 -0.2748 -2.1318
 5189SOL    HW227030   2.276   2.924  13.466 -3.0046 -1.6180  1.4522
 5190SOL     OW27031   3.981   3.530   6.491  0.3887  0.0326 -0.1091
 5190SOL    HW127032   4.009   3.506   6.579  0.9126 -0.7796 -0.5016
 5190SOL    HW227033   3.940   3.612   6.519 -0.9472 -1.0063  0.9395
 5191SOL     OW27034   0.706   1.682   7.502  0.4267  0.0239 -0.4277
 5191SOL    HW127035   0.762   1.679   7.580  1.5517 -0.1734 -1.2448
 5191SOL    HW227036   0.682   1.775   7.502  1.2527  0.2369 -0.5223
 5192SOL     OW27037   2.093   0.475  16.442 -0.4287 -0.0961  0.6826
 5192SOL    HW127038   2.128   0.430  16.519 -1.5650 -1.4225  0.4009
 5192SOL    HW227039   2.021   0.419  16.414 -0.1036  0.7124 -1.7898
 5193SOL     OW27040   1.882   1.357   8.162 -0.0407  0.3007 -0.3714
 5193SOL    HW127041   1.873   1.351   8.257 -2.2788  0.9157 -0.5439
 5193SOL    HW227042   1.837   1.277   8.135 -0.5382  0.1739  0.8557
 5194SOL     OW27043   2.974   0.275  15.614 -0.1185 -0.3595 -0.0723
 5194SOL    HW127044   3.068   0.258  15.616 -0.3447 -1.7281 -1.0007
 5194SOL    HW227045   2.934   0.197  15.652  1.3183 -2.1880 -2.3227
 5195SOL     OW27046   0.554   0.782   3.496  0.2940 -0.5650  0.0223
 5195SOL    HW127047   0.638   0.826   3.511  0.1584  0.6893 -2.9198
 5195SOL    HW227048   0.573   0.688   3.498 -1.0585 -0.8184  0.2799
 5196SOL     OW27049   2.893   4.153   9.136  0.3563  0.5869  0.4307
 5196SOL    HW127050   2.965   4.212   9.157  1.5978 -0.2455 -1.5784
 5196SOL    HW227051   2.923   4.121   9.051 -1.0581  1.2853 -0.3339
 5197SOL     OW27052   1.212   4.367  12.176 -0.9917  0.2785  0.1523
 5197SOL    HW127053   1.182   4.393  12.263 -0.2130  2.0864 -0.1258
 5197SOL    HW227054   1.248   4.451  12.147  1.9320 -0.6102  1.0947
 5198SOL     OW27055   2.337   4.330   4.268 -0.3232 -0.4143 -0.3649
 5198SOL    HW127056   2.430   4.355   4.266 -0.6833  0.8042 -1.6240
 5198SOL    HW227057   2.331   4.344   4.363 -0.4556 -0.3778 -0.3794
 5199SOL     OW27058   3.906   1.314   2.337 -0.2282 -0.0372 -0.3347
 5199SOL    HW127059   3.877   1.402   2.315  1.2386  0.7909  0.9735
 5199SOL    HW227060   3.964   1.296   2.264 -0.8659 -1.2471 -0.5592
 5200SOL     OW27061   2.287   0.809   8.711  0.5048 -0.7480  0.1633
 5200SOL    HW127062   2.275   0.716   8.695 -2.7316 -0.0389 -1.4013
 5200SOL    HW227063   2.235   0.846   8.640  1.5444 -0.4601 -0.4520
 5201SOL     OW27064   4.251   0.233  14.511 -0.4132  0.0060 -0.2154
 5201SOL    HW127065   4.212   0.149  14.532  1.5542 -0.8895 -0.0769
 5201SOL    HW227066   4.327   0.226  14.569  1.0539  0.2670 -2.0682
 5202SOL     OW27067   0.253   1.033   7.264  0.4627 -0.0685  0.3982
 5202SOL    HW127068   0.240   0.947   7.305  1.6940  0.8799  2.7733
 5202SOL    HW227069   0.236   1.016   7.171  1.4257 -2.3063  0.6375
 5203SOL     OW27070   2.031   0.641   2.732 -0.0992  0.1602 -0.1834
 5203SOL    HW127071   1.993   0.616   2.648 -1.5435  0.9072  0.2394
 5203SOL    HW227072   1.963   0.608   2.790 -1.1034 -0.9910 -2.0203
 5204SOL     OW27073   2.601   3.895   1.795  0.0147 -0.8476  0.1961
 5204SOL    HW127074   2.536   3.900   1.724 -1.4316  3.5026  1.8070
 5204SOL    HW227075   2.551   3.838   1.854  0.2219 -0.7471  0.4660
 5205SOL     OW27076   1.086   1.060  13.518 -0.0574 -0.0004  0.4636
 5205SOL    HW127077   1.171   1.068  13.475 -0.1854  0.0685  0.2236
 5205SOL    HW227078   1.026   1.107  13.461 -0.5590 -3.3976 -1.7726
 5206SOL     OW27079   0.998   2.782   7.148  0.0309  0.3050 -0.4059
 5206SOL    HW127080   1.093   2.789   7.135  0.4235 -2.9592  0.5908
 5206SOL    HW227081   0.982   2.859   7.202 -1.8906  0.9105 -1.8559
 5207SOL     OW27082   4.361   1.523  12.616 -0.2471 -0.1211 -0.2108
 5207SOL    HW127083   4.343   1.471  12.694 -2.3865  1.1665  0.1605
 5207SOL    HW227084   4.278   1.565  12.593 -0.6732  0.3228  2.1555
 5208SOL     OW27085   0.174   0.637   8.289  0.2315  0.7005 -0.0287
 5208SOL    HW127086   0.244   0.683   8.243  2.1994 -1.4499  0.8149
 5208SOL    HW227087   0.176   0.675   8.376 -2.8181 -0.9242  0.7182
 5209SOL     OW27088   3.308   0.930   9.451  0.1421 -0.1067  0.3887
 5209SOL    HW127089   3.271   0.872   9.518  0.6971 -1.5369 -0.5439
 5209SOL    HW227090   3.274   1.018   9.468 -2.0736 -1.0142  0.7258
 5210SOL     OW27091   3.312   0.047   9.450 -0.0045 -0.4718 -0.0367
 5210SOL    HW127092   3.237   4.708   9.467 -1.6131  1.5265 -0.4046
 5210SOL    HW227093   3.294   0.113   9.517 -0.3661  1.1260 -1.7012
 5211SOL     OW27094   1.858   3.216   7.018  0.3325  0.2219  0.5852
 5211SOL    HW127095   1.764   3.202   7.006  0.5167  0.0901 -0.7849
 5211SOL    HW227096   1.863   3.291   7.078  1.1310  0.9820 -0.4269
 5212SOL     OW27097   1.899   3.734   8.513  0.2560  0.1499 -0.6257
 5212SOL    HW127098   1.852   3.806   8.472 -0.2868 -0.2706 -0.7397
 5212SOL    HW227099   1.862   3.651   8.485  0.4621  0.4050 -1.6588
 5213SOL     OW27100   4.143   0.467   8.348  0.2236 -0.0961 -0.9702
 5213SOL    HW127101   4.185   0.412   8.415  2.9801  1.0253 -1.7908
 5213SOL    HW227102   4.222   0.481   8.296  0.8820 -1.8289 -0.4694
 5214SOL     OW27103   4.511   0.393   0.807  0.7512  0.1543 -0.1429
 5214SOL    HW127104   4.468   0.411   0.723  0.6618  0.4557 -0.0344
 5214SOL    HW227105   4.560   0.474   0.823  1.9059 -0.3763 -1.0216
 5215SOL     OW27106   3.703   3.876   2.406  0.5286  0.4687 -0.2973
 5215SOL    HW127107   3.658   3.937   2.347  0.7022  0.5977 -0.2934
 5215SOL    HW227108   3.655   3.796   2.383 -0.4671  1.0644 -0.3164
 5216SOL     OW27109   1.192   2.293   4.615 -0.5078 -0.1276 -0.3967
 5216SOL    HW127110   1.143   2.215   4.641  1.6482 -1.4096 -0.1162
 5216SOL    HW227111   1.154   2.356   4.676  0.7084 -0.9414  1.2256
 5217SOL     OW27112   0.213   1.475   5.451 -0.5618  0.0071 -0.4789
 5217SOL    HW127113   0.222   1.547   5.388 -0.4088 -0.0100 -0.4761
 5217SOL    HW227114   0.258   1.519   5.523 -1.4166 -0.1682  0.1751
 5218SOL     OW27115   3.712   2.441   3.761  0.1381 -0.4766  0.0537
 5218SOL    HW127116   3.780   2.436   3.828  0.1669  0.5186  0.0919
 5218SOL    HW227117   3.715   2.350   3.730 -2.8221 -0.9996  1.2284
 5219SOL     OW27118   3.469   3.253   4.303 -0.3132  0.1018  0.0801
 5219SOL    HW127119   3.420   3.171   4.308 -1.7388  0.9933  0.9512
 5219SOL    HW227120   3.547   3.231   4.353  0.2527  0.1626 -0.7908
 5220SOL     OW27121   2.091   0.581   5.411 -0.3942 -0.2970 -0.7271
 5220SOL    HW127122   2.142   0.659   5.432  0.6542 -1.0863 -0.3159
 5220SOL    HW227123   2.165   0.526   5.383  0.2090  0.8359 -1.3404
 5221SOL     OW27124   3.705   1.088   4.452 -0.4053 -0.7732  0.2692
 5221SOL    HW127125   3.694   1.014   4.392  0.8807 -0.4084 -0.4220
 5221SOL    HW227126   3.788   1.069   4.495 -0.7357 -1.3240  0.6623
 5222SOL     OW27127   4.356   0.176   5.536 -0.2834  0.8560  0.4193
 5222SOL    HW127128   4.371   0.094   5.583 -0.2327  0.3770 -0.4496
 5222SOL    HW227129   4.320   0.230   5.607 -1.4931 -0.4745  0.7991
 5223SOL     OW27130   0.205   2.905   4.369  0.6348 -0.2784 -0.1404
 5223SOL    HW127131   0.116   2.901   4.404  0.5652 -2.1211 -0.5286
 5223SOL    HW227132   0.239   2.990   4.397 -0.1557 -0.3315  0.9704
 5224SOL     OW27133   2.992   0.873   2.976  0.1441 -0.3059 -0.6457
 5224SOL    HW127134   2.976   0.921   3.057  0.8361 -0.5007 -0.3929
 5224SOL    HW227135   3.032   0.945   2.928  1.4043 -0.1728  0.6009
 5225SOL     OW27136   2.300   2.996   3.749 -0.3073  0.1327 -0.0084
 5225SOL    HW127137   2.292   3.045   3.831  0.3183 -2.0552  1.3751
 5225SOL    HW227138   2.257   2.911   3.765 -1.9012  0.6467 -1.5510
 5226SOL     OW27139   4.361   0.907  14.673 -0.4462  0.2860  0.6311
 5226SOL    HW127140   4.322   0.993  14.689 -1.0163 -0.3613  2.6476
 5226SOL    HW227141   4.333   0.891  14.582 -0.7344 -0.9295  0.9313
 5227SOL     OW27142   3.853   0.412  13.299  0.3788  0.2852 -0.3171
 5227SOL    HW127143   3.900   0.489  13.329 -0.0848  0.3686  0.1953
 5227SOL    HW227144   3.833   0.430  13.207  1.3349  1.6461 -0.2436
 5228SOL     OW27145   3.733   3.899   5.026  0.5703 -0.7279 -1.1854
 5228SOL    HW127146   3.688   3.825   5.066  0.0579 -0.6394 -1.5959
 5228SOL    HW227147   3.674   3.937   4.961  0.9626  1.3311 -0.3605
 5229SOL     OW27148   2.332   4.505  15.803  0.7889 -0.2339  0.0248
 5229SOL    HW127149   2.256   4.548  15.763  0.1514 -0.9409  0.4631
 5229SOL    HW227150   2.400   4.514  15.736 -1.0542  1.3139 -1.6272
 5230SOL     OW27151   1.428   2.880   7.858 -0.1150 -0.4767 -0.2716
 5230SOL    HW127152   1.362   2.935   7.901  0.7909 -1.5398  2.4767
 5230SOL    HW227153   1.388   2.793   7.864 -3.9917  1.4825  2.6737
 5231SOL     OW27154   0.436   1.798   3.121 -0.2619 -0.2646  0.5863
 5231SOL    HW127155   0.446   1.712   3.080  0.2552  0.4738 -0.8245
 5231SOL    HW227156   0.454   1.850   3.043 -0.2356  0.6166  1.1801
 5232SOL     OW27157   4.521   1.971   1.183  0.1487  0.0696 -0.2615
 5232SOL    HW127158   4.585   1.953   1.115  0.7928  0.9735  0.0994
 5232SOL    HW227159   4.447   1.916   1.158 -1.5053  0.0503  4.5811
 5233SOL     OW27160   2.347   2.596   4.747  0.2728  0.4599 -0.4595
 5233SOL    HW127161   2.366   2.608   4.654 -0.1962  0.2356 -0.5841
 5233SOL    HW227162   2.328   2.503   4.736  2.0616  0.1214 -0.6046
 5234SOL     OW27163   2.715   3.155   8.373 -0.8689 -0.2167 -0.5710
 5234SOL    HW127164   2.673   3.191   8.295  0.7832  3.6243  0.3385
 5234SOL    HW227165   2.685   3.065   8.361  0.6642 -0.7267 -0.5305
 5235SOL     OW27166   4.469   1.753   1.515 -0.2129 -0.5139 -0.4255
 5235SOL    HW127167   4.558   1.782   1.492 -0.1746 -0.7024 -0.5146
 5235SOL    HW227168   4.463   1.668   1.472 -1.4191 -0.4334 -0.4070
 5236SOL     OW27169   3.823   2.347   2.032  0.2412  0.3455 -0.1247
 5236SOL    HW127170   3.794   2.290   2.103  0.7791 -0.4585 -0.5503
 5236SOL    HW227171   3.839   2.287   1.959 -0.3993 -0.4008  0.3471
 5237SOL     OW27172   3.986   2.606   0.504 -0.1492 -0.1637 -0.2737
 5237SOL    HW127173   4.014   2.537   0.444 -0.5766  1.1684 -2.0078
 5237SOL    HW227174   4.022   2.685   0.466  0.0918  0.4185  1.1643
 5238SOL     OW27175   1.208   0.399  16.506 -1.0506  0.7126 -0.1941
 5238SOL    HW127176   1.152   0.326  16.534  0.0101  0.4066  1.1161
 5238SOL    HW227177   1.226   0.444  16.588  0.2603 -0.5894  0.2282
 5239SOL     OW27178   3.672   0.834   8.172 -0.1968 -0.4126  0.1010
 5239SOL    HW127179   3.606   0.765   8.162 -0.5602  0.0629 -0.8235
 5239SOL    HW227180   3.661   0.859   8.263  1.4841  0.9358 -0.0676
 5240SOL     OW27181   0.864   4.061   6.613  0.3221 -0.4961  0.6581
 5240SOL    HW127182   0.770   4.045   6.620  0.4104  0.1019  3.2156
 5240SOL    HW227183   0.858   4.108   6.530 -0.5346 -1.7131  0.0387
 5241SOL     OW27184   4.551   0.290   4.771  0.1582  0.2888  0.5512
 5241SOL    HW127185   4.543   0.195   4.771 -1.1674  0.3999 -0.8315
 5241SOL    HW227186   4.567   0.307   4.678  1.2671  0.1072  0.7154
 5242SOL     OW27187   3.489   0.432   6.037 -0.3299 -0.2770 -0.0223
 5242SOL    HW127188   3.527   0.385   6.111  1.0074  2.6502  1.1487
 5242SOL    HW227189   3.475   0.354   5.983 -0.8487 -1.8950  2.4798
 5243SOL     OW27190   4.017   1.756  11.716  0.3637 -0.7795 -0.2893
 5243SOL    HW127191   4.022   1.674  11.666  1.1685  0.0234 -1.5167
 5243SOL    HW227192   3.992   1.714  11.799 -0.3765  0.5693  0.1633
 5244SOL     OW27193   2.063   2.996   5.420 -0.7017 -0.0046 -0.2211
 5244SOL    HW127194   2.105   3.018   5.336 -0.9146 -1.4571 -0.7177
 5244SOL    HW227195   2.135   2.945   5.456 -1.7751 -1.5009 -0.2006
 5245SOL     OW27196   3.125   1.959   9.227 -0.3018  0.4207 -0.2632
 5245SOL    HW127197   3.080   1.933   9.308 -1.3435 -0.7826 -1.2377
 5245SOL    HW227198   3.087   1.888   9.176 -0.0310 -1.3013  1.9327
 5246SOL     OW27199   2.050   4.300   2.150 -0.0143  0.2519  0.3404
 5246SOL    HW127200   2.102   4.328   2.224  0.1895  0.1442  0.2370
 5246SOL    HW227201   1.978   4.361   2.165  0.1601  0.8362 -1.1618
 5247SOL     OW27202   1.589   0.032   7.543  0.2812  0.1769 -0.3507
 5247SOL    HW127203   1.626   4.689   7.606 -2.7033 -1.4704 -0.2285
 5247SOL    HW227204   1.662   0.094   7.539  0.6682 -0.3882 -2.1091
 5248SOL     OW27205   0.779   3.418   1.941  0.2097 -0.4503 -0.4183
 5248SOL    HW127206   0.807   3.468   1.865  1.6203 -2.2471 -1.0699
 5248SOL    HW227207   0.762   3.334   1.898 -0.2615  0.9361 -2.9782
 5249SOL     OW27208   0.659   4.026   2.748  0.6785 -0.6853  0.3193
 5249SOL    HW127209   0.688   4.091   2.683  0.5838 -0.1270  0.8307
 5249SOL    HW227210   0.658   4.068   2.835  2.3853 -0.0990  0.0637
 5250SOL     OW27211   4.066   0.864   5.554 -0.6513  0.0027 -0.0083
 5250SOL    HW127212   4.005   0.935   5.532  1.4081  1.4129 -1.2057
 5250SOL    HW227213   4.011   0.786   5.553 -0.7081  0.0031  1.6934
 5251SOL     OW27214   3.276   0.292   2.777 -0.0060 -1.0094 -0.5007
 5251SOL    HW127215   3.197   0.238   2.769  0.5112 -1.7745 -0.4545
 5251SOL    HW227216   3.330   0.233   2.830  0.3956 -0.7712 -0.6469
 5252SOL     OW27217   3.366   4.432  17.222 -0.1733  0.6275  0.2150
 5252SOL    HW127218   3.272   4.413  17.216  0.1407 -0.2340 -1.9846
 5252SOL    HW227219   3.379   4.518  17.182 -2.8892 -0.3347 -2.7484
 5253SOL     OW27220   3.073   0.124   2.976 -0.3459 -0.0310  0.8692
 5253SOL    HW127221   3.120   0.068   3.037  0.3750  0.1272  0.4603
 5253SOL    HW227222   2.995   0.154   3.023 -1.1476 -0.6489 -0.0860
 5254SOL     OW27223   1.834   0.555   2.910  0.3433  0.1025  0.0171
 5254SOL    HW127224   1.765   0.608   2.870 -2.1242 -1.4558  2.1326
 5254SOL    HW227225   1.787   0.503   2.976  0.1537  0.0652 -0.1483
 5255SOL     OW27226   3.998   3.492   7.105  0.7332  0.3663  0.3828
 5255SOL    HW127227   4.064   3.439   7.149  0.6554 -0.5226 -0.5985
 5255SOL    HW227228   4.058   3.526   7.039 -0.6262 -1.5995 -1.8209
 5256SOL     OW27229   1.426   2.078   8.129  0.0765 -0.1310  0.0100
 5256SOL    HW127230   1.370   2.000   8.132  0.6995 -0.6230 -1.0132
 5256SOL    HW227231   1.493   2.063   8.195 -1.6548  0.0912  1.8178
 5257SOL     OW27232   2.358   4.020  16.130 -0.7024 -0.5973  0.1641
 5257SOL    HW127233   2.286   3.992  16.186 -0.8227 -0.4233  0.0948
 5257SOL    HW227234   2.388   4.107  16.157 -1.3637  0.2863 -1.9354
 5258SOL     OW27235   2.932   2.387  13.032  0.6164 -0.4906 -0.5606
 5258SOL    HW127236   2.953   2.294  13.041  0.4946 -0.6201 -1.7127
 5258SOL    HW227237   2.837   2.386  13.046  0.9821  1.2333  2.0633
 5259SOL     OW27238   2.275   1.070   9.817 -0.1249 -0.2941  0.1275
 5259SOL    HW127239   2.291   1.161   9.841 -0.5287 -0.1495 -0.1578
 5259SOL    HW227240   2.326   1.020   9.881 -0.1911 -1.5152 -0.7717
 5260SOL     OW27241   1.136   1.649   6.998  0.3847  0.0934  0.4160
 5260SOL    HW127242   1.198   1.603   6.941 -0.3012  0.9395 -1.0062
 5260SOL    HW227243   1.199   1.695   7.053  0.4968 -0.2455  0.5711
 5261SOL     OW27244   2.283   3.620   7.457 -0.4257 -0.1209 -0.6655
 5261SOL    HW127245   2.357   3.662   7.412 -0.1534 -0.4833 -0.5575
 5261SOL    HW227246   2.307   3.528   7.445  0.1063 -0.3801  2.4753
 5262SOL     OW27247   1.649   4.645   3.628 -0.5376 -0.0540 -0.3861
 5262SOL    HW127248   1.715   4.625   3.695  0.6156  0.3825 -1.3998
 5262SOL    HW227249   1.709   4.672   3.559 -0.8851  0.1961 -0.5880
 5263SOL     OW27250   3.044   1.474   9.524 -0.4432  0.5831  0.1426
 5263SOL    HW127251   3.108   1.431   9.469 -0.4297  1.3326 -0.4351
 5263SOL    HW227252   3.085   1.484   9.610 -1.4384 -1.8699  0.8944
 5264SOL     OW27253   4.413   0.988  17.154  0.0189 -0.7301  0.4980
 5264SOL    HW127254   4.410   1.072  17.200  1.6708  0.3989 -1.4767
 5264SOL    HW227255   4.383   0.924  17.219  0.8629  0.3351  1.9386
 5265SOL     OW27256   0.984   3.272  10.318  0.6557 -1.1980 -0.0149
 5265SOL    HW127257   1.079   3.264  10.323  0.7352 -1.1775 -1.6931
 5265SOL    HW227258   0.966   3.250  10.226  0.2713 -1.5345  0.1369
 5266SOL     OW27259   1.473   3.450   0.855  0.0261 -0.0585 -0.2179
 5266SOL    HW127260   1.450   3.402   0.776 -0.7939 -1.8201  1.1080
 5266SOL    HW227261   1.554   3.496   0.829 -1.2688  0.6109 -3.0783
 5267SOL     OW27262   2.268   4.496   6.446 -0.3251  0.0573 -0.8827
 5267SOL    HW127263   2.215   4.560   6.493  0.2914  0.8216 -1.2449
 5267SOL    HW227264   2.208   4.421   6.441 -1.7152  1.0734  0.5461
 5268SOL     OW27265   3.908   3.503   1.795  0.1612 -0.0317 -0.6966
 5268SOL    HW127266   3.917   3.412   1.820  0.9578  0.2894  0.1995
 5268SOL    HW227267   3.949   3.552   1.867  0.8250 -3.4480  1.2145
 5269SOL     OW27268   2.632   0.266   0.667  0.0133  0.6096 -0.2929
 5269SOL    HW127269   2.589   0.338   0.621  0.0500  0.6199 -0.3104
 5269SOL    HW227270   2.693   0.315   0.723  1.3371  0.2202 -1.4089
 5270SOL     OW27271   3.452   0.229  14.925  0.0318  0.0544  0.1361
 5270SOL    HW127272   3.404   0.224  14.842  1.0186 -3.3832 -0.1977
 5270SOL    HW227273   3.405   0.166  14.979 -0.3293  1.5369  1.5494
 5271SOL     OW27274   4.445   2.676  17.553  0.5081  0.4600 -0.2712
 5271SOL    HW127275   4.509   2.682  17.482  0.0551  1.2958 -0.6035
 5271SOL    HW227276   4.434   2.767  17.578  2.1194 -0.5601  4.1167
 5272SOL     OW27277   3.994   0.625   5.197  0.3483  0.1556  0.5409
 5272SOL    HW127278   3.928   0.690   5.175  0.2357  0.4117  1.6523
 5272SOL    HW227279   4.068   0.645   5.139  0.8344 -3.1963 -0.0028
 5273SOL     OW27280   1.776   0.547  16.654  0.2442 -0.4847  1.2057
 5273SOL    HW127281   1.855   0.498  16.673 -0.1267 -0.3017  3.2420
 5273SOL    HW227282   1.800   0.639  16.647 -1.6882 -0.0792  0.0471
 5274SOL     OW27283   1.416   4.434  11.709  0.4001 -0.1901 -0.3909
 5274SOL    HW127284   1.419   4.431  11.804 -0.9996 -1.0217 -0.3762
 5274SOL    HW227285   1.362   4.512  11.699  0.0971 -0.2552  0.8365
 5275SOL     OW27286   2.549   4.650   7.703 -0.1876 -0.0965  0.0540
 5275SOL    HW127287   2.484   4.703   7.749  0.4289 -1.4888  2.5094
 5275SOL    HW227288   2.536   4.565   7.744 -1.4446 -0.6775 -1.5370
 5276SOL     OW27289   4.469   3.312  12.300  0.4019  0.1893 -0.0627
 5276SOL    HW127290   4.446   3.298  12.208 -2.9101 -2.9525  1.2429
 5276SOL    HW227291   4.424   3.237  12.339  0.9887  0.5676  1.3257
 5277SOL     OW27292   4.286   1.623   1.295  0.3465 -0.1256  0.1063
 5277SOL    HW127293   4.278   1.532   1.265 -0.9400 -0.5210  1.6847
 5277SOL    HW227294   4.379   1.637   1.278  0.2796  2.7296  2.2877
 5278SOL     OW27295   1.769   1.531   5.736 -0.0898  0.1987 -0.2277
 5278SOL    HW127296   1.698   1.469   5.718  2.2016 -1.4291 -3.7330
 5278SOL    HW227297   1.791   1.557   5.646  0.9483  0.4251  0.0969
 5279SOL     OW27298   4.285   1.975   5.007  0.5076 -0.6283  0.5294
 5279SOL    HW127299   4.351   1.918   5.047  0.4130 -0.2122  1.2904
 5279SOL    HW227300   4.298   2.061   5.046  0.3841 -0.2249 -0.3210
 5280SOL     OW27301   4.025   2.401   0.323 -0.1857  0.3512  0.8912
 5280SOL    HW127302   3.945   2.356   0.349  0.3386 -0.1318  1.6405
 5280SOL    HW227303   4.088   2.329   0.319 -0.8179 -0.2059  0.8787
 5281SOL     OW27304   0.139   2.187  14.557  0.3374  1.1555 -0.7366
 5281SOL    HW127305   0.185   2.104  14.570  1.6784  2.1032  0.6633
 5281SOL    HW227306   0.058   2.155  14.518  0.0949  0.1800  0.5938
 5282SOL     OW27307   0.177   2.752   4.855 -0.1281  0.1935 -0.7585
 5282SOL    HW127308   0.218   2.772   4.771  2.8571  1.5681  1.0353
 5282SOL    HW227309   0.091   2.714   4.836 -0.6248  0.6722  0.5565
 5283SOL     OW27310   1.206   2.092   4.893 -0.5251 -0.6174  0.5109
 5283SOL    HW127311   1.110   2.091   4.896 -0.5230 -2.4407 -0.0393
 5283SOL    HW227312   1.235   2.015   4.940  0.5561  0.5238  1.7016
 5284SOL     OW27313   1.927   3.828  14.063 -0.2778 -0.5924  0.0565
 5284SOL    HW127314   1.876   3.822  13.983  0.0618  0.8034 -0.2598
 5284SOL    HW227315   1.868   3.891  14.104  0.0420 -0.7683  0.7924
 5285SOL     OW27316   3.486   0.865   3.559  0.0615  0.3589  0.6927
 5285SOL    HW127317   3.535   0.787   3.533 -1.0823  0.1308 -0.8038
 5285SOL    HW227318   3.441   0.898   3.481  2.3482  3.1573  0.5634
 5286SOL     OW27319   0.011   1.524   9.107 -0.6236  0.5461  0.4350
 5286SOL    HW127320   0.070   1.565   9.044 -2.4739  0.5133 -1.3580
 5286SOL    HW227321   0.027   1.578   9.184 -0.0335 -0.1400  0.7873
 5287SOL     OW27322   2.115   0.111   9.869 -0.1226  0.4206 -0.0169
 5287SOL    HW127323   2.122   0.189   9.813  2.4612  0.3504  0.2306
 5287SOL    HW227324   2.172   0.049   9.823  2.2584  2.2031  0.5700
 5288SOL     OW27325   3.357   0.620  16.180  0.0283  0.1607  0.2779
 5288SOL    HW127326   3.315   0.565  16.246 -0.5140 -1.3127 -1.3063
 5288SOL    HW227327   3.430   0.654  16.232 -0.7692  0.3144  1.2877
 5289SOL     OW27328   4.494   0.542  12.157 -0.5563 -0.1269 -0.4220
 5289SOL    HW127329   4.539   0.504  12.081  2.1473  0.2680  0.9947
 5289SOL    HW227330   4.525   0.479  12.222 -2.3045  0.5237  1.0366
 5290SOL     OW27331   4.497   0.524  17.078  0.2174 -0.1173 -0.2446
 5290SOL    HW127332   4.484   0.430  17.068  1.9334 -0.4034  0.1279
 5290SOL    HW227333   4.474   0.542  17.169  1.5755  0.2481  0.0288
 5291SOL     OW27334   4.155   3.338   7.526  0.2937  0.8568 -0.0411
 5291SOL    HW127335   4.095   3.375   7.590 -2.5667  0.9849 -2.8109
 5291SOL    HW227336   4.238   3.373   7.557  0.7635 -0.5717  0.3199
 5292SOL     OW27337   0.420   3.783   4.522  0.4508 -0.3898  0.1067
 5292SOL    HW127338   0.400   3.875   4.535 -1.9107 -0.9383  0.3194
 5292SOL    HW227339   0.480   3.797   4.449 -3.3056  0.3805 -2.8531
 5293SOL     OW27340   1.108   0.715   5.547  0.4531  0.0045  0.6277
 5293SOL    HW127341   1.039   0.654   5.522  0.4176  1.3437 -2.5919
 5293SOL    HW227342   1.066   0.768   5.615  0.7195 -2.3506  2.6379
 5294SOL     OW27343   4.026   1.109   2.547 -0.0126  0.3019 -0.0773
 5294SOL    HW127344   3.968   1.040   2.514  1.0928 -0.6948  0.0710
 5294SOL    HW227345   4.102   1.083   2.494  0.4610  3.1625 -0.7870
 5295SOL     OW27346   0.931   2.396  10.806 -0.2910 -0.1545  0.1111
 5295SOL    HW127347   0.941   2.482  10.764  1.3004 -0.8877 -0.9886
 5295SOL    HW227348   0.836   2.395  10.822 -0.2623  0.8743  0.3665
 5296SOL     OW27349   2.579   3.032   7.057  0.6739  0.2185 -0.0203
 5296SOL    HW127350   2.589   3.124   7.031  0.4886  0.1370 -0.3891
 5296SOL    HW227351   2.639   3.029   7.131  1.9887 -0.4504 -1.1145
 5297SOL     OW27352   2.235   1.600   2.922  0.2272 -0.0404 -0.0793
 5297SOL    HW127353   2.275   1.541   2.985 -3.7784 -1.2281  1.3681
 5297SOL    HW227354   2.297   1.584   2.852  2.0384  1.4191  1.1848
 5298SOL     OW27355   4.701   1.208  10.034  0.9292  0.2183 -0.2676
 5298SOL    HW127356   4.635   1.164  10.087 -0.0741  0.6742 -1.1350
 5298SOL    HW227357   0.053   1.143  10.044  1.2548  0.6767  0.4660
 5299SOL     OW27358   4.264   1.949   7.014 -0.3494  0.2026 -0.1570
 5299SOL    HW127359   4.201   1.892   6.969 -0.0553 -0.9890  0.9468
 5299SOL    HW227360   4.256   1.945   7.109  0.9428  2.3661  0.0277
 5300SOL     OW27361   0.320   1.807   5.079 -0.2328  0.3942  0.1590
 5300SOL    HW127362   0.357   1.742   5.019 -0.2130 -0.1235  0.7201
 5300SOL    HW227363   0.396   1.853   5.114 -0.5065 -0.4288  1.8672
 5301SOL     OW27364   4.650   0.787   5.722  0.2021 -0.4387  0.1810
 5301SOL    HW127365   4.650   0.780   5.817  2.3868 -0.8889  0.1627
 5301SOL    HW227366   4.706   0.860   5.693  2.2323 -1.7032  0.9320
 5302SOL     OW27367   0.024   1.018  15.983  0.0605  0.1839 -0.1052
 5302SOL    HW127368   0.087   1.087  16.004 -0.3483  0.2136  1.0143
 5302SOL    HW227369   0.026   1.015  15.887 -0.0722  1.1436 -0.1446
 5303SOL     OW27370   2.905   3.071   8.832 -0.3426  0.0895 -0.2476
 5303SOL    HW127371   2.873   2.983   8.855  0.1180  0.5649  2.1829
 5303SOL    HW227372   2.894   3.060   8.738  0.8389 -0.2353 -0.3473
 5304SOL     OW27373   0.928   2.770   5.691  0.2795 -0.7336 -0.3130
 5304SOL    HW127374   1.002   2.830   5.684 -0.1279 -0.3844 -1.6324
 5304SOL    HW227375   0.890   2.774   5.604  2.7801 -3.7745 -1.5157
 5305SOL     OW27376   4.082   3.109   7.746  0.1291  0.3527  0.8806
 5305SOL    HW127377   4.054   3.086   7.835 -3.6758  0.0292 -0.3860
 5305SOL    HW227378   4.178   3.108   7.743  0.0765 -1.4132 -0.2492
 5306SOL     OW27379   0.919   1.202   0.145 -0.3524 -0.1408  0.1024
 5306SOL    HW127380   0.938   1.295   0.132  1.8687 -0.7285 -0.8764
 5306SOL    HW227381   0.885   1.172   0.060  0.7008  0.3514 -0.4925
 5307SOL     OW27382   1.912   0.778  16.621 -0.6794 -0.3230 -0.3848
 5307SOL    HW127383   1.883   0.847  16.680  1.4635  1.0425 -0.9024
 5307SOL    HW227384   1.895   0.828  16.541 -0.8255 -0.5332 -0.4838
 5308SOL     OW27385   2.604   4.468   9.201  0.2857  0.0116  0.4378
 5308SOL    HW127386   2.578   4.377   9.213 -0.8143  0.1469 -0.9203
 5308SOL    HW227387   2.529   4.491   9.146  0.3619 -0.5001  0.1218
 5309SOL     OW27388   0.345   4.197   2.830 -0.5053  0.3741  0.1464
 5309SOL    HW127389   0.370   4.231   2.744  1.7171 -1.2349  0.1661
 5309SOL    HW227390   0.418   4.138   2.844 -1.0587 -0.3059  0.1792
 5310SOL     OW27391   0.650   1.025   7.417 -0.0793 -0.1168  0.4817
 5310SOL    HW127392   0.587   1.017   7.488 -0.5349  1.4755  0.2464
 5310SOL    HW227393   0.707   1.092   7.454 -1.1727  0.3723  1.2685
 5311SOL     OW27394   4.479   2.324  12.129  0.4373 -0.7439  0.0286
 5311SOL    HW127395   4.429   2.248  12.100  0.0984  0.8858 -3.7061
 5311SOL    HW227396   4.456   2.391  12.064 -0.9793 -1.1495  0.0981
 5312SOL     OW27397   2.849   1.315   5.626 -0.1834  0.2145  0.3470
 5312SOL    HW127398   2.847   1.285   5.717  1.8963 -1.1437 -0.0631
 5312SOL    HW227399   2.939   1.286   5.612 -0.5775 -0.4685 -0.7774
 5313SOL     OW27400   1.151   2.571  10.691 -0.3204 -0.3335 -0.3405
 5313SOL    HW127401   1.194   2.548  10.774 -1.6003 -0.1204  0.3849
 5313SOL    HW227402   1.101   2.647  10.721  0.9652  0.3505  0.0424
 5314SOL     OW27403   2.181   1.691   4.354  0.4116 -0.5237 -0.0121
 5314SOL    HW127404   2.124   1.665   4.281 -0.3162 -1.4346  0.8708
 5314SOL    HW227405   2.126   1.676   4.431 -1.1759  2.1520 -0.6372
 5315SOL     OW27406   3.307   0.881  11.699  0.1832 -0.7376 -0.0029
 5315SOL    HW127407   3.334   0.798  11.738 -0.4175 -0.0237  1.9291
 5315SOL    HW227408   3.342   0.951  11.754 -1.4747  1.3184 -1.5557
 5316SOL     OW27409   3.820   0.025   0.441  0.0959  0.2915  0.2017
 5316SOL    HW127410   3.734   0.011   0.481 -0.3286 -0.4466 -0.9775
 5316SOL    HW227411   3.862   4.665   0.477  0.8101  1.1466  1.2456
 5317SOL     OW27412   1.846   4.190   4.569 -0.6578  0.2815  0.2426
 5317SOL    HW127413   1.882   4.150   4.489 -0.1149 -0.6984  0.9744
 5317SOL    HW227414   1.904   4.157   4.637  0.2186  0.6822 -0.3048
 5318SOL     OW27415   1.948   1.574  11.393 -0.0905  0.7604 -0.2559
 5318SOL    HW127416   2.009   1.647  11.395  0.5662  0.2004  0.2748
 5318SOL    HW227417   1.877   1.596  11.332  1.2483  0.6429 -1.8392
 5319SOL     OW27418   0.497   1.304   5.521 -0.1092 -0.2734 -1.3669
 5319SOL    HW127419   0.553   1.316   5.598 -2.2630 -0.7123  0.2873
 5319SOL    HW227420   0.422   1.264   5.566 -0.4475  2.6369  0.7103
 5320SOL     OW27421   4.415   1.394   6.244 -0.1127  0.3224  0.0835
 5320SOL    HW127422   4.332   1.355   6.217 -0.8583  1.6696  0.4062
 5320SOL    HW227423   4.462   1.377   6.162 -1.0739 -1.1807 -0.1426
 5321SOL     OW27424   4.042   0.387  14.394  0.2314 -0.1807 -0.1112
 5321SOL    HW127425   3.992   0.349  14.467  1.3414 -1.8471 -0.2284
 5321SOL    HW227426   4.130   0.358  14.418  0.2485  0.1497  0.2144
 5322SOL     OW27427   1.112   1.157   4.437  0.1136  0.4121  0.1135
 5322SOL    HW127428   1.022   1.125   4.431  0.4561 -0.8865  1.8969
 5322SOL    HW227429   1.088   1.244   4.468  1.3474  1.1535 -1.0640
 5323SOL     OW27430   4.017   0.226   0.476 -0.0748  0.3217  0.8813
 5323SOL    HW127431   3.957   0.151   0.466 -2.1042  2.1117 -0.3578
 5323SOL    HW227432   4.092   0.184   0.517  0.1366  1.1177  1.3078
 5324SOL     OW27433   0.044   2.865   3.859 -0.4946  0.1643  0.0394
 5324SOL    HW127434   0.103   2.861   3.934  1.1044 -2.0771 -1.3694
 5324SOL    HW227435   0.013   2.951   3.889  1.2536  1.2726 -1.3340
 5325SOL     OW27436   1.944   4.071   0.757 -0.2302  0.2119  0.2977
 5325SOL    HW127437   2.021   4.121   0.783  0.9702 -1.8699  0.7909
 5325SOL    HW227438   1.879   4.140   0.749 -1.4522 -1.1259 -1.4894
 5326SOL     OW27439   3.629   3.726   9.219  0.1236 -0.3228  0.4056
 5326SOL    HW127440   3.604   3.814   9.190  0.2157  0.0332  1.4090
 5326SOL    HW227441   3.660   3.745   9.308  2.5786 -0.1755 -0.4621
 5327SOL     OW27442   1.778   3.753  11.822  0.0724 -0.0008  0.9278
 5327SOL    HW127443   1.704   3.697  11.796 -0.1996  1.2895 -1.0916
 5327SOL    HW227444   1.833   3.689  11.866 -0.3475 -0.9057  0.1449
 5328SOL     OW27445   2.524   0.804   9.068  0.4123 -0.0647 -0.0153
 5328SOL    HW127446   2.569   0.768   9.145 -1.6180 -1.0060  0.7450
 5328SOL    HW227447   2.524   0.895   9.096  0.0377 -0.9889  3.0850
 5329SOL     OW27448   0.630   3.249  15.970  0.1975 -0.1996 -0.0254
 5329SOL    HW127449   0.642   3.344  15.974 -0.5761 -0.1694  1.4553
 5329SOL    HW227450   0.720   3.220  15.963  1.1457  2.8992 -0.7886
 5330SOL     OW27451   0.547   4.554  10.340  0.2124  0.1245  0.3537
 5330SOL    HW127452   0.583   4.479  10.292  0.1494  0.2935  0.0386
 5330SOL    HW227453   0.537   4.621  10.273 -0.9536  0.2597  0.6650
 5331SOL     OW27454   0.729   1.023  12.675 -0.0275 -0.5005  0.0109
 5331SOL    HW127455   0.690   1.104  12.707  0.1961 -1.3406  2.4326
 5331SOL    HW227456   0.801   1.005  12.736  1.4338  0.6475 -1.3836
 5332SOL     OW27457   0.078   1.310   0.264  0.2094 -0.4060 -0.5165
 5332SOL    HW127458   0.089   1.232   0.318  1.0785  0.4040  0.4730
 5332SOL    HW227459   0.013   1.270   0.207  0.5940  0.6214 -1.6834
 5333SOL     OW27460   2.482   0.062  12.108 -0.0318 -0.2204  0.4252
 5333SOL    HW127461   2.428   0.094  12.181  0.7200  0.8714  0.4945
 5333SOL    HW227462   2.533   0.141  12.089  0.3833 -0.6106 -0.0709
 5334SOL     OW27463   3.468   1.664   8.039 -0.5167  0.0237 -0.0099
 5334SOL    HW127464   3.502   1.633   7.955  0.6108 -0.3345  0.5827
 5334SOL    HW227465   3.483   1.757   8.027  1.9058 -0.1855  1.4624
 5335SOL     OW27466   3.937   1.190   1.922 -0.7344  0.7001  0.3278
 5335SOL    HW127467   3.920   1.178   1.828 -0.4798  4.0618 -0.1238
 5335SOL    HW227468   4.013   1.248   1.926 -0.0149 -0.1094 -1.4626
 5336SOL     OW27469   3.166   4.382   6.636 -0.1045  0.0358 -0.1765
 5336SOL    HW127470   3.216   4.361   6.715  0.6990  1.7675 -0.2257
 5336SOL    HW227471   3.209   4.331   6.567  0.9684 -0.6911  1.0371
 5337SOL     OW27472   0.931   3.554  14.095  0.6527  0.5863 -0.1947
 5337SOL    HW127473   0.880   3.504  14.032  1.9041  0.2684 -0.9628
 5337SOL    HW227474   0.967   3.626  14.043 -0.6547  0.8278 -0.7688
 5338SOL     OW27475   0.819   0.939   6.210 -0.1360 -0.5056 -0.1000
 5338SOL    HW127476   0.879   0.943   6.136 -1.8468 -1.0750 -1.5336
 5338SOL    HW227477   0.887   0.938   6.277  0.3286  0.4821 -0.5568
 5339SOL     OW27478   4.622   2.234  16.616 -0.9567 -0.2397  0.2818
 5339SOL    HW127479   4.610   2.170  16.545  0.4506 -0.3650  0.1468
 5339SOL    HW227480   4.537   2.273  16.637 -0.9366 -0.1566  0.2088
 5340SOL     OW27481   0.639   2.527   1.007  0.2290 -0.2021  0.5363
 5340SOL    HW127482   0.573   2.558   1.068 -0.5111  0.1264 -0.4338
 5340SOL    HW227483   0.697   2.472   1.060 -0.0290 -0.5988  0.4099
 5341SOL     OW27484   2.478   1.703   5.941  0.3298  0.2891 -0.4175
 5341SOL    HW127485   2.507   1.710   5.850 -1.5434 -0.3188 -1.0610
 5341SOL    HW227486   2.493   1.794   5.964  1.7825  0.7906 -3.3092
 5342SOL     OW27487   4.063   2.544   2.963  0.0580 -0.1650  0.1689
 5342SOL    HW127488   4.003   2.506   2.899 -2.5201  1.9654  1.3233
 5342SOL    HW227489   4.009   2.601   3.017  0.4045 -0.7129  1.1072
 5343SOL     OW27490   4.709   3.889   8.611 -0.7335  0.0135 -0.0646
 5343SOL    HW127491   4.671   3.972   8.583 -1.0753 -0.7276 -1.7881
 5343SOL    HW227492   4.631   3.836   8.628  0.6647 -2.2157 -0.6792
 5344SOL     OW27493   0.509   3.334   9.747  0.2826  0.0601 -0.7358
 5344SOL    HW127494   0.603   3.315   9.741 -0.1333 -2.1349 -0.3938
 5344SOL    HW227495   0.468   3.254   9.713  1.1416 -0.4368 -0.5993
 5345SOL     OW27496   1.839   3.283   6.490  0.0400  0.3848  0.4775
 5345SOL    HW127497   1.933   3.297   6.476  0.4408 -1.1572  1.6918
 5345SOL    HW227498   1.829   3.193   6.520  1.1538 -1.1142 -3.6621
 5346SOL     OW27499   4.086   4.092   3.790  0.3362 -0.6055  0.3298
 5346SOL    HW127500   4.054   4.021   3.735 -2.1055  0.5484  0.2739
 5346SOL    HW227501   4.177   4.088   3.760  0.8471  2.1101  1.5274
 5347SOL     OW27502   2.639   4.073   0.150 -0.6202 -0.5713  0.6634
 5347SOL    HW127503   2.633   4.092   0.243  3.5359  0.7128  0.7091
 5347SOL    HW227504   2.689   3.992   0.141  1.1140  0.6162 -0.4947
 5348SOL     OW27505   1.868   0.512   5.544  0.0064 -0.4433  0.4867
 5348SOL    HW127506   1.950   0.535   5.500  1.6657  0.2699  3.9925
 5348SOL    HW227507   1.827   0.598   5.551 -0.4612 -0.6719  0.6110
 5349SOL     OW27508   4.354   2.376   2.165 -0.0479 -0.6163  0.2790
 5349SOL    HW127509   4.385   2.287   2.180  2.3415 -0.0034 -0.9991
 5349SOL    HW227510   4.317   2.359   2.079 -1.1170 -1.8793  0.9781
 5350SOL     OW27511   1.832   2.137   9.762  0.1585 -0.3120 -0.1318
 5350SOL    HW127512   1.901   2.086   9.717 -1.0108 -1.3048 -0.7925
 5350SOL    HW227513   1.756   2.082   9.779 -0.0860  0.2452  0.5337
 5351SOL     OW27514   2.031   1.043   7.758 -0.4135  0.7418 -0.1930
 5351SOL    HW127515   1.984   0.965   7.727  0.1620  0.2359  0.1960
 5351SOL    HW227516   2.115   1.013   7.794  0.7112  3.4472 -0.6037
 5352SOL     OW27517   1.630   2.643   4.577 -0.2341 -0.3701 -0.3597
 5352SOL    HW127518   1.536   2.645   4.561  0.0495  0.3153 -1.9055
 5352SOL    HW227519   1.650   2.614   4.666 -0.2709 -1.9125 -0.8543
 5353SOL     OW27520   3.529   2.983   2.765 -0.0982  0.6555 -0.2201
 5353SOL    HW127521   3.597   3.043   2.732  1.5262 -1.3080 -0.4738
 5353SOL    HW227522   3.560   2.894   2.748 -0.8337  0.4231 -0.3558
 5354SOL     OW27523   3.370   2.368   7.357  0.1268  0.5091 -0.1446
 5354SOL    HW127524   3.373   2.273   7.353  1.9541  0.5492  0.1817
 5354SOL    HW227525   3.285   2.389   7.395  0.0012 -1.7279  0.7690
 5355SOL     OW27526   2.518   0.689   4.803 -0.8260 -0.4982  0.5837
 5355SOL    HW127527   2.526   0.767   4.858  0.1119 -1.3603  1.6581
 5355SOL    HW227528   2.430   0.698   4.767  0.4276  1.2435 -2.1181
 5356SOL     OW27529   0.191   2.871   4.091  0.7403  0.8415  0.0970
 5356SOL    HW127530   0.283   2.849   4.073  0.8217  0.8708  0.4794
 5356SOL    HW227531   0.195   2.857   4.186  0.8038  1.1140  0.1334
 5357SOL     OW27532   0.157   4.292   1.788 -0.4814 -0.2205  0.6363
 5357SOL    HW127533   0.181   4.225   1.725 -2.3393  0.5691 -0.8991
 5357SOL    HW227534   0.067   4.262   1.802 -0.5981  0.3583  1.1606
 5358SOL     OW27535   2.066   3.929   4.240 -0.7582  0.0975  0.9351
 5358SOL    HW127536   2.088   3.837   4.226  2.3554  0.7393  1.4210
 5358SOL    HW227537   2.124   3.960   4.170 -0.5628  0.4148  1.2392
 5359SOL     OW27538   1.498   4.063  13.092  0.3510  0.1026 -0.4241
 5359SOL    HW127539   1.455   4.115  13.024 -2.2535  0.4573  1.5205
 5359SOL    HW227540   1.452   4.095  13.170  2.6525  3.1475 -0.2959
 5360SOL     OW27541   2.972   2.297   3.785 -0.1487 -0.3891  0.3188
 5360SOL    HW127542   2.894   2.310   3.731  1.6838  2.3406 -1.6547
 5360SOL    HW227543   2.988   2.203   3.773  1.1697 -0.2130  0.7317
 5361SOL     OW27544   2.937   2.596   1.150 -0.5291  0.4987 -0.1890
 5361SOL    HW127545   2.951   2.502   1.150 -0.3826  0.5199 -1.7314
 5361SOL    HW227546   2.929   2.621   1.243  1.3961 -1.8142  0.5943
 5362SOL     OW27547   4.103   0.332   6.337 -0.2021  0.4682  0.1485
 5362SOL    HW127548   4.111   0.258   6.397 -1.5787 -0.6938 -1.0961
 5362SOL    HW227549   4.062   0.296   6.258  1.6910  0.2119 -0.7203
 5363SOL     OW27550   4.245   3.963   8.705  0.2805  0.1018  0.1936
 5363SOL    HW127551   4.172   3.903   8.703 -0.0385  0.5097 -0.3015
 5363SOL    HW227552   4.217   4.030   8.768 -0.6299  0.5030 -0.6558
 5364SOL     OW27553   4.430   4.691   1.225 -0.1075  0.5166 -0.4668
 5364SOL    HW127554   4.509   4.698   1.278  0.2154  1.7945 -1.1191
 5364SOL    HW227555   4.473   4.655   1.147 -0.5764 -3.3212  1.0353
 5365SOL     OW27556   0.009   0.615   5.529 -0.3756 -0.3588  0.0013
 5365SOL    HW127557   4.713   0.677   5.458  2.4346  0.7613  0.4212
 5365SOL    HW227558   4.698   0.671   5.600 -1.0490 -0.6500 -0.0495
 5366SOL     OW27559   4.320   4.318   3.649 -0.5473 -0.4940 -0.0589
 5366SOL    HW127560   4.322   4.292   3.557  1.3325 -0.4795 -0.0252
 5366SOL    HW227561   4.319   4.239   3.703 -0.4719  0.2896  1.0989
 5367SOL     OW27562   4.144   2.024  15.253 -0.0831 -0.1946 -0.3184
 5367SOL    HW127563   4.235   1.996  15.241 -0.2777 -1.4841  1.2576
 5367SOL    HW227564   4.103   1.983  15.177 -0.9920 -0.4499  0.3132
 5368SOL     OW27565   3.143   0.031   7.259 -0.1271 -0.1278  0.0156
 5368SOL    HW127566   3.124   0.124   7.244  0.4671  0.0566  0.4408
 5368SOL    HW227567   3.133   4.718   7.169 -0.1874  1.4473 -0.5324
 5369SOL     OW27568   3.543   1.303   5.634 -0.1665 -0.3772 -0.3389
 5369SOL    HW127569   3.559   1.350   5.716 -3.6017  0.8091 -0.3453
 5369SOL    HW227570   3.536   1.377   5.573  1.4269  0.4817  0.4987
 5370SOL     OW27571   1.562   0.016   6.351 -0.1574  0.8576  0.0091
 5370SOL    HW127572   1.627   0.027   6.422 -0.4213 -1.7712  0.6408
 5370SOL    HW227573   1.535   0.106   6.333  0.2733  1.3883  1.9765
 5371SOL     OW27574   3.575   3.126  11.674  0.1444 -0.5209 -0.5923
 5371SOL    HW127575   3.579   3.195  11.740  0.0161 -0.9836 -0.1000
 5371SOL    HW227576   3.647   3.163  11.623  0.7179 -0.8894 -0.0607
 5372SOL     OW27577   4.622   3.786  12.462 -0.1812  0.3996  0.1871
 5372SOL    HW127578   4.657   3.802  12.375 -0.9112 -0.9917 -0.3584
 5372SOL    HW227579   4.583   3.702  12.437  0.4327  0.2190 -0.1457
 5373SOL     OW27580   4.387   1.853  15.243  0.0657 -0.1379  0.2671
 5373SOL    HW127581   4.395   1.761  15.218  0.2355  0.1457 -0.7113
 5373SOL    HW227582   4.433   1.889  15.168  2.0328 -0.6712  1.2239
 5374SOL     OW27583   0.410   3.286   6.847  0.5476 -0.2757 -0.0594
 5374SOL    HW127584   0.497   3.288   6.888 -0.1425  1.5961  1.3241
 5374SOL    HW227585   0.353   3.328   6.911  0.1526  1.5743 -1.6531
 5375SOL     OW27586   4.191   3.413   1.853  0.0168 -0.0081 -0.3631
 5375SOL    HW127587   4.246   3.385   1.779  1.4863  0.0772  0.6961
 5375SOL    HW227588   4.105   3.418   1.812 -0.4218 -1.9816  0.3272
 5376SOL     OW27589   1.315   3.893   7.713  0.4403  0.4916  0.6568
 5376SOL    HW127590   1.321   3.801   7.690  0.2202  0.8123 -0.6643
 5376SOL    HW227591   1.398   3.904   7.760  0.6361 -0.8322  0.6189
 5377SOL     OW27592   3.229   2.277   8.895 -0.0043  0.5559  0.1242
 5377SOL    HW127593   3.158   2.244   8.950  1.0151 -1.2977  0.2899
 5377SOL    HW227594   3.307   2.248   8.941  0.6327  1.5448 -0.3186
 5378SOL     OW27595   3.289   0.825  15.675 -0.4450 -0.4896  0.6555
 5378SOL    HW127596   3.255   0.770  15.745 -1.9173 -0.7843 -0.2756
 5378SOL    HW227597   3.205   0.858  15.641 -0.9347 -1.6003  0.7867
 5379SOL     OW27598   0.860   2.799   7.984 -0.7683  0.3229  0.3410
 5379SOL    HW127599   0.764   2.799   7.981 -0.7691  0.9189  0.2659
 5379SOL    HW227600   0.866   2.892   7.959  2.0856  0.6443  2.1844
 5380SOL     OW27601   3.936   4.105   5.694 -0.1809  0.1352  0.2613
 5380SOL    HW127602   3.880   4.171   5.735 -1.1893  0.5678 -1.8021
 5380SOL    HW227603   3.962   4.059   5.774 -0.9393 -2.0977 -0.7553
 5381SOL     OW27604   0.815   2.545   6.670  0.1358 -0.3941  0.3932
 5381SOL    HW127605   0.898   2.519   6.631  0.0092  0.1365 -0.2272
 5381SOL    HW227606   0.851   2.591   6.746 -1.5785  2.9757 -0.8623
 5382SOL     OW27607   2.542   3.095   6.131 -0.0793  0.3675 -0.0561
 5382SOL    HW127608   2.591   3.166   6.089  2.1187 -1.4532 -0.5550
 5382SOL    HW227609   2.607   3.025   6.133 -1.3186 -0.8163 -0.7674
 5383SOL     OW27610   4.143   0.917   5.087  0.2461  0.2677  0.1104
 5383SOL    HW127611   4.231   0.909   5.049 -0.4508  0.2786 -1.5139
 5383SOL    HW227612   4.162   0.882   5.174  0.4714 -3.3450 -1.3706
 5384SOL     OW27613   3.312   2.741  11.713 -0.0823  0.6709 -0.0973
 5384SOL    HW127614   3.246   2.804  11.685 -0.9342 -0.5485 -0.8307
 5384SOL    HW227615   3.288   2.686  11.638 -0.9040 -0.6967  1.1787
 5385SOL     OW27616   1.334   0.776  17.082  0.2378  0.4974  0.5412
 5385SOL    HW127617   1.307   0.821  17.003 -0.5010  1.0935  1.1307
 5385SOL    HW227618   1.257   0.720  17.097  1.5397 -1.8194 -1.5623
 5386SOL     OW27619   0.937   1.113  16.558  0.7466 -0.4736  0.0017
 5386SOL    HW127620   0.870   1.083  16.497 -1.2986 -0.8964  2.4546
 5386SOL    HW227621   0.918   1.207  16.563 -0.1050 -0.6407 -0.1044
 5387SOL     OW27622   4.665   3.003   1.143 -0.0399 -0.3620 -0.2240
 5387SOL    HW127623   0.008   2.976   1.211  0.1414  2.5388  0.7864
 5387SOL    HW227624   4.666   2.930   1.082  1.1424 -0.3643 -0.2159
 5388SOL     OW27625   0.014   2.381   8.079 -0.2473  0.2104 -0.6094
 5388SOL    HW127626   0.033   2.359   7.987  0.3005 -3.3355  0.3201
 5388SOL    HW227627   0.086   2.333   8.120  1.2898  2.6454 -0.4766
 5389SOL     OW27628   1.688   2.797   3.349 -0.0013 -0.0941  0.2551
 5389SOL    HW127629   1.606   2.805   3.301 -0.5322 -0.4614  1.1107
 5389SOL    HW227630   1.735   2.728   3.302 -1.4759 -0.2084 -1.0483
 5390SOL     OW27631   3.228   0.998   4.452 -0.2284 -0.1870  0.6372
 5390SOL    HW127632   3.314   1.022   4.487 -0.0802 -0.2602  0.3166
 5390SOL    HW227633   3.178   1.062   4.503  1.9724  1.6660  0.4521
 5391SOL     OW27634   4.073   3.624  12.705 -0.2966 -0.6684 -0.0479
 5391SOL    HW127635   4.107   3.552  12.759  0.6435 -1.5480 -1.8111
 5391SOL    HW227636   4.111   3.601  12.620  0.4683  0.1429  0.0741
 5392SOL     OW27637   3.220   2.327   2.812  0.2846  0.0910  0.0870
 5392SOL    HW127638   3.136   2.332   2.859 -0.5857 -2.3462 -1.2108
 5392SOL    HW227639   3.200   2.249   2.760  2.4510  0.9896 -2.0862
 5393SOL     OW27640   2.582   2.680  14.734 -0.0043 -0.0589 -0.2719
 5393SOL    HW127641   2.594   2.670  14.640  1.1250 -0.8833 -0.0417
 5393SOL    HW227642   2.573   2.590  14.767 -1.9049 -0.4021 -1.7420
 5394SOL     OW27643   3.581   1.779  13.133 -0.1741 -0.1848 -0.2093
 5394SOL    HW127644   3.595   1.745  13.044  2.3263  2.0070 -0.6677
 5394SOL    HW227645   3.533   1.706  13.171  0.7281 -0.8069 -0.2551
 5395SOL     OW27646   2.088   4.388   9.608  0.8672 -0.2464  0.4449
 5395SOL    HW127647   2.021   4.413   9.673  1.0745 -0.9224  0.9204
 5395SOL    HW227648   2.119   4.311   9.655 -1.5288 -1.1933  0.4727
 5396SOL     OW27649   2.876   3.306   9.273 -0.4633  0.1344 -0.5782
 5396SOL    HW127650   2.894   3.356   9.193 -1.4673  0.9302 -0.3118
 5396SOL    HW227651   2.900   3.223   9.232 -3.3051 -2.0074  2.0999
 5397SOL     OW27652   0.967   1.719  12.085  0.2337 -0.0014 -0.4445
 5397SOL    HW127653   0.903   1.666  12.037 -1.5850  0.7135  1.1991
 5397SOL    HW227654   0.995   1.655  12.150  0.7602  0.6910  0.0108
 5398SOL     OW27655   4.277   0.436   4.262 -0.2536 -0.2004 -0.1605
 5398SOL    HW127656   4.190   0.454   4.297  0.5785  1.2323  1.1795
 5398SOL    HW227657   4.306   0.355   4.305 -2.0322 -0.4717  0.5426
 5399SOL     OW27658   2.712   3.709   7.797 -0.2701  0.5042  0.1969
 5399SOL    HW127659   2.754   3.705   7.883  2.9922 -0.4063 -1.4021
 5399SOL    HW227660   2.794   3.707   7.747 -2.0709 -0.9570 -2.7367
 5400SOL     OW27661   3.567   1.867   3.219 -0.2942  0.0249  0.1659
 5400SOL    HW127662   3.596   1.782   3.185  0.7200  0.0400  0.9891
 5400SOL    HW227663   3.621   1.929   3.170  0.5125  0.4417  1.5756
 5401SOL     OW27664   0.768   0.347   8.027 -0.1695 -0.2618 -0.3291
 5401SOL    HW127665   0.795   0.438   8.042 -2.8615  0.8783 -2.3542
 5401SOL    HW227666   0.732   0.323   8.112 -1.0220 -0.3865 -0.7194
 5402SOL     OW27667   3.140   0.243   6.817  0.4127  0.0002  0.0942
 5402SOL    HW127668   3.218   0.279   6.859  0.5405 -0.2739  0.0931
 5402SOL    HW227669   3.128   0.165   6.872 -1.4212  0.6503  0.6360
 5403SOL     OW27670   0.306   0.556  14.972 -0.0896  0.5880  0.0807
 5403SOL    HW127671   0.219   0.563  14.933 -0.4376 -0.7127  0.6118
 5403SOL    HW227672   0.362   0.550  14.895 -0.7340  1.2385 -0.4451
 5404SOL     OW27673   4.639   1.042  14.197 -0.5308  0.0368 -0.4097
 5404SOL    HW127674   4.662   1.133  14.177 -2.5069  0.5829 -0.1712
 5404SOL    HW227675   4.581   1.018  14.125 -1.5723  1.0848  0.0781
 5405SOL     OW27676   2.336   3.233   6.622  0.0320 -0.3618 -0.0478
 5405SOL    HW127677   2.314   3.175   6.695 -0.4487  0.1074  0.1751
 5405SOL    HW227678   2.377   3.170   6.563  0.7582 -0.5948  0.6916
 5406SOL     OW27679   3.326   1.341   4.415  0.5419  0.2210 -0.5072
 5406SOL    HW127680   3.362   1.353   4.327  0.7311  0.8789 -0.3401
 5406SOL    HW227681   3.399   1.352   4.476  1.1055 -2.8978 -0.6027
 5407SOL     OW27682   2.770   1.841  12.138 -0.1397  0.4517  0.4977
 5407SOL    HW127683   2.683   1.805  12.155 -1.9516  3.8308 -1.8060
 5407SOL    HW227684   2.751   1.933  12.122 -0.0279  0.7506  2.0930
 5408SOL     OW27685   1.754   2.512   3.684 -0.5380 -0.1268  0.3478
 5408SOL    HW127686   1.805   2.589   3.709 -1.0967 -0.3725  2.2626
 5408SOL    HW227687   1.734   2.529   3.592 -1.0620 -1.4955  0.2011
 5409SOL     OW27688   2.389   4.670  17.543  0.5522 -0.1372  0.3669
 5409SOL    HW127689   2.444   4.646  17.468 -1.1854 -0.1328 -0.9142
 5409SOL    HW227690   2.424   0.039  17.560 -1.3651  0.9467 -1.2111
 5410SOL     OW27691   3.120   0.535  15.664  0.2178  0.6037 -0.1949
 5410SOL    HW127692   3.044   0.494  15.623  2.2199 -1.4187 -1.9742
 5410SOL    HW227693   3.084   0.623  15.674 -0.0390  0.5509 -0.6460
 5411SOL     OW27694   3.572   3.014   5.090 -0.1686  0.0876  0.0125
 5411SOL    HW127695   3.646   3.064   5.126 -0.7198  2.0390 -1.5915
 5411SOL    HW227696   3.615   2.937   5.053  2.7547  1.0732  1.3216
 5412SOL     OW27697   2.329   2.952   3.486  0.2084  0.1845  0.2156
 5412SOL    HW127698   2.292   2.867   3.460  0.0601  0.1353  0.5893
 5412SOL    HW227699   2.335   2.950   3.582  2.1573 -0.3728  0.0861
 5413SOL     OW27700   1.707   1.735   6.241  0.3324  0.0360 -0.6851
 5413SOL    HW127701   1.795   1.724   6.277  1.1204 -1.1734 -2.9976
 5413SOL    HW227702   1.691   1.829   6.245  2.9347  0.4802 -0.3916
 5414SOL     OW27703   3.395   3.832   5.061 -0.3684 -0.2498 -0.7222
 5414SOL    HW127704   3.369   3.782   4.984 -0.7409  0.5884 -1.1428
 5414SOL    HW227705   3.484   3.798   5.073 -0.6507 -0.7131  0.0686
 5415SOL     OW27706   0.540   1.186   2.981 -0.0108 -0.0577  0.2547
 5415SOL    HW127707   0.564   1.270   2.942  0.4284 -0.7289 -0.8858
 5415SOL    HW227708   0.499   1.133   2.913  1.7099 -2.4694  1.1303
 5416SOL     OW27709   2.629   1.808  17.184 -0.2131 -0.0451  0.0765
 5416SOL    HW127710   2.595   1.863  17.255  1.9874  1.3340  0.0634
 5416SOL    HW227711   2.704   1.769  17.228 -0.7845 -0.4772  0.6740
 5417SOL     OW27712   2.454   4.642   1.872  0.0839  0.4221 -0.3345
 5417SOL    HW127713   2.543   4.607   1.865  1.0073  2.2233  2.1280
 5417SOL    HW227714   2.404   4.572   1.831 -0.5448  1.8847 -2.0754
 5418SOL     OW27715   3.285   2.078  12.864  0.2266  0.2449  0.1815
 5418SOL    HW127716   3.279   2.141  12.935  1.0989  0.6613 -0.1042
 5418SOL    HW227717   3.374   2.092  12.830 -0.6644  0.7386 -1.9295
 5419SOL     OW27718   3.410   0.522   6.302 -0.2470 -0.5125 -0.0895
 5419SOL    HW127719   3.421   0.542   6.209  1.3672  0.6080  0.3389
 5419SOL    HW227720   3.474   0.586   6.334 -0.1740 -1.0795  0.9162
 5420SOL     OW27721   1.229   3.611  17.401 -0.3316  1.3165  0.4176
 5420SOL    HW127722   1.264   3.557  17.472 -0.0698  1.0651  0.0979
 5420SOL    HW227723   1.238   3.697  17.443  0.1362  0.5593  1.8941
 5421SOL     OW27724   2.178   0.774   5.772  0.8400  0.1066 -0.4217
 5421SOL    HW127725   2.130   0.700   5.808 -0.5475  0.8476 -0.7430
 5421SOL    HW227726   2.133   0.854   5.800  0.6190  0.2987 -1.3039
 5422SOL     OW27727   4.351   2.068   3.323 -0.6184  0.1186 -0.0592
 5422SOL    HW127728   4.391   2.089   3.407 -1.9385 -0.9139  0.8322
 5422SOL    HW227729   4.394   2.132   3.267 -0.0501 -1.0115 -0.9183
 5423SOL     OW27730   0.148   3.769   5.214 -0.1795 -0.1630  0.0620
 5423SOL    HW127731   0.139   3.863   5.229 -2.7706 -0.4769  0.5451
 5423SOL    HW227732   0.057   3.749   5.236 -0.9144  1.3604 -1.6324
 5424SOL     OW27733   2.071   2.944   4.060 -0.1812  0.0722  0.3199
 5424SOL    HW127734   2.103   3.026   4.022 -0.0139 -0.0016  0.3039
 5424SOL    HW227735   2.114   2.877   4.007  0.9115 -0.3214  1.7074
 5425SOL     OW27736   0.843   4.247   7.268 -0.3534  0.0611 -0.1933
 5425SOL    HW127737   0.835   4.168   7.213  3.4669  0.1929 -0.9667
 5425SOL    HW227738   0.900   4.305   7.218  1.9520 -1.8000  0.2721
 5426SOL     OW27739   2.994   4.066   8.649 -0.1220  0.4626  0.4057
 5426SOL    HW127740   2.916   4.082   8.595 -0.8528  0.2818  1.3996
 5426SOL    HW227741   3.049   4.144   8.641  0.1514  0.2700  0.4353
 5427SOL     OW27742   2.159   0.145   5.162 -0.5213  0.3206  0.0047
 5427SOL    HW127743   2.227   0.163   5.097 -2.6671  2.0821 -1.7489
 5427SOL    HW227744   2.115   0.229   5.179  1.3193  1.2849 -0.0357
 5428SOL     OW27745   0.048   1.586   3.664  0.1993 -0.1253  0.2543
 5428SOL    HW127746   4.702   1.586   3.735 -0.2976  1.2630 -0.1866
 5428SOL    HW227747   4.713   1.627   3.596  0.2831 -0.6128 -0.1057
 5429SOL     OW27748   1.001   2.366   2.267  1.0362 -0.4914 -0.1230
 5429SOL    HW127749   0.959   2.383   2.183  0.4039  1.1459  0.5268
 5429SOL    HW227750   0.930   2.342   2.326 -1.4716  0.8054 -2.6230
 5430SOL     OW27751   0.442   0.072  12.215 -0.2968 -0.1949  0.6580
 5430SOL    HW127752   0.393   0.014  12.274  1.0664 -0.8708  1.1051
 5430SOL    HW227753   0.503   0.122  12.270  1.8506 -3.6241  1.3430
 5431SOL     OW27754   1.175   1.565  10.533 -0.0636  0.1449 -0.0802
 5431SOL    HW127755   1.144   1.475  10.529  1.4155 -0.4683  2.1747
 5431SOL    HW227756   1.135   1.585  10.618 -1.2290 -0.7208 -0.4266
 5432SOL     OW27757   4.529   3.278   3.450  0.1339 -0.1004 -0.6453
 5432SOL    HW127758   4.568   3.283   3.537 -1.4182  1.1302 -0.0311
 5432SOL    HW227759   4.580   3.348   3.408  2.7136 -0.9309  1.0930
 5433SOL     OW27760   3.544   2.151   8.555  0.1462 -0.1979 -0.0988
 5433SOL    HW127761   3.465   2.190   8.591  0.3695  0.0467  0.1267
 5433SOL    HW227762   3.596   2.228   8.531  0.1655 -0.0996  0.2564
 5434SOL     OW27763   3.122   1.981   3.413 -0.0229 -0.3643 -0.4214
 5434SOL    HW127764   3.174   2.058   3.392  0.4755 -0.6243 -0.1481
 5434SOL    HW227765   3.064   2.008   3.484  2.0331  0.8020  0.8195
 5435SOL     OW27766   4.112   2.811   8.076 -0.0589 -0.0818  0.0972
 5435SOL    HW127767   4.084   2.744   8.138 -0.6126  0.3260  0.2877
 5435SOL    HW227768   4.201   2.776   8.065 -0.3380 -0.1389 -1.9258
 5436SOL     OW27769   4.055   3.763   3.146  0.0354 -0.3827 -0.8110
 5436SOL    HW127770   3.970   3.806   3.135 -1.1655 -2.7589 -0.8352
 5436SOL    HW227771   4.071   3.736   3.055 -0.5098 -0.9401 -0.7401
 5437SOL     OW27772   3.129   1.217   3.909  0.0357  0.4168 -0.1001
 5437SOL    HW127773   3.170   1.186   3.990  0.0621 -0.7431 -0.5611
 5437SOL    HW227774   3.059   1.274   3.943 -0.1420 -1.0356  1.9433
 5438SOL     OW27775   0.330   1.515  14.855  0.0341  0.0569  0.0227
 5438SOL    HW127776   0.252   1.563  14.884 -0.1756  0.5532 -1.3715
 5438SOL    HW227777   0.372   1.578  14.797  0.8612 -0.9926 -0.5031
 5439SOL     OW27778   3.450   1.698   2.861  0.4660 -0.5308 -0.0397
 5439SOL    HW127779   3.497   1.633   2.808  0.4799  0.9941 -1.8673
 5439SOL    HW227780   3.453   1.773   2.802 -2.1068 -0.8022 -0.4866
 5440SOL     OW27781   0.326   0.153  17.139  0.3267 -0.3123 -0.4749
 5440SOL    HW127782   0.380   0.209  17.083 -1.4422  1.5246 -0.3539
 5440SOL    HW227783   0.353   0.175  17.228 -1.5308 -1.6796  0.4160
 5441SOL     OW27784   1.590   2.947   2.896  0.2144  0.9144  0.4509
 5441SOL    HW127785   1.588   2.854   2.874 -2.6100  0.9600  0.5806
 5441SOL    HW227786   1.667   2.945   2.953  0.4674 -0.1338  0.0836
 5442SOL     OW27787   2.896   0.764  10.590  0.2565  0.5743 -0.3637
 5442SOL    HW127788   2.883   0.689  10.532  0.7957 -0.4711  0.8482
 5442SOL    HW227789   2.978   0.745  10.635  0.3171  0.1017 -0.6735
 5443SOL     OW27790   0.499   0.617   6.573  0.5653 -0.5231 -0.1330
 5443SOL    HW127791   0.447   0.691   6.605 -0.0912  0.0512 -2.5338
 5443SOL    HW227792   0.568   0.665   6.527 -2.2876  1.1696 -2.6306
 5444SOL     OW27793   1.936   3.816   2.145 -0.6410  0.0046  0.4944
 5444SOL    HW127794   2.017   3.778   2.109 -0.0275  1.7005  0.1156
 5444SOL    HW227795   1.979   3.857   2.220 -0.3720  2.6392 -1.1152
 5445SOL     OW27796   2.811   0.007   3.456 -0.3147 -0.2613  0.3833
 5445SOL    HW127797   2.722   4.710   3.422 -0.0759  0.4635 -0.5978
 5445SOL    HW227798   2.867   4.692   3.386  1.1002  0.2014  1.3128
 5446SOL     OW27799   4.372   0.773  15.332  0.4741 -0.1429 -0.2389
 5446SOL    HW127800   4.335   0.748  15.417  0.0735  0.0852 -0.3488
 5446SOL    HW227801   4.374   0.689  15.286 -1.0021  0.6802 -1.7969
 5447SOL     OW27802   2.867   3.302  13.309 -0.0371  0.4227 -0.2830
 5447SOL    HW127803   2.917   3.361  13.252  1.3369  0.7726  1.2906
 5447SOL    HW227804   2.938   3.253  13.350  0.8709  2.5279  0.6564
 5448SOL     OW27805   3.156   1.443   4.050 -0.0642  0.3750 -0.0040
 5448SOL    HW127806   3.129   1.381   4.118  0.5268  1.5418  1.3052
 5448SOL    HW227807   3.233   1.471   4.101  1.2499 -3.6913  0.2044
 5449SOL     OW27808   3.138   3.030   0.773  0.2938 -0.1271 -0.4525
 5449SOL    HW127809   3.190   3.065   0.701  0.6553  0.7780  0.2445
 5449SOL    HW227810   3.048   3.039   0.742  1.3977  1.4977 -3.1238
 5450SOL     OW27811   3.621   3.512   7.613  0.2501  0.4170 -0.0225
 5450SOL    HW127812   3.619   3.433   7.559  1.3111  1.4718 -1.6189
 5450SOL    HW227813   3.657   3.465   7.688  0.9875  0.5283 -0.3028
 5451SOL     OW27814   2.294   2.331  11.054  0.2557 -0.6870  0.3536
 5451SOL    HW127815   2.306   2.307  11.146  1.2141 -0.1416  0.3687
 5451SOL    HW227816   2.279   2.243  11.020 -0.1374 -1.5032  2.6543
 5452SOL     OW27817   3.189   3.996   1.149 -0.6775 -0.4742  0.1159
 5452SOL    HW127818   3.240   4.010   1.229  1.0024  0.3927 -1.1182
 5452SOL    HW227819   3.247   3.952   1.088  0.4078  0.1281  0.7167
 5453SOL     OW27820   3.584   3.995   2.617 -0.0235 -0.1361  0.4459
 5453SOL    HW127821   3.587   4.084   2.581 -1.4073 -0.7976 -1.3002
 5453SOL    HW227822   3.621   3.944   2.545 -2.3886 -0.2623 -0.6872
 5454SOL     OW27823   2.408   4.653   5.396  0.0677  0.4948 -0.2117
 5454SOL    HW127824   2.460   4.575   5.413 -0.1469  0.0415 -1.6190
 5454SOL    HW227825   2.418   4.654   5.301 -0.3510  1.8898 -0.2509
 5455SOL     OW27826   3.858   3.239   5.212  0.0597 -0.1293 -0.7447
 5455SOL    HW127827   3.869   3.334   5.222  1.5724 -0.6632  2.8260
 5455SOL    HW227828   3.784   3.238   5.273 -0.4010 -0.7242 -1.3220
 5456SOL     OW27829   1.395   1.964   1.338 -0.0245  0.1799 -0.1665
 5456SOL    HW127830   1.366   1.975   1.429  0.2580  1.8930 -0.2995
 5456SOL    HW227831   1.322   1.937   1.281 -0.2730  0.1416  0.1670
 5457SOL     OW27832   1.192   2.339   6.242  0.2990  0.2528 -0.2403
 5457SOL    HW127833   1.272   2.289   6.226 -1.1571 -1.6381 -1.5072
 5457SOL    HW227834   1.218   2.408   6.181 -0.9337 -0.2246 -1.3087
 5458SOL     OW27835   2.376   4.204   1.156  1.0484  0.5273 -0.4787
 5458SOL    HW127836   2.304   4.267   1.155  0.6503  0.0716 -1.0480
 5458SOL    HW227837   2.380   4.160   1.241  0.9906  3.9888  1.3108
 5459SOL     OW27838   3.091   2.881   3.254  0.1890  0.0628 -0.0113
 5459SOL    HW127839   3.107   2.973   3.231  0.2782  0.1270  0.3203
 5459SOL    HW227840   3.056   2.848   3.171 -1.9402 -0.3906  1.0566
 5460SOL     OW27841   0.712   3.846   1.061 -0.1594 -0.0634  0.5812
 5460SOL    HW127842   0.767   3.924   1.051 -2.2971  1.6456  2.0975
 5460SOL    HW227843   0.783   3.786   1.083  1.3796  3.4557  5.0996
 5461SOL     OW27844   2.539   1.362   7.094 -0.4068  0.8230  0.4123
 5461SOL    HW127845   2.581   1.300   7.155  0.4640  0.6558 -0.3505
 5461SOL    HW227846   2.622   1.404   7.070  1.2510 -1.4641  2.0278
 5462SOL     OW27847   2.854   2.339  11.291 -0.3031 -0.2262 -0.1006
 5462SOL    HW127848   2.808   2.412  11.250 -2.4207 -1.9765 -0.8360
 5462SOL    HW227849   2.795   2.265  11.278 -0.2277 -0.2431 -0.3464
 5463SOL     OW27850   2.261   4.253   2.472  0.0802 -0.4643 -0.2253
 5463SOL    HW127851   2.236   4.175   2.421 -1.4712 -0.6588  0.8303
 5463SOL    HW227852   2.297   4.303   2.399 -1.9624  0.3079 -0.7003
 5464SOL     OW27853   2.645   0.669   9.253  0.2758 -0.5157  0.1264
 5464SOL    HW127854   2.720   0.644   9.308 -1.1718 -1.8849  1.4896
 5464SOL    HW227855   2.580   0.686   9.322  0.5604 -1.3280  0.5929
 5465SOL     OW27856   0.940   1.841   8.172 -0.2502 -0.1893  0.1222
 5465SOL    HW127857   0.965   1.833   8.079  1.4848 -1.2836  0.6697
 5465SOL    HW227858   1.009   1.784   8.208  0.2924  0.7985  0.6293
 5466SOL     OW27859   0.206   3.347   1.970  0.3446 -0.1971  0.0443
 5466SOL    HW127860   0.201   3.405   1.894  0.0484 -0.8533 -0.4307
 5466SOL    HW227861   0.208   3.406   2.046  0.7374  1.1256 -0.9919
 5467SOL     OW27862   1.229   2.593  10.966  0.1802  0.3800 -0.7721
 5467SOL    HW127863   1.179   2.541  11.030 -1.1515  1.5077 -0.8992
 5467SOL    HW227864   1.181   2.674  10.979 -0.6876 -0.5504  1.8967
 5468SOL     OW27865   3.958   4.369  11.239  0.1020 -0.3760 -0.3718
 5468SOL    HW127866   3.908   4.288  11.250 -0.2697 -0.0776  0.1270
 5468SOL    HW227867   3.880   4.418  11.211 -0.3878 -0.5245  0.7376
 5469SOL     OW27868   1.312   1.435  13.867  0.3246  0.5982 -0.4774
 5469SOL    HW127869   1.379   1.424  13.934 -0.6155  3.1011  0.9063
 5469SOL    HW227870   1.305   1.530  13.876 -1.0082  0.4141  0.3972
 5470SOL     OW27871   1.463   2.207   6.757 -0.3785  0.0694 -0.2134
 5470SOL    HW127872   1.552   2.179   6.735 -0.2133  1.4432 -1.2722
 5470SOL    HW227873   1.419   2.201   6.672  0.5125  3.2008 -0.8743
 5471SOL     OW27874   1.087   2.982  13.883  0.4875 -0.0499 -0.3006
 5471SOL    HW127875   1.113   2.978  13.975 -0.9572 -2.9445 -0.0045
 5471SOL    HW227876   1.068   3.074  13.866  2.7712  0.4721  0.0158
 5472SOL     OW27877   1.464   2.916   3.741  0.7199 -0.1714 -0.4896
 5472SOL    HW127878   1.524   2.971   3.791 -0.2300  0.4146  0.0084
 5472SOL    HW227879   1.518   2.883   3.669 -0.6161  0.8485 -1.9563
 5473SOL     OW27880   2.878   4.592   7.211 -0.2602 -0.1679 -0.1569
 5473SOL    HW127881   2.883   4.606   7.116  1.3390  0.5062  0.0334
 5473SOL    HW227882   2.873   4.497   7.209  0.3880 -0.1707 -2.1759
 5474SOL     OW27883   2.818   2.653   1.650 -0.1580  0.1670 -0.7071
 5474SOL    HW127884   2.741   2.655   1.593  0.8550  2.5919 -1.9581
 5474SOL    HW227885   2.876   2.712   1.602  0.9760  0.8555  1.5237
 5475SOL     OW27886   2.203   1.002   0.802  0.4792  0.1823  0.3978
 5475SOL    HW127887   2.108   0.991   0.792  0.5860  0.3246 -0.6766
 5475SOL    HW227888   2.217   0.913   0.836  0.6145 -0.4495 -1.3241
 5476SOL     OW27889   1.662   1.947  10.521  0.1119 -0.0245  0.2350
 5476SOL    HW127890   1.615   2.030  10.528 -0.3765 -0.1425 -1.6818
 5476SOL    HW227891   1.619   1.913  10.599  0.0638 -0.6349 -0.0597
 5477SOL     OW27892   1.972   2.322   7.404 -0.0328  0.5148 -0.8077
 5477SOL    HW127893   2.012   2.308   7.490  1.5089  1.2080 -1.4240
 5477SOL    HW227894   1.917   2.400   7.415 -0.6750 -0.2179  1.2263
 5478SOL     OW27895   3.825   4.521   7.215 -0.2682 -0.1111 -0.0943
 5478SOL    HW127896   3.888   4.564   7.273  1.7105 -1.9112 -0.9211
 5478SOL    HW227897   3.792   4.450   7.271 -2.7663  2.9494  2.4028
 5479SOL     OW27898   3.690   3.244   0.881  0.0023  0.5497  0.6082
 5479SOL    HW127899   3.762   3.233   0.818 -0.2562  1.1573  0.2058
 5479SOL    HW227900   3.691   3.153   0.910 -1.4987 -0.1746 -1.5767
 5480SOL     OW27901   3.853   2.159  14.728 -0.4381 -0.8176  0.3791
 5480SOL    HW127902   3.773   2.123  14.766 -1.0170 -0.5882 -0.6610
 5480SOL    HW227903   3.920   2.111  14.779 -0.4373  0.4542  1.5650
 5481SOL     OW27904   4.368   0.239  13.995  0.0356 -0.1540 -0.2320
 5481SOL    HW127905   4.373   0.150  14.032 -0.8398 -0.5864 -1.1506
 5481SOL    HW227906   4.422   0.288  14.057  0.0804 -1.0412  0.4271
 5482SOL     OW27907   1.146   0.252   4.546  0.1672 -0.0841 -0.7324
 5482SOL    HW127908   1.127   0.182   4.607 -0.9759  0.9040  0.0537
 5482SOL    HW227909   1.062   0.263   4.502  0.0156 -2.3046 -1.0057
 5483SOL     OW27910   0.071   1.086   3.302 -0.3433 -0.3691 -0.0216
 5483SOL    HW127911   0.121   1.060   3.224 -1.3726  1.7815 -1.3749
 5483SOL    HW227912   0.091   1.006   3.351  0.5280 -0.3169 -0.2902
 5484SOL     OW27913   1.087   3.397  12.579  0.1816  0.6302 -0.2383
 5484SOL    HW127914   1.114   3.472  12.632  0.3406 -1.0949  2.0859
 5484SOL    HW227915   1.086   3.427  12.488  0.9997 -0.9981 -0.7970
 5485SOL     OW27916   1.231   2.121  11.089  0.7938  0.2187 -0.3624
 5485SOL    HW127917   1.223   2.089  11.178 -2.8012  0.6066 -0.5473
 5485SOL    HW227918   1.318   2.101  11.053  1.1508  0.1051  0.5740
 5486SOL     OW27919   1.926   3.976   9.208 -0.0314  0.7846 -0.2794
 5486SOL    HW127920   1.893   4.021   9.130  1.5981 -0.5513 -1.7301
 5486SOL    HW227921   2.018   3.965   9.184 -0.3345 -3.1364  0.4412
 5487SOL     OW27922   3.478   4.057   9.408  0.7139  0.3104  0.2366
 5487SOL    HW127923   3.485   4.119   9.481 -1.3993  1.1507 -0.2828
 5487SOL    HW227924   3.533   3.987   9.444  2.0374  1.6355  0.8293
 5488SOL     OW27925   3.953   1.088   9.882 -0.4614  0.3114  0.3286
 5488SOL    HW127926   3.931   1.131   9.799 -0.5945  1.1066  0.7751
 5488SOL    HW227927   4.039   1.123   9.905 -0.1380  0.2441 -0.7333
 5489SOL     OW27928   4.423   4.250   5.084 -0.0579 -0.0383 -0.6867
 5489SOL    HW127929   4.338   4.218   5.115  0.0856 -0.1170 -0.3854
 5489SOL    HW227930   4.484   4.180   5.105  0.5244  0.6787 -0.0153
 5490SOL     OW27931   2.859   2.914   7.732  0.3673  0.9269 -0.6164
 5490SOL    HW127932   2.866   2.925   7.827 -1.6926  2.8438 -0.6991
 5490SOL    HW227933   2.765   2.901   7.725  0.6920 -1.0274 -1.3625
 5491SOL     OW27934   4.131   4.152   9.316 -0.8082  0.2691 -0.1004
 5491SOL    HW127935   4.105   4.241   9.293 -0.2360  0.7155  0.9475
 5491SOL    HW227936   4.201   4.163   9.381  0.4208 -0.6704 -1.2504
 5492SOL     OW27937   0.986   2.963  15.094 -0.7351 -0.1531  0.2417
 5492SOL    HW127938   0.911   3.016  15.122 -0.8440 -1.4318  2.3998
 5492SOL    HW227939   0.951   2.874  15.102 -0.0058 -0.6760 -2.4953
 5493SOL     OW27940   2.061   1.275   2.992 -0.6234 -0.2745 -0.1146
 5493SOL    HW127941   2.130   1.332   3.025  0.4119 -1.7274  0.2129
 5493SOL    HW227942   2.049   1.312   2.904 -1.4074 -0.0799  0.0722
 5494SOL     OW27943   2.260   4.385   6.054  0.3593 -0.0969 -0.2339
 5494SOL    HW127944   2.265   4.375   6.149  1.6957  0.6145 -0.2311
 5494SOL    HW227945   2.204   4.310   6.036  1.5510 -0.5848 -1.9158
 5495SOL     OW27946   0.143   3.592  14.885  0.0802 -0.1030 -0.5000
 5495SOL    HW127947   0.194   3.604  14.966  0.8895  0.8900 -1.1599
 5495SOL    HW227948   0.146   3.496  14.887 -1.5781 -0.1091  2.4107
 5496SOL     OW27949   0.727   3.688   5.354  0.1402  0.1838  0.3152
 5496SOL    HW127950   0.681   3.709   5.435 -1.6763 -2.3931 -0.0472
 5496SOL    HW227951   0.779   3.611   5.377  0.2533  0.6946  1.7657
 5497SOL     OW27952   1.719   3.412   0.498  0.6463 -0.2901 -0.0481
 5497SOL    HW127953   1.794   3.378   0.450  0.1596  2.7062 -2.9670
 5497SOL    HW227954   1.670   3.341   0.538  0.0324 -0.1427 -0.5327
 5498SOL     OW27955   1.028   3.343   4.446 -0.9339 -0.2436 -0.2264
 5498SOL    HW127956   0.968   3.287   4.397  0.1163 -0.6553 -1.0378
 5498SOL    HW227957   0.998   3.432   4.428  2.5693  1.1458  0.8304
 5499SOL     OW27958   4.535   0.984  11.661 -0.2269 -0.3365 -0.4204
 5499SOL    HW127959   4.590   0.931  11.719 -0.3068  2.0006  1.8028
 5499SOL    HW227960   4.543   1.066  11.709 -0.4106 -0.3669 -0.3406
 5500SOL     OW27961   1.584   0.659   4.318  0.0100  0.1993 -0.2312
 5500SOL    HW127962   1.538   0.732   4.360 -0.9513 -0.2366 -0.5380
 5500SOL    HW227963   1.661   0.705   4.282 -0.8998  0.7476 -1.4942
 5501SOL     OW27964   3.185   1.315   2.191  0.3951 -0.1179  0.6856
 5501SOL    HW127965   3.262   1.331   2.136 -0.9113  2.1997 -0.4800
 5501SOL    HW227966   3.165   1.232   2.147  1.2214  0.9856 -1.7676
 5502SOL     OW27967   2.315   3.866   0.755 -0.0196  0.0063 -0.1680
 5502SOL    HW127968   2.307   3.912   0.839 -1.8775 -1.6571  0.5730
 5502SOL    HW227969   2.222   3.848   0.740 -0.3966  0.6188  1.3927
 5503SOL     OW27970   1.957   2.614   7.425 -0.0709  0.2514 -0.5885
 5503SOL    HW127971   1.979   2.637   7.515  0.9579 -2.0016 -0.2666
 5503SOL    HW227972   1.865   2.638   7.410 -1.4209 -3.6996  1.1413
 5504SOL     OW27973   2.316   4.011   2.314  0.4786  0.1087  0.1810
 5504SOL    HW127974   2.351   4.022   2.226  1.1403 -2.5780  0.1172
 5504SOL    HW227975   2.397   3.991   2.362  2.3309 -0.4821 -3.2324
 5505SOL     OW27976   3.788   3.105  16.995 -0.7497  0.3178 -0.0852
 5505SOL    HW127977   3.860   3.166  17.013 -2.1132  1.2949  2.0782
 5505SOL    HW227978   3.832   3.020  16.994  0.7018  1.0926 -2.2326
 5506SOL     OW27979   3.961   3.909   5.907 -0.5491  0.6211  0.1767
 5506SOL    HW127980   3.925   3.854   5.976  0.2283  0.1173  0.1830
 5506SOL    HW227981   3.987   3.843   5.843  1.0599 -0.9865  2.4799
 5507SOL     OW27982   0.410   4.309   6.568 -0.1614 -0.1034 -0.6577
 5507SOL    HW127983   0.467   4.319   6.492  3.3056  0.6835  2.0308
 5507SOL    HW227984   0.394   4.399   6.596 -1.9537 -0.6851  0.1770
 5508SOL     OW27985   2.072   0.191   0.859 -0.5441 -0.2287 -0.2854
 5508SOL    HW127986   2.001   0.254   0.846  0.1487  0.4890 -0.5620
 5508SOL    HW227987   2.104   0.217   0.945  0.3997 -2.0906 -0.0745
 5509SOL     OW27988   4.389   2.599   1.609 -0.0311  0.0389 -0.2018
 5509SOL    HW127989   4.432   2.548   1.541  0.6513 -0.0574  0.3058
 5509SOL    HW227990   4.451   2.670   1.624 -3.5450  3.1643 -0.4127
 5510SOL     OW27991   3.430   0.466  10.608  0.2645  0.4681  0.0040
 5510SOL    HW127992   3.408   0.539  10.666  0.0457  0.1037  0.3801
 5510SOL    HW227993   3.379   0.392  10.641 -0.0554 -0.2563 -2.1521
 5511SOL     OW27994   3.133   1.727   3.994 -0.5535 -0.7091  0.0352
 5511SOL    HW127995   3.144   1.633   4.007 -0.0477 -0.4851  1.2550
 5511SOL    HW227996   3.144   1.760   4.083 -1.5123  0.5814 -0.3296
 5512SOL     OW27997   4.058   1.687   2.339 -0.5678  0.2539  0.0223
 5512SOL    HW127998   4.077   1.735   2.258 -1.6146 -0.0723 -0.4120
 5512SOL    HW227999   3.988   1.637   2.299 -1.5247  1.1536  0.5681
 5513SOL     OW28000   3.973   0.280  15.821  0.0760 -0.0264  0.2747
 5513SOL    HW128001   4.058   0.302  15.784 -0.9384 -1.4256 -2.8565
 5513SOL    HW228002   3.991   0.264  15.914  1.5058 -0.0935 -0.0033
 5514SOL     OW28003   3.315   3.711   7.945  0.0634 -0.4050  0.0996
 5514SOL    HW128004   3.338   3.669   8.028  2.5146  0.9457  0.1195
 5514SOL    HW228005   3.399   3.754   7.930 -0.0450 -0.1929  0.1100
 5515SOL     OW28006   1.519   1.100   7.039 -0.7184 -0.4114  0.1275
 5515SOL    HW128007   1.464   1.177   7.054 -1.1985 -1.0249  1.5875
 5515SOL    HW228008   1.605   1.139   7.031 -1.1592  0.5480  0.1005
 5516SOL     OW28009   1.101   2.196   6.441 -0.4880  0.4421  0.8356
 5516SOL    HW128010   1.128   2.230   6.526 -1.3929  0.8625  0.9539
 5516SOL    HW228011   1.121   2.267   6.381 -1.2240  0.1241  0.2133
 5517SOL     OW28012   4.255   3.747   4.391 -0.8040 -0.2606 -0.5830
 5517SOL    HW128013   4.164   3.745   4.363 -1.3661 -0.1245  1.2472
 5517SOL    HW228014   4.297   3.667   4.359 -0.6271 -0.6792  0.7000
 5518SOL     OW28015   3.922   0.189   8.523 -0.0949 -0.0992  0.4251
 5518SOL    HW128016   3.876   0.126   8.467  2.2584 -0.0522 -1.5397
 5518SOL    HW228017   3.860   0.262   8.514  0.9415  0.7480  0.1117
 5519SOL     OW28018   2.601   1.495   4.121 -0.6500 -0.2499 -0.3265
 5519SOL    HW128019   2.538   1.509   4.051 -0.2958 -0.0744 -0.6100
 5519SOL    HW228020   2.682   1.523   4.080 -0.9119  1.9681  0.6821
 5520SOL     OW28021   4.674   2.747   6.250 -0.3157 -0.2163  0.5388
 5520SOL    HW128022   4.633   2.804   6.185 -3.0162 -0.1614  2.3035
 5520SOL    HW228023   4.630   2.667   6.221 -2.3604  1.3088 -0.5516
 5521SOL     OW28024   2.322   1.937   7.434 -0.4116  0.1943 -0.3880
 5521SOL    HW128025   2.287   1.968   7.517 -1.0450 -0.8765 -0.2517
 5521SOL    HW228026   2.312   1.843   7.449  0.3454 -0.2613 -2.6704
 5522SOL     OW28027   3.889   0.852  10.341 -0.3351 -0.2816 -0.3487
 5522SOL    HW128028   3.799   0.869  10.314 -0.9130 -0.4015  1.5656
 5522SOL    HW228029   3.887   0.764  10.378 -0.6924 -0.1687 -0.1065
 5523SOL     OW28030   4.200   1.838   1.436  0.8862  0.3245 -1.1910
 5523SOL    HW128031   4.273   1.816   1.493 -1.2085  1.6095  1.9637
 5523SOL    HW228032   4.209   1.763   1.376 -2.2769 -1.4695  0.6037
 5524SOL     OW28033   0.959   0.263  13.086  0.4653  0.3791 -0.4006
 5524SOL    HW128034   0.883   0.230  13.039  0.7823 -1.5906  0.4670
 5524SOL    HW228035   0.980   0.342  13.035  1.5837  0.5584  0.3276
 5525SOL     OW28036   4.258   0.995   8.110  0.1545  0.9229  0.3347
 5525SOL    HW128037   4.337   1.045   8.130 -0.0716  1.2537  0.4007
 5525SOL    HW228038   4.195   1.061   8.139  1.0642  1.6804  0.5564
 5526SOL     OW28039   4.479   3.700   4.738 -0.4556  0.0265 -0.1217
 5526SOL    HW128040   4.429   3.645   4.798  0.3777  0.5391  1.0463
 5526SOL    HW228041   4.537   3.632   4.704 -1.1379  0.1057 -1.4318
 5527SOL     OW28042   0.584   1.924   4.535 -0.1079  0.0069  0.4218
 5527SOL    HW128043   0.536   1.928   4.617 -1.0553 -1.6848 -0.0587
 5527SOL    HW228044   0.531   1.864   4.482 -2.2052  1.7166  0.6236
 5528SOL     OW28045   3.013   4.338   8.924 -0.5166  0.5532  0.0309
 5528SOL    HW128046   2.933   4.307   8.882  1.3995 -1.6272 -1.9636
 5528SOL    HW228047   2.976   4.410   8.977  0.2164  0.3090  0.8785
 5529SOL     OW28048   0.231   4.086   3.901 -0.1718  0.9156  0.0398
 5529SOL    HW128049   0.283   4.081   3.981 -1.3471 -1.2341  0.6479
 5529SOL    HW228050   0.213   4.180   3.902  0.4375  1.0227  1.0636
 5530SOL     OW28051   2.179   3.526   4.892 -0.3059 -0.6109  0.3645
 5530SOL    HW128052   2.184   3.430   4.900  0.9078 -0.8708 -3.6032
 5530SOL    HW228053   2.096   3.542   4.847  0.1985  0.1721 -0.2891
 5531SOL     OW28054   2.134   0.016   5.397  0.4943 -0.0346 -0.4854
 5531SOL    HW128055   2.226   4.709   5.412 -0.5563 -4.1181 -0.8588
 5531SOL    HW228056   2.124   0.060   5.313 -0.6947  1.3685  0.3885
 5532SOL     OW28057   2.611   3.360   2.063  0.0711  0.2983  0.4634
 5532SOL    HW128058   2.582   3.357   1.972 -0.8018  0.4612  0.7403
 5532SOL    HW228059   2.706   3.353   2.052  0.1573 -0.7081  1.8870
 5533SOL     OW28060   4.533   2.060   8.028  0.1498  0.6006  0.8701
 5533SOL    HW128061   4.612   2.111   8.047 -0.2394  1.2265  0.8274
 5533SOL    HW228062   4.465   2.128   8.036 -0.0629  0.1940  2.6708
 5534SOL     OW28063   2.353   2.390   6.290  0.5008 -0.3671  0.3440
 5534SOL    HW128064   2.385   2.470   6.247  1.0143  0.4947  2.3002
 5534SOL    HW228065   2.326   2.344   6.211 -1.7949 -1.5284  1.8449
 5535SOL     OW28066   3.606   4.127   6.890 -0.2276 -0.4142 -0.4910
 5535SOL    HW128067   3.681   4.093   6.939 -0.1250 -0.7566 -0.8825
 5535SOL    HW228068   3.538   4.067   6.921 -0.4699 -0.2025 -0.6119
 5536SOL     OW28069   0.652   3.197   7.000 -0.8982  0.2224  0.0897
 5536SOL    HW128070   0.566   3.196   7.042 -1.6435 -0.2766 -1.4409
 5536SOL    HW228071   0.696   3.131   7.054  0.0435  1.1976  0.5197
 5537SOL     OW28072   1.161   1.557   9.093  0.0135  0.1678 -0.4255
 5537SOL    HW128073   1.094   1.490   9.077  0.5230 -0.5279  0.3563
 5537SOL    HW228074   1.189   1.539   9.183  2.8899  1.3740 -1.0922
 5538SOL     OW28075   1.039   3.594   3.182  0.7378 -0.1338 -0.3752
 5538SOL    HW128076   1.027   3.679   3.225  0.1671  0.9875 -2.7524
 5538SOL    HW228077   0.950   3.561   3.188  0.1752  1.2034 -1.1038
 5539SOL     OW28078   2.180   0.295   8.004  0.8911 -0.4967 -0.1312
 5539SOL    HW128079   2.134   0.224   8.049  0.8436 -0.8248 -0.6948
 5539SOL    HW228080   2.120   0.304   7.931 -1.3812 -0.3736  1.7313
 5540SOL     OW28081   0.241   3.198   0.917  0.3387  0.3643 -0.0160
 5540SOL    HW128082   0.226   3.129   0.853  0.6199  0.2559  0.0356
 5540SOL    HW228083   0.151   3.232   0.918  0.3038  0.2820 -0.3861
 5541SOL     OW28084   4.362   2.296   3.992 -0.1114 -0.0120  0.2260
 5541SOL    HW128085   4.308   2.231   4.038 -2.0295  1.9242  0.7244
 5541SOL    HW228086   4.364   2.268   3.901  1.1602  0.1756  0.1950
 5542SOL     OW28087   2.298   1.007   7.812 -0.5892 -0.0751  0.1726
 5542SOL    HW128088   2.373   0.997   7.870  0.0620  0.7671 -0.5290
 5542SOL    HW228089   2.301   1.102   7.801  0.9549 -0.1414  0.0350
 5543SOL     OW28090   3.577   4.407   9.336  0.4667  0.0193 -0.1957
 5543SOL    HW128091   3.518   4.364   9.398  0.2732 -1.4751 -1.4257
 5543SOL    HW228092   3.644   4.448   9.391 -1.7787  0.1576  2.4060
 5544SOL     OW28093   3.882   0.663   2.725 -0.0705 -0.3918  0.4096
 5544SOL    HW128094   3.819   0.594   2.705  1.0962 -1.4518  0.4584
 5544SOL    HW228095   3.921   0.675   2.639 -0.9394  0.4030  0.1219
 5545SOL     OW28096   2.824   4.300   3.443 -0.3226 -0.0114  0.3657
 5545SOL    HW128097   2.800   4.276   3.533 -0.8177  1.2415  0.5653
 5545SOL    HW228098   2.839   4.394   3.449  1.0177 -0.2996  1.4842
 5546SOL     OW28099   1.368   3.282   8.025 -0.7187 -0.2662 -0.5252
 5546SOL    HW128100   1.398   3.232   8.101  2.5260 -0.6094 -2.0475
 5546SOL    HW228101   1.362   3.368   8.067  0.6943 -1.7299  2.6988
 5547SOL     OW28102   0.591   2.344   0.826 -0.5173 -0.1867 -0.9285
 5547SOL    HW128103   0.684   2.321   0.835 -0.9624 -1.0565  1.5637
 5547SOL    HW228104   0.589   2.419   0.886 -1.2845  0.5379 -1.8618
 5548SOL     OW28105   4.187   3.676   1.323  0.4474  0.4490  0.7669
 5548SOL    HW128106   4.258   3.703   1.265  1.8896 -2.1094  1.3477
 5548SOL    HW228107   4.217   3.586   1.340  0.2111  0.0844 -0.7720
 5549SOL     OW28108   0.021   1.702   8.359 -0.6431  0.0438  0.1206
 5549SOL    HW128109   0.022   1.774   8.296 -0.7445  1.4664  1.7490
 5549SOL    HW228110   0.115   1.682   8.362 -0.5551  0.3761 -0.4251
 5550SOL     OW28111   2.863   1.953   5.904  0.5291 -0.2706  0.3316
 5550SOL    HW128112   2.930   1.950   5.835 -0.5890 -3.6991 -0.5836
 5550SOL    HW228113   2.863   2.048   5.920  2.1604 -0.1378 -0.4167
 5551SOL     OW28114   0.412   1.531   4.221  0.1282 -0.6028 -0.1180
 5551SOL    HW128115   0.410   1.518   4.126  0.7996 -1.5698 -0.0037
 5551SOL    HW228116   0.366   1.453   4.253  0.7363 -1.0683 -0.3592
 5552SOL     OW28117   4.273   3.572  12.478 -0.1972 -0.3501  0.2630
 5552SOL    HW128118   4.361   3.587  12.444  0.8318 -2.5521  2.0083
 5552SOL    HW228119   4.222   3.559  12.397  3.3971 -1.2192 -1.8450
 5553SOL     OW28120   3.283   2.209   3.405 -0.2775  0.4593 -0.4684
 5553SOL    HW128121   3.367   2.254   3.412 -0.0573 -0.2128  1.1015
 5553SOL    HW228122   3.212   2.273   3.415  0.6251  1.4776 -0.5437
 5554SOL     OW28123   2.359   0.799   3.206  0.6680 -0.5737  0.3361
 5554SOL    HW128124   2.449   0.788   3.174  0.3304 -0.4446 -0.6688
 5554SOL    HW228125   2.344   0.711   3.239  1.4252 -1.0707 -0.6218
 5555SOL     OW28126   4.642   3.518  15.390  0.1996  0.2866  0.1111
 5555SOL    HW128127   4.579   3.445  15.383  0.4268  0.0268  0.7502
 5555SOL    HW228128   4.586   3.585  15.430  2.0178  0.7390  1.9127
 5556SOL     OW28129   4.622   0.828   4.291 -0.3345 -0.5967 -0.4127
 5556SOL    HW128130   4.635   0.885   4.215  1.0825  0.1217  0.3677
 5556SOL    HW228131   4.564   0.766   4.247 -1.1102 -0.1857  0.0289
 5557SOL     OW28132   0.384   1.602   7.595 -0.4608  0.4424  0.2216
 5557SOL    HW128133   0.425   1.617   7.510 -0.2627 -0.9713  0.0578
 5557SOL    HW228134   0.426   1.666   7.652 -1.0678 -0.8315  2.0889
 5558SOL     OW28135   3.782   0.426   4.487 -0.3592  0.2290  0.0061
 5558SOL    HW128136   3.689   0.410   4.469 -0.1226  1.2400 -2.1075
 5558SOL    HW228137   3.776   0.509   4.534 -3.7142 -0.5157  0.8931
 5559SOL     OW28138   1.993   3.733   0.381  0.0044  0.0289  0.9440
 5559SOL    HW128139   2.027   3.785   0.454  0.6819 -1.7662  1.8988
 5559SOL    HW228140   1.899   3.744   0.393 -0.2364 -1.9641  0.7724
 5560SOL     OW28141   2.154   3.926  17.573  0.5772  0.4444  0.1400
 5560SOL    HW128142   2.120   3.876  17.648  0.0110  0.9496  0.2169
 5560SOL    HW228143   2.245   3.933  17.602 -0.1580  2.3917  1.9680
 5561SOL     OW28144   2.593   3.747   2.617 -0.4362 -0.0890 -0.5259
 5561SOL    HW128145   2.605   3.665   2.665 -0.7865 -0.1850 -0.6082
 5561SOL    HW228146   2.682   3.783   2.628 -1.2416  1.7727 -0.0725
 5562SOL     OW28147   3.929   1.416   5.380 -0.0071 -0.0941  0.2251
 5562SOL    HW128148   4.000   1.378   5.431  1.4834  2.4025 -0.0368
 5562SOL    HW228149   3.906   1.477   5.449 -0.0355  2.9535 -2.5074
 5563SOL     OW28150   1.975   4.345   6.167 -0.0766  0.2325  0.5981
 5563SOL    HW128151   2.021   4.376   6.245 -1.0960  1.6828  0.6124
 5563SOL    HW228152   1.896   4.299   6.197 -0.4344  0.8265  0.5556
 5564SOL     OW28153   2.961   0.906   5.618 -0.2047 -0.0344 -0.3138
 5564SOL    HW128154   2.873   0.868   5.619 -0.8847  1.5570 -0.2961
 5564SOL    HW228155   2.972   0.924   5.712 -1.2171  1.1398 -0.4173
 5565SOL     OW28156   3.827   0.435   5.819 -0.5438  0.1619 -0.1875
 5565SOL    HW128157   3.790   0.362   5.770 -2.7398  0.1645  1.4777
 5565SOL    HW228158   3.753   0.467   5.870 -0.5604  0.8691 -0.6479
 5566SOL     OW28159   1.267   2.239  17.054  0.6244 -0.8039 -0.5770
 5566SOL    HW128160   1.360   2.216  17.058  0.8603 -0.0219 -1.4813
 5566SOL    HW228161   1.269   2.307  17.121 -3.2940 -0.4116 -0.8773
 5567SOL     OW28162   1.850   1.413   4.959 -0.0234  0.2495 -0.2533
 5567SOL    HW128163   1.879   1.452   5.041  1.6619  0.3202 -0.8881
 5567SOL    HW228164   1.854   1.323   4.989 -0.0585  1.1952  2.6218
 5568SOL     OW28165   0.604   2.665   3.461 -0.2289 -0.5726 -0.3172
 5568SOL    HW128166   0.510   2.678   3.477  0.2112  1.7521  0.2799
 5568SOL    HW228167   0.612   2.570   3.473 -0.2446 -0.8418 -2.3614
 5569SOL     OW28168   2.037   3.743  12.746  0.1511 -0.0712  0.7155
 5569SOL    HW128169   1.968   3.731  12.811 -1.7821  0.3544 -1.2769
 5569SOL    HW228170   2.086   3.662  12.762 -0.5673 -0.9980 -1.7409
 5570SOL     OW28171   3.097   1.414  15.602 -0.0919 -0.1656 -0.0280
 5570SOL    HW128172   3.114   1.321  15.587 -2.6843 -0.5838 -0.4188
 5570SOL    HW228173   3.177   1.436  15.651 -0.6837  0.4329  0.6619
 5571SOL     OW28174   3.951   0.285   8.209 -0.0373  0.2615 -0.4439
 5571SOL    HW128175   3.980   0.365   8.165 -0.0113  1.1909  1.2699
 5571SOL    HW228176   4.010   0.285   8.285 -1.1083 -2.2830  0.3733
 5572SOL     OW28177   3.343   2.238  15.451  0.1199 -0.3543  0.3233
 5572SOL    HW128178   3.433   2.271  15.452 -0.0513  0.0750  1.2455
 5572SOL    HW228179   3.351   2.176  15.523  0.9039  2.7965  2.9555
 5573SOL     OW28180   0.576   1.163  13.105 -0.9256  0.3446  0.1955
 5573SOL    HW128181   0.635   1.103  13.060 -1.6855 -0.9553  0.9176
 5573SOL    HW228182   0.635   1.237  13.118  1.1263 -1.0057 -1.4565
 5574SOL     OW28183   4.252   3.335  11.146 -0.6761 -0.4786  0.0070
 5574SOL    HW128184   4.227   3.428  11.145  0.3433 -0.2047  1.0980
 5574SOL    HW228185   4.164   3.301  11.129 -1.5216  1.0818  1.2713
 5575SOL     OW28186   1.511   1.002  11.847  0.6530 -0.2337  0.3609
 5575SOL    HW128187   1.512   1.031  11.938 -0.9198  1.7763 -0.2657
 5575SOL    HW228188   1.533   1.087  11.810  0.1059  0.4174  1.5475
 5576SOL     OW28189   0.899   0.552   7.269  0.3779  0.4852 -0.7378
 5576SOL    HW128190   0.850   0.609   7.209 -2.0258 -0.1027  0.6599
 5576SOL    HW228191   0.833   0.507   7.322  2.1304  1.3426  2.1687
 5577SOL     OW28192   2.719   3.603   5.498  0.4867 -0.4338 -0.1012
 5577SOL    HW128193   2.732   3.607   5.404 -1.2708 -0.2099 -0.3284
 5577SOL    HW228194   2.763   3.523   5.526  0.3978 -0.6306 -0.5261
 5578SOL     OW28195   3.182   0.586  11.422 -0.3187  0.2246  0.0558
 5578SOL    HW128196   3.198   0.678  11.403 -0.7296  0.0871 -0.9881
 5578SOL    HW228197   3.120   0.555  11.355  1.9423 -0.2614 -1.8240
 5579SOL     OW28198   1.949   3.147  17.630 -0.5167  0.3820  0.0870
 5579SOL    HW128199   1.894   3.070  17.643  3.4799 -2.8475 -1.6749
 5579SOL    HW228200   1.988   3.140   0.041  0.9446 -2.9052 -0.8088
 5580SOL     OW28201   2.184   2.427  16.232  0.2380  0.6210  0.2224
 5580SOL    HW128202   2.150   2.468  16.154 -1.8159 -0.9874  0.2779
 5580SOL    HW228203   2.157   2.485  16.303 -2.1765 -0.9231  0.5617
 5581SOL     OW28204   3.383   3.691   4.017  0.1641 -0.1283  0.2399
 5581SOL    HW128205   3.424   3.762   4.067 -2.3376  1.2724  0.2662
 5581SOL    HW228206   3.404   3.724   3.930  1.5089  0.3502  0.7380
 5582SOL     OW28207   4.388   0.136   6.389  0.6832 -0.1032 -0.1316
 5582SOL    HW128208   4.353   0.140   6.300  1.2940  1.5638 -0.2737
 5582SOL    HW228209   4.306   0.101   6.427  2.1200 -2.3485  0.9463
 5583SOL     OW28210   1.808   3.165   5.478 -0.3442 -0.1553  0.7934
 5583SOL    HW128211   1.733   3.129   5.430  0.4384 -1.3221  0.4554
 5583SOL    HW228212   1.870   3.093   5.485  0.0596  0.1228  0.0285
 5584SOL     OW28213   2.305   2.348   3.176  0.6144 -0.2466 -0.3969
 5584SOL    HW128214   2.326   2.306   3.260  0.9528  1.0975  0.1846
 5584SOL    HW228215   2.226   2.304   3.143  1.6774 -0.6105 -2.4417
 5585SOL     OW28216   4.014   1.842   4.339  0.1736 -0.3841  0.1950
 5585SOL    HW128217   4.089   1.902   4.348 -0.5534  0.7476 -1.4435
 5585SOL    HW228218   3.993   1.810   4.427 -0.3341  0.7137  0.4639
 5586SOL     OW28219   3.332   1.233   1.594  0.3456  0.0169 -0.2463
 5586SOL    HW128220   3.361   1.203   1.508 -0.7754  1.6644 -1.1917
 5586SOL    HW228221   3.369   1.321   1.592 -0.0927  0.2101  0.1047
 5587SOL     OW28222   2.756   1.503   6.982  0.2837 -0.0549 -0.0455
 5587SOL    HW128223   2.808   1.522   6.904  1.2669  2.1292  1.1365
 5587SOL    HW228224   2.826   1.509   7.047 -0.0979 -0.9493  0.4508
 5588SOL     OW28225   4.388   3.505   3.367 -0.2156 -0.2244  0.2560
 5588SOL    HW128226   4.373   3.412   3.350  0.5208 -0.2955 -0.0141
 5588SOL    HW228227   4.437   3.504   3.449 -1.1088  0.0225  0.7967
 5589SOL     OW28228   1.904   2.617   4.263  0.1706 -0.2563 -0.1068
 5589SOL    HW128229   1.991   2.613   4.224 -0.3062 -1.1846 -1.0817
 5589SOL    HW228230   1.899   2.705   4.300  0.5452 -0.3512  0.1679
 5590SOL     OW28231   0.021   2.295   7.041 -0.9644  0.4747  0.0839
 5590SOL    HW128232   4.667   2.257   6.991 -0.2641 -0.5018 -0.1736
 5590SOL    HW228233   0.014   2.387   7.015  2.5884  0.6704 -0.1991
 5591SOL     OW28234   1.231   1.304  10.031 -0.3331  0.1804 -0.2125
 5591SOL    HW128235   1.226   1.377   9.969 -0.9166  1.2982  1.1473
 5591SOL    HW228236   1.185   1.340  10.107 -1.1929 -1.7752  0.2086
 5592SOL     OW28237   2.704   0.990   2.624  0.5699  0.2535 -0.0113
 5592SOL    HW128238   2.799   0.994   2.617  0.5767 -3.8607 -2.2175
 5592SOL    HW228239   2.681   1.025   2.537 -0.1110  2.5353  1.0804
 5593SOL     OW28240   0.817   0.383   2.627 -0.3443  0.5769  0.6020
 5593SOL    HW128241   0.823   0.289   2.644 -0.6094  0.5306  0.4412
 5593SOL    HW228242   0.900   0.384   2.579 -0.7635  1.2827 -0.1149
 5594SOL     OW28243   1.051   0.061  12.109  0.8409  0.0631  0.4662
 5594SOL    HW128244   1.007   0.122  12.050  0.3426 -1.9739 -1.2656
 5594SOL    HW228245   0.974   0.031  12.157  0.5931 -1.5906 -0.9579
 5595SOL     OW28246   2.924   1.636   4.749 -0.5310 -0.7734  0.2762
 5595SOL    HW128247   2.906   1.668   4.838  1.8858  0.2833  0.3850
 5595SOL    HW228248   2.882   1.709   4.704  1.4496  0.0159 -0.2742
 5596SOL     OW28249   2.353   0.911   5.970 -0.5348  0.1767 -0.5987
 5596SOL    HW128250   2.320   0.834   6.017  2.3843 -1.4071 -1.1036
 5596SOL    HW228251   2.331   0.887   5.880 -0.7624 -0.1458 -0.4585
 5597SOL     OW28252   3.818   0.899   7.364  0.6184 -0.0486 -0.2365
 5597SOL    HW128253   3.782   0.985   7.385  0.2488  0.1839 -1.8215
 5597SOL    HW228254   3.818   0.846   7.444  1.8489  0.4302  0.0933
 5598SOL     OW28255   1.119   0.823   3.056  0.1988  0.1754  0.2325
 5598SOL    HW128256   1.063   0.892   3.092  0.3105  1.2157 -1.5903
 5598SOL    HW228257   1.179   0.884   3.012  1.1566 -1.9753 -1.4158
 5599SOL     OW28258   2.858   2.998   6.362 -0.6201  0.2488  0.4585
 5599SOL    HW128259   2.924   2.930   6.346  1.3313  2.1062  0.7134
 5599SOL    HW228260   2.793   2.948   6.412 -0.4729 -0.6249 -0.2125
 5600SOL     OW28261   0.797   3.078  16.286  0.0141 -0.5152  0.1474
 5600SOL    HW128262   0.882   3.116  16.311  0.3784 -1.6561  0.6289
 5600SOL    HW228263   0.802   2.990  16.322  0.0648  0.2436  2.0397
 5601SOL     OW28264   0.950   0.392   6.282  0.5073  0.3168 -0.4345
 5601SOL    HW128265   1.014   0.334   6.240 -0.0492 -1.6262  1.3666
 5601SOL    HW228266   0.871   0.369   6.233 -1.6317  0.4363  2.9620
 5602SOL     OW28267   1.778   4.372   8.921 -0.2710  0.1283  0.0330
 5602SOL    HW128268   1.748   4.449   8.872 -0.2642 -0.5469 -1.0323
 5602SOL    HW228269   1.834   4.331   8.855 -1.0954  2.0455 -1.8638
 5603SOL     OW28270   0.705   0.338   5.001  0.3589  0.1029  0.0388
 5603SOL    HW128271   0.744   0.312   5.084 -2.9453 -1.2281  1.1918
 5603SOL    HW228272   0.753   0.418   4.982  0.0791  0.0654 -0.8475
 5604SOL     OW28273   3.720   1.536   8.159 -0.6302  0.3466 -0.1857
 5604SOL    HW128274   3.637   1.584   8.164 -0.8572 -0.0280 -0.3430
 5604SOL    HW228275   3.753   1.559   8.072  2.5411  1.4214  1.2982
 5605SOL     OW28276   0.259   0.957   4.760  0.0881  0.3833  0.1304
 5605SOL    HW128277   0.166   0.971   4.740 -0.1749 -0.1345  0.9672
 5605SOL    HW228278   0.276   0.991   4.848  1.2607 -0.7775  0.3461
 5606SOL     OW28279   1.226   3.973   9.524 -0.0608  0.0096  0.2425
 5606SOL    HW128280   1.146   4.014   9.557  0.3898  0.8350  0.3253
 5606SOL    HW228281   1.291   4.007   9.585 -0.6065  1.6042 -0.0652
 5607SOL     OW28282   0.658   2.500   0.581 -0.1195  0.1845 -0.4731
 5607SOL    HW128283   0.724   2.431   0.584 -1.8922 -1.4594  1.0755
 5607SOL    HW228284   0.582   2.444   0.567  0.2513 -0.3979 -0.1990
 5608SOL     OW28285   4.247   4.632   8.527 -0.5267  0.1195 -0.5865
 5608SOL    HW128286   4.217   4.670   8.444 -0.9433 -0.5961 -0.7626
 5608SOL    HW228287   4.291   4.557   8.489  0.4194 -1.3123  3.3519
 5609SOL     OW28288   3.128   2.203   8.007 -0.3785  0.7057  0.2752
 5609SOL    HW128289   3.198   2.260   8.037  0.8569 -0.6891  0.0502
 5609SOL    HW228290   3.173   2.169   7.930  1.5171  1.1838  1.1944
 5610SOL     OW28291   1.207   1.387   8.718  0.1418  0.1369 -0.4844
 5610SOL    HW128292   1.154   1.308   8.732 -2.1150  1.9178  1.1045
 5610SOL    HW228293   1.290   1.353   8.687  0.8078  0.3451  1.0984
 5611SOL     OW28294   4.430   2.471  10.994 -0.5174  0.3637 -1.1853
 5611SOL    HW128295   4.385   2.419  10.928 -0.7953  0.7218 -1.2795
 5611SOL    HW228296   4.361   2.487  11.058  0.1478  0.4566 -0.4876
 5612SOL     OW28297   3.225   3.601  13.498 -0.0286  0.1468  0.0876
 5612SOL    HW128298   3.281   3.675  13.478  3.3294 -2.3977  0.1633
 5612SOL    HW228299   3.226   3.614  13.593  1.7294  4.3430 -0.4941
 5613SOL     OW28300   2.092   4.180   5.967 -0.0290 -0.0472 -0.5237
 5613SOL    HW128301   2.029   4.151   5.901 -0.2342 -2.8362  0.9279
 5613SOL    HW228302   2.034   4.229   6.025  0.0991  1.3756 -1.5749
 5614SOL     OW28303   3.169   3.525   7.737 -0.3834  0.3932  0.0733
 5614SOL    HW128304   3.075   3.537   7.752 -0.7107 -0.1286 -1.5534
 5614SOL    HW228305   3.198   3.531   7.828  2.6736 -0.2258 -0.8335
 5615SOL     OW28306   0.805   4.463   7.706 -0.1089 -0.5852 -0.3077
 5615SOL    HW128307   0.858   4.531   7.749 -0.8741 -1.7027  2.4227
 5615SOL    HW228308   0.872   4.408   7.666  0.3994 -0.4788  0.3871
 5616SOL     OW28309   3.807   3.701   5.714  0.0073 -0.1443  0.0099
 5616SOL    HW128310   3.742   3.760   5.677 -0.4870  0.3639  1.6952
 5616SOL    HW228311   3.887   3.738   5.677 -1.3510  2.5917 -0.1481
 5617SOL     OW28312   3.291   2.276   8.626  0.0202  0.2667  0.4770
 5617SOL    HW128313   3.287   2.369   8.602  1.5628 -0.0851 -1.1084
 5617SOL    HW228314   3.273   2.278   8.720 -0.0451  0.9790  0.4545
 5618SOL     OW28315   0.948   0.330   4.791 -0.3535 -0.2140 -0.2315
 5618SOL    HW128316   0.965   0.382   4.869  1.4545 -1.6512  0.3338
 5618SOL    HW228317   0.859   0.344   4.759 -0.4657 -1.3295 -0.4015
 5619SOL     OW28318   1.387   3.114   4.762  0.0804  0.3163 -0.2621
 5619SOL    HW128319   1.333   3.183   4.800 -1.6591 -1.7148  0.9347
 5619SOL    HW228320   1.446   3.099   4.836 -0.2701 -1.7051 -0.3949
 5620SOL     OW28321   2.329   3.815   7.960 -0.2762 -0.4247 -0.1069
 5620SOL    HW128322   2.303   3.775   8.043 -3.0398  1.5071 -0.0374
 5620SOL    HW228323   2.267   3.887   7.954 -1.3890 -1.6731 -3.4951
 5621SOL     OW28324   1.567   1.933   0.739 -0.1312 -0.3770 -0.2258
 5621SOL    HW128325   1.504   1.902   0.803 -1.2343 -0.9774 -1.6065
 5621SOL    HW228326   1.607   1.997   0.798  0.7468  1.2698 -2.5777
 5622SOL     OW28327   0.216   1.402   4.607 -0.3962 -0.0288 -0.4419
 5622SOL    HW128328   0.264   1.343   4.550  1.0376  0.6945  0.0078
 5622SOL    HW228329   0.279   1.426   4.675 -1.4458 -0.3357  0.6443
 5623SOL     OW28330   2.160   4.465   0.564 -0.0948  0.0484 -0.3500
 5623SOL    HW128331   2.124   4.513   0.639  0.0723  1.5531 -1.2389
 5623SOL    HW228332   2.243   4.508   0.541  0.5742 -0.6065  0.8196
 5624SOL     OW28333   1.284   0.595   7.705  0.4028 -0.1980 -0.3047
 5624SOL    HW128334   1.224   0.541   7.757 -1.1173  2.0709  0.3186
 5624SOL    HW228335   1.273   0.679   7.750  0.8157 -0.0795 -0.4299
 5625SOL     OW28336   4.434   0.896   4.951  0.3039  0.0552  0.4744
 5625SOL    HW128337   4.468   0.961   5.013  2.8897  0.4108 -1.3463
 5625SOL    HW228338   4.413   0.959   4.882 -1.1068 -0.0290  0.8296
 5626SOL     OW28339   0.704   3.510   7.200  0.4410  0.0590  0.0702
 5626SOL    HW128340   0.751   3.475   7.124  4.0258  2.1442  1.3163
 5626SOL    HW228341   0.635   3.444   7.207  1.3510 -0.8277  0.7060
 5627SOL     OW28342   3.378   3.880   1.375 -0.4904 -0.3899 -0.2905
 5627SOL    HW128343   3.418   3.802   1.412 -2.1118  0.6733  3.7336
 5627SOL    HW228344   3.427   3.952   1.416  0.9730 -1.4032 -0.2768
 5628SOL     OW28345   2.719   0.320   4.600 -0.3066  0.0996  0.7402
 5628SOL    HW128346   2.689   0.328   4.509  0.9519 -3.4337  0.0129
 5628SOL    HW228347   2.809   0.353   4.596  0.4596 -2.2124 -1.0847
 5629SOL     OW28348   4.313   4.411   3.277 -0.0267 -0.4590 -0.6728
 5629SOL    HW128349   4.315   4.358   3.197  0.7419 -1.9520  0.3272
 5629SOL    HW228350   4.228   4.455   3.280 -1.1866 -2.6603 -0.6442
 5630SOL     OW28351   3.284   3.740   4.455 -0.0505 -0.1374  0.1244
 5630SOL    HW128352   3.259   3.829   4.480 -3.5494 -1.2304  0.5937
 5630SOL    HW228353   3.231   3.737   4.375  2.9185 -1.8027 -1.8049
 5631SOL     OW28354   0.057   3.722   8.134  0.3971  0.3358  0.0728
 5631SOL    HW128355   0.073   3.742   8.226 -2.2938 -0.1257  0.6169
 5631SOL    HW228356   4.681   3.708   8.137  0.5861 -0.5990  1.4760
 5632SOL     OW28357   0.820   1.981   4.424 -0.0603  0.1346  0.2553
 5632SOL    HW128358   0.821   2.073   4.398 -0.9871  0.0833  0.0142
 5632SOL    HW228359   0.729   1.969   4.450  0.0132  3.6219  1.9993
 5633SOL     OW28360   2.496   3.390   9.159  0.8990 -0.1205  0.3563
 5633SOL    HW128361   2.452   3.472   9.137  0.2222 -0.2963  1.0383
 5633SOL    HW228362   2.561   3.429   9.218  2.1310  1.1799 -1.8803
 5634SOL     OW28363   3.575   0.341   9.701 -0.3999 -0.3781  0.2979
 5634SOL    HW128364   3.504   0.307   9.755 -1.0045  0.1645 -0.1685
 5634SOL    HW228365   3.609   0.413   9.755  0.7614  0.7888 -2.0134
 5635SOL     OW28366   0.076   0.064   7.267 -0.0275 -0.3129 -0.0391
 5635SOL    HW128367   0.100   4.689   7.266  0.4362 -0.1920 -0.2697
 5635SOL    HW228368   0.162   0.104   7.282  0.6912 -0.7992 -2.9093
 5636SOL     OW28369   3.726   0.588   2.158 -0.1623  0.1849  0.0742
 5636SOL    HW128370   3.821   0.583   2.145  0.0547 -0.0153  1.7550
 5636SOL    HW228371   3.697   0.619   2.072 -1.1279  1.5384  0.8969
 5637SOL     OW28372   4.667   0.678   0.502 -0.1463  0.3064  0.2683
 5637SOL    HW128373   4.665   0.651   0.593  0.5856  0.3040  0.2885
 5637SOL    HW228374   4.689   0.595   0.459 -0.1469  0.5134 -0.1340
 5638SOL     OW28375   0.057   3.697   1.413  0.0851 -0.3999  0.0867
 5638SOL    HW128376   0.069   3.790   1.393  0.7867 -0.1031  1.8444
 5638SOL    HW228377   0.016   3.660   1.335 -1.1956 -0.8221  0.9452
 5639SOL     OW28378   3.557   0.443  10.092  0.1713  0.1603 -0.4158
 5639SOL    HW128379   3.481   0.407  10.138 -1.8723  2.2293 -2.1804
 5639SOL    HW228380   3.599   0.493  10.162  1.3537  1.6253 -2.1796
 5640SOL     OW28381   3.589   2.368  17.155 -0.1466 -0.1048 -0.5976
 5640SOL    HW128382   3.620   2.319  17.231  1.4815 -1.7579 -2.3292
 5640SOL    HW228383   3.651   2.335  17.091 -0.8207 -1.3244 -0.6161
 5641SOL     OW28384   4.604   2.819   1.592 -0.3069  0.3228 -0.2156
 5641SOL    HW128385   4.691   2.791   1.565 -0.3212  1.2943 -1.2831
 5641SOL    HW228386   4.619   2.879   1.664 -1.6068  1.2007 -0.6630
 5642SOL     OW28387   1.183   2.378   5.792  0.3860 -0.1156  0.0381
 5642SOL    HW128388   1.145   2.370   5.704 -0.2953 -3.2520  0.6381
 5642SOL    HW228389   1.225   2.293   5.800 -0.2033 -0.3901  0.2248
 5643SOL     OW28390   2.490   2.462  16.444  0.3978  0.0808 -0.2428
 5643SOL    HW128391   2.440   2.456  16.525  1.5929  0.9510  0.5460
 5643SOL    HW228392   2.544   2.384  16.434 -0.8621 -0.7572 -0.5969
 5644SOL     OW28393   4.076   3.291  15.741 -0.0756 -0.7412 -0.0575
 5644SOL    HW128394   4.060   3.260  15.652 -0.8835 -0.8355  0.1186
 5644SOL    HW228395   4.146   3.230  15.765  0.5237  0.4770  1.3142
 5645SOL     OW28396   4.380   2.781   3.052  0.2846  0.6258 -0.1257
 5645SOL    HW128397   4.466   2.788   3.094  1.1218 -1.3475 -1.4745
 5645SOL    HW228398   4.333   2.858   3.082 -0.8215  0.3107 -1.0161
 5646SOL     OW28399   2.246   4.221   6.822 -0.4545  0.3263 -0.5469
 5646SOL    HW128400   2.180   4.232   6.891  0.7955  2.0263  0.3705
 5646SOL    HW228401   2.185   4.220   6.748  0.1206  1.4302 -1.0367
 5647SOL     OW28402   1.905   1.490   6.741  0.3530  0.0064  0.3500
 5647SOL    HW128403   1.923   1.415   6.797  1.1041 -0.4166 -0.4631
 5647SOL    HW228404   1.898   1.554   6.811  1.3077 -1.0791  1.4260
 5648SOL     OW28405   0.950   2.664   6.879  0.3816  0.1353  0.5609
 5648SOL    HW128406   0.960   2.745   6.828 -2.3050  0.0594 -0.0802
 5648SOL    HW228407   0.990   2.684   6.964  0.5817  1.6437  0.1082
 5649SOL     OW28408   3.462   1.671   7.320 -0.2607 -0.0090  0.0566
 5649SOL    HW128409   3.504   1.750   7.287  0.2685 -1.5959 -3.1151
 5649SOL    HW228410   3.533   1.607   7.313 -0.1007  0.2007 -0.2190
 5650SOL     OW28411   1.079   4.012  12.325  0.0231  0.4377  0.1232
 5650SOL    HW128412   1.041   4.100  12.324 -2.4792 -0.6565 -0.7980
 5650SOL    HW228413   1.000   3.960  12.339 -0.8063  1.7720  0.4421
 5651SOL     OW28414   0.296   3.403   6.109  0.2096 -0.2146  0.5347
 5651SOL    HW128415   0.295   3.410   6.204 -0.1945  0.7216  0.4658
 5651SOL    HW228416   0.339   3.485   6.086 -1.0540  0.9499  2.3638
 5652SOL     OW28417   1.605   2.200   6.014  0.0407 -0.0717  0.6868
 5652SOL    HW128418   1.537   2.251   5.971  0.6558  0.1439 -0.0503
 5652SOL    HW228419   1.629   2.134   5.948  2.7552 -0.9893  2.5961
 5653SOL     OW28420   3.728   3.234  14.225  0.6201  0.4341 -0.2431
 5653SOL    HW128421   3.800   3.256  14.166  3.8683 -1.3857  3.0334
 5653SOL    HW228422   3.768   3.173  14.287 -1.4694 -1.8197 -1.1113
 5654SOL     OW28423   3.518   0.978   5.968  0.6120  0.0419  0.2827
 5654SOL    HW128424   3.473   0.911   6.018  0.1739 -1.0733 -1.6040
 5654SOL    HW228425   3.561   1.042   6.025  1.8272 -0.5732  0.0589
 5655SOL     OW28426   1.643   0.525   5.904  0.3055 -0.4227  0.2320
 5655SOL    HW128427   1.579   0.485   5.963  0.2194 -0.2529  0.2537
 5655SOL    HW228428   1.715   0.464   5.887  0.0559 -0.5141 -0.4971
 5656SOL     OW28429   1.614   1.515   4.854  0.3278 -0.5426 -0.6284
 5656SOL    HW128430   1.691   1.470   4.889  0.1861  0.5989  1.1281
 5656SOL    HW228431   1.623   1.516   4.758  0.3848  0.0184 -0.6176
 5657SOL     OW28432   3.584   3.379   8.284  0.0778  0.9923  0.3432
 5657SOL    HW128433   3.619   3.457   8.242  1.0603  1.0258  1.2234
 5657SOL    HW228434   3.512   3.421   8.331 -0.2569 -1.4658  2.0039
 5658SOL     OW28435   4.499   0.359   7.338 -0.4339  0.1038 -0.1175
 5658SOL    HW128436   4.593   0.379   7.336 -0.4440 -0.0914 -2.2763
 5658SOL    HW228437   4.496   0.267   7.312  1.7086 -0.0640  0.1909
 5659SOL     OW28438   0.258   1.121   4.979  0.1536 -0.0165 -0.0258
 5659SOL    HW128439   0.284   1.195   5.034  1.1327  0.2417 -0.8475
 5659SOL    HW228440   0.286   1.046   5.032  3.4097  0.9023 -0.4419
 5660SOL     OW28441   4.033   2.760   5.142 -0.0372  0.1329  0.0096
 5660SOL    HW128442   3.970   2.812   5.190 -0.5249  0.1995 -0.6929
 5660SOL    HW228443   4.054   2.695   5.209 -0.0342 -3.3585 -3.3386
 5661SOL     OW28444   4.011   1.824   8.976  0.1914 -0.1511 -0.1335
 5661SOL    HW128445   4.040   1.770   9.050  1.4305 -0.0036 -0.5032
 5661SOL    HW228446   4.064   1.788   8.905  0.5553  0.3649 -0.1274
 5662SOL     OW28447   1.853   1.379   7.475  0.1264  0.2494  0.0416
 5662SOL    HW128448   1.913   1.342   7.541 -0.5519  1.6703  1.4623
 5662SOL    HW228449   1.922   1.420   7.423  0.1216 -0.1219 -0.2570
 5663SOL     OW28450   1.370   3.137  14.607 -0.1139  0.5685  0.6773
 5663SOL    HW128451   1.364   3.177  14.694  1.9367 -0.1305  1.1343
 5663SOL    HW228452   1.370   3.211  14.547 -2.0255 -1.3845 -1.7016
 5664SOL     OW28453   3.642   0.884  16.564  0.0946 -0.4097  0.3482
 5664SOL    HW128454   3.566   0.901  16.619 -2.1122 -3.6671 -1.6837
 5664SOL    HW228455   3.705   0.949  16.596 -2.0047  1.9132 -0.2984
 5665SOL     OW28456   4.246   1.715  10.072 -0.1772 -0.6297 -0.2655
 5665SOL    HW128457   4.320   1.775  10.066 -0.7622  0.0322 -0.7359
 5665SOL    HW228458   4.239   1.689  10.164 -1.0444 -0.1620 -0.1963
 5666SOL     OW28459   4.693   3.167  14.011  0.0142 -0.0762 -0.2878
 5666SOL    HW128460   0.035   3.168  14.086 -0.8297  2.1236  0.3692
 5666SOL    HW228461   4.618   3.129  14.057 -0.4079 -0.1453 -1.0480
 5667SOL     OW28462   3.993   4.133  15.387  0.0529  0.1249 -1.0910
 5667SOL    HW128463   4.035   4.125  15.301 -0.7275 -1.1474 -1.3685
 5667SOL    HW228464   3.899   4.129  15.370 -0.1079 -1.3456  0.0956
 5668SOL     OW28465   1.929   3.666   7.159 -0.1629 -0.2253  0.1781
 5668SOL    HW128466   2.006   3.702   7.202  1.8173 -0.2109 -3.3668
 5668SOL    HW228467   1.957   3.618   7.081 -0.6194 -0.3190  0.0712
 5669SOL     OW28468   0.500   0.014   4.410 -0.3633 -0.0940  0.0106
 5669SOL    HW128469   0.497   0.092   4.466  0.9914 -0.3764  0.4913
 5669SOL    HW228470   0.462   0.048   4.329 -1.7106  0.1017  0.7368
 5670SOL     OW28471   0.590   1.966   9.067  0.1648  0.0731  0.1227
 5670SOL    HW128472   0.659   2.024   9.037  0.2732 -0.3077 -0.3680
 5670SOL    HW228473   0.628   1.882   9.041  1.8115  0.1101  2.3885
 5671SOL     OW28474   0.556   1.918   8.711 -0.3706  0.3949 -0.3139
 5671SOL    HW128475   0.645   1.945   8.734 -0.1936 -1.6193  1.2570
 5671SOL    HW228476   0.586   1.835   8.675  1.3305  0.3575  1.1861
 5672SOL     OW28477   3.245   2.525   0.414  0.4108  0.2326  0.0585
 5672SOL    HW128478   3.213   2.480   0.492 -2.0480  1.8333 -0.0258
 5672SOL    HW228479   3.320   2.570   0.452  0.5012 -1.1204  1.5069
 5673SOL     OW28480   3.351   2.735   3.224  0.1492 -0.7594  0.2726
 5673SOL    HW128481   3.279   2.692   3.179  0.0758  0.7988 -1.1016
 5673SOL    HW228482   3.407   2.662   3.252 -1.4024 -1.6200  1.1061
 5674SOL     OW28483   1.367   0.888   5.641  0.4561 -0.2807  0.2825
 5674SOL    HW128484   1.380   0.962   5.581 -1.0427  0.4025  0.8192
 5674SOL    HW228485   1.272   0.877   5.649  0.5778 -0.7116  1.0462
 5675SOL     OW28486   2.533   4.196   8.015 -0.2395  0.7862 -0.2564
 5675SOL    HW128487   2.551   4.103   8.003 -0.5597  0.9961 -2.3100
 5675SOL    HW228488   2.618   4.225   7.983  0.8206 -0.6119  1.2645
 5676SOL     OW28489   2.936   3.433   5.841 -0.1849  0.0416 -0.5368
 5676SOL    HW128490   2.891   3.416   5.759  1.3949  0.3307 -1.4690
 5676SOL    HW228491   3.006   3.493   5.815  0.2089  0.4565  1.4877
 5677SOL     OW28492   3.043   2.730  11.888  0.0724  0.1558  0.1989
 5677SOL    HW128493   3.124   2.774  11.915  0.4101  0.0746 -0.6927
 5677SOL    HW228494   2.997   2.711  11.970 -1.2510 -2.2246 -1.0941
 5678SOL     OW28495   3.290   3.753  14.907 -0.4321 -0.3521  0.4167
 5678SOL    HW128496   3.276   3.658  14.901  2.3382 -0.7525  0.5441
 5678SOL    HW228497   3.265   3.786  14.821 -0.0630  1.8317  1.1492
 5679SOL     OW28498   4.599   0.502   4.945  0.7214  0.2522  0.5426
 5679SOL    HW128499   4.571   0.420   4.905  0.8508  0.0298  0.9016
 5679SOL    HW228500   4.683   0.517   4.903 -0.0269 -0.4157 -1.2074
 5680SOL     OW28501   3.258   1.777  13.670  0.3562  0.0583 -0.2292
 5680SOL    HW128502   3.168   1.781  13.639  0.3674  2.6376  0.0917
 5680SOL    HW228503   3.288   1.734  13.589  1.1676  1.9890 -0.9605
 5681SOL     OW28504   0.835   4.207   8.158 -0.1525  0.2947  0.2523
 5681SOL    HW128505   0.887   4.281   8.191  0.1222 -0.0925  0.6938
 5681SOL    HW228506   0.910   4.148   8.149  0.1149  0.6936 -0.1234
 5682SOL     OW28507   1.062   1.127  15.280  0.0238  0.4940 -0.3098
 5682SOL    HW128508   1.103   1.146  15.196  1.3554  1.1985  0.4884
 5682SOL    HW228509   1.028   1.039  15.268 -0.0956  0.6696 -1.2099
 5683SOL     OW28510   1.937   0.631   4.678  0.0323  0.7125 -0.2489
 5683SOL    HW128511   1.854   0.605   4.639 -0.4304 -0.6252  1.6344
 5683SOL    HW228512   1.995   0.640   4.602  0.1893 -0.1202 -0.2245
 5684SOL     OW28513   0.103   1.108   0.443 -0.0312  0.3378  0.0452
 5684SOL    HW128514   0.061   1.029   0.408  0.7249 -0.3836  0.7356
 5684SOL    HW228515   0.080   1.093   0.535 -0.0976 -1.2834 -0.2322
 5685SOL     OW28516   3.638   1.568  13.836  0.5319  0.3397 -0.7212
 5685SOL    HW128517   3.693   1.494  13.812  0.6162  0.2466 -0.2463
 5685SOL    HW228518   3.645   1.555  13.931  1.0570 -0.5104 -0.8818
 5686SOL     OW28519   0.217   4.401   3.417 -0.0854 -1.2043  0.6396
 5686SOL    HW128520   0.163   4.475   3.444 -0.2876 -0.2224 -2.4451
 5686SOL    HW228521   0.144   4.347   3.387 -0.5728  0.0589 -0.4888
 5687SOL     OW28522   0.220   0.447  13.384  0.4341  0.1113 -0.1879
 5687SOL    HW128523   0.143   0.495  13.354  0.0041 -0.4688 -0.0235
 5687SOL    HW228524   0.276   0.505  13.434  1.3362 -0.0932 -0.9558
 5688SOL     OW28525   0.632   3.859   3.589  0.7883  0.2263  0.3049
 5688SOL    HW128526   0.606   3.899   3.506  0.0824  0.8111  0.8056
 5688SOL    HW228527   0.721   3.893   3.599 -0.7746  4.4431  0.0544
 5689SOL     OW28528   1.671   0.096   8.956 -0.1848  0.2957 -0.1751
 5689SOL    HW128529   1.587   0.142   8.963 -0.1996  0.1328  0.8112
 5689SOL    HW228530   1.738   0.161   8.974 -0.7984  1.4502 -2.1123
 5690SOL     OW28531   2.636   0.925   3.545 -0.2017 -0.3336  0.3118
 5690SOL    HW128532   2.669   0.861   3.481  1.5388 -1.3178  2.2115
 5690SOL    HW228533   2.590   0.881   3.617 -1.8525  0.3910 -0.2931
 5691SOL     OW28534   3.738   3.974   6.554 -0.1677  0.7783  0.2759
 5691SOL    HW128535   3.677   4.008   6.489 -0.8857  0.2786  0.6931
 5691SOL    HW228536   3.685   3.898   6.580  0.5312  1.3374  3.3753
 5692SOL     OW28537   0.113   2.486   8.528 -0.5041 -0.4010 -0.0774
 5692SOL    HW128538   0.158   2.487   8.444 -1.2656  2.4681 -0.4562
 5692SOL    HW228539   0.094   2.394   8.546 -0.7834 -0.5421 -1.1189
 5693SOL     OW28540   0.326   4.488   1.953 -0.3073  0.2033  0.7634
 5693SOL    HW128541   0.264   4.420   1.925 -2.5605  2.6275 -0.2140
 5693SOL    HW228542   0.345   4.460   2.042 -0.6093 -1.0366  0.4378
 5694SOL     OW28543   2.815   2.708  16.108 -0.5051  0.5120  0.2463
 5694SOL    HW128544   2.786   2.653  16.035 -0.9447  0.8005  0.2090
 5694SOL    HW228545   2.840   2.791  16.067 -1.3062  0.7676  0.2796
 5695SOL     OW28546   1.709   1.877  11.663  0.4537 -0.3952  0.3876
 5695SOL    HW128547   1.648   1.806  11.647  0.6102 -0.2893 -0.6713
 5695SOL    HW228548   1.654   1.946  11.626  0.3868 -0.0523  1.1263
 5696SOL     OW28549   2.676   0.859  10.442 -0.5026 -0.3579  0.0435
 5696SOL    HW128550   2.748   0.845  10.380  0.9245  1.1751  1.3697
 5696SOL    HW228551   2.723   0.827  10.518 -2.9678 -0.5950  1.4620
 5697SOL     OW28552   3.649   1.830  10.230  0.3132 -0.4571 -0.5089
 5697SOL    HW128553   3.605   1.777  10.297 -0.4414 -0.2484 -0.8303
 5697SOL    HW228554   3.721   1.775  10.201  0.7236 -0.5651  0.7244
 5698SOL     OW28555   4.056   0.501   3.888  0.1317 -0.0213 -1.0954
 5698SOL    HW128556   4.145   0.533   3.873  0.6980 -0.5583  1.1943
 5698SOL    HW228557   4.005   0.567   3.840  2.1898  1.0010 -1.8738
 5699SOL     OW28558   2.148   2.536   8.669 -0.0782  0.4871  0.2974
 5699SOL    HW128559   2.169   2.535   8.762  0.6597 -1.1389  0.1045
 5699SOL    HW228560   2.135   2.630   8.651  2.4774  0.6752 -0.5344
 5700SOL     OW28561   1.777   0.662   6.125  0.2659 -0.1823  0.6248
 5700SOL    HW128562   1.854   0.710   6.157 -0.7454  2.0949 -0.3243
 5700SOL    HW228563   1.784   0.574   6.163 -1.7904 -0.9241 -0.7223
 5701SOL     OW28564   3.015   1.157  12.749  0.2465 -0.2018 -0.0297
 5701SOL    HW128565   2.975   1.132  12.665  2.2964  0.9391 -1.3519
 5701SOL    HW228566   3.021   1.250  12.728  2.7443 -0.0720  1.2409
 5702SOL     OW28567   3.804   0.469   1.746  0.1573  0.6982 -0.7479
 5702SOL    HW128568   3.874   0.404   1.753  0.0967  0.7525  0.3881
 5702SOL    HW228569   3.811   0.492   1.653  0.8074  0.7198 -0.6928
 5703SOL     OW28570   3.242   0.904   2.074 -0.0844 -0.3656 -0.0129
 5703SOL    HW128571   3.314   0.861   2.028  1.2982  1.2229  0.6852
 5703SOL    HW228572   3.224   0.966   2.003  0.0588 -1.7556 -1.2566
 5704SOL     OW28573   2.097   4.363   3.069 -0.2722 -0.2764 -0.1046
 5704SOL    HW128574   2.141   4.427   3.124 -3.4109  1.0582  0.8658
 5704SOL    HW228575   2.017   4.339   3.115  0.8471 -3.1502  0.3696
 5705SOL     OW28576   4.263   4.365   6.293 -0.2524  0.1687  0.0302
 5705SOL    HW128577   4.345   4.337   6.252 -0.6276 -1.8914  0.7014
 5705SOL    HW228578   4.208   4.287   6.291 -0.5603  0.4070 -0.6656
 5706SOL     OW28579   3.617   0.503  16.597  0.2896 -0.0438 -0.2491
 5706SOL    HW128580   3.563   0.531  16.671 -3.2806 -3.5268 -1.5471
 5706SOL    HW228581   3.703   0.540  16.615  0.3058  0.2270 -0.8811
 5707SOL     OW28582   0.282   2.936   3.312  0.5648 -0.5597  0.4793
 5707SOL    HW128583   0.223   2.995   3.358  0.9387 -0.1845  0.4777
 5707SOL    HW228584   0.272   2.858   3.367  1.3630 -0.7530  0.3613
 5708SOL     OW28585   3.543   4.212   3.496 -0.1824  0.1413 -0.2678
 5708SOL    HW128586   3.556   4.177   3.408 -0.2460  1.1444 -0.6737
 5708SOL    HW228587   3.543   4.306   3.481 -1.7885  0.1123 -0.4321
 5709SOL     OW28588   2.343   4.659   0.531  0.0176  0.1864 -0.3535
 5709SOL    HW128589   2.298   0.021   0.558 -0.0925 -0.1088  0.3577
 5709SOL    HW228590   2.432   4.680   0.560 -0.6672 -1.1144  2.8004
 5710SOL     OW28591   3.225   1.777   4.251  0.2076 -0.2462 -0.6755
 5710SOL    HW128592   3.215   1.870   4.272 -0.9148 -0.8110  1.2246
 5710SOL    HW228593   3.284   1.740   4.316  0.3733  0.1566 -0.5956
 5711SOL     OW28594   4.574   3.467   5.474  0.3467 -0.5520  0.4848
 5711SOL    HW128595   4.527   3.393   5.512  1.4219 -0.8698  1.1986
 5711SOL    HW228596   4.525   3.539   5.513  2.2817  1.7972 -1.3430
 5712SOL     OW28597   2.548   1.391  16.062 -0.1505  0.1821  0.1288
 5712SOL    HW128598   2.486   1.369  16.131  0.3890 -0.2703  0.4639
 5712SOL    HW228599   2.510   1.336  15.993  0.6292 -0.7741  0.4668
 5713SOL     OW28600   3.022   0.086   7.663  0.1707 -0.0383  0.5502
 5713SOL    HW128601   3.088   0.133   7.612 -1.8936  0.1996 -1.9171
 5713SOL    HW228602   3.009   0.003   7.618 -2.0325  0.0365  1.0686
 5714SOL     OW28603   4.402   2.561   3.598 -0.0121 -0.3296 -0.4174
 5714SOL    HW128604   4.425   2.630   3.535 -0.5014  0.6512  0.4691
 5714SOL    HW228605   4.407   2.610   3.680 -0.2749 -1.3019  0.1668
 5715SOL     OW28606   3.123   1.088  10.798  0.1263 -0.3119 -0.3718
 5715SOL    HW128607   3.205   1.114  10.840 -0.8917  1.9087  0.2317
 5715SOL    HW228608   3.146   1.003  10.762 -0.2672  0.2996 -2.0714
 5716SOL     OW28609   1.938   4.418   3.390  0.0689 -0.7679 -0.2832
 5716SOL    HW128610   1.852   4.377   3.383 -1.6338  2.3480  2.6911
 5716SOL    HW228611   1.944   4.473   3.312  2.8696 -0.4038  0.1734
 5717SOL     OW28612   0.817   2.278  13.650 -0.4848 -0.2393 -0.2928
 5717SOL    HW128613   0.776   2.356  13.613 -0.6146  0.4377  1.2769
 5717SOL    HW228614   0.911   2.296  13.642 -0.0591 -1.9676  0.7041
 5718SOL     OW28615   4.245   2.699   1.959  0.2211 -0.4010  0.2232
 5718SOL    HW128616   4.306   2.769   1.981  0.8292 -1.4896  2.0528
 5718SOL    HW228617   4.198   2.686   2.041 -1.1725 -0.2697 -0.5571
 5719SOL     OW28618   0.004   2.502   1.622  0.0392 -0.4248  0.3421
 5719SOL    HW128619   0.096   2.478   1.607 -0.1402 -1.9425  1.6361
 5719SOL    HW228620   4.675   2.421   1.601 -0.6731  0.1101 -0.1378
 5720SOL     OW28621   4.053   1.787   2.095 -0.8243  0.4294  0.5164
 5720SOL    HW128622   3.965   1.818   2.074 -0.5827 -0.0580 -1.2322
 5720SOL    HW228623   4.101   1.859   2.054  1.9162 -0.0989  2.7473
 5721SOL     OW28624   4.694   2.619   0.721 -0.0924  0.1855  0.3402
 5721SOL    HW128625   0.052   2.596   0.775 -1.4231 -0.5415  1.8880
 5721SOL    HW228626   4.658   2.535   0.694 -0.6304 -0.2492  2.4671
 5722SOL     OW28627   1.209   0.381   2.228  0.2974  0.0962  0.3424
 5722SOL    HW128628   1.221   0.401   2.135 -0.2074  3.4933  0.9835
 5722SOL    HW228629   1.286   0.327   2.247  0.3404  0.1054  0.1983
 5723SOL     OW28630   2.348   3.864   1.174  0.3359  0.2666 -0.7555
 5723SOL    HW128631   2.345   3.915   1.254  0.1833 -1.9409  0.6564
 5723SOL    HW228632   2.422   3.910   1.134  0.8110 -0.3216 -0.5736
 5724SOL     OW28633   3.406   2.121   5.016 -0.3414 -0.1892 -0.0554
 5724SOL    HW128634   3.318   2.083   5.014 -0.4062  0.0562 -1.6569
 5724SOL    HW228635   3.450   2.089   5.095 -0.8066  1.6479  0.9604
 5725SOL     OW28636   1.086   2.005   9.970  0.2610  1.0336  0.3076
 5725SOL    HW128637   1.176   2.027   9.948  0.6505  1.1291  2.0123
 5725SOL    HW228638   1.057   2.077  10.026 -1.6728 -0.2070  0.9057
 5726SOL     OW28639   1.295   4.051   0.089  0.5465  0.0319 -0.0365
 5726SOL    HW128640   1.304   3.959   0.113  1.1618 -0.0845 -0.7217
 5726SOL    HW228641   1.223   4.079   0.146 -0.8281 -0.2824 -1.6087
 5727SOL     OW28642   4.282   2.682   7.142  0.0427  0.1392 -0.1241
 5727SOL    HW128643   4.282   2.590   7.116  0.7308  0.1462 -0.1539
 5727SOL    HW228644   4.222   2.674   7.216 -1.5119  2.5498 -1.1324
 5728SOL     OW28645   4.638   4.345   6.482  0.3003 -0.4825  0.5992
 5728SOL    HW128646   4.632   4.439   6.464  2.9165 -0.5063 -0.4033
 5728SOL    HW228647   4.559   4.315   6.527 -0.7464 -0.1859 -1.0271
 5729SOL     OW28648   0.108   4.523   7.310 -0.6812 -0.1371  0.2568
 5729SOL    HW128649   0.015   4.510   7.329 -0.8941 -0.6046 -1.0857
 5729SOL    HW228650   0.152   4.466   7.373 -1.3616 -1.7768 -0.7515
 5730SOL     OW28651   3.280   0.720   2.884  0.2679  0.0421 -0.5726
 5730SOL    HW128652   3.328   0.641   2.906  0.0296 -0.0173 -0.2650
 5730SOL    HW228653   3.307   0.788   2.945  0.9853 -1.4502  0.7662
 5731SOL     OW28654   1.038   3.474   2.934  0.1029  0.3398 -0.6445
 5731SOL    HW128655   1.114   3.513   2.978 -1.0543  2.8225 -0.8200
 5731SOL    HW228656   0.976   3.517   2.993  0.2537  0.8031 -0.8189
 5732SOL     OW28657   3.003   0.663   8.358 -0.0125  0.2814 -0.0720
 5732SOL    HW128658   3.002   0.694   8.267  2.2090  1.0782  0.1801
 5732SOL    HW228659   2.910   0.666   8.380 -0.1665  1.4046 -0.8556
 5733SOL     OW28660   1.867   4.327  15.696  0.7567 -0.3385  0.3418
 5733SOL    HW128661   1.786   4.281  15.719  0.9542 -0.1411  1.4396
 5733SOL    HW228662   1.872   4.401  15.757  1.3866 -0.5288  0.5224
 5734SOL     OW28663   4.398   1.118   5.765 -0.1850  0.5211 -0.3066
 5734SOL    HW128664   4.409   1.127   5.670 -0.0181  1.0691 -0.2353
 5734SOL    HW228665   4.383   1.024   5.771 -1.1995  0.7113 -0.0038
 5735SOL     OW28666   0.484   1.465  11.771  0.0950  0.3407 -0.1421
 5735SOL    HW128667   0.411   1.455  11.833 -0.4925 -0.7493 -1.0065
 5735SOL    HW228668   0.453   1.393  11.717 -1.2179 -0.4491  1.6406
 5736SOL     OW28669   3.044   1.864   5.717 -0.4027  0.0686 -0.4485
 5736SOL    HW128670   2.993   1.809   5.658 -0.0192  1.0650 -1.7138
 5736SOL    HW228671   3.123   1.815   5.739  0.7273  2.2581  0.3511
 5737SOL     OW28672   2.580   4.667   3.316  0.1122  0.8920 -0.3999
 5737SOL    HW128673   2.524   4.623   3.379  1.7598 -2.8053 -1.5244
 5737SOL    HW228674   2.518   0.012   3.280 -2.1274 -2.0875 -1.7313
 5738SOL     OW28675   4.665   0.509  11.947  0.2927  0.3535 -0.6013
 5738SOL    HW128676   4.716   0.538  11.872 -2.4559  0.8649 -2.3085
 5738SOL    HW228677   4.681   0.415  11.933  1.6176  0.1350  2.3772
 5739SOL     OW28678   1.026   4.565   8.624  0.5921  0.0917  0.7665
 5739SOL    HW128679   1.076   4.485   8.611 -0.9265 -0.9323  1.2778
 5739SOL    HW228680   1.028   4.589   8.532  1.5196  1.0563  1.0415
 5740SOL     OW28681   1.761   1.605  17.411  0.1324 -0.8579 -0.3277
 5740SOL    HW128682   1.666   1.608  17.416  0.0186  0.7554 -3.2781
 5740SOL    HW228683   1.785   1.697  17.406  0.1804 -0.8086  0.8959
 5741SOL     OW28684   2.179   3.330   5.289  0.2623  0.0266 -0.5359
 5741SOL    HW128685   2.204   3.240   5.266 -1.3546 -0.4294 -0.5272
 5741SOL    HW228686   2.168   3.324   5.384  0.4172 -1.4922 -0.6162
 5742SOL     OW28687   4.675   3.248   2.734  0.5437  0.3194  0.2804
 5742SOL    HW128688   0.005   3.235   2.816 -0.0517 -1.4327  0.3431
 5742SOL    HW228689   4.624   3.167   2.741 -1.1708  1.2880 -0.8235
 5743SOL     OW28690   2.608   3.500   9.884  0.2618  0.2973 -0.4683
 5743SOL    HW128691   2.583   3.408   9.882  0.2037  0.3337 -1.5035
 5743SOL    HW228692   2.693   3.488   9.927  0.1950  3.5680  0.5685
 5744SOL     OW28693   1.922   1.129  17.247  0.3438 -0.4590 -0.0835
 5744SOL    HW128694   1.932   1.056  17.308  2.3883 -0.5041 -0.4719
 5744SOL    HW228695   1.891   1.204  17.298  2.4401  0.5287 -0.2769
 5745SOL     OW28696   1.009   2.465   0.891  0.6178  0.8665  0.4828
 5745SOL    HW128697   0.971   2.424   0.969  0.4146  1.4260  0.6775
 5745SOL    HW228698   0.939   2.518   0.851 -1.1250 -0.0764  2.2687
 5746SOL     OW28699   2.200   4.174   3.797  0.3922 -0.1732  0.0839
 5746SOL    HW128700   2.152   4.218   3.727 -1.4910  0.4296  1.7538
 5746SOL    HW228701   2.155   4.207   3.875  1.6616 -0.9315  1.1436
 5747SOL     OW28702   1.695   0.358   3.016 -0.2498 -0.6972  0.2673
 5747SOL    HW128703   1.676   0.270   3.049 -0.6687  0.5831  3.4370
 5747SOL    HW228704   1.611   0.397   2.992  1.0580  0.8778 -1.7308
 5748SOL     OW28705   3.992   1.327   4.783 -0.1116 -0.1200  0.1159
 5748SOL    HW128706   4.013   1.293   4.870 -0.3791  1.8436  0.9536
 5748SOL    HW228707   4.061   1.390   4.762 -0.3643 -1.0258 -3.4488
 5749SOL     OW28708   2.046   1.649  13.376  0.3375 -0.1521 -0.3227
 5749SOL    HW128709   1.986   1.574  13.377  1.5878 -1.1116  1.5477
 5749SOL    HW228710   2.009   1.706  13.308  1.8341 -0.1002 -1.0966
 5750SOL     OW28711   0.949   2.613   9.828 -0.1846  0.1980  0.1546
 5750SOL    HW128712   0.921   2.704   9.813  1.6013  0.0457 -4.0807
 5750SOL    HW228713   0.879   2.566   9.783  0.5347 -0.3136 -0.4339
 5751SOL     OW28714   3.243   3.311   5.157 -0.3050 -0.4217 -0.1889
 5751SOL    HW128715   3.224   3.306   5.063  0.7646  0.5288 -0.4578
 5751SOL    HW228716   3.260   3.223   5.189  1.2761  0.4255  1.3072
 5752SOL     OW28717   0.011   0.503   7.398 -0.7738 -0.4188  0.0744
 5752SOL    HW128718   0.105   0.520   7.398 -0.6629 -1.0645 -1.0835
 5752SOL    HW228719   0.013   0.451   7.478 -1.2238 -0.2390  0.2047
 5753SOL     OW28720   0.077   4.151   3.636 -0.6348  0.6369  0.2067
 5753SOL    HW128721   0.082   4.146   3.541 -1.3065 -0.1985  0.2258
 5753SOL    HW228722   0.167   4.125   3.657 -1.1629 -0.2344  1.3548
 5754SOL     OW28723   4.123   3.488   3.195  0.0858 -0.2406  0.0805
 5754SOL    HW128724   4.197   3.543   3.167 -1.2909  1.1960 -0.7610
 5754SOL    HW228725   4.099   3.444   3.114  0.4362 -0.6849  0.2189
 5755SOL     OW28726   0.075   4.124   5.514  0.3369  0.0973 -0.0184
 5755SOL    HW128727   0.038   4.089   5.595  0.6367 -1.9771 -0.7792
 5755SOL    HW228728   0.162   4.150   5.543  0.8098 -0.3427 -1.0445
 5756SOL     OW28729   2.855   2.331  10.349 -0.0179  0.1407 -0.2695
 5756SOL    HW128730   2.840   2.236  10.346  0.0035  0.1070  0.6754
 5756SOL    HW228731   2.843   2.342  10.443  1.2040 -2.4927  0.1970
 5757SOL     OW28732   3.536   1.255  10.674 -0.1883  0.0162  0.0799
 5757SOL    HW128733   3.626   1.224  10.682 -0.9012 -2.6328 -2.3227
 5757SOL    HW228734   3.511   1.186  10.613  1.5414  0.4106 -1.0757
 5758SOL     OW28735   0.253   4.644  14.108 -0.5644 -0.2205 -0.5031
 5758SOL    HW128736   0.312   4.604  14.044 -1.3791  0.0998 -1.4555
 5758SOL    HW228737   0.187   4.575  14.119 -0.9926  0.2630 -0.0735
 5759SOL     OW28738   2.682   0.674   7.521 -0.2547  0.8312  0.1715
 5759SOL    HW128739   2.658   0.582   7.510 -1.1647  0.9114  1.5620
 5759SOL    HW228740   2.608   0.703   7.575 -1.3826  0.6947 -1.3051
 5760SOL     OW28741   0.878   1.056  13.266 -0.1626 -0.2876  0.7710
 5760SOL    HW128742   0.897   0.966  13.293  2.3917  0.1026  0.2504
 5760SOL    HW228743   0.829   1.036  13.187 -0.7577  0.9679  0.8239
 5761SOL     OW28744   3.372   3.786   6.332 -0.2011  0.1058 -0.4785
 5761SOL    HW128745   3.318   3.720   6.290  0.1096 -0.9411  0.7764
 5761SOL    HW228746   3.461   3.756   6.314 -0.0207 -0.2076  0.9123
 5762SOL     OW28747   4.660   3.847   4.296  0.8758  0.0980  0.1198
 5762SOL    HW128748   4.662   3.889   4.381  0.3291  1.1363 -0.3868
 5762SOL    HW228749   0.027   3.802   4.295  0.8974  0.1326  1.1412
 5763SOL     OW28750   3.287   3.298   7.112 -0.3028 -0.1347 -0.1065
 5763SOL    HW128751   3.276   3.317   7.019  0.6812  1.1133  0.0336
 5763SOL    HW228752   3.197   3.316   7.142  0.1403  1.6426  0.1398
 5764SOL     OW28753   4.125   0.742   2.365  0.5459 -0.3253  0.0737
 5764SOL    HW128754   4.089   0.718   2.279 -0.4740  1.0490  0.1165
 5764SOL    HW228755   4.079   0.677   2.418  0.0589 -0.5563 -0.6237
 5765SOL     OW28756   4.536   1.894  15.962 -0.2970 -0.0373  0.0248
 5765SOL    HW128757   4.614   1.941  15.933  1.4011 -2.2844  0.9207
 5765SOL    HW228758   4.586   1.832  16.016 -1.2518 -0.9629 -0.1459
 5766SOL     OW28759   2.282   2.819   7.748  0.1991  0.7256 -0.0261
 5766SOL    HW128760   2.310   2.857   7.831  1.1144 -2.2056  1.0242
 5766SOL    HW228761   2.258   2.897   7.699  0.6691  1.0863  0.3293
 5767SOL     OW28762   3.666   1.398   4.943 -0.1975 -0.2987 -0.0282
 5767SOL    HW128763   3.747   1.380   4.991 -0.2287  1.2685  0.5864
 5767SOL    HW228764   3.604   1.340   4.986  0.4587 -3.0133 -2.6762
 5768SOL     OW28765   2.747   3.026   7.296  0.1065  0.2162  0.0798
 5768SOL    HW128766   2.792   3.040   7.379  0.6877 -0.0836 -0.1895
 5768SOL    HW228767   2.807   2.964   7.255 -0.2677  0.4926 -0.8889
 5769SOL     OW28768   3.342   1.079   3.222  0.7713 -0.0898  0.2293
 5769SOL    HW128769   3.282   1.015   3.185 -1.2542  1.6573  0.5003
 5769SOL    HW228770   3.308   1.078   3.311  2.6276 -3.6289  0.8878
 5770SOL     OW28771   0.311   2.268   8.359 -0.2687 -0.8261  0.3294
 5770SOL    HW128772   0.330   2.213   8.282  2.4842 -1.3392  1.3705
 5770SOL    HW228773   0.383   2.251   8.420  1.9142  1.6438 -1.5379
 5771SOL     OW28774   0.130   1.413  11.747 -0.2266 -0.4891  0.5119
 5771SOL    HW128775   0.168   1.354  11.682 -1.5278  0.3083 -0.9481
 5771SOL    HW228776   0.196   1.414  11.817 -1.0598 -0.3556  1.2918
 5772SOL     OW28777   3.813   3.559   0.623  0.2777 -0.0610  0.4927
 5772SOL    HW128778   3.851   3.553   0.711  0.0294 -2.7321  0.4110
 5772SOL    HW228779   3.723   3.536   0.643 -0.0480 -0.7435 -1.7827
 5773SOL     OW28780   4.654   3.184   0.900  0.1470 -0.0513  0.0148
 5773SOL    HW128781   4.629   3.141   0.982 -1.5766 -2.0369 -1.5472
 5773SOL    HW228782   4.568   3.220   0.877  0.0586  0.5995  1.3612
 5774SOL     OW28783   4.013   1.152  15.206 -0.0702  0.2636 -0.1514
 5774SOL    HW128784   4.088   1.099  15.234 -0.6296 -0.9003 -0.8749
 5774SOL    HW228785   3.967   1.092  15.148 -1.2806  2.2896 -1.2673
 5775SOL     OW28786   3.301   0.195  17.307 -0.3455  0.4342  0.4332
 5775SOL    HW128787   3.385   0.156  17.284 -1.4098 -0.1712 -2.4444
 5775SOL    HW228788   3.282   0.151  17.390  0.9535 -2.5095 -0.8397
 5776SOL     OW28789   3.960   3.752   0.208 -0.1260 -0.3544  0.4407
 5776SOL    HW128790   3.928   3.686   0.269 -0.4093 -0.4466  0.1905
 5776SOL    HW228791   4.054   3.734   0.217  0.0735 -0.8620 -2.6268
 5777SOL     OW28792   2.427   1.254  13.949 -0.2766  0.2245  0.2693
 5777SOL    HW128793   2.515   1.244  13.985 -0.2106  4.2621  1.2051
 5777SOL    HW228794   2.367   1.273  14.022  2.4963 -1.3747  2.9849
 5778SOL     OW28795   0.846   3.792   5.974 -0.1642  0.3899 -0.1602
 5778SOL    HW128796   0.814   3.702   5.968  4.6054 -1.3864  0.6207
 5778SOL    HW228797   0.790   3.837   5.911 -0.4091 -2.2256 -1.8476
 5779SOL     OW28798   3.036   1.559   2.546 -0.3008 -0.1365  0.3443
 5779SOL    HW128799   2.944   1.560   2.571 -1.5689  1.2583 -4.3477
 5779SOL    HW228800   3.042   1.625   2.477  3.0252 -0.5403  0.2578
 5780SOL     OW28801   0.562   2.261   2.289 -0.0583 -0.2031 -0.4782
 5780SOL    HW128802   0.478   2.238   2.248 -0.7058  0.7078  0.3169
 5780SOL    HW228803   0.615   2.200   2.238  1.7384  1.2210 -0.2905
 5781SOL     OW28804   0.258   3.323   2.428  0.1850  0.3903 -0.3736
 5781SOL    HW128805   0.166   3.333   2.454  0.1825 -0.2727 -0.1265
 5781SOL    HW228806   0.298   3.402   2.464 -0.5048  0.6107 -0.0914
 5782SOL     OW28807   1.002   3.821   4.174  0.1191 -0.2265  0.3389
 5782SOL    HW128808   0.923   3.800   4.223 -1.5179  1.0366 -1.7845
 5782SOL    HW228809   0.975   3.806   4.084 -1.6485  0.3451  0.7911
 5783SOL     OW28810   0.519   3.616   9.744  0.6844  0.2595 -0.7909
 5783SOL    HW128811   0.588   3.645   9.684  1.8072  2.3079  1.4592
 5783SOL    HW228812   0.528   3.521   9.751 -1.1929  0.2915  1.9547
 5784SOL     OW28813   1.406   4.010   4.523 -0.8347  0.0599  0.4610
 5784SOL    HW128814   1.410   3.915   4.535 -0.2375 -0.2260 -2.0544
 5784SOL    HW228815   1.483   4.031   4.575 -0.3236  1.9108 -1.0385
 5785SOL     OW28816   2.115   0.565   1.185  0.2039  0.1897 -0.3076
 5785SOL    HW128817   2.030   0.583   1.143  0.5894  0.9863 -0.7505
 5785SOL    HW228818   2.122   0.616   1.266 -2.0148  1.9529 -1.1924
 5786SOL     OW28819   1.845   0.370   5.861 -0.2235 -0.5340 -0.0349
 5786SOL    HW128820   1.860   0.322   5.779  1.9347 -0.0658  0.0855
 5786SOL    HW228821   1.852   0.293   5.916 -0.7642 -0.6351 -0.1142
 5787SOL     OW28822   0.217   4.610   7.052  0.3410 -0.0501 -0.3830
 5787SOL    HW128823   0.254   4.699   7.045  0.2886  0.0521  0.6030
 5787SOL    HW228824   0.246   4.594   7.142 -3.3337  0.9065  0.9575
 5788SOL     OW28825   4.142   3.058  13.522  0.3152  0.9499 -0.7817
 5788SOL    HW128826   4.077   3.126  13.540  0.1000  0.8688 -1.2397
 5788SOL    HW228827   4.197   3.106  13.461  1.6540 -0.6639 -0.8530
 5789SOL     OW28828   2.769   0.806   6.996 -0.0308  0.2575  0.2060
 5789SOL    HW128829   2.847   0.777   6.948 -0.5214 -1.2059  0.2684
 5789SOL    HW228830   2.711   0.731   6.981 -0.2352  0.3755  0.4186
 5790SOL     OW28831   4.155   4.213   8.298  0.1884  0.3142 -0.1649
 5790SOL    HW128832   4.239   4.202   8.342  0.6823  0.3509 -1.0945
 5790SOL    HW228833   4.098   4.183   8.369  1.0647  0.8491  0.7683
 5791SOL     OW28834   4.293   1.673   2.938 -0.1722  0.0027  0.1146
 5791SOL    HW128835   4.199   1.660   2.925  0.0291 -1.0071 -0.3483
 5791SOL    HW228836   4.311   1.757   2.897  0.4862 -0.8752 -1.4025
 5792SOL     OW28837   0.620   3.904  16.244 -0.3135 -0.1136 -0.1137
 5792SOL    HW128838   0.664   3.892  16.328  1.3508  0.5857 -0.8767
 5792SOL    HW228839   0.655   3.833  16.190 -0.7488 -0.0886 -0.4311
 5793SOL     OW28840   3.664   3.246   8.505 -0.2820 -0.1473 -0.2179
 5793SOL    HW128841   3.705   3.325   8.541 -0.5299 -0.7508  1.3994
 5793SOL    HW228842   3.621   3.274   8.425 -0.4390  0.3013  0.0231
 5794SOL     OW28843   1.823   4.532   7.238 -0.3578  0.3191  0.1956
 5794SOL    HW128844   1.825   4.449   7.190  1.7165 -0.3343  1.3784
 5794SOL    HW228845   1.779   4.506   7.319  2.1970  0.6527  1.7040
 5795SOL     OW28846   3.184   3.670   1.386  0.0217  0.0697 -0.2324
 5795SOL    HW128847   3.115   3.690   1.323  0.0218  2.1441  0.4159
 5795SOL    HW228848   3.234   3.752   1.381  0.2010 -0.0358 -0.1701
 5796SOL     OW28849   3.377   2.965   8.430 -0.3793  0.3432  0.1080
 5796SOL    HW128850   3.352   3.055   8.408  0.1348  0.8441  1.5966
 5796SOL    HW228851   3.431   2.979   8.508  2.4701 -3.8053 -1.0976
 5797SOL     OW28852   4.162   4.000   5.570  0.0596  0.5526 -0.1127
 5797SOL    HW128853   4.104   4.045   5.631 -1.0685  0.8526 -1.4461
 5797SOL    HW228854   4.097   3.954   5.517  2.5197 -1.3177 -1.5098
 5798SOL     OW28855   3.394   2.491   2.576  0.4357  0.3849  0.2012
 5798SOL    HW128856   3.429   2.456   2.658  1.5688  0.4373 -0.2596
 5798SOL    HW228857   3.369   2.414   2.526  1.5380  2.4064 -3.4273
 5799SOL     OW28858   2.247   2.975  14.608  0.0199 -0.0733  0.0687
 5799SOL    HW128859   2.268   2.901  14.665 -0.2344 -2.0860 -2.4777
 5799SOL    HW228860   2.210   3.039  14.669 -1.3852 -0.9908  0.2036
 5800SOL     OW28861   3.715   4.513  14.233 -0.4366 -0.3307 -0.4854
 5800SOL    HW128862   3.718   4.508  14.328  2.6175 -1.6463 -0.6177
 5800SOL    HW228863   3.801   4.552  14.217  0.0626 -1.2262 -0.0297
 5801SOL     OW28864   2.560   3.461  14.211 -0.1866 -0.0450 -0.0410
 5801SOL    HW128865   2.633   3.443  14.151 -0.6776  1.1454 -1.0048
 5801SOL    HW228866   2.608   3.491  14.288  3.3911  1.0118 -2.6622
 5802SOL     OW28867   2.988   1.713   6.087 -0.5578 -0.1809 -0.1058
 5802SOL    HW128868   2.996   1.753   6.173  1.7236  1.2975 -1.0015
 5802SOL    HW228869   2.947   1.777   6.029  0.2800  1.1697  0.7927
 5803SOL     OW28870   3.772   2.353   7.427  0.7529 -0.5882  0.5893
 5803SOL    HW128871   3.788   2.269   7.385  0.4871 -0.7693  0.8496
 5803SOL    HW228872   3.809   2.343   7.514  2.2042  1.5710  0.2340
 5804SOL     OW28873   0.009   0.385   2.128  0.2701  0.2420  0.1370
 5804SOL    HW128874   0.025   0.329   2.204 -1.8054  0.6644  0.9021
 5804SOL    HW228875   0.081   0.359   2.070 -1.8656  1.5768 -3.1225
 5805SOL     OW28876   1.662   2.853   9.053  0.6462  0.1725 -0.3107
 5805SOL    HW128877   1.591   2.845   8.990 -0.5717 -1.3522  1.2460
 5805SOL    HW228878   1.741   2.857   9.000  1.5282 -0.7593  0.9311
 5806SOL     OW28879   2.340   2.192   2.961 -0.2876 -0.1450 -0.1628
 5806SOL    HW128880   2.273   2.138   3.002 -0.4702 -1.4453 -2.1789
 5806SOL    HW228881   2.377   2.245   3.032  1.8225 -1.7924 -0.0093
 5807SOL     OW28882   2.557   2.736   5.630  0.0884 -0.1356  0.0105
 5807SOL    HW128883   2.513   2.784   5.560 -0.5837  1.8439  1.7850
 5807SOL    HW228884   2.611   2.804   5.672 -1.1216 -0.9837  2.9347
 5808SOL     OW28885   1.325   0.594   5.431  0.4411 -0.1242 -0.1330
 5808SOL    HW128886   1.386   0.624   5.499 -1.0240  2.3993  0.0689
 5808SOL    HW228887   1.246   0.620   5.478 -0.3156 -0.0317 -1.4507
 5809SOL     OW28888   0.195   2.967   6.968 -0.8017 -0.9608  0.6514
 5809SOL    HW128889   0.285   2.972   6.936 -1.4338  1.7510 -0.6642
 5809SOL    HW228890   0.161   2.902   6.906 -0.9942 -0.9771  0.7770
 5810SOL     OW28891   3.881   3.467   5.426 -0.1428  0.0395  0.5171
 5810SOL    HW128892   3.802   3.517   5.444 -1.4510 -2.5722  2.0219
 5810SOL    HW228893   3.953   3.531   5.427 -0.3304  0.2327  1.7217
 5811SOL     OW28894   1.048   3.186   4.046  0.0273 -0.0966  0.2658
 5811SOL    HW128895   1.031   3.280   4.050 -0.1706 -0.0974 -0.6079
 5811SOL    HW228896   1.005   3.175   3.962 -0.0251 -1.1466  0.4280
 5812SOL     OW28897   3.421   0.257   7.184  0.2576 -0.1390  0.7401
 5812SOL    HW128898   3.412   0.171   7.225 -0.6222  0.1021  1.0620
 5812SOL    HW228899   3.495   0.287   7.237  1.1379 -2.0533  0.5949
 5813SOL     OW28900   1.912   2.368  13.692 -0.1389 -0.2737 -0.0709
 5813SOL    HW128901   1.849   2.435  13.667  0.1873  0.8930  2.3009
 5813SOL    HW228902   1.992   2.398  13.648 -1.1422 -0.0323 -1.7224
 5814SOL     OW28903   3.347   2.525  14.394 -0.0317  0.7022  0.4347
 5814SOL    HW128904   3.427   2.477  14.373 -1.0870 -1.9041  2.3819
 5814SOL    HW228905   3.282   2.464  14.361 -1.0901  0.3685  3.2130
 5815SOL     OW28906   1.125   2.470   4.399 -0.0874 -0.4981 -1.6597
 5815SOL    HW128907   1.108   2.536   4.465 -0.5427 -0.8596 -1.4214
 5815SOL    HW228908   1.142   2.397   4.458 -2.2783 -0.5177 -1.0762
 5816SOL     OW28909   3.284   1.718   3.085  0.1658  0.3618 -0.4057
 5816SOL    HW128910   3.348   1.700   3.016  0.3894  0.8455 -0.3231
 5816SOL    HW228911   3.248   1.804   3.067  1.7093  0.6078 -2.2840
 5817SOL     OW28912   3.643   2.910   0.482 -0.2702 -0.4181 -0.9731
 5817SOL    HW128913   3.714   2.922   0.544 -1.7086  2.4297  0.1348
 5817SOL    HW228914   3.683   2.882   0.400 -1.0598 -2.0087 -0.8142
 5818SOL     OW28915   0.332   1.342   8.301 -0.1181 -0.2291  0.7755
 5818SOL    HW128916   0.334   1.250   8.326  1.2570 -0.6410 -0.9044
 5818SOL    HW228917   0.409   1.338   8.244 -0.5315 -0.7883  0.2690
 5819SOL     OW28918   0.395   2.014   9.313  0.3175  0.0911 -0.0391
 5819SOL    HW128919   0.401   2.009   9.408  1.7795 -2.4070 -0.2630
 5819SOL    HW228920   0.461   1.945   9.306 -0.3627 -0.6387  0.7179
 5820SOL     OW28921   1.654   4.382   5.346 -0.1004  0.4069 -0.5506
 5820SOL    HW128922   1.722   4.431   5.300 -1.1863  1.7413 -0.7426
 5820SOL    HW228923   1.582   4.446   5.342  1.4844  2.2152 -0.1556
 5821SOL     OW28924   2.859   0.859   2.403 -0.3770 -0.5822  0.4548
 5821SOL    HW128925   2.937   0.905   2.371 -0.4349 -1.3506 -0.7616
 5821SOL    HW228926   2.798   0.930   2.386  0.9955  0.9179  1.7147
 5822SOL     OW28927   4.491   3.066   0.676  0.5327  0.3014 -0.4896
 5822SOL    HW128928   4.563   3.005   0.657  0.1002 -0.0799 -0.9143
 5822SOL    HW228929   4.424   3.004   0.648 -1.1519  2.1399 -0.4961
 5823SOL     OW28930   2.480   1.375   3.470 -0.2273 -0.4048  0.0898
 5823SOL    HW128931   2.562   1.344   3.431  0.0833 -2.4229  2.3196
 5823SOL    HW228932   2.437   1.289   3.466  1.8719 -1.3809 -1.1323
 5824SOL     OW28933   0.732   1.986   8.061  0.3680 -0.4674 -0.1260
 5824SOL    HW128934   0.796   1.944   8.118 -0.3718 -0.2418  0.8547
 5824SOL    HW228935   0.718   2.074   8.095 -1.4945 -0.3802 -1.1223
 5825SOL     OW28936   3.503   2.635   0.558  0.2647  0.6055  0.6868
 5825SOL    HW128937   3.555   2.586   0.622 -0.1303  0.8051  1.1663
 5825SOL    HW228938   3.572   2.674   0.504  0.8566  1.1609  1.8351
 5826SOL     OW28939   0.880   4.589   3.163  0.4164  0.5132  0.0905
 5826SOL    HW128940   0.922   4.616   3.244 -0.8541  0.5904  0.7296
 5826SOL    HW228941   0.963   4.569   3.119  1.0382 -0.0090  1.4952
 5827SOL     OW28942   1.244   4.414  13.348  0.0791 -0.1756  0.2434
 5827SOL    HW128943   1.337   4.402  13.328  0.0139 -0.0816 -0.1134
 5827SOL    HW228944   1.211   4.325  13.354 -1.7190  0.4794 -0.1632
 5828SOL     OW28945   0.441   4.142  17.452 -0.3684 -0.1021  0.2342
 5828SOL    HW128946   0.528   4.164  17.486 -0.4461 -2.2655  1.8444
 5828SOL    HW228947   0.450   4.047  17.464  1.8322 -0.2164 -2.2692
 5829SOL     OW28948   0.000   4.467   6.937 -0.2418 -0.4769  0.1059
 5829SOL    HW128949   0.070   4.512   6.985 -0.0660  0.4796 -1.0419
 5829SOL    HW228950   4.688   4.545   6.890  0.5612 -0.6710 -0.7323
 5830SOL     OW28951   3.353   1.217  10.910 -0.0195 -0.1956  0.3952
 5830SOL    HW128952   3.441   1.180  10.915 -0.4537 -1.1093  1.3988
 5830SOL    HW228953   3.345   1.267  10.991 -2.8881 -1.0742  0.6797
 5831SOL     OW28954   0.923   2.201   3.775 -0.0071 -0.5561 -0.2059
 5831SOL    HW128955   0.961   2.235   3.694 -1.7201  0.3836 -0.6155
 5831SOL    HW228956   0.954   2.111   3.780  1.4417 -0.1375 -1.5837
 5832SOL     OW28957   3.534   4.322   7.099 -0.1559  0.4396  0.4325
 5832SOL    HW128958   3.610   4.309   7.155 -0.1780  1.3465  0.6734
 5832SOL    HW228959   3.560   4.274   7.020 -1.1121 -1.1213  1.0807
 5833SOL     OW28960   3.910   0.628  17.506 -0.4043  0.0396 -0.3050
 5833SOL    HW128961   3.869   0.562  17.450  2.8790 -2.1078 -0.1321
 5833SOL    HW228962   3.905   0.591  17.595  0.0943 -0.5783 -0.5328
 5834SOL     OW28963   2.531   0.366   6.535 -0.5168 -0.2682  0.2566
 5834SOL    HW128964   2.554   0.277   6.508  2.3639  0.5111  0.1623
 5834SOL    HW228965   2.521   0.353   6.630  0.5515  1.1796  0.5728
 5835SOL     OW28966   3.578   4.666   4.847  0.2004 -0.0163  0.5449
 5835SOL    HW128967   3.498   4.710   4.876  0.7264  0.3441  1.4832
 5835SOL    HW228968   3.546   4.576   4.842  1.0202 -0.2518 -0.4762
 5836SOL     OW28969   0.997   1.563   7.228 -0.4997  0.6262  0.1188
 5836SOL    HW128970   1.040   1.566   7.143  1.2260  0.9280  1.0045
 5836SOL    HW228971   0.939   1.638   7.218  0.2190  1.2088  0.3879
 5837SOL     OW28972   3.532   1.255   5.129 -0.1574 -0.2524  0.4673
 5837SOL    HW128973   3.538   1.227   5.220 -1.0643 -0.0955  0.5793
 5837SOL    HW228974   3.488   1.339   5.137  0.2458  0.1678 -1.6739
 5838SOL     OW28975   2.620   2.968   2.957 -0.4981 -0.5698  0.1739
 5838SOL    HW128976   2.556   2.997   3.021 -0.1376  1.0164 -0.1800
 5838SOL    HW228977   2.609   3.041   2.895 -2.0439 -0.9633  0.0005
 5839SOL     OW28978   2.893   0.800   5.128 -0.4711 -0.1619 -0.5769
 5839SOL    HW128979   2.958   0.739   5.093 -1.2460 -0.6999 -1.0672
 5839SOL    HW228980   2.811   0.758   5.103  0.6158 -2.5742 -0.0807
 5840SOL     OW28981   4.319   1.321  11.117 -0.3337  0.1705 -0.2866
 5840SOL    HW128982   4.235   1.339  11.159  0.1054  2.8069 -0.5530
 5840SOL    HW228983   4.298   1.314  11.024  1.1234  0.1637 -0.6236
 5841SOL     OW28984   1.188   1.651  15.629  0.3130  0.3794 -0.0754
 5841SOL    HW128985   1.112   1.665  15.573 -0.0755 -0.4392  0.2543
 5841SOL    HW228986   1.148   1.646  15.716  0.3092  1.7125  0.0042
 5842SOL     OW28987   1.826   2.766   3.768 -0.5647  0.0066 -0.3479
 5842SOL    HW128988   1.763   2.793   3.835  1.1797  0.5611  1.0606
 5842SOL    HW228989   1.794   2.820   3.695 -0.6893 -0.7825 -0.8842
 5843SOL     OW28990   0.829   3.761   7.060 -0.8630  0.2039  0.0712
 5843SOL    HW128991   0.914   3.738   7.100 -0.3860  2.2322  0.1965
 5843SOL    HW228992   0.760   3.702   7.092  0.3137 -1.6368 -0.7919
 5844SOL     OW28993   3.834   2.943   8.272 -0.5853 -0.2752  0.0657
 5844SOL    HW128994   3.816   2.898   8.189  3.3178 -0.2990 -0.7501
 5844SOL    HW228995   3.921   2.975   8.249 -0.1820 -1.6791 -0.3360
 5845SOL     OW28996   1.002   4.456   5.942 -0.3459 -0.0987 -0.2086
 5845SOL    HW128997   1.051   4.476   6.022 -2.6812  0.2644  1.1299
 5845SOL    HW228998   1.014   4.361   5.947 -0.3146 -0.1413 -1.0819
 5846SOL     OW28999   4.541   1.321  12.710 -0.3605  0.1369 -0.0335
 5846SOL    HW129000   4.603   1.385  12.745  0.8607 -1.5385  0.8639
 5846SOL    HW229001   4.466   1.346  12.765 -0.9201  2.4301 -1.7898
 5847SOL     OW29002   3.115   4.291   2.481  0.0091 -0.9558  0.1353
 5847SOL    HW129003   3.183   4.237   2.440 -0.2054 -0.8124 -0.4091
 5847SOL    HW229004   3.164   4.371   2.500  0.9592 -1.4355 -0.2415
 5848SOL     OW29005   1.479   0.150  16.702  0.4737  0.5243  0.1691
 5848SOL    HW129006   1.490   0.066  16.747  1.7093  0.5023 -0.1546
 5848SOL    HW229007   1.386   0.149  16.682  0.6370 -0.3884 -0.5150
 5849SOL     OW29008   0.163   2.779   1.582 -0.6162  0.0810 -0.3139
 5849SOL    HW129009   0.229   2.805   1.646 -0.8113  0.1811 -0.1522
 5849SOL    HW229010   0.168   2.684   1.590  0.5049 -0.0167 -2.1030
 5850SOL     OW29011   4.372   0.922   9.938 -0.0200 -0.1662 -0.5281
 5850SOL    HW129012   4.441   0.885   9.884 -0.0767 -0.6229 -0.2835
 5850SOL    HW229013   4.296   0.865   9.926 -1.5453  2.4209 -3.0066
 5851SOL     OW29014   4.164   3.455   5.070  0.2591  0.1094  0.4575
 5851SOL    HW129015   4.189   3.363   5.055 -1.1190 -0.2880  0.6171
 5851SOL    HW229016   4.177   3.477   4.978 -1.0808 -0.1161  0.2184
 5852SOL     OW29017   2.138   3.816   1.017  0.4486 -0.7057  0.1519
 5852SOL    HW129018   2.069   3.806   1.083  0.4047 -0.0384  0.2143
 5852SOL    HW229019   2.212   3.835   1.075 -0.3898  0.3666  0.8863
 5853SOL     OW29020   1.538   3.677   9.581 -0.3902  0.0443 -0.6108
 5853SOL    HW129021   1.512   3.611   9.517  2.2221 -0.1577 -1.4872
 5853SOL    HW229022   1.626   3.643   9.600  0.1719  1.3342 -0.8985
 5854SOL     OW29023   1.440   2.234   3.817 -0.1398  0.4758  0.0108
 5854SOL    HW129024   1.530   2.266   3.815 -0.1140  0.4082  0.1079
 5854SOL    HW229025   1.410   2.278   3.896 -0.5538  1.5888 -0.7681
 5855SOL     OW29026   1.384   2.206   2.110 -0.3889 -0.0723 -0.2419
 5855SOL    HW129027   1.364   2.138   2.046  1.4613 -2.2072  1.4761
 5855SOL    HW229028   1.323   2.186   2.181 -1.1577  0.1678 -0.8192
 5856SOL     OW29029   4.185   2.498  11.131 -0.4743  0.3956  1.0487
 5856SOL    HW129030   4.113   2.434  11.127  0.9302 -1.2276  1.6140
 5856SOL    HW229031   4.169   2.558  11.059 -0.3981 -3.4463 -2.1655
 5857SOL     OW29032   2.053   2.369   5.755  0.1608  0.3461 -0.4250
 5857SOL    HW129033   2.064   2.458   5.722  3.2133  0.2112  0.1514
 5857SOL    HW229034   2.147   2.359   5.774  0.0687  0.0521 -0.1012
 5858SOL     OW29035   0.380   3.428   0.848 -0.0541 -0.0500  0.2553
 5858SOL    HW129036   0.381   3.480   0.928  0.6629  0.1544  0.1142
 5858SOL    HW229037   0.346   3.343   0.878 -0.8191 -0.0643 -0.6499
 5859SOL     OW29038   0.633   0.861  16.151  0.0868  0.1590  0.3611
 5859SOL    HW129039   0.568   0.892  16.088 -0.0168 -0.9056 -0.0409
 5859SOL    HW229040   0.587   0.846  16.234 -0.2171 -0.9666 -0.0111
 5860SOL     OW29041   3.566   1.012   3.100 -0.9565 -0.9939 -0.3882
 5860SOL    HW129042   3.482   1.037   3.139  0.5275 -1.1906  2.8646
 5860SOL    HW229043   3.580   0.932   3.150  2.8628 -0.8513 -1.2607
 5861SOL     OW29044   2.397   2.099  11.283  0.0935  0.3445  0.0653
 5861SOL    HW129045   2.314   2.142  11.301  0.4130  2.1330 -2.7466
 5861SOL    HW229046   2.445   2.096  11.366 -0.7329 -0.6101  0.5139
 5862SOL     OW29047   0.065   1.533   4.429 -0.0043 -0.7474  0.2035
 5862SOL    HW129048   0.124   1.501   4.497  0.9410  0.5119 -0.0232
 5862SOL    HW229049   0.097   1.623   4.422  1.1859 -0.9446  3.0620
 5863SOL     OW29050   0.934   2.867  12.307 -0.5347  0.0437 -0.3424
 5863SOL    HW129051   0.853   2.884  12.354 -0.0741  0.6718  0.2371
 5863SOL    HW229052   1.000   2.914  12.359  0.4307 -0.9835 -0.6497
 5864SOL     OW29053   2.052   3.754   0.098  0.5417  0.4339 -0.6339
 5864SOL    HW129054   2.047   3.659   0.096  0.4529  0.4318 -0.2719
 5864SOL    HW229055   2.057   3.766   0.193  0.7230 -0.5354 -0.5192
 5865SOL     OW29056   4.368   4.480  15.517  0.2218  0.2379  0.1211
 5865SOL    HW129057   4.304   4.488  15.588  1.1266 -0.3937  1.0129
 5865SOL    HW229058   4.411   4.564  15.533 -1.6173  0.8853  1.7158
 5866SOL     OW29059   1.450   0.330   0.704  0.3890  0.4584  0.5596
 5866SOL    HW129060   1.545   0.332   0.693  0.3885 -0.7290  0.3780
 5866SOL    HW229061   1.426   0.411   0.657  1.0805 -0.6742 -1.7624
 5867SOL     OW29062   3.160   0.766   9.859 -0.1967  0.2735 -0.0814
 5867SOL    HW129063   3.218   0.696   9.890 -0.2441  0.3273  0.1281
 5867SOL    HW229064   3.126   0.806   9.938  0.5911 -0.6852  0.7492
 5868SOL     OW29065   4.464   2.124   3.585  0.0317 -0.6516 -0.5459
 5868SOL    HW129066   4.546   2.098   3.627  1.1301 -1.3362 -3.1589
 5868SOL    HW229067   4.494   2.209   3.555  0.6178 -1.6445 -2.7489
 5869SOL     OW29068   2.000   3.127  13.696  0.1149  0.1975  0.1221
 5869SOL    HW129069   1.938   3.123  13.769 -1.5929 -0.8110 -1.3653
 5869SOL    HW229070   2.067   3.064  13.720  0.5328  1.2251  1.6709
 5870SOL     OW29071   4.263   0.011   2.686  0.0839  0.1009  0.0359
 5870SOL    HW129072   4.334   4.666   2.699 -0.8602 -0.9353  0.1445
 5870SOL    HW229073   4.189   4.669   2.683 -1.4873  2.0822 -0.8415
 5871SOL     OW29074   4.381   2.850   1.068 -0.1905  0.4232  0.7202
 5871SOL    HW129075   4.399   2.780   1.005 -1.7501  0.8363 -0.1882
 5871SOL    HW229076   4.457   2.833   1.124  0.1571  1.1414  0.4769
 5872SOL     OW29077   2.469   4.086   6.411 -0.1359  0.0962 -0.0450
 5872SOL    HW129078   2.413   4.106   6.336 -1.6427  1.2301  1.3799
 5872SOL    HW229079   2.411   4.038   6.470  1.7831 -0.5983  1.2819
 5873SOL     OW29080   4.043   1.626   4.153  0.3768  0.2351  0.2746
 5873SOL    HW129081   4.013   1.686   4.221 -0.1753  0.9401 -0.5971
 5873SOL    HW229082   4.017   1.676   4.076 -1.7190 -1.7582 -0.3154
 5874SOL     OW29083   2.910   2.445   6.487  0.0912 -0.4099  0.3695
 5874SOL    HW129084   2.832   2.473   6.536 -0.0170  1.2825 -0.7579
 5874SOL    HW229085   2.914   2.350   6.496 -1.7872 -0.6723 -1.7940
 5875SOL     OW29086   4.395   3.962   5.392 -0.1244  0.3899 -0.0672
 5875SOL    HW129087   4.304   3.941   5.373 -0.1542 -0.3430  0.8617
 5875SOL    HW229088   4.386   4.054   5.415 -0.8417 -0.0197  1.3240
 5876SOL     OW29089   3.870   0.559   7.611 -0.1248 -0.8492  0.2728
 5876SOL    HW129090   3.937   0.509   7.658  1.3509  3.2471  2.5023
 5876SOL    HW229091   3.917   0.563   7.527  2.1267  1.3280  1.6509
 5877SOL     OW29092   4.256   1.563  11.397  0.0377 -0.3858 -0.3291
 5877SOL    HW129093   4.180   1.529  11.445  0.0501 -0.1919 -0.1746
 5877SOL    HW229094   4.210   1.614  11.330 -1.3805  0.0949  1.0077
 5878SOL     OW29095   0.213   0.927   4.204  0.1725  0.2631 -0.0011
 5878SOL    HW129096   0.216   0.833   4.188  1.3895  0.1611  0.8623
 5878SOL    HW229097   0.206   0.969   4.118 -0.6609 -1.0378 -0.5546
 5879SOL     OW29098   4.045   2.393   8.756  0.3627 -0.0857 -0.3865
 5879SOL    HW129099   3.960   2.363   8.724  1.2295 -1.3536 -1.4689
 5879SOL    HW229100   4.023   2.425   8.843 -1.3606 -1.0748 -0.4582
 5880SOL     OW29101   1.251   1.878   7.343 -0.6612  0.4486 -0.1026
 5880SOL    HW129102   1.295   1.897   7.259  4.5252 -1.0268  2.2656
 5880SOL    HW229103   1.159   1.880   7.318 -0.7318 -0.5390  0.1047
 5881SOL     OW29104   3.533   0.379   8.096 -0.2932 -0.9190  0.1993
 5881SOL    HW129105   3.493   0.465   8.087 -0.8525 -1.1072  0.8875
 5881SOL    HW229106   3.531   0.366   8.191  3.3937 -1.6552  0.1971
 5882SOL     OW29107   2.231   2.012  16.432 -0.4197 -0.6589  0.1503
 5882SOL    HW129108   2.321   1.991  16.459  0.4525  0.4481 -1.8531
 5882SOL    HW229109   2.239   2.107  16.426  3.3332 -1.0157 -0.5800
 5883SOL     OW29110   4.172   2.317   6.554 -0.4092  0.3634 -0.1457
 5883SOL    HW129111   4.155   2.410   6.572 -0.0963  0.3672  0.1372
 5883SOL    HW229112   4.084   2.287   6.578 -0.2551  1.7881  2.2497
 5884SOL     OW29113   4.006   3.959   5.293  0.1731  0.0765 -0.2931
 5884SOL    HW129114   3.936   4.012   5.255 -1.0683 -1.7772 -0.5866
 5884SOL    HW229115   4.076   3.965   5.228  0.5872  1.5715  0.2886
 5885SOL     OW29116   1.079   1.923   4.030 -0.7016  0.3386  0.7248
 5885SOL    HW129117   1.144   1.899   4.096 -3.1561 -2.9514  1.9201
 5885SOL    HW229118   1.031   1.988   4.081 -0.4322  0.3423  0.9734
 5886SOL     OW29119   0.305   3.406   7.388  0.2965 -0.1817  0.1056
 5886SOL    HW129120   0.245   3.389   7.460 -0.9106  0.0048 -0.8552
 5886SOL    HW229121   0.249   3.471   7.346  0.6477  1.0438  1.5159
 5887SOL     OW29122   0.487   2.935  14.101  0.0214  0.0322  0.5683
 5887SOL    HW129123   0.463   2.882  14.025 -0.6404 -0.5224  1.1647
 5887SOL    HW229124   0.411   2.927  14.158  0.5344 -2.6246  0.8672
 5888SOL     OW29125   2.750   2.707  10.341  0.1371 -0.3744 -0.1013
 5888SOL    HW129126   2.695   2.629  10.334 -0.7123  0.1241  1.0943
 5888SOL    HW229127   2.704   2.759  10.275  0.0037 -0.4793 -0.0917
 5889SOL     OW29128   1.126   3.618  15.273 -0.1837 -0.7365  0.3838
 5889SOL    HW129129   1.055   3.614  15.337 -0.7415 -0.8057 -0.2368
 5889SOL    HW229130   1.184   3.668  15.330  0.7394 -0.3723 -0.8664
 5890SOL     OW29131   4.486   1.728   6.153 -0.3115  0.3655  0.5092
 5890SOL    HW129132   4.539   1.694   6.081 -1.3982 -2.1054  0.8884
 5890SOL    HW229133   4.467   1.641   6.187 -2.3527  0.9063  0.7391
 5891SOL     OW29134   3.822   4.615   7.992  0.0444 -0.3675 -0.6642
 5891SOL    HW129135   3.729   4.633   8.006 -0.0786 -2.6468  1.4909
 5891SOL    HW229136   3.827   4.569   8.076  1.4587 -0.6280 -0.8992
 5892SOL     OW29137   1.319   4.449   0.109 -0.9331  0.3013  0.1444
 5892SOL    HW129138   1.277   4.382   0.055  1.3025 -0.0014 -1.2113
 5892SOL    HW229139   1.410   4.431   0.085  0.5210  2.5961  3.9552
 5893SOL     OW29140   3.458   3.845   3.821 -0.0990 -0.3461 -0.4563
 5893SOL    HW129141   3.549   3.871   3.813  0.6655 -2.1088  2.3714
 5893SOL    HW229142   3.420   3.933   3.819  0.6736 -0.0189 -0.6007
 5894SOL     OW29143   2.879   1.527  15.739  0.7835 -0.3849 -0.1065
 5894SOL    HW129144   2.914   1.478  15.813  1.3123 -1.7112 -1.2352
 5894SOL    HW229145   2.924   1.494  15.661 -1.7901 -0.9747 -1.3532
 5895SOL     OW29146   3.823   1.456   0.422 -0.0896  0.1493 -0.6298
 5895SOL    HW129147   3.839   1.423   0.511 -0.1853  2.6263  0.3016
 5895SOL    HW229148   3.897   1.429   0.368 -0.9605 -0.6383 -1.4325
 5896SOL     OW29149   0.765   0.926   3.715  0.6337 -0.2973 -0.2050
 5896SOL    HW129150   0.680   0.927   3.760  0.5068 -0.5086 -0.4368
 5896SOL    HW229151   0.768   1.021   3.704 -0.0164 -0.3816 -1.0689
 5897SOL     OW29152   4.666   1.105  16.910 -0.0398 -0.2984  0.0738
 5897SOL    HW129153   4.675   1.149  16.995  2.6535 -0.4440 -0.1308
 5897SOL    HW229154   0.037   1.096  16.876  0.0378 -0.2962  0.2714
 5898SOL     OW29155   2.791   3.275   6.907 -0.1369  0.2811  0.6890
 5898SOL    HW129156   2.698   3.290   6.924 -0.3324  1.8174 -1.6114
 5898SOL    HW229157   2.779   3.228   6.824  0.6752  0.5915  0.4002
 5899SOL     OW29158   4.179   4.191   3.392  0.1962  0.1827  1.0223
 5899SOL    HW129159   4.100   4.176   3.340  0.8620 -1.2009  0.4208
 5899SOL    HW229160   4.228   4.255   3.339  0.4316 -0.0240  0.9888
 5900SOL     OW29161   4.590   4.259   5.698  0.1923 -0.0887  0.3061
 5900SOL    HW129162   4.628   4.176   5.728 -0.6066 -0.1255  1.2069
 5900SOL    HW229163   4.636   4.325   5.748 -1.2171  0.5300  0.7704
 5901SOL     OW29164   0.862   4.055   7.643 -0.6777  0.4353 -0.3366
 5901SOL    HW129165   0.769   4.056   7.618 -0.4234  0.4441 -1.2646
 5901SOL    HW229166   0.871   4.149   7.656  0.0474  0.3763 -0.4427
 5902SOL     OW29167   2.477   3.784  15.296  0.1110  0.2622 -0.4417
 5902SOL    HW129168   2.438   3.759  15.379  0.6280 -0.2304 -0.3445
 5902SOL    HW229169   2.508   3.701  15.259 -0.0533  1.3369 -2.9598
 5903SOL     OW29170   0.565   0.104   5.286 -0.4988  0.3520  0.1022
 5903SOL    HW129171   0.535   0.077   5.199 -0.7818  0.9812  0.0007
 5903SOL    HW229172   0.587   0.014   5.311  0.4627  1.2799  2.6092
 5904SOL     OW29173   4.433   1.477   4.904 -0.6465  0.0062  0.1031
 5904SOL    HW129174   4.507   1.434   4.947 -0.9231  1.4580  1.9923
 5904SOL    HW229175   4.425   1.411   4.834  1.8736 -1.5122  1.2594
 5905SOL     OW29176   2.547   1.452   6.563  0.0982  0.0784 -0.2919
 5905SOL    HW129177   2.500   1.530   6.594  0.4773  1.0717 -2.2381
 5905SOL    HW229178   2.578   1.404   6.640 -0.0051 -1.1422 -1.0185
 5906SOL     OW29179   3.783   0.110   1.884 -0.3919  0.2482 -0.0725
 5906SOL    HW129180   3.822   0.087   1.968 -0.2285  0.7731 -0.0071
 5906SOL    HW229181   3.704   0.155   1.913  1.0546  1.6859  1.6027
 5907SOL     OW29182   3.771   1.808   3.677  0.0430  0.0107  0.5350
 5907SOL    HW129183   3.858   1.848   3.679 -0.2703  0.6806  0.7238
 5907SOL    HW229184   3.768   1.770   3.764  1.8923 -1.1605  0.0801
 5908SOL     OW29185   1.917   3.762   3.594 -0.0740 -0.1912 -0.0288
 5908SOL    HW129186   1.891   3.849   3.623  2.7177  0.8994 -0.7794
 5908SOL    HW229187   1.834   3.726   3.561 -0.1603  1.6993 -1.8407
 5909SOL     OW29188   3.738   3.937   3.854 -0.1594  0.1921  0.1965
 5909SOL    HW129189   3.772   3.972   3.936  1.3291  1.2467 -0.8700
 5909SOL    HW229190   3.761   4.000   3.785 -0.9758 -0.7085 -0.9052
 5910SOL     OW29191   3.214   1.938   1.192  0.7445  0.0981  0.9020
 5910SOL    HW129192   3.195   1.907   1.280  0.3115 -1.6444  0.1957
 5910SOL    HW229193   3.291   1.996   1.195  1.0572 -0.4771  3.6231
 5911SOL     OW29194   0.909   0.243   7.207 -0.3357  0.0966 -0.2059
 5911SOL    HW129195   0.990   0.211   7.169  0.4446  0.3286  1.2719
 5911SOL    HW229196   0.927   0.337   7.202  0.1262  0.0028 -0.2833
 5912SOL     OW29197   4.357   3.852   3.926  0.0126 -0.6467  0.2968
 5912SOL    HW129198   4.358   3.779   3.865 -1.5266 -1.9969  1.8847
 5912SOL    HW229199   4.398   3.820   4.007  1.3072 -1.3954 -0.6659
 5913SOL     OW29200   1.660   2.441   4.765  0.3219  0.0298  0.6482
 5913SOL    HW129201   1.591   2.397   4.814 -0.8164 -1.3627 -2.1924
 5913SOL    HW229202   1.662   2.381   4.690 -0.2477  0.2630  0.4495
 5914SOL     OW29203   0.536   3.010  12.661  0.3541  0.2518 -0.3062
 5914SOL    HW129204   0.454   2.961  12.657  0.4027  0.2879 -2.0468
 5914SOL    HW229205   0.504   3.097  12.638  0.7018  0.3881 -0.2839
 5915SOL     OW29206   0.733   3.690  10.968 -0.2760  0.3869 -0.1506
 5915SOL    HW129207   0.721   3.597  10.948 -1.7833  0.4206  0.5811
 5915SOL    HW229208   0.776   3.675  11.052 -1.2156  1.5159  0.5322
 5916SOL     OW29209   4.241   0.761   3.363  0.2004  0.8185 -0.1926
 5916SOL    HW129210   4.196   0.826   3.416 -0.2595 -0.2635  0.7598
 5916SOL    HW229211   4.247   0.809   3.281  2.2983  0.0580 -0.5026
 5917SOL     OW29212   1.339   1.245  16.663  0.3199  0.4242 -0.2779
 5917SOL    HW129213   1.302   1.157  16.654 -1.6504  0.9780  2.8115
 5917SOL    HW229214   1.266   1.307  16.660 -0.9222 -0.9411  2.2700
 5918SOL     OW29215   0.170   1.954   4.913 -0.0868 -0.5025  0.0982
 5918SOL    HW129216   0.095   1.971   4.970 -1.4132 -0.1838 -1.7274
 5918SOL    HW229217   0.211   1.894   4.974 -1.2100  0.1370  1.5002
 5919SOL     OW29218   3.377   1.766  12.688 -0.0020 -0.4444  0.1769
 5919SOL    HW129219   3.300   1.822  12.698 -1.4762 -2.4862  0.3462
 5919SOL    HW229220   3.449   1.826  12.707 -1.4977  1.9849 -1.8600
 5920SOL     OW29221   3.658   0.838   9.631 -0.2540  0.5645 -0.4359
 5920SOL    HW129222   3.605   0.797   9.699  0.7135 -0.2499 -0.1799
 5920SOL    HW229223   3.671   0.928   9.662  1.4896  0.0699  0.2776
 5921SOL     OW29224   0.828   2.438   4.630  0.0930 -0.1335 -0.1198
 5921SOL    HW129225   0.877   2.444   4.712 -1.2884 -1.4261  0.7921
 5921SOL    HW229226   0.885   2.497   4.581  2.3942 -1.8974  0.4734
 5922SOL     OW29227   3.760   1.514  10.145  0.0797 -0.3696  0.0916
 5922SOL    HW129228   3.772   1.537  10.237  1.2238  0.7336 -0.3386
 5922SOL    HW229229   3.787   1.423  10.137  0.1172 -0.4514  1.1296
 5923SOL     OW29230   4.199   1.582  10.358 -0.0395  0.3447 -0.1973
 5923SOL    HW129231   4.154   1.589  10.443  1.3108  1.7735  0.4035
 5923SOL    HW229232   4.222   1.489  10.356 -1.3918 -0.0337  1.3651
 5924SOL     OW29233   0.762   4.142   4.937  0.1957  0.3694  0.2193
 5924SOL    HW129234   0.704   4.216   4.920  0.1602  0.7452  1.9010
 5924SOL    HW229235   0.771   4.099   4.852  2.2328  1.8623 -0.3342
 5925SOL     OW29236   2.838   3.035   4.262  0.4179  0.2005 -0.2870
 5925SOL    HW129237   2.927   3.001   4.249  0.0164 -1.1733  0.5302
 5925SOL    HW229238   2.797   2.956   4.298  2.8358 -0.4400  1.0800
 5926SOL     OW29239   1.252   0.705   4.305  0.0749 -0.0927 -0.1364
 5926SOL    HW129240   1.282   0.788   4.269  0.9685  0.5325  2.0161
 5926SOL    HW229241   1.232   0.664   4.221 -2.8772  1.9258 -0.4253
 5927SOL     OW29242   1.253   4.608   3.417  0.5077  0.4472 -0.4425
 5927SOL    HW129243   1.236   4.556   3.339 -1.2635  0.8429 -0.3081
 5927SOL    HW229244   1.263   4.696   3.381 -0.7536  0.2653 -1.2133
 5928SOL     OW29245   2.695   0.872   5.570 -0.0326  0.3998 -0.0296
 5928SOL    HW129246   2.716   0.816   5.496 -2.3869 -0.7257  0.1645
 5928SOL    HW229247   2.599   0.877   5.575  0.0014  1.5030 -0.3440
 5929SOL     OW29248   0.077   2.403   8.986 -0.1703  0.5852 -0.0364
 5929SOL    HW129249   0.114   2.431   9.069 -0.4811  1.6837 -0.2713
 5929SOL    HW229250   0.004   2.464   8.980 -1.5412 -0.9748  0.8172
 5930SOL     OW29251   4.106   4.550   1.928 -0.0316 -0.5476  0.0997
 5930SOL    HW129252   4.062   4.567   2.012 -0.6537  1.4452 -0.6318
 5930SOL    HW229253   4.183   4.606   1.939  0.7445 -1.7231  0.7121
 5931SOL     OW29254   3.898   2.145  17.469 -0.2849 -0.0572 -0.7542
 5931SOL    HW129255   3.847   2.064  17.476  0.9042 -0.9141 -2.2007
 5931SOL    HW229256   3.835   2.204  17.427 -0.5645 -0.4980 -0.9559
 5932SOL     OW29257   2.921   1.075   8.741  0.3443 -0.4276  0.2707
 5932SOL    HW129258   2.838   1.038   8.771 -0.4764  1.8488  0.7508
 5932SOL    HW229259   2.982   1.080   8.815 -0.4094 -2.5839  1.0320
 5933SOL     OW29260   0.915   0.493   6.562  0.4302 -0.0351  0.1519
 5933SOL    HW129261   0.954   0.470   6.478  1.7137 -1.6604  1.1895
 5933SOL    HW229262   0.831   0.447   6.562  2.0885 -3.0736 -1.1012
 5934SOL     OW29263   0.359   1.896   5.562  0.0991  0.0617 -0.3806
 5934SOL    HW129264   0.289   1.856   5.613  0.5126  0.8416  0.7769
 5934SOL    HW229265   0.393   1.822   5.511  1.1611 -0.0899  0.5648
 5935SOL     OW29266   2.636   1.443   7.930 -0.7076  0.1748 -0.8851
 5935SOL    HW129267   2.570   1.466   7.995  1.2038 -0.5333  1.3014
 5935SOL    HW229268   2.688   1.389   7.990 -1.7640  2.0914  1.7583
 5936SOL     OW29269   1.176   1.063   9.914 -0.7893 -0.2337  0.2700
 5936SOL    HW129270   1.261   1.029   9.886 -1.1138  1.0989 -2.3605
 5936SOL    HW229271   1.212   1.133   9.968  0.3160 -0.1541 -0.5646
 5937SOL     OW29272   0.151   0.245   1.719 -0.1095  0.2209 -0.0555
 5937SOL    HW129273   0.090   0.285   1.657  0.6324 -0.3214 -1.1446
 5937SOL    HW229274   0.204   0.203   1.651 -1.4079  1.8800 -2.0944
 5938SOL     OW29275   1.234   3.770   1.524 -0.4027 -0.5145 -0.3593
 5938SOL    HW129276   1.216   3.709   1.597 -0.6134  1.8827  1.5917
 5938SOL    HW229277   1.316   3.742   1.484 -0.8429 -1.7016 -0.4573
 5939SOL     OW29278   2.252   3.898   7.523  0.3383 -0.5200  0.8099
 5939SOL    HW129279   2.306   3.862   7.593 -2.5172  0.5602  3.5568
 5939SOL    HW229280   2.262   3.822   7.466  0.4602 -0.0069  0.1358
 5940SOL     OW29281   1.680   0.714   4.886 -0.2033 -0.0957  0.2678
 5940SOL    HW129282   1.605   0.690   4.940 -1.2554 -1.8610 -1.9815
 5940SOL    HW229283   1.643   0.782   4.830 -0.2799 -0.8529 -0.6018
 5941SOL     OW29284   4.418   1.197   6.619 -0.2657  0.3296  0.8530
 5941SOL    HW129285   4.473   1.244   6.556 -0.5210 -1.8065 -0.9382
 5941SOL    HW229286   4.475   1.189   6.695 -0.8083 -0.6283  1.1503
 5942SOL     OW29287   2.886   1.564  12.159  0.6425 -1.0083  0.1933
 5942SOL    HW129288   2.931   1.512  12.092  1.4965  0.0797 -0.0777
 5942SOL    HW229289   2.832   1.625  12.108  0.5281  0.4566  2.0620
 5943SOL     OW29290   4.169   0.736   9.888 -0.7233 -0.4308  0.3880
 5943SOL    HW129291   4.100   0.716   9.824  0.4012  0.6851 -1.1738
 5943SOL    HW229292   4.130   0.773   9.967 -0.3056  0.4159  0.2045
 5944SOL     OW29293   0.315   2.722   5.075 -0.0844  0.1745  0.1241
 5944SOL    HW129294   0.379   2.662   5.036 -0.0875  2.8762 -3.9798
 5944SOL    HW229295   0.259   2.731   4.997 -1.7261 -1.6373  1.0680
 5945SOL     OW29296   3.235   0.849  11.431 -0.2242 -0.3843 -0.4659
 5945SOL    HW129297   3.324   0.851  11.395  0.7730 -0.1919  2.0218
 5945SOL    HW229298   3.244   0.867  11.525 -0.0613 -0.1145 -0.5343
 5946SOL     OW29299   0.631   2.563   2.292  0.3170  0.1351 -0.3828
 5946SOL    HW129300   0.564   2.614   2.338  2.1332  0.7279  1.5842
 5946SOL    HW229301   0.589   2.545   2.207 -1.5371  3.3467 -0.1353
 5947SOL     OW29302   0.080   3.587   9.332  0.3865 -0.3597 -0.4082
 5947SOL    HW129303   0.019   3.654   9.301  1.1965  0.2038 -0.7704
 5947SOL    HW229304   0.022   3.527   9.379  0.2868 -0.3097 -0.4670
 5948SOL     OW29305   0.592   0.776   2.478 -0.3721  0.2992  0.2728
 5948SOL    HW129306   0.524   0.812   2.533 -0.4618 -0.1250  0.4375
 5948SOL    HW229307   0.547   0.709   2.427 -3.1231  0.4523  2.5497
 5949SOL     OW29308   1.089   2.443   4.842  0.5670 -0.0701  0.1717
 5949SOL    HW129309   1.110   2.502   4.915  3.3460 -1.0048  0.1051
 5949SOL    HW229310   1.106   2.358   4.881  1.9428 -0.0163 -0.3009
 5950SOL     OW29311   0.532   3.095   2.868 -0.4565 -0.1893  0.5958
 5950SOL    HW129312   0.471   3.044   2.921 -2.0882 -0.1002 -1.1981
 5950SOL    HW229313   0.587   3.023   2.837 -0.7312 -0.0254 -0.2639
 5951SOL     OW29314   4.368   0.179  12.327 -0.0299  0.1112 -0.1857
 5951SOL    HW129315   4.335   0.175  12.238  1.2727  0.0756 -0.6612
 5951SOL    HW229316   4.342   0.090  12.350 -0.6176 -0.1092 -1.7181
 5952SOL     OW29317   4.110   1.199   4.998 -0.0921  0.4226 -0.0389
 5952SOL    HW129318   4.186   1.236   5.043 -0.8317  1.3350  0.4452
 5952SOL    HW229319   4.123   1.105   5.013 -0.1179  0.5803  0.9656
 5953SOL     OW29320   2.454   0.374   7.682 -0.0154  0.2763 -0.1684
 5953SOL    HW129321   2.534   0.380   7.631 -0.1952  0.4322 -0.4331
 5953SOL    HW229322   2.441   0.465   7.712  1.9414  0.7733 -0.8722
 5954SOL     OW29323   4.331   4.310  16.230 -0.0165 -0.0745  0.4435
 5954SOL    HW129324   4.245   4.270  16.241 -0.3498  1.1589  2.4552
 5954SOL    HW229325   4.343   4.301  16.136  1.9538  0.2919  0.6486
 5955SOL     OW29326   3.864   2.555   6.770  0.0451  0.1855 -0.1032
 5955SOL    HW129327   3.934   2.506   6.813  0.6035 -0.6974 -2.0293
 5955SOL    HW229328   3.797   2.488   6.780  1.1649 -0.9124  0.1667
 5956SOL     OW29329   3.595   1.889   7.221 -0.1442  0.2360  0.5731
 5956SOL    HW129330   3.553   1.865   7.138 -0.0143  3.1169 -0.3490
 5956SOL    HW229331   3.674   1.931   7.188 -0.8217 -0.0105 -1.3611
 5957SOL     OW29332   0.759   4.042   8.762 -0.3054 -0.2555  0.2437
 5957SOL    HW129333   0.756   4.109   8.831 -0.9699  0.3881 -0.4151
 5957SOL    HW229334   0.749   3.956   8.803  1.0046 -1.2573 -1.5728
 5958SOL     OW29335   0.778   3.433   9.071 -0.2181  0.0117  0.2983
 5958SOL    HW129336   0.797   3.494   9.142  4.4315 -2.6266  1.3612
 5958SOL    HW229337   0.867   3.410   9.044 -0.8578 -1.3217 -0.6820
 5959SOL     OW29338   2.027   2.702  15.676  0.3992 -0.4182  0.5090
 5959SOL    HW129339   1.982   2.640  15.734  0.6874 -0.0830  1.0905
 5959SOL    HW229340   2.104   2.725  15.728  1.3664  0.0235 -1.1133
 5960SOL     OW29341   2.757   0.880   4.349 -0.4749 -0.6750 -0.1807
 5960SOL    HW129342   2.829   0.915   4.402 -0.6062 -0.0852 -0.3876
 5960SOL    HW229343   2.729   0.813   4.411  0.4691 -0.9984 -0.1016
 5961SOL     OW29344   2.097   3.342   4.191 -0.0306  0.5911 -0.0570
 5961SOL    HW129345   2.010   3.305   4.207  0.6418 -2.6873 -4.0093
 5961SOL    HW229346   2.096   3.338   4.095  0.6464 -0.8035 -0.0030
 5962SOL     OW29347   4.382   0.517  16.289 -0.3403 -0.0113 -0.2369
 5962SOL    HW129348   4.366   0.453  16.358  1.9176  0.0570  0.3273
 5962SOL    HW229349   4.297   0.521  16.244 -0.0983  2.3906 -0.4712
 5963SOL     OW29350   2.484   3.055  14.046 -0.2194 -0.0741 -0.1864
 5963SOL    HW129351   2.573   3.042  14.078  0.0491  0.4551 -0.7157
 5963SOL    HW229352   2.457   2.966  14.024  0.9980 -0.6666  0.7859
 5964SOL     OW29353   3.305   4.544   8.038  0.2132  0.4092 -0.2741
 5964SOL    HW129354   3.222   4.583   8.010 -1.0518 -2.1431 -0.1151
 5964SOL    HW229355   3.309   4.551   8.134  1.9275  1.3818 -0.4246
 5965SOL     OW29356   2.363   0.195   2.211  0.2403 -0.4575 -0.2712
 5965SOL    HW129357   2.280   0.233   2.181 -0.6579 -1.0324  1.4728
 5965SOL    HW229358   2.337   0.111   2.247  4.8669 -1.5421  0.5565
 5966SOL     OW29359   1.995   0.668   4.990 -0.3247  0.1033 -0.6990
 5966SOL    HW129360   1.937   0.645   4.918  0.1755 -1.8434 -0.4907
 5966SOL    HW229361   1.988   0.592   5.048  1.7229  0.6428  0.2736
 5967SOL     OW29362   0.325   4.378   5.070  0.8522 -0.0119 -0.4606
 5967SOL    HW129363   0.347   4.290   5.100 -2.7993 -1.1897 -1.1589
 5967SOL    HW229364   0.319   4.368   4.975 -0.1824  1.6106 -0.5819
 5968SOL     OW29365   0.422   0.714  11.367  0.0504  0.7934  0.1949
 5968SOL    HW129366   0.500   0.659  11.378 -1.0674 -0.9471 -0.6075
 5968SOL    HW229367   0.476   0.786  11.336 -0.5011  0.6806 -1.0007
 5969SOL     OW29368   0.257   3.379   9.584  0.2247  0.2601  0.1972
 5969SOL    HW129369   0.298   3.375   9.497 -0.4709 -0.4408 -0.0923
 5969SOL    HW229370   0.302   3.444   9.637  0.5401 -0.2731  0.5870
 5970SOL     OW29371   0.252   1.436  17.301  0.0618 -0.2976  0.1224
 5970SOL    HW129372   0.311   1.505  17.333  0.8193 -0.9581  0.1289
 5970SOL    HW229373   0.196   1.478  17.236  0.4196  0.0293  0.0219
 5971SOL     OW29374   1.618   0.272  16.510 -0.4426  0.1827  0.0798
 5971SOL    HW129375   1.680   0.200  16.520 -1.7637 -1.1530 -1.3094
 5971SOL    HW229376   1.553   0.244  16.575 -2.2317  1.4000 -1.1666
 5972SOL     OW29377   3.134   4.369   3.550 -0.3292  0.1356 -0.2304
 5972SOL    HW129378   3.087   4.293   3.587 -1.2881  1.3768  1.1122
 5972SOL    HW229379   3.068   4.437   3.559 -0.3888  0.1818 -1.0979
 5973SOL     OW29380   4.349   2.684   8.100 -0.0513  0.5431  0.4967
 5973SOL    HW129381   4.372   2.741   8.174  1.7933  0.0056  0.3315
 5973SOL    HW229382   4.390   2.601   8.122  1.9574  1.4075  0.0317
 5974SOL     OW29383   4.114   2.372   8.314 -0.1104 -0.2835  0.0027
 5974SOL    HW129384   4.081   2.323   8.390 -0.1076 -1.3288 -0.6610
 5974SOL    HW229385   4.199   2.398   8.348 -0.6806 -1.1333  2.1066
 5975SOL     OW29386   1.251   1.162  15.732  0.2977 -0.0149  0.2160
 5975SOL    HW129387   1.279   1.072  15.746 -1.3150 -0.5944 -0.4005
 5975SOL    HW229388   1.257   1.177  15.638  0.7202  3.5436  0.7868
 5976SOL     OW29389   4.613   4.314   0.016  0.2902  0.2783 -0.0034
 5976SOL    HW129390   4.579   4.339   0.101 -1.0248  1.2035 -0.8113
 5976SOL    HW229391   4.566   4.232   0.000  2.6261 -0.8268 -1.2288
 5977SOL     OW29392   2.600   0.002   4.904 -0.7378 -0.4828  0.4444
 5977SOL    HW129393   2.523   0.046   4.869 -1.5889 -1.8657  0.5530
 5977SOL    HW229394   2.668   0.031   4.844  1.1145 -0.7152  2.4305
 5978SOL     OW29395   2.325   3.866  11.237 -0.3612  0.2309 -0.1553
 5978SOL    HW129396   2.363   3.825  11.314 -0.5849  1.5738  0.6716
 5978SOL    HW229397   2.259   3.925  11.273 -1.1311 -1.1019  0.6049
 5979SOL     OW29398   4.299   0.311   1.416  0.2334 -0.6812 -0.1630
 5979SOL    HW129399   4.326   0.251   1.486 -0.0781 -0.4403  0.1619
 5979SOL    HW229400   4.228   0.352   1.465 -0.2339 -1.0069 -0.5647
 5980SOL     OW29401   3.362   0.577   3.218 -0.3234 -0.7299 -0.0884
 5980SOL    HW129402   3.323   0.518   3.153 -1.3635 -0.6249  0.4419
 5980SOL    HW229403   3.373   0.526   3.298  0.9116 -0.7579 -0.2793
 5981SOL     OW29404   1.773   3.296   1.302 -0.1442  0.3547  0.4599
 5981SOL    HW129405   1.729   3.310   1.218  0.0695  0.0906  0.3029
 5981SOL    HW229406   1.743   3.208   1.323 -0.4540  0.7140  1.5529
 5982SOL     OW29407   2.873   3.079   2.595 -0.0121 -1.0069 -0.1777
 5982SOL    HW129408   2.861   3.170   2.567  1.6272 -0.7466 -0.0233
 5982SOL    HW229409   2.904   3.023   2.524 -0.2379 -0.9673 -0.3080
 5983SOL     OW29410   3.523   3.633   0.440  0.9194 -0.2158 -0.4586
 5983SOL    HW129411   3.500   3.600   0.527  0.4489  3.4306  0.8194
 5983SOL    HW229412   3.471   3.575   0.385 -2.9675  1.9960  0.8945
 5984SOL     OW29413   1.507   1.270   8.498  0.2967 -0.5053 -0.2640
 5984SOL    HW129414   1.600   1.270   8.477  0.0267  1.7815 -1.4342
 5984SOL    HW229415   1.494   1.194   8.555  1.7235 -0.1163  0.5669
 5985SOL     OW29416   0.416   0.405   0.098 -0.0195 -0.4754 -0.4283
 5985SOL    HW129417   0.404   0.321   0.141  0.1528 -1.4428 -2.2741
 5985SOL    HW229418   0.488   0.446   0.147  0.6481  0.2231 -1.9883
 5986SOL     OW29419   1.742   4.243   2.694  0.6596 -0.3032  0.5887
 5986SOL    HW129420   1.726   4.293   2.613 -1.1001 -1.5447  0.1681
 5986SOL    HW229421   1.753   4.164   2.641 -1.3249  0.4540 -0.9711
 5987SOL     OW29422   0.860   0.729  11.812  0.1428  0.0580  0.0862
 5987SOL    HW129423   0.950   0.756  11.827 -0.2083 -0.4964  3.1763
 5987SOL    HW229424   0.815   0.788  11.874 -0.6435 -0.8965  0.4263
 5988SOL     OW29425   4.340   0.900  12.781 -0.0179 -0.9906  0.8545
 5988SOL    HW129426   4.343   0.804  12.773 -0.6601 -0.7988 -1.4849
 5988SOL    HW229427   4.435   0.908  12.794 -0.1506  2.4372 -0.4278
 5989SOL     OW29428   0.025   3.263   1.251 -0.3661  0.1541  0.1932
 5989SOL    HW129429   0.101   3.215   1.217 -1.1315 -1.7836  1.1968
 5989SOL    HW229430   4.675   3.200   1.227 -0.2768  0.3393 -0.5684
 5990SOL     OW29431   3.319   3.305   2.656 -0.5913  0.1548  0.7117
 5990SOL    HW129432   3.335   3.395   2.682  1.5501  0.3319 -1.1660
 5990SOL    HW229433   3.293   3.268   2.740 -0.9166 -1.5340 -0.1137
 5991SOL     OW29434   4.591   0.402   9.118  0.1321  0.0946  0.0058
 5991SOL    HW129435   4.508   0.361   9.094 -0.6311 -0.4790  3.5195
 5991SOL    HW229436   4.653   0.333   9.093 -0.3820  0.1583 -1.4484
 5992SOL     OW29437   2.723   0.167  10.600 -0.0153 -0.5965  0.2809
 5992SOL    HW129438   2.648   0.210  10.640 -0.4968 -0.9911 -0.1888
 5992SOL    HW229439   2.775   0.154  10.679  0.6557 -0.0964 -0.0875
 5993SOL     OW29440   1.982   4.325   0.408 -1.1564 -0.2802  0.0829
 5993SOL    HW129441   2.058   4.374   0.438 -2.0380 -0.0634  1.9798
 5993SOL    HW229442   2.019   4.248   0.366 -1.1631  0.7115 -1.7364
 5994SOL     OW29443   2.559   3.774  16.630  0.2627  0.0601 -0.6684
 5994SOL    HW129444   2.654   3.766  16.626  0.2541 -0.0100 -0.7384
 5994SOL    HW229445   2.546   3.831  16.705 -2.3846  1.6253 -2.3026
 5995SOL     OW29446   1.261   3.840  13.325  0.2471 -0.3171 -0.5166
 5995SOL    HW129447   1.200   3.831  13.252  0.3669 -2.0159 -0.4065
 5995SOL    HW229448   1.239   3.758  13.370  0.6571 -1.3161 -2.1513
 5996SOL     OW29449   2.415   4.255   4.993 -0.1396 -0.7546 -0.3508
 5996SOL    HW129450   2.349   4.315   4.959 -0.6731 -0.8245  0.5467
 5996SOL    HW229451   2.488   4.315   5.009 -0.4066 -0.5938  0.2917
 5997SOL     OW29452   4.166   0.511   2.661 -0.1541  0.5660 -0.6004
 5997SOL    HW129453   4.251   0.471   2.675  0.1239  0.9586 -1.1593
 5997SOL    HW229454   4.180   0.593   2.708  0.3209  1.2549 -1.9313
 5998SOL     OW29455   3.348   2.791   7.048  0.1116  0.4253  0.6015
 5998SOL    HW129456   3.426   2.811   6.998 -1.5662  2.2450 -1.2513
 5998SOL    HW229457   3.321   2.708   7.008 -0.0029  1.4887 -1.5233
 5999SOL     OW29458   2.848   2.300   4.549 -0.2547 -0.4032  0.0634
 5999SOL    HW129459   2.809   2.356   4.482  1.1718  1.0496  0.4466
 5999SOL    HW229460   2.908   2.352   4.602  0.2611 -0.9920  0.0647
 6000SOL     OW29461   1.543   2.746   6.128 -0.2230  0.0857 -0.2514
 6000SOL    HW129462   1.501   2.763   6.043  0.2681  0.6292 -0.3849
 6000SOL    HW229463   1.635   2.751   6.104 -0.4626  2.0943 -0.7512
 6001SOL     OW29464   2.177   3.646   2.121 -0.1327  0.0790  0.6970
 6001SOL    HW129465   2.108   3.596   2.165 -0.2603  0.6239  1.1143
 6001SOL    HW229466   2.209   3.574   2.067  0.7465 -0.6453  2.1727
 6002SOL     OW29467   2.856   3.408   9.029  0.2993  0.3915  0.7808
 6002SOL    HW129468   2.871   3.501   9.044  0.0808  0.5242  0.1726
 6002SOL    HW229469   2.897   3.413   8.943  0.3296 -1.8686  0.6500
 6003SOL     OW29470   0.942   4.590   4.982  0.0399 -0.4541  0.6548
 6003SOL    HW129471   0.992   4.519   4.942  1.1535  1.2522 -0.9382
 6003SOL    HW229472   0.915   4.638   4.904 -0.4051  2.3567  2.5185
 6004SOL     OW29473   0.631   4.592   6.014 -0.0485 -0.1916  0.0772
 6004SOL    HW129474   0.660   4.545   5.936 -1.2246  0.5044 -0.7820
 6004SOL    HW229475   0.572   4.662   5.987 -0.7402 -0.5677  0.5854
 6005SOL     OW29476   2.183   3.125  13.495  0.4944 -0.5838  0.1504
 6005SOL    HW129477   2.106   3.167  13.533  1.0764  1.4390 -0.9486
 6005SOL    HW229478   2.208   3.075  13.573 -0.6921  0.4366  1.1772
 6006SOL     OW29479   4.239   3.865  12.514 -0.3297 -0.0410 -0.0314
 6006SOL    HW129480   4.260   3.773  12.497  0.2674  0.1846 -0.5410
 6006SOL    HW229481   4.178   3.873  12.587 -0.7519  1.5002 -0.5583
 6007SOL     OW29482   4.056   3.149   2.315 -0.6376 -0.1387  0.1719
 6007SOL    HW129483   4.087   3.061   2.295 -3.1885 -0.8234 -0.8428
 6007SOL    HW229484   4.096   3.207   2.251  0.6687 -2.2203 -0.8957
 6008SOL     OW29485   3.780   1.024   6.130  0.2884  0.0119  0.3525
 6008SOL    HW129486   3.739   1.105   6.160  0.4024  0.1637  0.0991
 6008SOL    HW229487   3.812   1.055   6.045  0.9956  1.6190  1.2039
 6009SOL     OW29488   3.580   2.316   3.421 -0.7631  0.1688  0.6259
 6009SOL    HW129489   3.612   2.235   3.380  0.7219  0.4344  1.2730
 6009SOL    HW229490   3.618   2.295   3.506 -1.8923 -0.3694  1.0003
 6010SOL     OW29491   2.913   2.749   2.020  0.4246  0.1064  0.0261
 6010SOL    HW129492   2.823   2.718   2.028  1.7000 -2.9977  2.5199
 6010SOL    HW229493   2.901   2.840   2.046 -0.5685  0.0870 -0.3754
 6011SOL     OW29494   3.710   0.930   1.260  0.1963 -0.4866  0.5759
 6011SOL    HW129495   3.797   0.932   1.220  0.2284 -1.9568  0.5784
 6011SOL    HW229496   3.667   0.888   1.185 -2.4151  1.0635  1.2076
 6012SOL     OW29497   3.963   0.564   2.491  0.3520 -0.2494  0.5384
 6012SOL    HW129498   4.042   0.532   2.535  0.2058 -1.4109 -0.0371
 6012SOL    HW229499   3.945   0.496   2.426  1.3848  1.1668 -1.2002
 6013SOL     OW29500   2.798   1.184   6.940  0.5417  0.1796  0.0364
 6013SOL    HW129501   2.773   1.231   7.019  2.6158  0.7177  0.3710
 6013SOL    HW229502   2.733   1.114   6.936  1.8529 -0.9077 -2.3515
 6014SOL     OW29503   1.412   4.467  13.710  0.0851  0.5662 -0.3237
 6014SOL    HW129504   1.438   4.375  13.712  0.7218  0.7587  0.1431
 6014SOL    HW229505   1.493   4.514  13.691  0.4930 -0.5535 -1.3067
 6015SOL     OW29506   0.009   3.343  13.811  0.3338  0.1301 -0.6854
 6015SOL    HW129507   4.666   3.416  13.816 -0.2871 -0.4665  0.5771
 6015SOL    HW229508   4.702   3.277  13.876  1.5536 -0.4995 -0.8552
 6016SOL     OW29509   0.060   0.292   0.714 -0.2418 -0.9014 -0.1629
 6016SOL    HW129510   4.687   0.318   0.726  0.5661  1.3443  1.3158
 6016SOL    HW229511   0.059   0.247   0.630 -4.2380 -1.0132 -0.0248
 6017SOL     OW29512   0.751   4.533   6.864 -0.3240 -0.1597 -0.2514
 6017SOL    HW129513   0.734   4.572   6.779 -0.5952 -2.1302 -1.0984
 6017SOL    HW229514   0.677   4.540   6.925 -0.5980 -2.0553 -0.3537
 6018SOL     OW29515   4.396   3.400   2.829 -0.2895 -0.0329 -0.1000
 6018SOL    HW129516   4.416   3.307   2.838 -0.3667  0.1167  1.8067
 6018SOL    HW229517   4.352   3.403   2.745  0.5946 -0.4139 -0.5803
 6019SOL     OW29518   1.394   1.925   6.829  0.4596 -0.2974 -0.0991
 6019SOL    HW129519   1.398   2.021   6.835  4.4283 -0.5256  1.1071
 6019SOL    HW229520   1.479   1.915   6.872  0.0063  0.1792  0.8835
 6020SOL     OW29521   0.882   4.661   3.930  0.3436  0.1183  0.3955
 6020SOL    HW129522   0.919   0.025   3.900  0.5426 -0.2744 -0.4063
 6020SOL    HW229523   0.791   4.674   3.903  0.5496  1.8318  0.5187
 6021SOL     OW29524   0.478   1.900  12.642 -1.0965 -0.0412 -0.2909
 6021SOL    HW129525   0.412   1.908  12.574  1.4281  3.2177 -2.3652
 6021SOL    HW229526   0.543   1.959  12.604 -0.1012  0.3096  1.9500
 6022SOL     OW29527   1.617   4.401   6.592  0.4324  0.1468 -0.5749
 6022SOL    HW129528   1.540   4.377   6.540 -0.4830  0.6642  0.5527
 6022SOL    HW229529   1.670   4.435   6.521 -1.0443 -0.5402 -2.0079
 6023SOL     OW29530   3.517   1.461  10.038  0.2419 -0.1923 -0.6881
 6023SOL    HW129531   3.596   1.481  10.087  0.9464 -0.3189 -1.7804
 6023SOL    HW229532   3.453   1.466  10.109  0.8829  0.8765 -0.1838
 6024SOL     OW29533   3.534   0.398   4.311  0.4778 -0.2667  0.2271
 6024SOL    HW129534   3.512   0.328   4.373  0.7131 -1.9781 -1.6080
 6024SOL    HW229535   3.546   0.347   4.231 -1.0276  1.0111 -0.8093
 6025SOL     OW29536   3.937   2.999  10.271  0.3131 -0.3276 -0.2571
 6025SOL    HW129537   3.986   2.927  10.233 -0.1064  0.6377 -2.6563
 6025SOL    HW229538   3.966   3.076  10.221 -2.0248  0.5227 -0.3204
 6026SOL     OW29539   1.514   3.785   4.654  0.5857  0.7742  0.3866
 6026SOL    HW129540   1.478   3.770   4.742 -0.4117 -2.6558 -0.5964
 6026SOL    HW229541   1.597   3.828   4.672  1.4565 -0.3959 -0.8720
 6027SOL     OW29542   0.214   4.183  10.674 -0.2821  0.5326  0.0816
 6027SOL    HW129543   0.296   4.152  10.636  0.9028  0.6559  2.5973
 6027SOL    HW229544   0.199   4.111  10.735 -2.2675  1.0168  0.1783
 6028SOL     OW29545   2.583   3.522  15.251  0.2576  0.4078  0.1392
 6028SOL    HW129546   2.536   3.516  15.168  2.1743  1.4673 -1.0263
 6028SOL    HW229547   2.637   3.445  15.233 -1.2140 -0.5902  0.0688
 6029SOL     OW29548   2.697   2.977  14.191 -0.0960  0.4967 -0.0977
 6029SOL    HW129549   2.787   3.009  14.192  0.1322 -0.0556 -2.7437
 6029SOL    HW229550   2.689   2.897  14.243 -1.0689  2.0026  2.0641
 6030SOL     OW29551   0.798   0.343   7.742 -0.0506  0.0135 -0.4387
 6030SOL    HW129552   0.786   0.252   7.715 -1.8312  0.1282 -0.0525
 6030SOL    HW229553   0.773   0.337   7.834  0.0329  1.8426 -0.3033
 6031SOL     OW29554   3.741   2.611   0.388  0.0616  0.0141 -0.0861
 6031SOL    HW129555   3.827   2.625   0.428  0.2052 -3.7920  0.9177
 6031SOL    HW229556   3.754   2.522   0.354  1.5019  0.3699 -0.4864
 6032SOL     OW29557   3.190   3.162   3.687  0.6338 -0.0027 -0.0217
 6032SOL    HW129558   3.191   3.256   3.668  1.4044 -0.2502 -1.1682
 6032SOL    HW229559   3.167   3.162   3.780  2.7657 -1.9734  0.5097
 6033SOL     OW29560   3.794   4.335  16.266  0.1350 -0.2048  0.0115
 6033SOL    HW129561   3.722   4.307  16.210  0.5859 -0.1640 -0.5945
 6033SOL    HW229562   3.863   4.311  16.203  0.9960  0.9988  0.4963
 6034SOL     OW29563   1.188   0.590   8.098  0.0499  0.4068  0.5372
 6034SOL    HW129564   1.134   0.669   8.098  0.4828  0.7002 -1.3290
 6034SOL    HW229565   1.271   0.621   8.134  1.1111 -1.6104 -0.1237
 6035SOL     OW29566   4.022   0.128   1.520  0.1674 -0.6824  0.0036
 6035SOL    HW129567   4.047   0.072   1.447 -0.1920  0.0787 -0.7019
 6035SOL    HW229568   3.998   0.063   1.587  3.1887 -1.0992  0.7351
 6036SOL     OW29569   1.833   2.114   2.125 -0.4069 -0.7723 -0.1930
 6036SOL    HW129570   1.740   2.093   2.125 -0.1632 -1.8721  2.3748
 6036SOL    HW229571   1.881   2.032   2.111  1.6047  0.7534 -2.2889
 6037SOL     OW29572   1.678   4.256   7.599 -0.1504  0.4674  0.3618
 6037SOL    HW129573   1.720   4.198   7.536 -1.2264  0.2577 -0.1699
 6037SOL    HW229574   1.749   4.288   7.654 -0.7100 -0.1494  1.4530
 6038SOL     OW29575   0.911   2.146   4.906 -0.6409 -0.1964  0.0638
 6038SOL    HW129576   0.861   2.169   4.828  1.0488 -0.0574 -0.9842
 6038SOL    HW229577   0.849   2.088   4.949 -2.4319  1.2923 -0.4917
 6039SOL     OW29578   3.336   2.742  15.566 -0.0652 -0.6452 -0.0135
 6039SOL    HW129579   3.365   2.711  15.652  1.3320  0.4334 -0.0889
 6039SOL    HW229580   3.336   2.837  15.574 -1.4675 -0.6535  0.0591
 6040SOL     OW29581   2.690   1.257  12.743 -0.2419  0.2251  0.2274
 6040SOL    HW129582   2.752   1.330  12.739 -0.2041  0.2483  1.3326
 6040SOL    HW229583   2.604   1.301  12.747  0.1641  1.0719 -0.4188
 6041SOL     OW29584   3.635   3.057   4.481  0.0049  0.5847  0.7114
 6041SOL    HW129585   3.724   3.072   4.449  0.0355 -1.0934  0.0228
 6041SOL    HW229586   3.630   2.964   4.459  0.4431  0.9849 -1.1067
 6042SOL     OW29587   2.771   2.380   8.221 -0.7236 -0.2623 -0.1084
 6042SOL    HW129588   2.743   2.391   8.130 -0.2199  2.8979  0.0942
 6042SOL    HW229589   2.754   2.289   8.244 -0.6138  0.2091  1.8356
 6043SOL     OW29590   2.250   0.701  16.490 -0.4142 -0.2919 -0.5126
 6043SOL    HW129591   2.202   0.619  16.479 -1.5556  0.4639 -1.1832
 6043SOL    HW229592   2.211   0.744  16.413  1.0609  2.9543  0.5514
 6044SOL     OW29593   1.536   1.228  15.382  0.4760  0.5779 -0.2129
 6044SOL    HW129594   1.447   1.199  15.398  0.8899  0.0023  1.0250
 6044SOL    HW229595   1.561   1.274  15.462 -2.5294  1.5142  0.2113
 6045SOL     OW29596   0.863   4.285  12.345  0.0744  0.5353  0.1255
 6045SOL    HW129597   0.931   4.351  12.332 -0.4104  1.0545  0.1972
 6045SOL    HW229598   0.798   4.343  12.385  0.1693 -0.0924  1.1569
 6046SOL     OW29599   3.520   0.447   3.436  0.0889 -0.2589  0.5496
 6046SOL    HW129600   3.459   0.419   3.504 -0.3231 -0.3241  0.1543
 6046SOL    HW229601   3.539   0.359   3.404  2.0282  0.9963 -1.7276
 6047SOL     OW29602   2.631   3.396  11.456  0.2930 -0.0254 -0.1258
 6047SOL    HW129603   2.639   3.336  11.530 -0.6182  0.4329  0.3433
 6047SOL    HW229604   2.540   3.390  11.427 -0.7058  2.5976  2.4076
 6048SOL     OW29605   0.155   1.026   2.009 -0.1495 -0.0159  0.0949
 6048SOL    HW129606   0.233   1.070   1.975 -1.6064  2.0107 -0.6292
 6048SOL    HW229607   0.181   0.991   2.094 -0.2644  1.5156  0.7572
 6049SOL     OW29608   3.987   4.288   0.138 -0.0373  0.5598 -0.6136
 6049SOL    HW129609   3.975   4.193   0.148  0.8689  0.5626  0.4816
 6049SOL    HW229610   3.911   4.328   0.178  0.0878  0.9831 -0.8001
 6050SOL     OW29611   1.639   3.576   8.677 -0.3385  0.3703 -0.6412
 6050SOL    HW129612   1.593   3.651   8.716 -0.2180 -0.1964  0.5640
 6050SOL    HW229613   1.724   3.600   8.713 -0.4379  0.5471 -0.5212
 6051SOL     OW29614   0.406   0.051  15.753  0.0959 -0.3246  0.4773
 6051SOL    HW129615   0.391   0.100  15.834 -0.0462  1.2513 -0.4965
 6051SOL    HW229616   0.455   0.118  15.705  0.1663  0.0385  1.0470
 6052SOL     OW29617   4.191   1.390   6.577 -0.0172  0.1874 -0.6179
 6052SOL    HW129618   4.261   1.334   6.544 -0.0578 -0.2403  0.0194
 6052SOL    HW229619   4.125   1.320   6.576 -1.3151  1.3972 -0.3340
 6053SOL     OW29620   2.348   2.587   6.104  0.2078  0.4916 -0.8742
 6053SOL    HW129621   2.365   2.550   6.017  0.7862  2.8915 -1.7790
 6053SOL    HW229622   2.384   2.675   6.091 -0.6775  0.8859 -0.6159
 6054SOL     OW29623   1.397   4.155  12.675  0.5173 -0.1318  0.2067
 6054SOL    HW129624   1.378   4.211  12.600 -0.5182  0.3777  0.8518
 6054SOL    HW229625   1.491   4.150  12.658  0.3091  1.2368 -1.3129
 6055SOL     OW29626   4.652   4.303   3.845  0.4012 -0.4131 -0.0332
 6055SOL    HW129627   0.022   4.314   3.881  1.3736 -0.9297 -2.2957
 6055SOL    HW229628   4.677   4.253   3.767  2.2405  0.5243 -0.0321
 6056SOL     OW29629   0.540   3.967   1.479  0.0110 -0.1265  0.2209
 6056SOL    HW129630   0.502   3.941   1.395 -0.1786  0.6953  0.0453
 6056SOL    HW229631   0.635   3.963   1.465 -0.3701  1.3883 -2.8432
 6057SOL     OW29632   3.188   3.718   7.333 -0.3165 -0.0162  0.2898
 6057SOL    HW129633   3.103   3.687   7.366  0.3570 -0.7034  1.3672
 6057SOL    HW229634   3.251   3.724   7.405  1.5564  1.7600 -1.4950
 6058SOL     OW29635   2.999   1.834   7.277 -0.2659 -0.0061  0.3143
 6058SOL    HW129636   3.036   1.910   7.232  0.5921 -1.0718 -0.8100
 6058SOL    HW229637   2.906   1.856   7.274  0.3689  2.9013  2.7145
 6059SOL     OW29638   3.234   2.740   7.960 -0.5806 -0.3867  0.1092
 6059SOL    HW129639   3.272   2.826   7.941  1.7716 -1.3051  0.5929
 6059SOL    HW229640   3.315   2.689   7.967  0.7181  1.3318 -2.3950
 6060SOL     OW29641   3.531   0.395   8.969  0.2979  0.7968  0.1630
 6060SOL    HW129642   3.488   0.353   9.043  0.6458 -1.8879 -1.1771
 6060SOL    HW229643   3.594   0.451   9.015  0.7329 -1.2755  2.1127
 6061SOL     OW29644   2.916   1.167   4.775  0.3048  0.3015  0.0002
 6061SOL    HW129645   2.988   1.202   4.722  0.9610 -1.4597 -0.2790
 6061SOL    HW229646   2.963   1.136   4.852  0.2317  0.7787  0.2346
 6062SOL     OW29647   1.133   3.684  16.737 -0.0099  0.2760  0.8632
 6062SOL    HW129648   1.100   3.749  16.800  0.2659  1.2722 -0.0174
 6062SOL    HW229649   1.062   3.686  16.673  2.4270 -1.7705 -1.8738
 6063SOL     OW29650   3.823   3.179   4.348 -0.5742 -0.3785 -0.2898
 6063SOL    HW129651   3.917   3.162   4.349 -0.2530  1.3992 -0.2996
 6063SOL    HW229652   3.801   3.158   4.257 -0.9481 -0.6362 -0.1392
 6064SOL     OW29653   1.467   0.181   7.765 -0.3590 -0.3683 -0.7747
 6064SOL    HW129654   1.468   0.109   7.703 -1.2050 -2.0068  1.1165
 6064SOL    HW229655   1.406   0.239   7.720 -0.6659  1.1414  1.5284
 6065SOL     OW29656   2.805   0.354   0.861 -0.0296 -0.2211 -0.1167
 6065SOL    HW129657   2.795   0.266   0.897 -0.6903 -0.7051 -1.5085
 6065SOL    HW229658   2.896   0.375   0.881 -0.0829 -0.3880  0.3035
 6066SOL     OW29659   2.346   3.376   8.534 -0.4991  0.4153  0.2186
 6066SOL    HW129660   2.258   3.394   8.501  0.2342 -0.2764 -2.0564
 6066SOL    HW229661   2.341   3.409   8.624  0.2960  2.7774 -0.6114
 6067SOL     OW29662   4.405   0.505   8.112  0.5136  0.0052  0.0196
 6067SOL    HW129663   4.445   0.565   8.175  0.8568 -0.4980  0.2791
 6067SOL    HW229664   4.446   0.420   8.127  2.9915  1.4818  1.6363
 6068SOL     OW29665   1.938   2.216   7.032 -0.0843 -0.0837 -0.6503
 6068SOL    HW129666   1.919   2.122   7.025 -0.4429 -0.0170 -0.5970
 6068SOL    HW229667   1.901   2.237   6.947 -0.9297  1.2852  0.0516
 6069SOL     OW29668   3.340   3.695  17.032 -0.9251 -0.2274 -0.3168
 6069SOL    HW129669   3.416   3.669  17.084 -1.5334 -0.2836  0.5462
 6069SOL    HW229670   3.349   3.656  16.946  2.2443  2.3138 -1.1542
 6070SOL     OW29671   0.331   2.540   8.031  0.0257 -0.3813 -0.0544
 6070SOL    HW129672   0.421   2.510   8.044  0.0624 -0.7246 -1.0336
 6070SOL    HW229673   0.322   2.527   7.936  0.3776 -1.3603  0.0389
 6071SOL     OW29674   4.512   2.792   7.216 -0.0222 -0.0903 -0.2102
 6071SOL    HW129675   4.431   2.751   7.188 -0.3117  0.4426 -0.1482
 6071SOL    HW229676   4.481   2.879   7.193  1.3892  0.9967  1.9783
 6072SOL     OW29677   3.584   0.729   6.365  0.2755 -0.0763  0.8234
 6072SOL    HW129678   3.668   0.767   6.391  0.0993  1.4276 -0.8021
 6072SOL    HW229679   3.534   0.749   6.444 -2.4141  0.3550 -0.9474
 6073SOL     OW29680   1.461   2.491  10.847  0.1474  0.1477  0.0433
 6073SOL    HW129681   1.390   2.536  10.895 -0.6993 -0.6668 -0.4440
 6073SOL    HW229682   1.416   2.418  10.806 -2.6686  2.2590 -0.6558
 6074SOL     OW29683   3.859   3.738   3.563  0.3939 -0.1212 -0.1045
 6074SOL    HW129684   3.856   3.819   3.512 -1.2037 -0.6450 -0.8467
 6074SOL    HW229685   3.862   3.669   3.497 -0.3146  0.2949 -0.5771
 6075SOL     OW29686   4.362   3.209   5.165 -0.7393  0.3444 -0.3642
 6075SOL    HW129687   4.292   3.146   5.149 -0.0318 -0.2991 -0.9303
 6075SOL    HW229688   4.395   3.165   5.244  0.8769  2.5017  0.1498
 6076SOL     OW29689   0.044   1.868   8.100  0.2094 -0.5960 -0.2223
 6076SOL    HW129690   0.124   1.833   8.060  1.8583  1.5396  1.2220
 6076SOL    HW229691   4.702   1.839   8.031 -0.5876 -1.1688  0.7072
 6077SOL     OW29692   0.056   3.271  16.563 -0.7045 -0.7633  0.2505
 6077SOL    HW129693   0.121   3.236  16.624  0.4131 -0.9923 -1.0943
 6077SOL    HW229694   0.065   3.208  16.492  0.7616 -1.0368  0.6857
 6078SOL     OW29695   0.417   1.502   0.839 -0.7008 -0.6124 -0.7764
 6078SOL    HW129696   0.431   1.492   0.933  0.9315 -0.4133 -0.9868
 6078SOL    HW229697   0.463   1.427   0.800 -0.1875 -0.6881 -0.0205
 6079SOL     OW29698   0.179   2.868  10.410  0.1222  0.2719  0.1397
 6079SOL    HW129699   0.243   2.927  10.450 -1.0412  2.2343 -0.9264
 6079SOL    HW229700   0.126   2.838  10.485 -1.4768 -0.1022 -1.1554
 6080SOL     OW29701   4.301   3.099   7.164  0.1560  0.1566  0.3160
 6080SOL    HW129702   4.245   3.177   7.164 -1.7609 -1.2483  0.0010
 6080SOL    HW229703   4.341   3.114   7.250  0.7533 -0.7799  0.1972
 6081SOL     OW29704   2.872   1.655   9.446 -0.3499 -0.2677  0.9002
 6081SOL    HW129705   2.816   1.613   9.382 -0.9071  0.9196  0.5980
 6081SOL    HW229706   2.947   1.597   9.456 -0.3248 -0.8286 -2.6687
 6082SOL     OW29707   2.098   0.075   1.774 -0.0239  0.3505 -0.0171
 6082SOL    HW129708   2.053   0.120   1.702  1.3643  0.6169 -0.7242
 6082SOL    HW229709   2.135   0.152   1.817  1.5391 -1.6016  2.1164
 6083SOL     OW29710   3.537   4.181  15.034  0.7150 -0.3622  0.3695
 6083SOL    HW129711   3.501   4.095  15.055  1.4615 -0.4277  1.3974
 6083SOL    HW229712   3.628   4.166  15.008  1.5918  3.5787  1.2195
 6084SOL     OW29713   4.585   3.162   0.271 -0.2165 -0.9061 -0.4829
 6084SOL    HW129714   4.592   3.256   0.291  0.1438 -1.0245 -0.0500
 6084SOL    HW229715   4.637   3.154   0.191  0.4696  3.9204 -0.5482
 6085SOL     OW29716   0.243   1.264   2.875 -0.0742 -0.6673 -0.4020
 6085SOL    HW129717   0.259   1.169   2.874 -0.9288 -0.7721 -4.9963
 6085SOL    HW229718   0.314   1.293   2.818 -0.6625  0.7885 -0.3870
 6086SOL     OW29719   3.151   2.117   4.740  0.3533  0.1897  0.3679
 6086SOL    HW129720   3.153   2.027   4.773 -0.3244 -0.3633 -1.1005
 6086SOL    HW229721   3.117   2.104   4.651  0.6173 -0.9392  0.4317
 6087SOL     OW29722   1.737   0.900  14.431 -0.0538 -0.0626  0.3737
 6087SOL    HW129723   1.663   0.909  14.370  0.9478  0.0280 -0.8241
 6087SOL    HW229724   1.746   0.987  14.470  0.6593  1.2781 -2.7504
 6088SOL     OW29725   2.767   4.296   7.953  0.7788  0.9451  0.2689
 6088SOL    HW129726   2.853   4.276   7.916  1.1242  1.6183  0.7014
 6088SOL    HW229727   2.763   4.392   7.954  2.1904  0.9593  2.5128
 6089SOL     OW29728   2.633   3.196   8.663 -0.0231  0.2916  0.0078
 6089SOL    HW129729   2.645   3.190   8.568  2.2030 -1.7817  0.4196
 6089SOL    HW229730   2.633   3.291   8.675  0.4081  0.3258 -0.2796
 6090SOL     OW29731   2.993   3.274   4.295  0.2848 -0.2884 -0.4156
 6090SOL    HW129732   3.003   3.272   4.390 -3.0611 -0.0133 -0.0556
 6090SOL    HW229733   2.952   3.192   4.269 -0.0025  0.1446 -1.3422
 6091SOL     OW29734   0.522   2.705   6.615  0.5666 -0.2762  0.3309
 6091SOL    HW129735   0.433   2.719   6.647  1.6508  3.3365  1.7529
 6091SOL    HW229736   0.510   2.711   6.520  0.3942 -0.3402  0.3484
 6092SOL     OW29737   2.905   1.953  16.346 -0.4565 -0.6954  0.5654
 6092SOL    HW129738   2.946   2.015  16.287  0.3341 -2.7620 -1.0373
 6092SOL    HW229739   2.838   1.916  16.288  1.5132 -1.8433 -0.9403
 6093SOL     OW29740   4.292   4.340  11.286 -0.0423  0.2536 -0.1070
 6093SOL    HW129741   4.316   4.383  11.368  0.6395 -2.7903  1.3045
 6093SOL    HW229742   4.197   4.334  11.286  0.0115 -0.5697  0.4876
 6094SOL     OW29743   4.473   1.297   4.067  0.6064 -0.6253 -0.1165
 6094SOL    HW129744   4.544   1.282   4.129  2.1137 -0.0968 -1.7239
 6094SOL    HW229745   4.509   1.359   4.003 -1.0481  0.0632 -0.3753
 6095SOL     OW29746   3.501   0.035  13.491 -0.5342 -0.3509 -0.0838
 6095SOL    HW129747   3.586   0.074  13.471 -1.8125  1.5499 -1.7361
 6095SOL    HW229748   3.517   4.705  13.572 -0.5578  2.2683  1.4727
 6096SOL     OW29749   0.210   1.804   0.049 -0.0975 -0.5177  0.0627
 6096SOL    HW129750   0.172   1.880   0.005 -0.0847 -0.7064 -0.2750
 6096SOL    HW229751   0.166   1.816   0.133 -2.5073  1.9314 -1.5489
 6097SOL     OW29752   0.950   1.162  10.409 -0.2347  0.4295 -0.4217
 6097SOL    HW129753   0.966   1.126  10.322 -0.5209 -1.1568  0.1787
 6097SOL    HW229754   0.913   1.089  10.460  1.6899  0.4455  1.0198
 6098SOL     OW29755   1.495   3.385   1.418 -0.2465 -0.6769 -0.2301
 6098SOL    HW129756   1.517   3.361   1.328 -2.1461  2.0587 -1.4125
 6098SOL    HW229757   1.583   3.379   1.454 -0.6763 -0.5512  0.8417
 6099SOL     OW29758   1.747   4.284   7.040  0.4564  0.3554 -0.1387
 6099SOL    HW129759   1.740   4.360   6.983  0.1438 -0.2865 -0.9447
 6099SOL    HW229760   1.684   4.313   7.106  0.7823 -0.9779  0.7655
 6100SOL     OW29761   2.447   3.781  15.966  0.7406  0.1135 -0.1047
 6100SOL    HW129762   2.446   3.836  16.045  5.1807 -1.4787  1.0262
 6100SOL    HW229763   2.537   3.761  15.942  2.2584  0.6630  4.9637
 6101SOL     OW29764   1.635   2.739   3.952 -0.8708 -0.0281  0.4082
 6101SOL    HW129765   1.566   2.805   3.943 -0.2722 -0.0251 -3.9953
 6101SOL    HW229766   1.627   2.704   4.041 -2.5152 -1.3449 -0.2568
 6102SOL     OW29767   1.710   2.497   5.724  0.0835 -0.3219 -0.1170
 6102SOL    HW129768   1.789   2.444   5.720  2.2314  2.6928  2.5896
 6102SOL    HW229769   1.749   2.583   5.739 -0.2056 -0.5217  1.7786
 6103SOL     OW29770   0.938   0.996   3.193 -0.1115 -0.3406 -0.0773
 6103SOL    HW129771   0.933   0.986   3.288 -1.5253  0.6105 -0.0453
 6103SOL    HW229772   0.844   0.993   3.172 -0.3576 -3.7529  1.4978
 6104SOL     OW29773   3.971   3.757  12.168 -0.2432  0.2205  0.4015
 6104SOL    HW129774   3.984   3.851  12.166  0.2531  0.1685  1.2061
 6104SOL    HW229775   3.898   3.745  12.106  1.6615 -0.6048 -1.6870
 6105SOL     OW29776   4.144   3.873  16.938  0.1319  0.9106  0.0247
 6105SOL    HW129777   4.235   3.895  16.918  0.0762  2.2435  1.2469
 6105SOL    HW229778   4.119   3.817  16.864 -0.1800  0.3759  0.5351
 6106SOL     OW29779   4.671   1.198   2.055 -0.9129 -0.2787  0.0461
 6106SOL    HW129780   4.604   1.136   2.027 -0.8298 -0.6852  0.7380
 6106SOL    HW229781   0.035   1.150   2.042 -1.4377 -1.2411  0.2511
 6107SOL     OW29782   0.800   2.837   6.106 -0.1547  0.1732 -0.2933
 6107SOL    HW129783   0.728   2.890   6.071  0.0311  1.4714  1.3367
 6107SOL    HW229784   0.802   2.761   6.048 -1.8205 -0.7811  0.8954
 6108SOL     OW29785   3.287   4.352   7.843  0.7551 -0.1975  0.3915
 6108SOL    HW129786   3.370   4.318   7.812 -0.2922 -1.1196 -1.3979
 6108SOL    HW229787   3.303   4.394   7.927  3.2061  0.6443 -0.5168
 6109SOL     OW29788   0.207   1.581   6.635 -0.1822 -0.0410 -0.1739
 6109SOL    HW129789   0.287   1.595   6.685 -0.6525  0.6534  0.4018
 6109SOL    HW229790   0.197   1.486   6.629 -1.2716  0.1122 -0.7348
 6110SOL     OW29791   2.997   1.545   2.186  0.0713 -0.9437  0.0744
 6110SOL    HW129792   3.024   1.455   2.207 -0.7041 -0.3087  3.6653
 6110SOL    HW229793   3.076   1.582   2.147  0.4124 -2.1376 -0.3851
 6111SOL     OW29794   4.241   1.979   5.927  0.6369 -0.2571  0.0536
 6111SOL    HW129795   4.206   1.891   5.934  1.7183 -0.8477 -1.9572
 6111SOL    HW229796   4.212   2.013   6.011  1.7126  1.9248 -0.4538
 6112SOL     OW29797   4.081   3.109  17.574  0.5355  0.6418 -0.6927
 6112SOL    HW129798   4.008   3.074  17.524 -0.2098  0.2136  0.6934
 6112SOL    HW229799   4.157   3.077  17.525  0.6969 -1.7788  1.1253
 6113SOL     OW29800   4.585   3.680   2.052 -0.2513  0.1192 -0.3393
 6113SOL    HW129801   4.595   3.597   2.005 -0.7421 -0.8585  1.2939
 6113SOL    HW229802   4.579   3.653   2.144 -0.4763 -0.5240 -0.5429
 6114SOL     OW29803   4.106   1.699   6.958 -0.1292  0.1793 -0.8347
 6114SOL    HW129804   4.140   1.656   6.880  0.0810 -1.1754  0.0046
 6114SOL    HW229805   4.108   1.625   7.018  0.1558  1.1628  0.3705
 6115SOL     OW29806   1.883   2.971   5.739  0.9211 -0.1174  0.6206
 6115SOL    HW129807   1.901   3.054   5.783 -0.2135 -0.0578  0.9785
 6115SOL    HW229808   1.960   2.970   5.683  0.7878 -0.6257  0.4466
 6116SOL     OW29809   0.109   3.629   4.759  0.1314 -0.0163 -0.2710
 6116SOL    HW129810   0.112   3.614   4.854 -0.0184 -0.9997 -0.4144
 6116SOL    HW229811   0.104   3.724   4.755  1.1810 -0.0928 -3.0954
 6117SOL     OW29812   0.714   0.596   6.094 -0.1514 -0.1781 -0.4083
 6117SOL    HW129813   0.766   0.544   6.156  0.7792  1.2135 -0.0108
 6117SOL    HW229814   0.780   0.594   6.024  0.4493  2.0135  0.1107
 6118SOL     OW29815   3.453   3.878   6.930 -0.2641  0.1632  0.7061
 6118SOL    HW129816   3.491   3.794   6.955  1.3252  0.5439 -0.4292
 6118SOL    HW229817   3.366   3.868   6.970 -0.3828  0.0341  0.4135
 6119SOL     OW29818   4.678   1.029   2.813 -0.0595  0.2732  0.6265
 6119SOL    HW129819   4.717   0.951   2.773 -1.0606  0.4559 -0.6859
 6119SOL    HW229820   4.630   1.071   2.743 -0.8256  0.8862  1.5210
 6120SOL     OW29821   1.026   2.590   1.326  0.1383 -0.2984 -0.0756
 6120SOL    HW129822   1.020   2.679   1.362 -0.3684 -0.0769 -0.7138
 6120SOL    HW229823   1.116   2.572   1.300 -0.3133 -0.4571 -1.5184
 6121SOL     OW29824   0.122   2.580   2.354  0.1097  0.0911  0.0099
 6121SOL    HW129825   0.111   2.569   2.448 -1.0625  2.9754  0.2218
 6121SOL    HW229826   0.037   2.570   2.312 -0.1764 -1.8238  1.0776
 6122SOL     OW29827   4.369   1.662  11.067 -0.0783 -0.3569  0.0031
 6122SOL    HW129828   4.300   1.621  11.013  2.7830 -4.0125 -0.8561
 6122SOL    HW229829   4.429   1.588  11.076 -0.6116 -0.8429 -0.4010
 6123SOL     OW29830   3.792   1.276  15.895 -0.2692  0.2664  0.4852
 6123SOL    HW129831   3.873   1.285  15.845 -0.8635  2.7481  0.0024
 6123SOL    HW229832   3.807   1.189  15.934 -1.9979  0.2796  1.1748
 6124SOL     OW29833   4.412   3.172   6.735 -0.3413  0.6146  0.5401
 6124SOL    HW129834   4.436   3.229   6.662 -0.1860  0.9994  0.8924
 6124SOL    HW229835   4.497   3.133   6.754 -0.2218 -0.5828 -2.5071
 6125SOL     OW29836   1.525   4.514   8.449  0.5820 -0.2640  0.0093
 6125SOL    HW129837   1.451   4.535   8.505  0.9818  1.2912 -0.0562
 6125SOL    HW229838   1.481   4.448   8.395  0.2806 -0.2465  0.2375
 6126SOL     OW29839   3.545   4.688   5.897  0.5343  0.5616  0.1080
 6126SOL    HW129840   3.609   0.005   5.959  0.9213  1.1106 -0.6029
 6126SOL    HW229841   3.594   4.610   5.871 -2.3639 -1.1451 -0.2363
 6127SOL     OW29842   1.484   2.693   8.763 -0.0033  0.1069  0.2982
 6127SOL    HW129843   1.577   2.672   8.776  0.2023  2.7446  3.2249
 6127SOL    HW229844   1.503   2.785   8.747  0.2157  0.2614  1.4865
 6128SOL     OW29845   2.297   4.657   2.370 -0.7736 -0.0151  0.6109
 6128SOL    HW129846   2.370   4.621   2.421 -0.4024  0.0190  0.0995
 6128SOL    HW229847   2.317   4.637   2.279 -1.6059  1.4133  0.1308
 6129SOL     OW29848   2.127   3.551   3.939  0.2602 -0.3914 -0.0475
 6129SOL    HW129849   2.035   3.527   3.923  0.0717  1.1677 -1.3482
 6129SOL    HW229850   2.153   3.541   3.847  0.6853  1.8529 -0.1688
 6130SOL     OW29851   4.207   0.056   7.940 -0.4062  0.2559  0.0641
 6130SOL    HW129852   4.231   0.072   8.031  0.7334  1.1553 -0.3883
 6130SOL    HW229853   4.125   0.105   7.935 -1.8732 -2.2365 -0.2862
 6131SOL     OW29854   2.447   1.424   5.236  0.2714 -0.6770 -0.5500
 6131SOL    HW129855   2.525   1.479   5.248  0.9900 -2.4618  3.0481
 6131SOL    HW229856   2.419   1.434   5.145 -1.0001  1.8863  0.1027
 6132SOL     OW29857   0.353   1.893   1.862 -0.1776 -0.4430  0.3273
 6132SOL    HW129858   0.291   1.966   1.863  0.0017 -0.2902  0.2910
 6132SOL    HW229859   0.307   1.828   1.916 -2.5293  1.3985  0.5460
 6133SOL     OW29860   1.923   2.887   1.553 -0.4261  0.3559  0.1236
 6133SOL    HW129861   1.855   2.824   1.575 -0.2720 -0.1180 -0.7461
 6133SOL    HW229862   1.877   2.956   1.504 -0.1633 -0.7429 -1.6691
 6134SOL     OW29863   2.680   2.324  13.130 -0.1854 -0.5565 -0.0376
 6134SOL    HW129864   2.604   2.333  13.074 -0.9655 -0.1106  1.0881
 6134SOL    HW229865   2.675   2.229  13.141  2.2338 -0.5369  1.4066
 6135SOL     OW29866   3.575   2.443  13.378  0.1292  0.0327 -0.1180
 6135SOL    HW129867   3.521   2.376  13.335 -2.4262  1.6180  0.6211
 6135SOL    HW229868   3.504   2.508  13.382 -1.3238 -1.5946  0.4188
 6136SOL     OW29869   2.224   4.632  11.240 -0.7332 -0.2733 -0.1346
 6136SOL    HW129870   2.194   4.617  11.150 -0.3900 -0.1953 -0.2650
 6136SOL    HW229871   2.227   4.542  11.270  3.3792 -0.5674 -1.3441
 6137SOL     OW29872   1.818   1.045   4.081 -0.3203  0.7501  0.0215
 6137SOL    HW129873   1.758   1.072   4.011 -0.5247  1.0138  0.2997
 6137SOL    HW229874   1.898   1.081   4.043 -0.1289 -1.3467 -1.6023
 6138SOL     OW29875   3.405   3.027   7.702 -0.0676  0.0555  0.2036
 6138SOL    HW129876   3.362   2.954   7.658 -0.5078  0.6808 -0.4013
 6138SOL    HW229877   3.448   3.072   7.629 -1.5410  2.7479  0.9993
 6139SOL     OW29878   0.764   1.624  14.482 -0.1355 -0.2625 -0.5520
 6139SOL    HW129879   0.823   1.699  14.492  0.4045 -0.5839 -1.4142
 6139SOL    HW229880   0.826   1.557  14.510 -1.3843 -1.9564 -1.8749
 6140SOL     OW29881   4.365   3.642   8.990  0.0456  0.3654 -0.1955
 6140SOL    HW129882   4.419   3.592   9.052  0.2826  1.0798  0.1717
 6140SOL    HW229883   4.367   3.728   9.032  0.9052  0.8765 -1.3068
 6141SOL     OW29884   3.820   2.986   9.521  0.9935  0.2560  0.1624
 6141SOL    HW129885   3.807   3.034   9.602 -2.2035  1.9759 -1.3649
 6141SOL    HW229886   3.733   3.010   9.487  0.7412 -0.2204  0.4798
 6142SOL     OW29887   3.803   3.048   3.431 -0.4321 -0.4106  0.4699
 6142SOL    HW129888   3.731   3.101   3.397 -1.1519 -1.6697  0.0553
 6142SOL    HW229889   3.751   2.968   3.440  1.4204 -1.5726  0.8515
 6143SOL     OW29890   2.218   3.344   2.125  0.0059  0.7489  0.2129
 6143SOL    HW129891   2.263   3.411   2.074  0.0058  1.5495  1.2528
 6143SOL    HW229892   2.236   3.277   2.059 -0.0458  2.2962 -1.3382
 6144SOL     OW29893   3.744   2.222   7.188  0.1006 -0.0709 -0.5018
 6144SOL    HW129894   3.808   2.289   7.165 -0.5054  1.1307  1.3568
 6144SOL    HW229895   3.667   2.265   7.149 -0.9518 -0.7650  0.7943
 6145SOL     OW29896   1.366   4.673  11.394 -0.3752  0.7777  0.1624
 6145SOL    HW129897   1.294   4.649  11.454 -0.0204 -1.1825 -0.2088
 6145SOL    HW229898   1.438   4.615  11.416  0.1014  0.6298 -1.8405
 6146SOL     OW29899   1.120   1.411   2.235 -0.3357  0.5670  0.4613
 6146SOL    HW129900   1.093   1.321   2.217  1.0695  0.2115  0.1228
 6146SOL    HW229901   1.039   1.445   2.272  0.7872  1.7520  1.7913
 6147SOL     OW29902   2.931   2.381  11.565 -1.1452 -0.8053  0.4724
 6147SOL    HW129903   2.889   2.385  11.479 -0.2609  2.3118  0.1756
 6147SOL    HW229904   2.935   2.475  11.585 -2.5592 -0.3037 -1.5701
 6148SOL     OW29905   1.022   3.864   9.726 -0.0041 -0.5184 -0.1217
 6148SOL    HW129906   1.098   3.911   9.760 -0.7857  0.1990  0.6408
 6148SOL    HW229907   0.953   3.928   9.744 -1.1913 -1.1245 -2.4919
 6149SOL     OW29908   0.451   0.275   5.017  0.0290  0.1144  0.4174
 6149SOL    HW129909   0.543   0.297   5.005 -0.1672  0.4143 -0.4801
 6149SOL    HW229910   0.417   0.254   4.930  0.4809 -1.9667  0.7321
 6150SOL     OW29911   4.049   3.970   0.893 -0.4462  1.0713 -0.0478
 6150SOL    HW129912   4.007   3.905   0.836 -0.8559  1.3868 -0.1003
 6150SOL    HW229913   3.977   4.015   0.936 -1.8214 -1.9602  0.8454
 6151SOL     OW29914   1.011   4.091   0.161  0.0070 -0.0937  0.2166
 6151SOL    HW129915   0.976   4.016   0.208 -0.8253  0.2886  0.2089
 6151SOL    HW229916   0.924   4.119   0.132 -0.6447 -0.0445  2.2217
 6152SOL     OW29917   2.252   2.706   6.885 -0.2701  0.3149 -0.4024
 6152SOL    HW129918   2.286   2.785   6.928 -1.0210  0.8855 -0.8454
 6152SOL    HW229919   2.289   2.635   6.938 -1.6245  0.5778  0.9128
 6153SOL     OW29920   0.634   4.568   9.866 -0.9356 -0.1432 -0.9005
 6153SOL    HW129921   0.544   4.538   9.882 -0.7968 -0.7811 -1.3413
 6153SOL    HW229922   0.644   4.548   9.773 -0.1518  0.3605 -0.9226
 6154SOL     OW29923   2.821   3.819   5.997  0.0666  0.1122  0.0149
 6154SOL    HW129924   2.758   3.824   6.069 -0.8378 -0.6012 -0.7407
 6154SOL    HW229925   2.770   3.810   5.917  3.6682 -0.1208 -2.2552
 6155SOL     OW29926   4.656   4.358  11.370 -0.0708 -0.0265  0.5570
 6155SOL    HW129927   4.711   4.401  11.304  1.3056 -0.6270  1.3357
 6155SOL    HW229928   0.003   4.306  11.416  0.4589 -1.2902 -1.5925
 6156SOL     OW29929   1.267   1.290  15.974 -0.3968  0.0453  0.1954
 6156SOL    HW129930   1.263   1.272  15.880  1.2348 -0.7423  0.2868
 6156SOL    HW229931   1.228   1.209  16.008 -1.9301  1.1934  1.1839
 6157SOL     OW29932   0.874   0.021  14.379  0.2122  0.1084  0.0542
 6157SOL    HW129933   0.939   4.668  14.379  0.9595  0.7674  1.7109
 6157SOL    HW229934   0.845   0.012  14.289  1.0398 -1.3956 -0.0732
 6158SOL     OW29935   0.665   4.476  14.220 -0.0975 -0.2016  0.3117
 6158SOL    HW129936   0.584   4.437  14.252 -1.4951  2.9291  0.5961
 6158SOL    HW229937   0.640   4.502  14.131 -2.3863  1.4588  1.4243
 6159SOL     OW29938   2.273   3.217   3.127  0.6096  0.0145  0.3123
 6159SOL    HW129939   2.339   3.213   3.197 -0.6054  0.6996  1.4844
 6159SOL    HW229940   2.193   3.220   3.179  2.9978 -0.7409  4.0763
 6160SOL     OW29941   1.151   0.654   3.863  0.0649  0.6681  0.0338
 6160SOL    HW129942   1.207   0.612   3.928  1.8409 -3.0773 -3.9106
 6160SOL    HW229943   1.155   0.745   3.891 -0.5405 -0.2635  3.0970
 6161SOL     OW29944   2.423   4.029  15.170 -0.4259  0.4380  0.0746
 6161SOL    HW129945   2.329   4.029  15.153 -0.6733  0.9455  1.4450
 6161SOL    HW229946   2.440   3.940  15.200  1.1131  0.7179  0.0252
 6162SOL     OW29947   3.323   2.032   7.401  0.6847  0.5296  0.3660
 6162SOL    HW129948   3.418   2.028   7.408  0.9779  0.2743 -3.6783
 6162SOL    HW229949   3.304   1.961   7.462 -2.2113  0.7958 -0.1864
 6163SOL     OW29950   2.641   2.353   5.771  0.1512  0.1841  0.7645
 6163SOL    HW129951   2.643   2.394   5.685  0.4247  0.4355  0.8906
 6163SOL    HW229952   2.618   2.265   5.742 -0.6585  1.1082 -1.3492
 6164SOL     OW29953   1.543   2.883   0.335 -0.3143 -0.0509 -0.4212
 6164SOL    HW129954   1.590   2.944   0.277  0.4077  0.6668  0.9238
 6164SOL    HW229955   1.455   2.884   0.299 -0.0200 -0.7206 -1.1667
 6165SOL     OW29956   1.617   4.230  11.303  0.2634  0.6268 -0.6649
 6165SOL    HW129957   1.609   4.203  11.394 -0.1831 -2.6778 -1.6859
 6165SOL    HW229958   1.596   4.153  11.251  0.1890  1.6669 -2.1880
 6166SOL     OW29959   1.277   2.775   7.191 -0.1255 -0.5099 -0.1041
 6166SOL    HW129960   1.309   2.685   7.194 -0.4317 -0.6896 -2.0203
 6166SOL    HW229961   1.289   2.804   7.281 -0.3914 -2.1945  0.4796
 6167SOL     OW29962   0.615   1.701   5.650 -0.0938  0.6437 -0.3662
 6167SOL    HW129963   0.647   1.788   5.676 -2.4224  1.2437  0.5482
 6167SOL    HW229964   0.655   1.634   5.705 -2.1296  0.2789  0.6784
 6168SOL     OW29965   1.946   0.353   9.313 -0.1733  0.6454  0.5029
 6168SOL    HW129966   2.018   0.312   9.266 -1.5108  1.5757 -2.3512
 6168SOL    HW229967   1.983   0.441   9.324  0.2080  0.6024 -0.4418
 6169SOL     OW29968   3.670   1.192   4.154 -0.4653  0.2911 -0.8320
 6169SOL    HW129969   3.672   1.100   4.183 -3.8596  0.4885 -0.0552
 6169SOL    HW229970   3.754   1.225   4.186 -0.1502 -2.7627  1.5533
 6170SOL     OW29971   0.354   2.449   4.617  0.3609 -0.2624 -0.0893
 6170SOL    HW129972   0.363   2.499   4.536 -0.4508 -1.7634 -1.0988
 6170SOL    HW229973   0.311   2.368   4.588  0.1410  0.8242 -2.7753
 6171SOL     OW29974   4.452   4.433   1.486 -0.1819  0.2724 -0.1778
 6171SOL    HW129975   4.451   4.463   1.394  0.4885 -0.1949 -0.3332
 6171SOL    HW229976   4.394   4.357   1.482 -0.2146  0.3368 -1.0616
 6172SOL     OW29977   3.581   3.157   3.275 -0.1212 -0.6482  0.5386
 6172SOL    HW129978   3.502   3.153   3.329  0.0956 -0.2896  0.8811
 6172SOL    HW229979   3.564   3.242   3.233 -2.7260 -0.2254  2.4170
 6173SOL     OW29980   1.403   1.792  11.058  0.1047 -0.3967 -0.5160
 6173SOL    HW129981   1.433   1.866  11.005  0.7569 -1.0827 -1.1203
 6173SOL    HW229982   1.393   1.832  11.144  1.0795 -2.2402  0.4409
 6174SOL     OW29983   4.334   3.195  15.894 -0.3203 -0.5525  0.0227
 6174SOL    HW129984   4.371   3.282  15.880 -2.3335  0.6832  2.3820
 6174SOL    HW229985   4.409   3.142  15.866  1.3367  1.3190  0.8928
 6175SOL     OW29986   1.378   3.548   7.017  0.6172  0.0052  0.1216
 6175SOL    HW129987   1.309   3.579   6.957  1.8746  1.1486 -0.7282
 6175SOL    HW229988   1.395   3.623   7.073 -0.4150 -1.1900  2.0257
 6176SOL     OW29989   0.916   1.056  15.658 -0.3821 -0.0309 -0.3139
 6176SOL    HW129990   0.922   1.139  15.705 -1.2950 -0.0672 -0.1359
 6176SOL    HW229991   0.939   0.991  15.724  1.8297 -1.5011 -2.5205
 6177SOL     OW29992   0.657   0.614   7.627 -0.1897 -0.4055 -0.1967
 6177SOL    HW129993   0.644   0.669   7.550  0.5628 -1.1299 -0.8534
 6177SOL    HW229994   0.741   0.572   7.605 -0.3522  0.3490 -2.2838
 6178SOL     OW29995   0.105   1.738   1.953  0.5817 -0.3289 -0.4265
 6178SOL    HW129996   0.024   1.764   1.908  0.7542  0.4067 -0.3119
 6178SOL    HW229997   0.074   1.656   1.993  0.6390 -1.6204 -3.0054
 6179SOL     OW29998   1.389   3.271   8.593  0.1483 -0.3098 -0.3207
 6179SOL    HW129999   1.397   3.216   8.671  1.0634  2.6598  1.7136
 6179SOL    HW230000   1.484   3.272   8.578  0.0881 -1.2815 -0.7895
 6180SOL     OW30001   3.320   1.122   6.514 -0.0896 -0.6264 -0.4408
 6180SOL    HW130002   3.395   1.086   6.560 -0.5308 -2.8510 -1.4907
 6180SOL    HW230003   3.279   1.156   6.594 -1.9024 -0.2478 -1.5141
 6181SOL     OW30004   4.258   3.817  17.270  0.0393  0.2426  0.4982
 6181SOL    HW130005   4.327   3.752  17.259 -0.4151  0.5117 -3.7705
 6181SOL    HW230006   4.242   3.850  17.182  2.1168  0.7435  0.3074
 6182SOL     OW30007   1.800   0.434   4.209 -0.2794  0.3876  0.2240
 6182SOL    HW130008   1.837   0.515   4.243  1.9972 -0.8077  0.6008
 6182SOL    HW230009   1.859   0.363   4.234  0.9187  1.3791  0.1928
 6183SOL     OW30010   3.974   2.869  16.963 -0.1957  0.2027  0.2400
 6183SOL    HW130011   3.970   2.843  17.055 -4.1161 -1.1306 -0.3204
 6183SOL    HW230012   4.054   2.824  16.934 -0.6059 -0.3100 -0.0845
 6184SOL     OW30013   2.944   4.299   7.499  0.5189 -0.1157 -0.4008
 6184SOL    HW130014   2.928   4.386   7.534 -0.1679  0.3173 -1.7947
 6184SOL    HW230015   3.032   4.283   7.534  0.0439  0.1200  0.8961
 6185SOL     OW30016   1.376   3.773   5.318 -0.9712  0.2380 -0.1788
 6185SOL    HW130017   1.345   3.730   5.398  0.8358 -0.2936  0.2385
 6185SOL    HW230018   1.412   3.697   5.271 -1.3507  0.6008 -1.0553
 6186SOL     OW30019   0.023   1.336   3.898 -0.0980  0.0156  0.1718
 6186SOL    HW130020   4.668   1.394   3.877 -0.5914  0.3126  2.7818
 6186SOL    HW230021   0.095   1.383   3.856  0.9430 -0.1347  1.7925
 6187SOL     OW30022   3.692   1.518   7.333 -0.2661  0.7625 -0.4448
 6187SOL    HW130023   3.719   1.521   7.424 -0.9431  0.1650 -0.2272
 6187SOL    HW230024   3.651   1.432   7.327 -0.3055  0.6918  1.0002
 6188SOL     OW30025   3.194   0.132  11.468  0.6059  0.0081 -0.2753
 6188SOL    HW130026   3.168   0.045  11.437  1.6027  0.0082 -1.1089
 6188SOL    HW230027   3.224   0.168  11.385 -1.5536  2.0116 -0.1963
 6189SOL     OW30028   4.624   0.315   2.829 -0.1957  0.2169 -0.1699
 6189SOL    HW130029   4.607   0.221   2.840 -1.4701  0.2233 -2.0696
 6189SOL    HW230030   4.660   0.339   2.915  2.2123  0.6969 -1.3078
 6190SOL     OW30031   4.296   0.622   5.188  0.5281 -0.3841  0.2258
 6190SOL    HW130032   4.241   0.699   5.202 -0.2189 -1.0534  1.0148
 6190SOL    HW230033   4.384   0.657   5.200  0.4117 -0.1606  0.4386
 6191SOL     OW30034   4.463   2.730  10.976 -0.0430 -0.5254 -0.0143
 6191SOL    HW130035   4.437   2.638  10.974 -0.0603 -0.4914 -1.4647
 6191SOL    HW230036   4.555   2.718  10.997  0.8191  2.7337 -1.9147
 6192SOL     OW30037   0.425   0.860   9.214  0.4556 -0.8392  0.0149
 6192SOL    HW130038   0.362   0.926   9.244  0.2697 -0.8874 -0.2703
 6192SOL    HW230039   0.458   0.827   9.297  0.8709  0.8664  0.5248
 6193SOL     OW30040   1.439   3.071  15.168  0.0080  0.8536  0.0049
 6193SOL    HW130041   1.474   3.099  15.083 -2.2027  2.0260 -0.5208
 6193SOL    HW230042   1.495   3.118  15.230 -0.1044 -0.0617  0.8036
 6194SOL     OW30043   1.163   3.176   6.108  0.1055 -0.3953 -0.4531
 6194SOL    HW130044   1.110   3.107   6.068 -0.1878 -0.1003 -0.5701
 6194SOL    HW230045   1.201   3.228   6.037  1.2630  0.3378  0.7046
 6195SOL     OW30046   1.223   0.750   6.446 -0.4475  0.1865  0.9210
 6195SOL    HW130047   1.216   0.752   6.541 -0.6734 -1.3600  0.9344
 6195SOL    HW230048   1.303   0.802   6.436 -0.7205  0.5561  0.6773
 6196SOL     OW30049   2.190   3.019   1.168 -0.0830 -0.0602  0.4475
 6196SOL    HW130050   2.219   3.104   1.136 -0.4613 -1.4053 -3.4338
 6196SOL    HW230051   2.163   3.036   1.259  3.2425 -1.1008  1.6208
 6197SOL     OW30052   0.365   1.084  13.330 -0.2200 -0.4051  0.0698
 6197SOL    HW130053   0.339   1.176  13.318 -0.6772 -0.4473  0.7711
 6197SOL    HW230054   0.387   1.058  13.241 -1.3950  0.4681 -0.4766
 6198SOL     OW30055   2.497   0.593   1.382  0.5624 -0.3923  0.7832
 6198SOL    HW130056   2.471   0.571   1.471 -2.1572 -0.4186 -0.0185
 6198SOL    HW230057   2.588   0.571   1.399  0.4505 -0.6560  1.0431
 6199SOL     OW30058   3.562   1.795   5.514  0.3187  0.4143 -0.5916
 6199SOL    HW130059   3.548   1.804   5.608  0.5192 -0.1896 -0.5064
 6199SOL    HW230060   3.642   1.848   5.518  0.3542  0.2848  0.2821
 6200SOL     OW30061   3.894   1.046  12.670  0.0113 -0.1421 -0.2855
 6200SOL    HW130062   3.951   1.035  12.747 -1.0808  0.3054  0.5890
 6200SOL    HW230063   3.819   0.993  12.697  0.4079 -0.0738  0.9719
 6201SOL     OW30064   2.972   3.529  14.794  0.4764  0.8832 -0.3756
 6201SOL    HW130065   2.899   3.482  14.754  0.9219 -0.3658  0.2787
 6201SOL    HW230066   2.922   3.578  14.858 -0.2352  0.7952 -0.8700
 6202SOL     OW30067   3.567   0.900  15.622  0.6490 -0.1671 -0.3850
 6202SOL    HW130068   3.473   0.889  15.613  0.3517  1.2489  0.8692
 6202SOL    HW230069   3.585   0.848  15.700  0.2385  0.4809  0.1501
 6203SOL     OW30070   4.036   4.451   1.505  0.7591 -1.1173 -0.8292
 6203SOL    HW130071   3.968   4.514   1.528  0.5140 -0.9676 -1.9946
 6203SOL    HW230072   4.086   4.512   1.452 -1.0486 -1.1973 -2.5974
 6204SOL     OW30073   1.166   2.496   5.140 -0.1301 -0.1073  0.4264
 6204SOL    HW130074   1.079   2.455   5.137 -0.2978  0.1315  1.7878
 6204SOL    HW230075   1.142   2.586   5.162  2.6335  0.0551  2.8237
 6205SOL     OW30076   1.238   0.971   3.921 -0.2812  0.3687 -0.5198
 6205SOL    HW130077   1.256   1.055   3.963  1.7579  0.7120 -2.0667
 6205SOL    HW230078   1.323   0.929   3.932  0.5185  2.7126  2.0181
 6206SOL     OW30079   4.415   0.557   0.600 -0.1010 -0.1544 -0.0009
 6206SOL    HW130080   4.384   0.601   0.679 -1.3433 -0.0885 -0.5190
 6206SOL    HW230081   4.459   0.625   0.550  0.0868  0.2211  0.6809
 6207SOL     OW30082   3.128   0.498   2.725 -0.2449 -0.5061  0.6546
 6207SOL    HW130083   3.176   0.415   2.722  0.2998 -0.2845  3.6726
 6207SOL    HW230084   3.093   0.494   2.636  0.0985 -2.6563  0.6131
 6208SOL     OW30085   0.594   1.916  10.747 -0.4064 -0.4003  0.2195
 6208SOL    HW130086   0.635   1.977  10.685  1.8670 -3.0052 -0.8654
 6208SOL    HW230087   0.660   1.871  10.800  1.5923  0.1731 -1.7662
 6209SOL     OW30088   2.224   4.145   5.615  0.1846 -0.2016  0.1035
 6209SOL    HW130089   2.175   4.126   5.535 -0.6612 -0.5312  0.7014
 6209SOL    HW230090   2.312   4.132   5.579  0.0620  1.3115 -0.7490
 6210SOL     OW30091   3.434   3.972  16.787  0.2678 -0.2433  0.3872
 6210SOL    HW130092   3.484   4.050  16.764  0.2909 -0.3691  0.0132
 6210SOL    HW230093   3.476   3.939  16.866 -1.5529 -1.7337  0.7509
 6211SOL     OW30094   0.625   2.571   7.494 -0.1240 -0.5699  0.0934
 6211SOL    HW130095   0.593   2.548   7.407 -1.9390 -0.3368  0.7012
 6211SOL    HW230096   0.663   2.484   7.508 -0.3256 -0.4556  1.4033
 6212SOL     OW30097   0.690   0.848   7.795 -0.1011  0.1599  0.1799
 6212SOL    HW130098   0.650   0.776   7.745 -1.0465 -0.7153  2.1828
 6212SOL    HW230099   0.613   0.905   7.805 -0.2476 -0.0554  0.2948
 6213SOL     OW30100   3.745   0.807   9.113  0.1805  0.4433  0.0668
 6213SOL    HW130101   3.671   0.850   9.070  0.0546  1.7915  1.6692
 6213SOL    HW230102   3.731   0.835   9.203 -1.2464  1.4143 -0.4589
 6214SOL     OW30103   2.859   0.528   4.139 -0.0158  0.1928 -0.3157
 6214SOL    HW130104   2.770   0.540   4.175 -0.7730 -3.1299 -1.0516
 6214SOL    HW230105   2.871   0.602   4.080 -1.0501 -0.4301 -1.3055
 6215SOL     OW30106   3.908   2.443   4.409 -0.7616  0.0898  0.2916
 6215SOL    HW130107   3.850   2.492   4.350  1.6720  1.0074 -1.3516
 6215SOL    HW230108   3.972   2.400   4.352 -0.4331 -0.3402  0.9989
 6216SOL     OW30109   1.011   2.072   5.486  0.1423  0.1062 -0.0421
 6216SOL    HW130110   1.070   2.111   5.422 -0.5041 -0.1972 -0.8256
 6216SOL    HW230111   1.064   2.014   5.541 -0.9665 -1.6860 -0.8591
 6217SOL     OW30112   3.995   0.227   5.856  0.3106 -0.3620 -0.0852
 6217SOL    HW130113   3.961   0.315   5.841  0.0156 -0.5703 -0.6611
 6217SOL    HW230114   4.049   0.209   5.778 -0.8191  2.1914 -1.4447
 6218SOL     OW30115   1.788   4.036   3.292 -0.1108  0.4827  0.3650
 6218SOL    HW130116   1.763   3.990   3.212 -0.9697  0.5190  0.6103
 6218SOL    HW230117   1.798   4.123   3.254  0.3836  0.4022  0.3155
 6219SOL     OW30118   4.603   3.802   0.142 -0.1550  0.2104 -0.1666
 6219SOL    HW130119   4.557   3.727   0.180 -1.5246  1.5264  0.7820
 6219SOL    HW230120   4.656   3.828   0.218 -1.6909  0.4247  0.8307
 6220SOL     OW30121   3.424   0.333   9.226 -0.1276 -0.0466 -0.1612
 6220SOL    HW130122   3.423   0.416   9.274  0.6871 -0.1546  0.0416
 6220SOL    HW230123   3.385   0.276   9.292 -0.1438  0.3632  0.1816
 6221SOL     OW30124   1.288   0.450   5.186  0.4901  0.4911  0.3447
 6221SOL    HW130125   1.208   0.398   5.191  0.3890  0.8982  3.1998
 6221SOL    HW230126   1.278   0.513   5.258 -1.1298  1.5600 -0.8078
 6222SOL     OW30127   4.020   1.103   6.265  0.0939 -0.1610  0.2961
 6222SOL    HW130128   3.956   1.049   6.219 -1.5080  1.4307  0.6754
 6222SOL    HW230129   4.051   1.039   6.330  1.0024  1.2298  1.2536
 6223SOL     OW30130   3.063   0.023   3.833  0.6148 -0.2665 -0.1207
 6223SOL    HW130131   3.084   4.660   3.788  2.1425 -0.4754  0.9808
 6223SOL    HW230132   2.968   0.030   3.822  0.5687 -1.6857 -0.5445
 6224SOL     OW30133   0.070   1.596  14.921  0.5588 -0.3070  0.0953
 6224SOL    HW130134   0.021   1.548  14.854  1.8951 -0.4895 -0.7475
 6224SOL    HW230135   0.019   1.567  14.997 -2.9154 -0.4011 -2.3163
 6225SOL     OW30136   3.186   3.350   9.359 -0.8201 -0.1791 -0.0903
 6225SOL    HW130137   3.165   3.417   9.294 -3.7111 -0.1360  0.9236
 6225SOL    HW230138   3.276   3.378   9.380 -1.1997  2.1750 -1.5517
 6226SOL     OW30139   3.272   3.081  15.270 -0.1714 -0.1578 -0.0108
 6226SOL    HW130140   3.336   3.104  15.338 -1.7892 -1.3234  1.9306
 6226SOL    HW230141   3.294   2.990  15.251 -1.6905 -0.9876  2.0716
 6227SOL     OW30142   2.613   4.388   5.779  0.6354 -0.2394  0.0152
 6227SOL    HW130143   2.706   4.402   5.761  0.1871  0.4394 -1.7696
 6227SOL    HW230144   2.617   4.295   5.802  1.4393  0.3628  2.2558
 6228SOL     OW30145   1.130   1.396   6.587 -0.1650  0.2242 -0.2928
 6228SOL    HW130146   1.193   1.465   6.571 -2.5913  2.8033  1.3521
 6228SOL    HW230147   1.108   1.406   6.680  1.4238  0.5924  0.0357
 6229SOL     OW30148   1.506   3.429   1.798 -0.6609 -0.3611  0.2496
 6229SOL    HW130149   1.595   3.396   1.784 -0.6969 -0.4831  0.3060
 6229SOL    HW230150   1.506   3.452   1.891 -1.3653 -1.6756  0.5842
 6230SOL     OW30151   2.301   1.322   6.393 -0.2651  0.4390 -0.5263
 6230SOL    HW130152   2.257   1.250   6.347  1.2437 -0.2722 -0.8437
 6230SOL    HW230153   2.389   1.297   6.365  0.0712  0.4353  0.5405
 6231SOL     OW30154   4.579   1.090  14.578 -0.5329  0.4708 -0.4597
 6231SOL    HW130155   4.542   1.003  14.562 -1.1285  0.6852 -0.2503
 6231SOL    HW230156   4.670   1.060  14.580 -1.5577 -2.4233  2.1180
 6232SOL     OW30157   2.211   2.380   4.996 -0.2443  0.0167 -0.1866
 6232SOL    HW130158   2.237   2.385   4.904  0.7530 -1.1930  0.0320
 6232SOL    HW230159   2.117   2.393   4.982 -0.4774 -0.6527  0.7859
 6233SOL     OW30160   4.005   0.378   7.782 -0.3464 -0.0811 -0.5505
 6233SOL    HW130161   3.952   0.321   7.837 -2.0929  0.7936 -1.3442
 6233SOL    HW230162   4.091   0.374   7.825 -0.4059 -0.1678 -0.4390
 6234SOL     OW30163   2.157   4.347  13.512 -0.1600  0.5356 -0.0118
 6234SOL    HW130164   2.117   4.273  13.465 -2.1838  0.9794  1.0099
 6234SOL    HW230165   2.212   4.386  13.444  0.0887  0.5909  0.2226
 6235SOL     OW30166   3.083   2.465  13.292 -0.2604  0.3089 -0.3482
 6235SOL    HW130167   3.029   2.388  13.307 -0.1040  0.3097  0.2236
 6235SOL    HW230168   3.024   2.525  13.338 -1.1616  0.0781 -1.2003
 6236SOL     OW30169   1.176   4.353   1.401 -0.1953 -0.5748  0.2627
 6236SOL    HW130170   1.124   4.296   1.458 -2.3114  1.7938  0.7032
 6236SOL    HW230171   1.183   4.295   1.326  1.6150  2.2134 -1.7326
 6237SOL     OW30172   4.331   0.656   8.757 -0.2153 -0.5232 -0.0479
 6237SOL    HW130173   4.257   0.713   8.773  0.9339  1.5170 -2.0299
 6237SOL    HW230174   4.369   0.662   8.845 -1.8273 -0.4508  0.6373
 6238SOL     OW30175   3.937   1.193   9.525 -0.2619  0.0242  0.3685
 6238SOL    HW130176   3.868   1.172   9.463  2.7317 -2.1024 -2.2307
 6238SOL    HW230177   3.899   1.236   9.602  0.3042 -0.4585  0.9298
 6239SOL     OW30178   3.041   3.854   5.037 -0.4197  0.0320  0.1794
 6239SOL    HW130179   2.948   3.847   5.058 -0.1440  1.7704  1.9361
 6239SOL    HW230180   3.080   3.880   5.120 -0.4698  1.6923 -0.3100
 6240SOL     OW30181   0.534   4.003   7.887  0.0690  0.5265 -0.1563
 6240SOL    HW130182   0.470   4.072   7.906  1.1630  1.0008  1.7606
 6240SOL    HW230183   0.504   3.939   7.952 -3.6292  0.8691 -1.4915
 6241SOL     OW30184   3.647   2.163   3.693 -0.6944 -0.2476  0.6117
 6241SOL    HW130185   3.632   2.078   3.652 -1.3923  0.5602 -0.8085
 6241SOL    HW230186   3.695   2.126   3.767  0.0673  1.7074  1.0886
 6242SOL     OW30187   3.059   4.242   5.314 -0.5182  0.1443 -0.2958
 6242SOL    HW130188   3.038   4.149   5.319 -1.9560  0.4889  0.0685
 6242SOL    HW230189   3.067   4.244   5.410  0.4121  4.1562 -0.4428
 6243SOL     OW30190   2.066   0.392   7.239 -0.0496 -0.0004  0.5584
 6243SOL    HW130191   2.126   0.429   7.175 -0.0614  0.2152  0.6744
 6243SOL    HW230192   2.007   0.346   7.179  0.4668  4.2982 -3.2180
 6244SOL     OW30193   4.024   2.885   6.096 -0.4497  0.2942  0.1227
 6244SOL    HW130194   4.000   2.793   6.107  1.2225 -0.5378 -3.0093
 6244SOL    HW230195   3.988   2.904   6.009  0.2132  0.8006 -0.0476
 6245SOL     OW30196   3.375   3.600   1.119  0.1307 -0.0954 -0.6251
 6245SOL    HW130197   3.307   3.543   1.155  0.3491  0.3173  0.4386
 6245SOL    HW230198   3.323   3.680   1.116  2.0707  1.2180  0.7843
 6246SOL     OW30199   4.353   1.067  11.462  0.2821  0.4584  0.3947
 6246SOL    HW130200   4.329   1.142  11.517 -1.7501  0.2940 -0.2756
 6246SOL    HW230201   4.411   1.017  11.520  0.2013  2.1254  1.9100
 6247SOL     OW30202   0.164   3.490  14.475 -0.1918  0.0109 -0.5183
 6247SOL    HW130203   0.106   3.419  14.448  0.7363 -1.2317  0.7943
 6247SOL    HW230204   0.097   3.556  14.496 -0.8213 -1.2981  1.5477
 6248SOL     OW30205   0.273   2.619  16.018 -0.2417 -0.0597  0.0196
 6248SOL    HW130206   0.330   2.693  16.041 -1.4335  0.8928 -0.0528
 6248SOL    HW230207   0.330   2.553  16.058  1.8695  1.6450 -0.1784
 6249SOL     OW30208   2.567   4.424   5.466 -0.4347 -0.0970  0.7654
 6249SOL    HW130209   2.646   4.374   5.444  0.8980  2.7034 -0.8512
 6249SOL    HW230210   2.608   4.491   5.521  1.1728  0.0225 -0.5620
 6250SOL     OW30211   4.697   1.310   4.711  0.2857 -0.3970 -0.2262
 6250SOL    HW130212   4.676   1.399   4.738 -0.6334 -1.0442  1.1908
 6250SOL    HW230213   0.062   1.319   4.665  0.6350  0.6416  0.6314
 6251SOL     OW30214   1.055   0.290   2.443 -0.3560  1.2181  0.0822
 6251SOL    HW130215   1.108   0.306   2.521  0.6066  1.0816 -0.5488
 6251SOL    HW230216   1.106   0.346   2.384  0.0471  0.4817 -0.2650
 6252SOL     OW30217   3.207   0.921  10.582  0.0143 -0.5061 -0.1088
 6252SOL    HW130218   3.244   1.009  10.586 -3.1077  0.8935 -2.4857
 6252SOL    HW230219   3.264   0.888  10.513  0.6586 -1.0863  0.6930
 6253SOL     OW30220   3.029   2.070   9.010  0.6461 -0.2230  0.4051
 6253SOL    HW130221   3.069   2.040   9.091 -0.3622 -1.1604  0.5506
 6253SOL    HW230222   3.091   2.028   8.949 -0.1926 -0.8099 -0.0513
 6254SOL     OW30223   3.865   3.802   0.495 -0.1817 -0.4974 -0.0965
 6254SOL    HW130224   3.827   3.753   0.568  3.1002 -2.1188  0.4718
 6254SOL    HW230225   3.929   3.855   0.543 -1.6458  1.2802 -0.1161
 6255SOL     OW30226   1.484   2.031  10.916  0.0544 -0.6044 -0.1294
 6255SOL    HW130227   1.556   2.000  10.861 -0.1017 -0.8332 -0.2078
 6255SOL    HW230228   1.511   2.122  10.928 -0.5966 -0.4244  0.0025
 6256SOL     OW30229   2.122   4.597   7.044 -0.0545 -0.1442  0.0988
 6256SOL    HW130230   2.212   4.617   7.069 -0.2234 -2.4733  2.6705
 6256SOL    HW230231   2.097   4.515   7.087 -2.0587  1.1703  1.4678
 6257SOL     OW30232   0.311   4.551  13.804  0.1035  0.0797  0.1444
 6257SOL    HW130233   0.368   4.626  13.786  0.6234 -0.0044  1.3877
 6257SOL    HW230234   0.233   4.570  13.752 -1.3122 -3.0375  1.1414
 6258SOL     OW30235   0.787   3.086  17.527  0.5403 -1.0118 -0.2237
 6258SOL    HW130236   0.836   3.107  17.606 -1.5648 -0.6824  0.9954
 6258SOL    HW230237   0.697   3.098  17.560  0.9165  0.0996  0.4128
 6259SOL     OW30238   2.165   4.713   8.675  0.2187 -0.0677 -0.1986
 6259SOL    HW130239   2.079   0.004   8.634  0.5408 -1.8238 -1.2935
 6259SOL    HW230240   2.222   0.003   8.598  1.1642 -1.1019  0.3928
 6260SOL     OW30241   0.363   1.915   6.190 -0.4999  0.1918 -0.1546
 6260SOL    HW130242   0.426   1.969   6.236  0.1965 -1.4032  0.7537
 6260SOL    HW230243   0.331   1.857   6.259  0.3159  0.7373  0.6778
 6261SOL     OW30244   0.640   3.178   3.721  0.9298 -0.0160 -0.7567
 6261SOL    HW130245   0.582   3.252   3.704  0.3772  0.2817  2.4295
 6261SOL    HW230246   0.594   3.123   3.657 -0.1517 -0.4997  0.4384
 6262SOL     OW30247   0.317   2.201   4.499  0.4666 -0.6832 -0.0070
 6262SOL    HW130248   0.307   2.185   4.405  1.1818 -2.1445  0.1665
 6262SOL    HW230249   0.258   2.138   4.541 -0.8202 -0.6746 -1.8126
 6263SOL     OW30250   2.430   3.332   5.586 -0.3549 -0.3999 -0.2132
 6263SOL    HW130251   2.482   3.408   5.611 -2.0759  0.2232  1.5309
 6263SOL    HW230252   2.343   3.346   5.625 -0.7635  2.3229 -2.1087
 6264SOL     OW30253   1.204   2.375   8.637 -0.0055 -0.6624 -0.1341
 6264SOL    HW130254   1.151   2.452   8.658 -1.0673 -1.8746  1.6676
 6264SOL    HW230255   1.264   2.424   8.581  0.0225 -0.4196  0.1089
 6265SOL     OW30256   2.820   0.581   8.030  0.2753 -0.1529  0.0563
 6265SOL    HW130257   2.755   0.650   8.043  2.5279  1.5508  2.1390
 6265SOL    HW230258   2.763   0.508   8.007 -2.0441  1.9063 -0.6876
 6266SOL     OW30259   0.850   2.823   5.426 -0.1986  0.0100  0.7011
 6266SOL    HW130260   0.807   2.738   5.425 -2.2067  1.0121  1.5037
 6266SOL    HW230261   0.783   2.891   5.413  0.3928  0.3541 -0.5791
 6267SOL     OW30262   1.956   1.268   8.661 -0.1047  0.1043 -0.2595
 6267SOL    HW130263   2.013   1.192   8.648 -0.9126 -0.5832  0.2383
 6267SOL    HW230264   2.010   1.323   8.718 -1.9965  1.0013  0.6580
 6268SOL     OW30265   3.661   3.835   0.302 -0.5128  0.1254  0.5114
 6268SOL    HW130266   3.634   3.747   0.330 -0.6412 -0.5226 -1.6099
 6268SOL    HW230267   3.731   3.844   0.366 -0.2490 -1.5988  0.4847
 6269SOL     OW30268   1.704   2.425   4.170  0.4933  0.0210  0.4774
 6269SOL    HW130269   1.755   2.503   4.190  1.8553 -0.6635 -0.3091
 6269SOL    HW230270   1.755   2.363   4.223 -0.1288 -0.8171  0.1099
 6270SOL     OW30271   3.035   2.044   3.663  0.3130  0.1729 -0.3815
 6270SOL    HW130272   3.011   2.014   3.750  0.4614 -0.6646 -0.6250
 6270SOL    HW230273   3.131   2.045   3.671  0.4047 -0.0146 -1.4253
 6271SOL     OW30274   1.142   3.697   6.936 -0.2589  0.2174 -0.0247
 6271SOL    HW130275   1.115   3.759   6.868 -1.4201  1.4380  1.5442
 6271SOL    HW230276   1.137   3.744   7.019 -1.4395 -1.6083  0.9224
 6272SOL     OW30277   0.343   3.122   6.117  0.2175 -0.1675  0.1039
 6272SOL    HW130278   0.355   3.216   6.130  1.5566 -0.5346  1.5798
 6272SOL    HW230279   0.265   3.124   6.063  1.8974  0.3572 -2.3082
 6273SOL     OW30280   3.403   0.279   2.430 -1.0160  0.1732 -0.8027
 6273SOL    HW130281   3.316   0.292   2.393 -1.3872  0.3322  0.1224
 6273SOL    HW230282   3.460   0.337   2.380  0.2600  0.0719  0.5386
 6274SOL     OW30283   3.763   2.048  14.985 -0.2749 -0.3555 -0.3239
 6274SOL    HW130284   3.698   2.089  15.042  0.0148 -0.8595  0.3618
 6274SOL    HW230285   3.704   1.998  14.929 -2.4215  1.4057  0.3677
 6275SOL     OW30286   4.061   2.296   3.725  0.1165 -0.2212 -0.5404
 6275SOL    HW130287   4.004   2.238   3.674  0.9248 -1.6517  0.2045
 6275SOL    HW230288   4.140   2.247   3.745  0.0635  0.2656  0.8488
 6276SOL     OW30289   0.475   3.288  13.542  0.0669 -0.0124  0.1676
 6276SOL    HW130290   0.434   3.235  13.474  0.9430  1.5144 -1.5837
 6276SOL    HW230291   0.400   3.312  13.596  0.9449  1.1567  0.8697
 6277SOL     OW30292   3.359   4.471   8.597  0.1449  0.1817  0.0325
 6277SOL    HW130293   3.287   4.534   8.604 -0.5125 -0.6932  1.2158
 6277SOL    HW230294   3.433   4.528   8.617  0.1669  0.5716 -1.1457
 6278SOL     OW30295   0.395   1.033   5.346 -0.1425 -0.3490 -0.4979
 6278SOL    HW130296   0.331   1.085   5.394  1.9525  1.4137  0.4099
 6278SOL    HW230297   0.355   1.009   5.262 -0.0664 -1.4494 -0.2233
 6279SOL     OW30298   1.282   3.947  17.202  0.4301  0.8559  0.5644
 6279SOL    HW130299   1.197   3.988  17.217  0.2766  0.2864  1.2865
 6279SOL    HW230300   1.341   3.985  17.267  1.1936 -2.0310  1.5841
 6280SOL     OW30301   1.709   1.348   7.047 -0.2560 -0.3290  0.0626
 6280SOL    HW130302   1.778   1.305   6.997  2.0613  1.5324  1.7092
 6280SOL    HW230303   1.707   1.297   7.128  0.4158 -1.3137 -0.5449
 6281SOL     OW30304   4.029   1.888  14.206  0.2492  0.0059  0.6884
 6281SOL    HW130305   4.082   1.923  14.134 -0.8197 -1.3954 -0.7941
 6281SOL    HW230306   4.098   1.851  14.261  2.3196 -0.8825 -2.5204
 6282SOL     OW30307   3.486   2.332  13.024  0.1284  0.0508 -0.0037
 6282SOL    HW130308   3.457   2.261  13.082  1.3323  1.2634  2.0973
 6282SOL    HW230309   3.457   2.409  13.072  0.9198  0.7717 -0.6860
 6283SOL     OW30310   2.700   1.391   2.383 -0.3299 -0.1383 -0.7492
 6283SOL    HW130311   2.641   1.329   2.339 -2.1565  1.0229  0.0540
 6283SOL    HW230312   2.780   1.358   2.342  1.2481  0.9971  1.4071
 6284SOL     OW30313   0.071   1.355   8.251 -0.4129  0.5355 -0.1875
 6284SOL    HW130314   0.005   1.351   8.321  0.8966 -5.3254  0.7530
 6284SOL    HW230315   0.155   1.350   8.296  0.3150 -1.7987 -1.8200
 6285SOL     OW30316   1.102   1.683   2.772  0.8473 -0.2731  0.1712
 6285SOL    HW130317   1.012   1.708   2.794  0.3869  0.8874 -3.1555
 6285SOL    HW230318   1.076   1.618   2.707 -1.6402  0.2529  0.6308
 6286SOL     OW30319   3.824   2.887   2.861 -0.4989 -0.0024 -0.0714
 6286SOL    HW130320   3.805   2.802   2.902  0.7468  0.3361  1.2221
 6286SOL    HW230321   3.820   2.952   2.931 -1.0259 -0.0203 -0.0861
 6287SOL     OW30322   0.453   3.934   6.540  0.2199  0.0718  0.2382
 6287SOL    HW130323   0.519   4.001   6.559  0.1426 -0.1918  1.4036
 6287SOL    HW230324   0.462   3.865   6.606 -0.2622 -0.8428 -0.6479
 6288SOL     OW30325   0.489   0.270   8.531  0.3914  0.0162  0.5276
 6288SOL    HW130326   0.439   0.328   8.473  3.1216  0.9137 -0.9393
 6288SOL    HW230327   0.477   0.318   8.614 -0.3622  2.9769 -1.2764
 6289SOL     OW30328   0.296   4.705  12.018  0.4238 -0.1499  0.1465
 6289SOL    HW130329   0.355   0.041  12.071 -0.0433  0.7321 -0.2422
 6289SOL    HW230330   0.354   4.684  11.945  1.2946 -0.9099  1.0482
 6290SOL     OW30331   4.457   3.127   1.768  0.4056  0.1846 -0.4036
 6290SOL    HW130332   4.530   3.073   1.738 -0.3479 -0.5535 -0.9372
 6290SOL    HW230333   4.499   3.203   1.808 -0.9001  0.1346  1.0278
 6291SOL     OW30334   1.179   3.077   7.545  0.1027  0.0104  0.4505
 6291SOL    HW130335   1.273   3.095   7.547  0.2779 -1.2718  3.7311
 6291SOL    HW230336   1.153   3.161   7.584 -2.0935  0.4439 -1.9081
 6292SOL     OW30337   2.700   1.568   5.240 -0.4367 -0.4426 -0.5632
 6292SOL    HW130338   2.707   1.544   5.332  1.4704  1.3256 -0.2500
 6292SOL    HW230339   2.754   1.503   5.195 -0.0416  0.1292 -0.9182
 6293SOL     OW30340   4.461   3.122   7.397  0.4023  0.4267 -0.3192
 6293SOL    HW130341   4.529   3.189   7.388  0.5337  0.1192 -1.6830
 6293SOL    HW230342   4.511   3.045   7.422 -1.6477 -0.7028  0.3100
 6294SOL     OW30343   0.237   0.010   4.022  0.1270  0.4034  0.1880
 6294SOL    HW130344   0.162   4.693   3.975  1.0840  0.3993 -1.3533
 6294SOL    HW230345   0.251   4.655   4.083 -2.9830  0.8782  1.4317
 6295SOL     OW30346   3.798   1.889   9.719  0.2295  0.2213  0.4318
 6295SOL    HW130347   3.786   1.813   9.777  0.7312 -1.0966 -1.1826
 6295SOL    HW230348   3.769   1.952   9.785 -1.4128 -0.8845  0.7791
 6296SOL     OW30349   4.058   1.139   4.099 -0.3867 -0.2714 -0.2369
 6296SOL    HW130350   4.109   1.095   4.167  0.8414 -2.0187 -2.3236
 6296SOL    HW230351   4.040   1.224   4.139  1.3699 -0.7429  1.5180
 6297SOL     OW30352   1.014   2.370   2.803 -0.5744  0.3245 -0.5294
 6297SOL    HW130353   1.089   2.336   2.850 -0.0460  1.3897 -0.6120
 6297SOL    HW230354   0.966   2.400   2.880 -0.4313 -2.2614  0.5553
 6298SOL     OW30355   2.365   1.675   0.690  0.3569  0.3787 -0.1054
 6298SOL    HW130356   2.273   1.679   0.713  0.1555 -2.7580 -0.3469
 6298SOL    HW230357   2.403   1.655   0.776 -0.2371 -1.3435 -0.2604
 6299SOL     OW30358   1.423   2.471   2.186  0.5491 -0.0206  0.1288
 6299SOL    HW130359   1.425   2.383   2.149  0.1212  0.6243 -1.4214
 6299SOL    HW230360   1.430   2.532   2.112 -0.3357 -1.0127 -0.7568
 6300SOL     OW30361   1.825   4.472   2.173 -0.2105  0.0425  0.3874
 6300SOL    HW130362   1.876   4.500   2.096  2.3292  0.5458  2.2591
 6300SOL    HW230363   1.879   4.514   2.239 -0.9673 -3.2859  3.1216
 6301SOL     OW30364   1.444   2.025   7.469  0.5143  0.4887 -0.1496
 6301SOL    HW130365   1.373   1.976   7.427  0.8631 -1.2463  1.2769
 6301SOL    HW230366   1.446   2.107   7.419  1.0224  0.8801  0.5120
 6302SOL     OW30367   4.000   0.994   1.394  0.4122  0.2547 -0.0922
 6302SOL    HW130368   3.952   0.950   1.464  3.6407 -1.6345  0.9581
 6302SOL    HW230369   4.052   0.920   1.362 -0.8837  0.0269 -1.6347
 6303SOL     OW30370   4.666   2.896   4.477  0.4789 -1.0478 -0.4071
 6303SOL    HW130371   4.576   2.922   4.460 -0.0681 -1.3572  2.0547
 6303SOL    HW230372   4.677   2.930   4.566  0.4449 -2.5851  0.1965
 6304SOL     OW30373   2.468   3.748   1.995  0.3031 -0.0798  0.5489
 6304SOL    HW130374   2.391   3.798   2.024  0.1967 -1.0200  1.8999
 6304SOL    HW230375   2.521   3.730   2.073  0.3389  2.3554  1.0974
 6305SOL     OW30376   3.251   2.734   8.506 -0.2751 -0.0519  0.3205
 6305SOL    HW130377   3.297   2.816   8.491 -0.1517  0.3837  3.0378
 6305SOL    HW230378   3.172   2.753   8.456 -0.0406 -4.9188 -1.9231
 6306SOL     OW30379   2.395   1.303  16.251 -0.3428  0.0559  0.0024
 6306SOL    HW130380   2.411   1.386  16.296 -0.1401 -0.2034  0.4071
 6306SOL    HW230381   2.370   1.243  16.321 -0.6291 -0.4374 -0.5234
 6307SOL     OW30382   0.763   3.252   9.715 -0.4107  0.1328  0.0718
 6307SOL    HW130383   0.828   3.228   9.780  1.7666  0.2879 -2.0241
 6307SOL    HW230384   0.831   3.272   9.649 -0.4283 -2.6303 -0.7630
 6308SOL     OW30385   3.100   1.740   3.660 -0.0640  0.9340  0.1043
 6308SOL    HW130386   3.166   1.674   3.682 -0.0536  0.7206 -0.5863
 6308SOL    HW230387   3.150   1.817   3.688 -0.3597  0.2761  2.4943
 6309SOL     OW30388   0.857   1.305  13.405 -0.4030  0.5032  0.3214
 6309SOL    HW130389   0.846   1.225  13.353  0.2457  0.1099  0.7889
 6309SOL    HW230390   0.825   1.368  13.341  0.7547  2.2179  1.4186
 6310SOL     OW30391   1.130   1.005  13.777  0.4682 -0.2557 -0.3015
 6310SOL    HW130392   1.146   1.019  13.683  0.1547 -3.3174 -0.8250
 6310SOL    HW230393   1.134   1.092  13.815  1.1957 -0.4249  0.0165
 6311SOL     OW30394   2.427   1.827   6.215  0.4998 -0.0615  0.0328
 6311SOL    HW130395   2.411   1.814   6.121 -1.2933 -0.2506  0.3520
 6311SOL    HW230396   2.443   1.738   6.247 -1.5059 -1.4227 -2.7140
 6312SOL     OW30397   0.112   2.882  10.683 -0.6200 -0.0142 -0.0255
 6312SOL    HW130398   0.046   2.816  10.707 -0.6314 -0.3039 -0.8415
 6312SOL    HW230399   0.146   2.911  10.767 -0.8470  0.8808 -0.2401
 6313SOL     OW30400   4.625   1.249  15.500  0.3925  0.1858 -0.3592
 6313SOL    HW130401   4.560   1.309  15.537  0.9795  0.5414  0.1076
 6313SOL    HW230402   4.598   1.242  15.409 -0.8403 -1.8307  0.1663
 6314SOL     OW30403   3.325   0.303  14.684  0.5427  0.1438  0.4465
 6314SOL    HW130404   3.303   0.367  14.615 -2.3716  1.4180  2.5690
 6314SOL    HW230405   3.312   0.222  14.635  0.3754  0.9335 -0.8174
 6315SOL     OW30406   1.430   2.533  16.341 -0.2655  0.3882  0.1519
 6315SOL    HW130407   1.487   2.599  16.380 -0.6607 -1.5188  3.9041
 6315SOL    HW230408   1.445   2.563  16.251 -0.0668 -0.3586 -0.0642
 6316SOL     OW30409   0.383   2.908   6.302  0.4116  0.7192  0.5960
 6316SOL    HW130410   0.477   2.902   6.321  0.5555  1.0525 -0.0107
 6316SOL    HW230411   0.385   2.976   6.235  1.3231  0.1481  0.0465
 6317SOL     OW30412   4.345   3.646   6.974 -0.5428 -0.3882  0.7323
 6317SOL    HW130413   4.398   3.639   7.053  1.4593  0.2785 -0.5533
 6317SOL    HW230414   4.358   3.555   6.946 -1.4290  0.4877 -2.5632
 6318SOL     OW30415   4.373   3.656   6.534 -0.1079  0.3784 -0.1623
 6318SOL    HW130416   4.417   3.717   6.593 -0.7072  2.2451 -1.6299
 6318SOL    HW230417   4.291   3.702   6.517 -1.0224 -1.3897 -0.5454
 6319SOL     OW30418   1.122   4.482   6.645 -0.3489  0.4874  0.5323
 6319SOL    HW130419   1.088   4.405   6.691  0.3971  0.1857  0.5811
 6319SOL    HW230420   1.153   4.534   6.719  0.7668 -0.2525  0.5897
 6320SOL     OW30421   1.765   3.499   6.960  0.2091 -0.6456 -0.1052
 6320SOL    HW130422   1.767   3.476   6.867  1.0658  1.5349 -0.6243
 6320SOL    HW230423   1.741   3.591   6.951 -2.3325 -1.4446 -1.5858
 6321SOL     OW30424   0.590   4.245  14.870 -0.0416 -0.1496  0.2377
 6321SOL    HW130425   0.591   4.340  14.881 -2.0111 -0.1401  0.3195
 6321SOL    HW230426   0.631   4.227  14.785 -2.3729  0.5781 -1.0184
 6322SOL     OW30427   2.060   4.541   6.770 -0.4946 -0.2311 -0.1161
 6322SOL    HW130428   1.970   4.569   6.786 -0.4054 -0.1140  0.1792
 6322SOL    HW230429   2.100   4.556   6.855  0.3166  0.8923 -0.6981
 6323SOL     OW30430   4.391   4.717  13.408  0.1454 -0.2770 -0.6872
 6323SOL    HW130431   4.403   0.021  13.500 -0.8019 -1.3987 -0.3031
 6323SOL    HW230432   4.480   4.686  13.394  0.3582 -0.2716  0.6712
 6324SOL     OW30433   3.781   1.534   4.718  0.0164 -0.4582 -0.4307
 6324SOL    HW130434   3.826   1.453   4.695 -1.8161 -0.9974 -2.0855
 6324SOL    HW230435   3.748   1.506   4.804 -0.4918  3.5064  0.6833
 6325SOL     OW30436   4.436   0.646   4.176 -0.4940 -0.8741  0.3162
 6325SOL    HW130437   4.398   0.572   4.223  1.2469 -2.9875 -1.5611
 6325SOL    HW230438   4.472   0.606   4.097  0.5861 -1.1286  0.9228
 6326SOL     OW30439   3.269   2.579   6.928  0.0005  0.4217  0.0162
 6326SOL    HW130440   3.298   2.515   6.992 -0.3347 -1.0131 -1.2671
 6326SOL    HW230441   3.266   2.529   6.846  0.6173 -0.3674  0.4728
 6327SOL     OW30442   0.197   3.949   9.016  0.1646 -0.1385 -0.3165
 6327SOL    HW130443   0.156   4.013   9.074  1.5341 -0.1033  0.6074
 6327SOL    HW230444   0.206   3.875   9.076 -1.1957  1.2747  1.6084
 6328SOL     OW30445   3.672   2.055  13.126 -0.2422  0.4197 -0.0819
 6328SOL    HW130446   3.736   2.088  13.189  0.1280  1.0018 -0.7507
 6328SOL    HW230447   3.685   1.961  13.135 -0.0674  0.4295 -0.2114
 6329SOL     OW30448   2.787   0.066   3.801 -0.2221  0.1749 -0.4228
 6329SOL    HW130449   2.756   4.696   3.822  0.2803  0.3020  0.9016
 6329SOL    HW230450   2.708   0.098   3.759  0.7607  2.7740 -0.3026
 6330SOL     OW30451   2.024   2.737   7.732  0.3480  0.1664 -0.5519
 6330SOL    HW130452   2.115   2.768   7.737  0.5856 -0.7016  0.4673
 6330SOL    HW230453   1.985   2.807   7.680  0.4598 -0.1910 -1.1201
 6331SOL     OW30454   1.986   4.708   4.060  0.1186 -0.3469 -0.1108
 6331SOL    HW130455   2.002   0.041   4.138 -1.7854  0.7311 -0.4411
 6331SOL    HW230456   2.048   4.639   4.085  0.9276  0.3810 -0.1032
 6332SOL     OW30457   0.971   2.064   9.145  0.0945 -0.1370  0.4278
 6332SOL    HW130458   1.045   2.006   9.127 -0.1167 -1.2780  3.2694
 6332SOL    HW230459   0.919   2.005   9.199 -2.3739  1.9060  0.2527
 6333SOL     OW30460   1.885   4.704  14.544 -0.8603  0.3370  0.2461
 6333SOL    HW130461   1.919   4.618  14.568  0.3270  2.0431  4.7501
 6333SOL    HW230462   1.898   4.711  14.450  0.6163 -0.0959  0.4131
 6334SOL     OW30463   2.834   4.471   9.701 -0.2431 -0.4626 -0.8666
 6334SOL    HW130464   2.920   4.431   9.714  0.0109 -0.3827 -2.3247
 6334SOL    HW230465   2.776   4.410   9.746 -0.7174 -0.0774 -0.9516
 6335SOL     OW30466   3.571   3.725  14.269 -0.0068 -0.0285  0.3534
 6335SOL    HW130467   3.525   3.740  14.351  0.2299 -1.4357  0.7569
 6335SOL    HW230468   3.550   3.631  14.267  2.3179 -0.5867  3.6032
 6336SOL     OW30469   4.247   2.430  14.144 -0.0302 -0.4435  0.4633
 6336SOL    HW130470   4.165   2.421  14.095  0.5145 -3.3965  0.0923
 6336SOL    HW230471   4.255   2.342  14.183  1.3444 -0.7986 -0.6464
 6337SOL     OW30472   2.523   4.495   8.804 -0.4095  0.4222  0.1024
 6337SOL    HW130473   2.464   4.437   8.853 -0.9377  1.2721  0.4793
 6337SOL    HW230474   2.518   4.570   8.864 -0.9168  1.3698 -1.1278
 6338SOL     OW30475   0.423   1.536  13.148 -0.3633 -0.3829  0.3073
 6338SOL    HW130476   0.475   1.542  13.068  1.2798 -1.6685  1.2810
 6338SOL    HW230477   0.422   1.625  13.184  0.3995 -0.7069  1.1380
 6339SOL     OW30478   3.761   2.050   7.644 -0.3421  0.8862  0.2006
 6339SOL    HW130479   3.835   2.074   7.701  1.1033 -3.0332 -0.0341
 6339SOL    HW230480   3.700   2.004   7.702 -0.4125 -0.4231 -0.9005
 6340SOL     OW30481   1.157   4.479  14.884 -0.1396 -0.0152 -0.1283
 6340SOL    HW130482   1.081   4.426  14.909  0.1315  0.6388  2.0398
 6340SOL    HW230483   1.116   4.549  14.833  0.0902  0.1408 -0.0964
 6341SOL     OW30484   0.100   0.748  14.662  0.1169 -0.6129 -0.0514
 6341SOL    HW130485   0.058   0.738  14.747  0.1630 -0.1600  0.0245
 6341SOL    HW230486   0.089   0.658  14.630  0.8171 -0.2521 -1.3017
 6342SOL     OW30487   1.276   2.494   1.229  0.4551 -0.2944 -0.1581
 6342SOL    HW130488   1.266   2.421   1.168  2.2070 -0.4858 -0.2183
 6342SOL    HW230489   1.291   2.568   1.170 -0.4063 -0.3578 -0.4573
 6343SOL     OW30490   3.109   2.445   2.542  0.0963  0.8672 -0.2085
 6343SOL    HW130491   3.112   2.349   2.537  0.7126  0.8609  0.2892
 6343SOL    HW230492   3.194   2.465   2.580 -0.2425 -0.3298  1.1846
 6344SOL     OW30493   2.376   1.246  15.519  0.1972  0.7885  0.0012
 6344SOL    HW130494   2.352   1.333  15.488  0.4064  0.7053 -0.3872
 6344SOL    HW230495   2.443   1.208  15.462  0.1105 -0.2645  0.5889
 6345SOL     OW30496   3.996   0.632  15.770 -0.4673  0.4785  0.0256
 6345SOL    HW130497   4.082   0.637  15.811  0.7134 -2.5229 -2.1202
 6345SOL    HW230498   4.019   0.692  15.698  2.4858 -0.5572  0.1202
 6346SOL     OW30499   4.071   3.214   4.780 -0.2508  0.3678 -0.2326
 6346SOL    HW130500   4.142   3.259   4.733  0.1253  2.0552  1.9423
 6346SOL    HW230501   4.008   3.286   4.784 -0.8655 -0.2009  0.1424
 6347SOL     OW30502   1.219   2.762   3.659  0.7807  0.2435  0.4062
 6347SOL    HW130503   1.262   2.679   3.680 -0.8027 -1.3247 -2.6355
 6347SOL    HW230504   1.270   2.814   3.721  0.7673  1.3059 -0.4687
 6348SOL     OW30505   4.281   1.843  14.307  0.1826 -0.3657  0.2069
 6348SOL    HW130506   4.323   1.786  14.242  1.9678 -1.3603  2.2300
 6348SOL    HW230507   4.345   1.914  14.318 -1.4394  0.9247  1.3430
 6349SOL     OW30508   3.907   2.736  12.285  0.5720  0.0737 -0.6208
 6349SOL    HW130509   3.855   2.656  12.277  2.5471 -1.3846  1.1296
 6349SOL    HW230510   3.923   2.743  12.379  2.8005 -0.9499 -0.9265
 6350SOL     OW30511   1.039   0.935   6.349 -0.4584 -0.5548  0.8862
 6350SOL    HW130512   1.058   0.989   6.425  0.9483 -1.3945  1.1466
 6350SOL    HW230513   1.049   0.845   6.380  0.0881 -0.6192  0.5271
 6351SOL     OW30514   3.120   0.384   5.223 -0.3862 -0.8491 -0.1011
 6351SOL    HW130515   3.179   0.310   5.212  0.7053  0.2244 -1.3515
 6351SOL    HW230516   3.161   0.432   5.295 -3.6936 -1.8427  2.5295
 6352SOL     OW30517   0.662   1.033   5.420 -0.2305 -0.4422 -0.6525
 6352SOL    HW130518   0.567   1.024   5.405 -0.2041  0.2614 -1.2298
 6352SOL    HW230519   0.683   0.960   5.362 -0.1197 -1.6233  0.8589
 6353SOL     OW30520   3.187   4.701   1.533  0.4717  0.5742  0.6792
 6353SOL    HW130521   3.208   4.631   1.595 -2.3390 -0.0383  0.9261
 6353SOL    HW230522   3.220   4.669   1.449  2.9476  2.7303  0.8244
 6354SOL     OW30523   0.997   3.135  10.070  0.1551 -0.3184 -0.2384
 6354SOL    HW130524   0.974   3.045  10.045  1.0001 -1.0003  1.4343
 6354SOL    HW230525   0.985   3.186   9.990  2.2521  0.4745 -0.0337
 6355SOL     OW30526   0.500   2.589  15.151  0.0504  0.2713 -0.4524
 6355SOL    HW130527   0.419   2.604  15.103 -0.1880  1.8764  0.4540
 6355SOL    HW230528   0.509   2.495  15.134  0.6542  0.2584 -0.0793
 6356SOL     OW30529   2.403   1.630   4.571  0.1818 -0.5566 -0.1798
 6356SOL    HW130530   2.472   1.641   4.506  1.2024 -0.0339  0.9816
 6356SOL    HW230531   2.328   1.644   4.514  0.5354  0.7620 -0.3155
 6357SOL     OW30532   0.311   3.589   3.571 -0.3648  0.0880 -0.0475
 6357SOL    HW130533   0.295   3.558   3.481  0.1391  0.7646 -0.3749
 6357SOL    HW230534   0.273   3.675   3.584 -1.3943 -0.3117 -0.4129
 6358SOL     OW30535   2.746   3.390  14.670  0.1049 -0.1087  0.2683
 6358SOL    HW130536   2.657   3.418  14.692  0.0226 -0.2180  0.0728
 6358SOL    HW230537   2.744   3.396  14.575  0.2046 -0.2114  0.2606
 6359SOL     OW30538   2.973   3.908   6.546 -0.5562  0.5772  0.4871
 6359SOL    HW130539   3.057   3.941   6.514  0.3455  0.0898  2.3397
 6359SOL    HW230540   2.947   3.881   6.457  0.4391  0.0789  0.3438
 6360SOL     OW30541   2.012   1.204   6.367 -0.0132  0.0546  0.2043
 6360SOL    HW130542   1.996   1.298   6.371 -0.7696  0.0035 -1.3878
 6360SOL    HW230543   2.050   1.205   6.279 -0.8518  3.7797 -0.1408
 6361SOL     OW30544   3.847   3.456   8.610 -0.5340  0.1110 -0.5018
 6361SOL    HW130545   3.828   3.546   8.636 -1.8648 -0.6308  1.0766
 6361SOL    HW230546   3.870   3.418   8.694 -2.5062  0.1983  0.0719
 6362SOL     OW30547   2.873   3.874   3.439 -0.5794  0.2409  0.4533
 6362SOL    HW130548   2.839   3.788   3.413 -1.7540  0.0569  2.5558
 6362SOL    HW230549   2.883   3.908   3.351  0.5298  0.2640  0.5875
 6363SOL     OW30550   1.506   1.416  10.164  0.1191 -0.4593  0.5015
 6363SOL    HW130551   1.438   1.362  10.123 -0.2013  1.3567 -1.3593
 6363SOL    HW230552   1.559   1.422  10.084 -0.8481 -0.5680 -0.1556
 6364SOL     OW30553   3.664   0.083   5.234 -0.1184 -0.5026  0.2822
 6364SOL    HW130554   3.753   0.068   5.266  0.1539 -0.7633 -0.6229
 6364SOL    HW230555   3.615   0.022   5.289  0.1763 -1.0674 -0.0875
 6365SOL     OW30556   0.383   2.090  10.789 -0.7415 -0.0517 -0.4404
 6365SOL    HW130557   0.415   2.020  10.846  0.4729  2.1038  1.5541
 6365SOL    HW230558   0.343   2.150  10.852 -0.6089  1.1629 -1.5135
 6366SOL     OW30559   3.878   2.435   2.797 -0.2442  0.2967 -0.7904
 6366SOL    HW130560   3.789   2.454   2.770 -0.6727 -1.1298 -0.3761
 6366SOL    HW230561   3.917   2.421   2.710  2.6457  2.0994  0.2172
 6367SOL     OW30562   2.339   2.935   0.074 -0.6587 -0.2489  0.0721
 6367SOL    HW130563   2.302   2.858   0.030 -0.2007 -0.4803  0.0875
 6367SOL    HW230564   2.356   2.898   0.161 -0.1501  0.2622  0.1928
 6368SOL     OW30565   2.696   1.163   5.450 -0.4055  0.4496 -0.1636
 6368SOL    HW130566   2.735   1.217   5.519  1.2496 -0.9684  0.0082
 6368SOL    HW230567   2.723   1.076   5.479  0.0069  0.7115  0.2410
 6369SOL     OW30568   4.205   3.013   9.130  0.1474 -0.4896  0.5604
 6369SOL    HW130569   4.150   3.037   9.056 -0.7424  2.0999  2.0789
 6369SOL    HW230570   4.141   2.995   9.198 -0.0950  0.8104  0.6708
 6370SOL     OW30571   3.665   3.816  13.046 -0.5075  0.4562  0.3235
 6370SOL    HW130572   3.694   3.725  13.042  0.8916  0.8427  1.9344
 6370SOL    HW230573   3.743   3.870  13.032  0.3652 -0.3674  2.0605
 6371SOL     OW30574   3.134   2.095   5.119 -0.0230 -0.2379 -0.1607
 6371SOL    HW130575   3.084   2.086   5.200 -0.2171  1.3061 -0.1024
 6371SOL    HW230576   3.075   2.064   5.050 -1.3347 -0.2709  0.9874
 6372SOL     OW30577   1.193   3.301   2.727 -0.4600  0.3107  0.1078
 6372SOL    HW130578   1.268   3.310   2.669 -0.4205 -3.9012 -0.5224
 6372SOL    HW230579   1.197   3.383   2.776 -0.4571  0.2686  0.1766
 6373SOL     OW30580   4.628   4.699  13.026  0.1355 -0.2055  0.0247
 6373SOL    HW130581   4.694   0.037  13.066  0.2779 -0.3434 -0.0136
 6373SOL    HW230582   4.630   4.619  13.078  1.6334  0.4581  0.9636
 6374SOL     OW30583   0.851   1.063   4.408 -0.0262  0.3335  0.2886
 6374SOL    HW130584   0.885   0.981   4.372 -0.5579  0.0543  0.4292
 6374SOL    HW230585   0.766   1.036   4.441  0.0236 -0.4150 -0.1885
 6375SOL     OW30586   1.208   3.755   4.436  0.5038 -0.4331 -0.2159
 6375SOL    HW130587   1.168   3.840   4.415  0.0407 -0.6547 -0.2190
 6375SOL    HW230588   1.187   3.706   4.356  0.6730 -0.0496 -0.4993
 6376SOL     OW30589   3.541   3.251   2.923 -0.4223 -0.2388  0.2766
 6376SOL    HW130590   3.463   3.298   2.952 -0.5644 -1.0183  1.1877
 6376SOL    HW230591   3.509   3.165   2.896 -1.2986  0.8359 -2.1078
 6377SOL     OW30592   1.426   0.707  16.272 -0.0381  0.1094 -0.1497
 6377SOL    HW130593   1.497   0.672  16.326  0.1843  1.7785  0.6553
 6377SOL    HW230594   1.446   0.801  16.280 -0.6082  0.2186  0.0063
 6378SOL     OW30595   4.076   1.280   7.305 -0.1919  0.0897  0.6690
 6378SOL    HW130596   4.130   1.230   7.366 -0.6307 -1.2293 -0.0095
 6378SOL    HW230597   4.018   1.322   7.368 -0.7630  1.3759 -0.6978
 6379SOL     OW30598   0.836   1.214   0.397  0.3145  0.5058 -0.3158
 6379SOL    HW130599   0.858   1.221   0.304  1.7346 -0.2179 -0.0340
 6379SOL    HW230600   0.741   1.216   0.391  0.2390 -1.4864  0.2380
 6380SOL     OW30601   3.796   0.823   2.943 -0.2084 -0.1555 -0.2118
 6380SOL    HW130602   3.711   0.853   2.912  0.4835  1.7073 -0.3193
 6380SOL    HW230603   3.828   0.775   2.866  1.3843 -0.5093  0.6628
 6381SOL     OW30604   0.737   0.765   8.813  0.4673  0.4986 -0.9469
 6381SOL    HW130605   0.702   0.679   8.837 -0.6980  2.0298  2.8013
 6381SOL    HW230606   0.745   0.813   8.895  1.4821  0.3027 -0.9298
 6382SOL     OW30607   1.165   4.347   3.620  0.1650 -0.5565 -0.0398
 6382SOL    HW130608   1.162   4.358   3.525 -1.1998 -0.9282 -0.0375
 6382SOL    HW230609   1.147   4.437   3.644  1.3729  0.2773 -2.1630
 6383SOL     OW30610   1.974   0.567   8.096  0.4830 -0.2085  0.4639
 6383SOL    HW130611   2.050   0.552   8.040  0.5375 -0.7607  0.6915
 6383SOL    HW230612   1.988   0.505   8.167  1.2723  0.3625  0.8022
 6384SOL     OW30613   3.320   0.485  10.210 -0.2697 -0.0905  0.1523
 6384SOL    HW130614   3.292   0.567  10.252 -0.6513 -0.6371  0.9573
 6384SOL    HW230615   3.257   0.425  10.249 -0.4211  0.0260  0.0872
 6385SOL     OW30616   0.825   2.664   5.923  0.0282 -0.3291  0.1510
 6385SOL    HW130617   0.868   2.579   5.926 -0.1498 -0.4766 -1.5904
 6385SOL    HW230618   0.869   2.701   5.846  1.2385 -1.4067  0.3343
 6386SOL     OW30619   2.502   0.465   3.559 -0.1169  0.0058 -0.0853
 6386SOL    HW130620   2.428   0.437   3.612  1.0404 -0.9433  1.0301
 6386SOL    HW230621   2.525   0.379   3.524 -2.3277 -0.2371 -0.9537
 6387SOL     OW30622   4.565   1.102   8.998 -0.0627 -0.4252  0.1391
 6387SOL    HW130623   4.505   1.164   9.040  0.2115  0.8570 -1.3717
 6387SOL    HW230624   4.639   1.119   9.056  0.0906 -0.8367  0.0582
 6388SOL     OW30625   2.496   1.277   0.945 -0.4152  0.0401 -0.2841
 6388SOL    HW130626   2.402   1.268   0.928 -0.6615 -2.5886  2.3449
 6388SOL    HW230627   2.525   1.188   0.926  1.0446  0.6973 -1.1159
 6389SOL     OW30628   1.983   0.321  10.632 -0.3618  0.3502  0.2346
 6389SOL    HW130629   1.897   0.336  10.592 -0.2344  0.0316 -0.1567
 6389SOL    HW230630   2.022   0.407  10.616  0.9427 -0.1924  0.5139
 6390SOL     OW30631   2.390   0.135   9.756  0.0220 -0.1026 -0.0465
 6390SOL    HW130632   2.458   0.203   9.755 -0.7898  0.7138 -0.5955
 6390SOL    HW230633   2.318   0.159   9.698  2.5046  0.7462 -2.7745
 6391SOL     OW30634   3.813   4.126   5.445 -0.3739 -0.2427  0.1916
 6391SOL    HW130635   3.843   4.200   5.392 -0.7457 -0.8577 -0.8785
 6391SOL    HW230636   3.866   4.139   5.524  0.4512 -0.1006 -0.3802
 6392SOL     OW30637   1.049   4.579   8.371  0.8079 -0.3787  0.9760
 6392SOL    HW130638   1.116   4.565   8.305 -0.2025  0.9074 -0.3138
 6392SOL    HW230639   0.968   4.552   8.327 -0.3419  0.9299  2.2763
 6393SOL     OW30640   2.856   0.072   6.511  0.2839  0.1714  0.4860
 6393SOL    HW130641   2.931   0.121   6.544 -0.0956  0.6938  0.5725
 6393SOL    HW230642   2.887   0.063   6.421 -1.5819 -1.1208 -0.0244
 6394SOL     OW30643   0.746   4.259   9.731  0.4858  0.4306  0.0627
 6394SOL    HW130644   0.773   4.321   9.663  1.1306  1.4019  1.1966
 6394SOL    HW230645   0.673   4.300   9.777  2.1304  0.5664  2.5483
 6395SOL     OW30646   1.186   1.889   1.141 -0.1580 -0.2230  0.2901
 6395SOL    HW130647   1.122   1.901   1.070 -0.2849 -1.2372  0.2312
 6395SOL    HW230648   1.226   1.803   1.134 -1.0271 -0.4997 -1.3104
 6396SOL     OW30649   3.605   0.116  12.765 -0.2963 -0.3963 -0.2487
 6396SOL    HW130650   3.651   0.033  12.768  0.1085 -0.1790 -0.5140
 6396SOL    HW230651   3.677   0.176  12.788 -0.7403  0.0812 -0.0863
 6397SOL     OW30652   3.667   1.791   2.380  0.9336 -0.4641  0.6596
 6397SOL    HW130653   3.663   1.860   2.314  1.9578 -0.0122  1.0784
 6397SOL    HW230654   3.587   1.747   2.350  0.9150  1.2888 -1.7875
 6398SOL     OW30655   1.871   0.789   7.136  0.5259  0.1647 -0.3554
 6398SOL    HW130656   1.958   0.767   7.172  0.9189  2.5328  0.1536
 6398SOL    HW230657   1.831   0.804   7.222  0.0503  1.4810 -0.8112
 6399SOL     OW30658   0.026   3.307   6.159 -0.3255  0.0925 -0.8572
 6399SOL    HW130659   0.114   3.342   6.147 -0.4608  0.1100 -1.8250
 6399SOL    HW230660   4.695   3.357   6.093  1.9431  3.1200 -0.2391
 6400SOL     OW30661   1.406   1.444   5.015  0.3132  0.0688 -0.4849
 6400SOL    HW130662   1.464   1.468   4.942 -0.0874 -0.3541 -0.9469
 6400SOL    HW230663   1.474   1.422   5.078 -0.4703 -1.5933 -0.2107
 6401SOL     OW30664   4.255   2.879  17.635  0.0460  0.0606  0.3421
 6401SOL    HW130665   4.271   2.936  17.559 -0.1161  0.5575  0.6839
 6401SOL    HW230666   4.161   2.863  17.627  0.2204 -0.8101  0.0079
 6402SOL     OW30667   1.237   0.820   7.830 -0.0132  0.0605  0.0234
 6402SOL    HW130668   1.250   0.911   7.857 -0.1343 -0.0941  0.6171
 6402SOL    HW230669   1.162   0.796   7.885 -0.1892 -1.3958 -0.8470
 6403SOL     OW30670   2.221   2.690   1.397  0.2725 -0.0226  0.2505
 6403SOL    HW130671   2.150   2.626   1.401  0.1470  0.0273 -1.0721
 6403SOL    HW230672   2.293   2.628   1.381 -0.7678 -1.8031  2.4966
 6404SOL     OW30673   2.278   0.809   4.812  0.4810  0.2006  0.2033
 6404SOL    HW130674   2.258   0.869   4.884 -0.6852 -0.8660  0.7813
 6404SOL    HW230675   2.222   0.834   4.738 -0.6128 -1.0293  0.6223
 6405SOL     OW30676   1.184   2.163   2.286  0.2031 -0.7896  0.1703
 6405SOL    HW130677   1.118   2.100   2.256  0.9292 -1.4585 -0.0409
 6405SOL    HW230678   1.137   2.245   2.299  3.1863  0.9165  0.1815
 6406SOL     OW30679   0.740   2.574   6.407  0.0854 -0.0402  0.4498
 6406SOL    HW130680   0.781   2.551   6.491 -1.6090  0.0333  1.2885
 6406SOL    HW230681   0.688   2.652   6.425 -0.0710  0.3915 -1.9487
 6407SOL     OW30682   2.902   1.271   7.798  0.1976 -0.2383  0.0095
 6407SOL    HW130683   2.997   1.257   7.804  0.4215  1.1605 -0.2363
 6407SOL    HW230684   2.890   1.344   7.859  0.1596 -0.5859  0.4134
 6408SOL     OW30685   4.496   1.670   5.288  0.1233 -0.1785  0.4752
 6408SOL    HW130686   4.493   1.761   5.319 -1.3527  0.1174 -0.5564
 6408SOL    HW230687   4.534   1.626   5.364  0.1299  0.1961  0.6920
 6409SOL     OW30688   4.628   2.316   2.021 -0.1773 -0.1907  0.0254
 6409SOL    HW130689   4.616   2.244   1.958 -0.3703  0.5406 -0.7645
 6409SOL    HW230690   4.604   2.267   2.099 -3.9173 -0.1997 -1.1225
 6410SOL     OW30691   4.381   3.083  11.527 -0.0760  0.1052 -0.3189
 6410SOL    HW130692   4.414   3.062  11.440 -0.7378 -1.6988 -0.1419
 6410SOL    HW230693   4.357   3.174  11.512 -2.3962 -0.7714 -1.9340
 6411SOL     OW30694   3.337   2.510   3.763  0.3016 -0.2946  0.5918
 6411SOL    HW130695   3.364   2.418   3.767 -0.2382 -0.4579  0.3304
 6411SOL    HW230696   3.395   2.555   3.825  0.5604 -0.2751  0.3371
 6412SOL     OW30697   2.226   0.170   8.868  0.5773 -0.3226  0.8589
 6412SOL    HW130698   2.310   0.137   8.900  0.5842 -1.8531 -0.7611
 6412SOL    HW230699   2.208   0.105   8.800  0.4766  0.5107  0.0772
 6413SOL     OW30700   2.398   4.264  11.867  0.0780 -0.0520  0.2319
 6413SOL    HW130701   2.380   4.356  11.847  1.7708  0.0549 -0.8414
 6413SOL    HW230702   2.490   4.286  11.882 -0.4220  1.8961  0.5323
 6414SOL     OW30703   3.063   3.676   5.348 -0.7345 -0.2764  0.4134
 6414SOL    HW130704   3.112   3.595   5.362 -1.9451 -0.5537  2.9807
 6414SOL    HW230705   2.971   3.649   5.346 -0.4458 -1.0902 -2.5578
 6415SOL     OW30706   4.394   4.285  14.462 -0.2543 -0.6307  0.4268
 6415SOL    HW130707   4.393   4.200  14.505 -2.9499  0.2119  2.0397
 6415SOL    HW230708   4.301   4.309  14.458  0.0301  0.6808  1.5494
 6416SOL     OW30709   3.131   4.610   9.535 -0.2542  0.0133 -1.0763
 6416SOL    HW130710   3.054   4.554   9.522 -0.3818 -0.0842  0.1043
 6416SOL    HW230711   3.151   4.587   9.626 -2.2281 -2.4143 -1.2441
 6417SOL     OW30712   0.196   0.656   3.635  0.0774  0.0084  0.1652
 6417SOL    HW130713   0.260   0.586   3.651  1.3989  1.1304 -0.2454
 6417SOL    HW230714   0.118   0.605   3.612  0.1913  0.1863 -0.6129
 6418SOL     OW30715   3.163   4.251  13.371 -0.0120 -0.4944  0.1194
 6418SOL    HW130716   3.176   4.185  13.440 -3.8392  1.2902  2.5282
 6418SOL    HW230717   3.069   4.258  13.356 -0.3134 -4.4010  0.2017
 6419SOL     OW30718   1.288   0.836  13.486  0.3373  0.2366 -0.3967
 6419SOL    HW130719   1.339   0.906  13.444  1.7051 -0.6008 -0.1404
 6419SOL    HW230720   1.350   0.812  13.555 -0.8359  1.4183  1.0439
 6420SOL     OW30721   2.945   2.675   5.502 -0.2532  0.9146 -0.2843
 6420SOL    HW130722   2.939   2.725   5.420 -1.4475 -0.2969 -0.9530
 6420SOL    HW230723   2.938   2.744   5.567  2.4166 -0.6181  1.6266
 6421SOL     OW30724   1.728   3.530   7.947 -0.1870 -0.7257  0.1231
 6421SOL    HW130725   1.687   3.476   7.880 -1.1200 -1.5489  1.3431
 6421SOL    HW230726   1.700   3.491   8.030  2.4306 -1.0796  0.8240
 6422SOL     OW30727   1.731   1.130   8.203 -0.1373  0.0375  0.1691
 6422SOL    HW130728   1.724   1.052   8.257  2.1791  0.5812  1.2426
 6422SOL    HW230729   1.677   1.189   8.256 -1.4789  1.1477 -2.4160
 6423SOL     OW30730   0.351   1.204  17.352  0.3613  0.5273  0.5635
 6423SOL    HW130731   0.325   1.158  17.271  2.8048 -0.6217  0.4454
 6423SOL    HW230732   0.299   1.284  17.344 -0.4390 -0.1082 -0.8017
 6424SOL     OW30733   0.620   2.160  11.055  0.2990  0.1935  0.0985
 6424SOL    HW130734   0.674   2.096  11.009 -0.2652  1.4875 -2.3156
 6424SOL    HW230735   0.548   2.113  11.097  0.2578 -0.0089 -0.2045
 6425SOL     OW30736   0.821   2.776   3.715  0.7001 -0.0390  0.4509
 6425SOL    HW130737   0.726   2.774   3.711  0.7423 -1.6213  0.4068
 6425SOL    HW230738   0.834   2.684   3.738  0.0528  0.0110  1.0167
 6426SOL     OW30739   1.463   0.833  15.153 -0.2576  0.2768  0.0607
 6426SOL    HW130740   1.446   0.856  15.245 -2.6649 -1.4036  0.0224
 6426SOL    HW230741   1.401   0.760  15.145  1.1137 -0.7328 -1.2446
 6427SOL     OW30742   0.571   1.696  15.530 -0.2079 -0.8696 -0.4517
 6427SOL    HW130743   0.530   1.752  15.596 -0.2200 -0.6447 -0.6489
 6427SOL    HW230744   0.495   1.642  15.508 -0.0932 -1.1921 -0.0590
 6428SOL     OW30745   3.216   3.789   4.842 -0.4055  0.0289 -0.1878
 6428SOL    HW130746   3.165   3.792   4.923  2.5531  0.3093  1.6499
 6428SOL    HW230747   3.195   3.876   4.809  1.6108  0.6544  0.2012
 6429SOL     OW30748   2.834   3.647   6.377  0.6743 -0.9985 -0.2653
 6429SOL    HW130749   2.893   3.572   6.385 -3.4736 -4.1782  0.5522
 6429SOL    HW230750   2.897   3.716   6.353  1.5757 -1.8592 -0.3923
 6430SOL     OW30751   3.062   1.412   3.645  0.9465  0.7738  0.0434
 6430SOL    HW130752   3.154   1.414   3.671  0.5601  0.3088  1.4273
 6430SOL    HW230753   3.067   1.475   3.573  0.1842  0.5218 -0.2364
 6431SOL     OW30754   0.664   3.514   7.920 -0.3285 -0.0869  0.3066
 6431SOL    HW130755   0.722   3.452   7.964 -0.2825  0.6658  1.2924
 6431SOL    HW230756   0.609   3.539   7.994 -1.0998 -0.1213 -0.2474
 6432SOL     OW30757   0.008   3.735   3.969  0.3560 -0.0852 -0.0123
 6432SOL    HW130758   0.069   3.768   3.902 -0.9212  1.2226 -0.5400
 6432SOL    HW230759   4.691   3.820   3.997  0.5585 -0.5835  1.7219
 6433SOL     OW30760   0.339   1.967  11.112  0.1553 -0.3060  0.7805
 6433SOL    HW130761   0.396   1.895  11.084 -2.4705 -1.8952 -0.5241
 6433SOL    HW230762   0.255   1.920  11.116  1.0970 -1.9500  1.2245
 6434SOL     OW30763   3.835   1.982   8.785  0.7420 -0.2043 -0.1694
 6434SOL    HW130764   3.890   1.943   8.854 -0.2136 -1.2083  0.0127
 6434SOL    HW230765   3.758   1.997   8.839  1.2134 -0.4937  0.5988
 6435SOL     OW30766   2.854   3.125  10.703 -0.3616  0.1119 -0.7520
 6435SOL    HW130767   2.808   3.045  10.728  0.4749  0.0656  0.5945
 6435SOL    HW230768   2.939   3.085  10.685  0.6537  2.0687 -0.2118
 6436SOL     OW30769   3.359   3.919   5.798  0.1069  0.3097 -0.1121
 6436SOL    HW130770   3.267   3.909   5.822  0.1196 -1.4665 -0.7886
 6436SOL    HW230771   3.376   4.013   5.807 -0.6168  0.3512  0.8112
 6437SOL     OW30772   1.838   3.696   6.757  0.3868  0.0643  0.1893
 6437SOL    HW130773   1.766   3.683   6.695  0.8138 -3.2949  0.4514
 6437SOL    HW230774   1.855   3.790   6.744 -1.1694  0.1464 -1.3384
 6438SOL     OW30775   4.564   3.450   9.199 -0.0971 -0.5718  0.1802
 6438SOL    HW130776   4.503   3.376   9.205  0.1819 -0.5122  3.6631
 6438SOL    HW230777   4.543   3.502   9.277  1.3921 -0.0532  0.2398
 6439SOL     OW30778   2.289   2.458   5.491 -0.4772  0.9573 -0.2472
 6439SOL    HW130779   2.325   2.388   5.437 -0.9116  1.5978 -1.3812
 6439SOL    HW230780   2.284   2.426   5.581 -1.0391 -0.0215 -0.6229
 6440SOL     OW30781   0.727   1.644  15.757  0.1293 -0.2564 -0.9380
 6440SOL    HW130782   0.670   1.585  15.707  0.2043 -0.5841 -0.6373
 6440SOL    HW230783   0.746   1.717  15.697  0.1380  0.7428  0.2898
 6441SOL     OW30784   2.032   2.550  11.864 -0.1384  0.1034  0.2783
 6441SOL    HW130785   2.085   2.571  11.787  0.3920 -0.4465  0.4988
 6441SOL    HW230786   2.052   2.621  11.926 -0.6834  0.6303 -0.1439
 6442SOL     OW30787   0.758   3.936  12.093 -0.6376  0.2408  0.6292
 6442SOL    HW130788   0.750   3.912  12.000  0.3802 -0.6388  0.7668
 6442SOL    HW230789   0.791   4.026  12.088 -1.6050  0.4506 -2.2455
 6443SOL     OW30790   3.636   2.688   6.917 -0.6688  0.7349 -0.2828
 6443SOL    HW130791   3.632   2.595   6.893  2.9518  0.4138  0.3947
 6443SOL    HW230792   3.730   2.701   6.927 -0.4757  0.9245 -2.2349
 6444SOL     OW30793   0.767   2.465   9.715 -0.0044 -0.4344  0.6584
 6444SOL    HW130794   0.687   2.511   9.691  0.4698 -0.4044 -0.8459
 6444SOL    HW230795   0.748   2.372   9.706 -2.3928  0.1848 -0.5376
 6445SOL     OW30796   4.374   3.874   9.180 -0.4250 -0.1245 -0.1941
 6445SOL    HW130797   4.288   3.844   9.211 -1.5764  0.0606 -3.1805
 6445SOL    HW230798   4.352   3.966   9.163  0.7130  0.1537 -0.1572
 6446SOL     OW30799   1.025   1.277   3.812 -0.3767 -0.1254  0.4303
 6446SOL    HW130800   0.962   1.279   3.885  0.5203  1.9340  1.1437
 6446SOL    HW230801   1.091   1.334   3.852 -0.3106 -0.1353  0.3340
 6447SOL     OW30802   3.650   0.076   7.259  0.3732  0.1405  0.4814
 6447SOL    HW130803   3.559   0.053   7.275  1.0549 -1.1886  2.3824
 6447SOL    HW230804   3.689   0.061   7.345 -1.4789  2.6650  1.7788
 6448SOL     OW30805   0.240   1.052   2.544 -0.1164 -0.3747 -0.1086
 6448SOL    HW130806   0.234   0.988   2.615 -1.9589  1.1094  1.0921
 6448SOL    HW230807   0.150   1.085   2.542  0.1150  0.0937 -2.3134
 6449SOL     OW30808   3.239   2.515  11.535  0.8645 -0.1293  0.1441
 6449SOL    HW130809   3.147   2.540  11.543  0.9823 -0.0318  1.2321
 6449SOL    HW230810   3.259   2.557  11.451 -0.4864 -0.8942 -0.5597
 6450SOL     OW30811   3.016   0.120  15.013  0.6788 -0.0261 -0.5357
 6450SOL    HW130812   3.083   0.056  14.990  1.6818 -0.7836  4.3842
 6450SOL    HW230813   3.067   0.198  15.034 -1.6381  1.3411 -0.0864
 6451SOL     OW30814   1.374   1.726   4.808  0.0116 -0.2387 -0.0378
 6451SOL    HW130815   1.432   1.666   4.763 -0.4482  0.8725 -2.1306
 6451SOL    HW230816   1.411   1.732   4.896 -1.0625  0.4007  0.3798
 6452SOL     OW30817   1.600   1.136   2.195  0.9696  0.4124  0.0112
 6452SOL    HW130818   1.695   1.149   2.198  0.6484  2.8662 -0.9691
 6452SOL    HW230819   1.573   1.219   2.234  0.1360  0.8393 -1.4884
 6453SOL     OW30820   1.613   0.637   3.928  0.3776 -0.0413 -0.7756
 6453SOL    HW130821   1.563   0.621   3.848 -0.9358  0.5976 -0.0866
 6453SOL    HW230822   1.688   0.577   3.926 -1.3952 -2.3058  1.3703
 6454SOL     OW30823   0.661   0.971   0.283  0.2706  0.0779  0.5426
 6454SOL    HW130824   0.588   1.026   0.253  0.0015 -0.1273  0.8206
 6454SOL    HW230825   0.623   0.907   0.342 -0.9414  0.1083 -0.1942
 6455SOL     OW30826   4.645   2.502   5.727 -0.5595 -0.1184 -0.1115
 6455SOL    HW130827   4.575   2.464   5.674  0.2700  1.2644 -2.1950
 6455SOL    HW230828   4.715   2.505   5.662  0.4885 -1.6161  0.9307
 6456SOL     OW30829   4.715   4.209   0.846  0.1310  0.3584  0.4859
 6456SOL    HW130830   4.674   4.290   0.819  0.8581  1.0769  1.5490
 6456SOL    HW230831   0.021   4.234   0.935 -2.2947 -3.0320  2.0860
 6457SOL     OW30832   0.577   0.507   3.581  0.6260  0.4335  0.3136
 6457SOL    HW130833   0.515   0.491   3.652 -1.4899  1.2195 -1.3511
 6457SOL    HW230834   0.654   0.461   3.617  0.0415 -1.6437 -1.0577
 6458SOL     OW30835   3.860   3.740   7.550  0.9600  0.3951  0.1403
 6458SOL    HW130836   3.787   3.701   7.598  0.8499  0.0047 -0.3440
 6458SOL    HW230837   3.850   3.709   7.460 -1.6673 -1.6135  1.1613
 6459SOL     OW30838   3.192   4.240   7.586 -0.5910  0.2570  0.0392
 6459SOL    HW130839   3.172   4.218   7.677  0.1952 -1.1817 -0.1400
 6459SOL    HW230840   3.284   4.260   7.598 -0.3146 -0.9605 -0.0502
 6460SOL     OW30841   3.310   3.817   2.494  0.3377 -0.5737  0.3132
 6460SOL    HW130842   3.343   3.898   2.533 -0.0475 -0.3566  0.1935
 6460SOL    HW230843   3.391   3.771   2.473 -0.2606 -0.5471 -1.9942
 6461SOL     OW30844   4.097   0.922  11.037  0.0251  1.0767 -0.1323
 6461SOL    HW130845   4.113   0.965  11.121  0.6494  1.1532 -0.2900
 6461SOL    HW230846   4.042   0.848  11.063  1.3377  0.0831 -0.1287
 6462SOL     OW30847   3.540   1.842   4.660 -0.4521 -0.8293 -0.2665
 6462SOL    HW130848   3.535   1.930   4.698  0.0224 -0.4360 -1.0961
 6462SOL    HW230849   3.541   1.789   4.740 -0.5075  0.7608  0.7924
 6463SOL     OW30850   2.590   2.422   8.490  0.2529 -0.0890 -0.1555
 6463SOL    HW130851   2.579   2.356   8.559 -0.3289 -0.4471 -0.5915
 6463SOL    HW230852   2.672   2.387   8.455  0.5110 -0.8044  1.1572
 6464SOL     OW30853   1.840   0.283  13.826 -0.0656 -0.0419  0.2309
 6464SOL    HW130854   1.760   0.314  13.870  0.8111  0.0939  1.7210
 6464SOL    HW230855   1.862   0.198  13.865 -0.5367 -0.1547  0.2544
 6465SOL     OW30856   4.478   0.503   8.480 -0.6046  0.2205 -0.0206
 6465SOL    HW130857   4.500   0.505   8.573 -2.0440 -1.2511  0.3388
 6465SOL    HW230858   4.401   0.446   8.479 -0.0419 -0.5634  0.8548
 6466SOL     OW30859   0.245   1.733   4.714 -0.1895 -0.7696 -0.2231
 6466SOL    HW130860   0.282   1.808   4.761 -1.6182 -0.5655  0.5739
 6466SOL    HW230861   0.318   1.671   4.708 -0.8136 -1.6295  1.0798
 6467SOL     OW30862   3.300   1.052   8.999 -0.5904 -0.4355  0.0246
 6467SOL    HW130863   3.240   1.118   8.964 -0.3401  0.1272  0.6493
 6467SOL    HW230864   3.258   0.968   8.985 -0.5339 -0.5820  0.7180
 6468SOL     OW30865   4.030   4.609   8.740 -0.2313  0.0772  0.1957
 6468SOL    HW130866   3.960   4.547   8.760  0.6119 -1.3798 -1.3658
 6468SOL    HW230867   4.056   4.592   8.650 -4.7495 -1.7816 -0.7657
 6469SOL     OW30868   2.788   1.380   3.443  0.1456 -0.0866  0.0513
 6469SOL    HW130869   2.809   1.292   3.471 -1.9816 -0.7243 -0.3073
 6469SOL    HW230870   2.867   1.401   3.394  1.5698 -2.9455  1.1855
 6470SOL     OW30871   2.847   1.627  13.204  0.3732  0.0570 -0.0025
 6470SOL    HW130872   2.878   1.717  13.201 -0.4072  0.3777  1.5755
 6470SOL    HW230873   2.872   1.603  13.293  1.0561  0.5381 -0.0652
 6471SOL     OW30874   2.503   3.428   3.233 -0.3684  0.4498 -0.3852
 6471SOL    HW130875   2.455   3.499   3.189  0.6231  1.1899 -0.2649
 6471SOL    HW230876   2.462   3.442   3.318 -0.8878 -0.4706 -0.4852
 6472SOL     OW30877   1.619   2.752   6.995 -0.2388 -1.0270 -0.5602
 6472SOL    HW130878   1.698   2.704   7.021 -0.3833 -0.8172  0.2703
 6472SOL    HW230879   1.554   2.682   6.990  0.7356 -2.0965  1.6290
 6473SOL     OW30880   4.570   4.213   9.199  0.2886  0.1207  0.6579
 6473SOL    HW130881   4.554   4.237   9.291  1.3069 -0.8676  1.1019
 6473SOL    HW230882   4.481   4.196   9.170  0.4751 -1.7729  1.1805
 6474SOL     OW30883   0.024   4.364  17.439 -0.3818  0.2012 -0.0132
 6474SOL    HW130884   4.696   4.310  17.504 -0.0647  0.0644  0.0990
 6474SOL    HW230885   4.676   4.425  17.406  0.2679  0.7453 -0.3030
 6475SOL     OW30886   1.351   1.904   8.403 -0.0783 -0.0984 -0.1471
 6475SOL    HW130887   1.425   1.880   8.459 -0.9789  2.6750  2.2067
 6475SOL    HW230888   1.372   1.852   8.325 -1.6148 -1.6723  0.4952
 6476SOL     OW30889   1.487   4.009   3.057  0.1676 -0.2077  0.0212
 6476SOL    HW130890   1.542   4.001   3.135  1.9845 -1.3104 -1.3785
 6476SOL    HW230891   1.533   4.081   3.014 -2.1204  0.6490 -0.9880
 6477SOL     OW30892   0.330   4.566   5.379  0.2739  0.6128  0.2950
 6477SOL    HW130893   0.282   4.646   5.403 -1.2456 -0.6171  1.3842
 6477SOL    HW230894   0.266   4.520   5.324  1.0960  0.3284 -0.4335
 6478SOL     OW30895   3.528   4.030   6.380  0.8675 -0.1599  0.1506
 6478SOL    HW130896   3.555   4.014   6.289  1.1526 -0.5853  0.3073
 6478SOL    HW230897   3.453   3.972   6.391  1.7516 -1.3821 -0.1647
 6479SOL     OW30898   0.060   0.613   4.692  0.1005 -0.2941  0.2439
 6479SOL    HW130899   0.091   0.633   4.603  1.3262 -0.2592  0.6813
 6479SOL    HW230900   0.060   0.703   4.725 -0.8168 -0.1776 -0.0649
 6480SOL     OW30901   3.236   0.416   7.055 -0.1575  0.5166 -0.0006
 6480SOL    HW130902   3.315   0.407   7.109  2.3791  2.2743 -3.4062
 6480SOL    HW230903   3.173   0.367   7.108 -0.1201 -0.7056 -1.0962
 6481SOL     OW30904   0.715   1.581   7.941  0.6016 -0.0084  0.1863
 6481SOL    HW130905   0.728   1.662   7.893 -0.3099  0.2844  0.4374
 6481SOL    HW230906   0.768   1.588   8.020 -2.3116  0.4714  2.0956
 6482SOL     OW30907   1.563   0.824   3.286  0.2096  0.6406  0.5755
 6482SOL    HW130908   1.656   0.802   3.289  0.0976 -0.0289 -0.9725
 6482SOL    HW230909   1.551   0.850   3.378  0.4422 -0.2876  0.8696
 6483SOL     OW30910   1.455   4.320   9.283  0.1692  0.0050  0.4979
 6483SOL    HW130911   1.546   4.339   9.260 -0.2140 -1.2201 -2.0150
 6483SOL    HW230912   1.469   4.250   9.346 -0.9758 -2.1478 -1.6415
 6484SOL     OW30913   3.432   1.083   4.940  0.0558  0.3876 -0.0439
 6484SOL    HW130914   3.450   1.131   5.020 -0.2160  0.0202  0.2367
 6484SOL    HW230915   3.524   1.074   4.917  0.8204 -0.7176  3.4560
 6485SOL     OW30916   3.230   3.825   7.078 -0.4189  0.1255 -0.3096
 6485SOL    HW130917   3.242   3.788   7.166 -1.1147  0.7949  0.0597
 6485SOL    HW230918   3.199   3.913   7.096  0.6263  0.0262  2.0744
 6486SOL     OW30919   1.557   1.693   2.911 -0.4449 -0.3062 -0.7000
 6486SOL    HW130920   1.498   1.671   2.839  0.6448  0.8903 -1.9566
 6486SOL    HW230921   1.618   1.622   2.928 -0.2770  0.3847  1.4820
 6487SOL     OW30922   3.027   4.219   9.521 -0.3507 -0.1122  0.1474
 6487SOL    HW130923   2.933   4.230   9.508 -0.4654 -0.2722  0.8573
 6487SOL    HW230924   3.048   4.278   9.594  1.0949 -0.8418  0.3288
 6488SOL     OW30925   4.694   3.883  16.105  0.5137  0.5958 -0.1431
 6488SOL    HW130926   4.657   3.937  16.174  0.4729 -0.7016  0.8530
 6488SOL    HW230927   0.021   3.816  16.156  1.8385  0.6346 -1.2548
 6489SOL     OW30928   3.578   2.085   7.420  0.3615  0.0328 -0.2078
 6489SOL    HW130929   3.650   2.051   7.473  1.1235  0.5267 -0.9280
 6489SOL    HW230930   3.592   2.021   7.350 -1.0712 -1.7750  1.1855
 6490SOL     OW30931   2.429   4.189   5.878 -0.5462  0.5985 -0.2625
 6490SOL    HW130932   2.501   4.125   5.886 -2.1634 -1.1857 -0.0685
 6490SOL    HW230933   2.366   4.134   5.831  1.8050 -1.5813 -0.9238
 6491SOL     OW30934   1.699   4.626   8.774 -0.2485  0.2518 -0.5014
 6491SOL    HW130935   1.680   4.695   8.838 -0.3387 -1.3424  1.2124
 6491SOL    HW230936   1.745   4.674   8.706  0.7679 -0.4653 -0.3223
 6492SOL     OW30937   3.360   1.034   7.002  0.0286  0.2378 -0.3019
 6492SOL    HW130938   3.377   1.118   6.961 -0.0715  0.2642 -0.2906
 6492SOL    HW230939   3.266   1.029   7.022 -0.3665  1.8549 -1.8171
 6493SOL     OW30940   3.414   3.381  12.741  0.1769  0.0468  0.0893
 6493SOL    HW130941   3.500   3.399  12.777 -0.1849  0.1718  0.8870
 6493SOL    HW230942   3.370   3.466  12.738  0.9327  0.3823 -2.0034
 6494SOL     OW30943   0.163   3.981   1.401  0.1507 -0.7139 -0.5524
 6494SOL    HW130944   0.096   4.049   1.404  2.6143  1.7039  0.6648
 6494SOL    HW230945   0.219   3.993   1.478 -1.8105  1.6176  0.5193
 6495SOL     OW30946   3.518   2.479   3.029  0.3073  0.2047 -0.3824
 6495SOL    HW130947   3.428   2.447   3.036  0.2288  0.2168 -1.2983
 6495SOL    HW230948   3.537   2.490   3.122 -0.4432 -2.3199  0.0649
 6496SOL     OW30949   0.241   2.154   4.016 -0.6793  0.6132  0.5284
 6496SOL    HW130950   0.292   2.106   3.951 -1.5083  0.6342 -0.1404
 6496SOL    HW230951   0.257   2.109   4.099 -0.9361  0.4553  0.4957
 6497SOL     OW30952   2.441   3.640   5.592 -0.4565  0.1198  0.0572
 6497SOL    HW130953   2.381   3.638   5.517 -1.7436  0.7373  1.0717
 6497SOL    HW230954   2.524   3.637   5.545  0.2221 -2.2074  1.4181
 6498SOL     OW30955   2.476   2.577   3.079  0.3023  0.6649 -0.1937
 6498SOL    HW130956   2.424   2.506   3.118  1.7453 -0.6544 -0.6555
 6498SOL    HW230957   2.504   2.630   3.154 -1.0012  0.4164  0.4804
 6499SOL     OW30958   3.833   1.623   5.547  0.6946 -0.1897  0.3725
 6499SOL    HW130959   3.912   1.638   5.598  1.3641 -0.5420 -0.5702
 6499SOL    HW230960   3.813   1.704   5.499  0.0665  0.3525  1.5456
 6500SOL     OW30961   1.471   3.532   0.407 -0.2574  0.2340 -0.2379
 6500SOL    HW130962   1.546   3.515   0.463 -0.0157 -1.2168 -0.9916
 6500SOL    HW230963   1.503   3.616   0.375  2.3200 -0.4255  0.5838
 6501SOL     OW30964   2.579   0.934   4.905 -0.5176  0.4406 -0.2212
 6501SOL    HW130965   2.613   1.014   4.865  1.2838  0.7374  1.9395
 6501SOL    HW230966   2.537   0.966   4.985 -0.3248 -0.2656  0.1598
 6502SOL     OW30967   2.680   3.754   5.755  0.6322 -0.6043  0.2275
 6502SOL    HW130968   2.683   3.711   5.669  1.0044 -0.6163  0.2490
 6502SOL    HW230969   2.654   3.679   5.809 -2.1033  1.3970  1.7079
 6503SOL     OW30970   4.343   3.315  14.692 -0.5906 -0.7199 -0.1524
 6503SOL    HW130971   4.350   3.222  14.713  3.2683 -0.4627 -0.4236
 6503SOL    HW230972   4.280   3.323  14.620 -1.1998  0.5831  0.5246
 6504SOL     OW30973   1.267   2.319   7.497 -0.0894 -0.3195 -0.0633
 6504SOL    HW130974   1.264   2.410   7.527 -1.6912 -0.3884 -0.0569
 6504SOL    HW230975   1.332   2.277   7.554 -0.5139  0.0647  0.7042
 6505SOL     OW30976   1.514   2.272   5.053 -0.3056 -0.1767 -0.6120
 6505SOL    HW130977   1.482   2.356   5.085  1.0709  0.1312 -0.0457
 6505SOL    HW230978   1.448   2.212   5.088  1.1658 -0.1738  2.1954
 6506SOL     OW30979   3.864   0.142  16.468 -0.3647  0.1941 -0.0463
 6506SOL    HW130980   3.939   0.135  16.527  0.7449  1.3562 -1.3054
 6506SOL    HW230981   3.879   0.059  16.423  0.3301  0.8626 -1.0774
 6507SOL     OW30982   1.050   3.579   2.347  0.1661 -0.3645  0.3293
 6507SOL    HW130983   0.996   3.650   2.313 -0.0410 -0.7109 -0.0572
 6507SOL    HW230984   0.995   3.508   2.314  0.1778  1.2264 -3.1825
 6508SOL     OW30985   3.680   2.040   3.420  0.1500 -0.0412  0.3263
 6508SOL    HW130986   3.753   1.984   3.392  0.1937 -1.5146  3.3822
 6508SOL    HW230987   3.616   1.969   3.419 -0.7324  0.7909 -1.4009
 6509SOL     OW30988   3.279   4.628   3.479 -0.6558  0.8958  0.2695
 6509SOL    HW130989   3.214   4.559   3.463 -1.8488  2.9382 -3.7271
 6509SOL    HW230990   3.250   4.706   3.432 -1.0003  0.0118 -1.0075
 6510SOL     OW30991   0.096   3.061   0.712 -0.7511  0.2026 -0.3983
 6510SOL    HW130992   0.032   3.114   0.760 -0.0479  0.9897 -0.3249
 6510SOL    HW230993   0.053   2.980   0.687 -0.9489  1.0561 -2.8486
 6511SOL     OW30994   1.988   1.564   3.083  0.5209 -0.7340  0.2879
 6511SOL    HW130995   1.996   1.594   3.174  0.2726 -2.6392  0.9305
 6511SOL    HW230996   2.069   1.591   3.039 -0.1655  0.0652 -0.4857
 6512SOL     OW30997   3.239   2.072   8.429 -0.0725 -0.6404  0.0263
 6512SOL    HW130998   3.151   2.079   8.392 -0.3520  3.4457  1.4920
 6512SOL    HW230999   3.245   2.136   8.500 -0.1142  0.6808 -1.1598
 6513SOL     OW31000   3.721   0.052   6.097  0.2216 -0.3992 -0.5994
 6513SOL    HW131001   3.657   0.119   6.120  0.3902 -0.4057 -0.1075
 6513SOL    HW231002   3.803   0.090   6.129 -0.2765  1.7678 -1.9062
 6514SOL     OW31003   3.262   1.359   9.386  0.5821  0.2505 -0.1331
 6514SOL    HW131004   3.320   1.283   9.397 -1.3129 -1.4194 -1.7014
 6514SOL    HW231005   3.323   1.433   9.381  0.3158  0.4054 -1.1843
 6515SOL     OW31006   1.117   0.922  14.978  0.2632  0.7128 -0.2409
 6515SOL    HW131007   1.130   0.904  14.885  0.0996  0.1258 -0.1542
 6515SOL    HW231008   1.093   0.835  15.010 -2.4096  1.2522 -0.7782
 6516SOL     OW31009   3.366   2.194   5.324 -0.0052 -0.2569  0.0877
 6516SOL    HW131010   3.387   2.101   5.339 -0.9289 -0.5229 -0.2259
 6516SOL    HW231011   3.311   2.183   5.247 -1.2988 -1.3351  1.1463
 6517SOL     OW31012   1.222   2.192  14.794 -0.1308 -0.5253  0.1750
 6517SOL    HW131013   1.281   2.207  14.868  1.8614  1.0884 -1.7624
 6517SOL    HW231014   1.244   2.259  14.730 -0.1698  1.6378  2.4390
 6518SOL     OW31015   4.421   0.235   1.200 -0.4128  0.4255 -0.2949
 6518SOL    HW131016   4.381   0.258   1.284  0.8889  0.2834  0.3610
 6518SOL    HW231017   4.400   0.141   1.199 -0.8654  0.5236 -0.1622
 6519SOL     OW31018   3.233   2.895   5.630  0.7825 -0.3091 -0.3386
 6519SOL    HW131019   3.271   2.817   5.588  0.4129 -1.5997  1.7149
 6519SOL    HW231020   3.317   2.920   5.666 -0.0178 -1.8979  2.6244
 6520SOL     OW31021   1.585   1.980   5.218  0.5240  0.2439  0.0119
 6520SOL    HW131022   1.620   2.022   5.296 -0.0918 -0.5205  0.6920
 6520SOL    HW231023   1.663   1.959   5.165  1.4390 -1.2186  1.9461
 6521SOL     OW31024   4.515   1.673   8.214 -0.7191  0.1633  0.2051
 6521SOL    HW131025   4.592   1.657   8.268 -0.3334  0.9626 -0.1162
 6521SOL    HW231026   4.504   1.586   8.175  0.6257 -0.3672  1.0276
 6522SOL     OW31027   1.940   0.552  13.614  0.3388 -0.1851 -0.0864
 6522SOL    HW131028   1.911   0.529  13.702 -1.9278  0.1612 -0.7391
 6522SOL    HW231029   1.922   0.646  13.609 -1.9034 -0.4569  2.7741
 6523SOL     OW31030   4.219   3.645  14.492  0.0328  0.5400 -0.3935
 6523SOL    HW131031   4.291   3.604  14.444  0.7668 -1.9250  2.8401
 6523SOL    HW231032   4.262   3.656  14.577  0.4482 -0.2911 -0.5057
 6524SOL     OW31033   0.832   2.198   6.422  0.2854  0.1589  0.0270
 6524SOL    HW131034   0.781   2.190   6.503 -1.6108  1.5180 -1.0222
 6524SOL    HW231035   0.921   2.171   6.444 -0.6266 -0.8307  2.5457
 6525SOL     OW31036   0.124   2.894   1.317 -0.3886  0.2679 -0.6501
 6525SOL    HW131037   0.122   2.888   1.413  2.4076  1.6810 -0.5208
 6525SOL    HW231038   0.138   2.801   1.299 -1.2794 -0.2710  1.4763
 6526SOL     OW31039   1.655   3.920  16.469 -0.2675  0.1722  0.0964
 6526SOL    HW131040   1.698   3.913  16.554 -0.0514 -2.7428 -0.2251
 6526SOL    HW231041   1.687   3.837  16.432 -0.6782  0.8420 -1.7806
 6527SOL     OW31042   2.917   0.790   9.333 -0.0526 -0.1275 -0.1462
 6527SOL    HW131043   2.915   0.725   9.403 -2.8567 -0.3622 -0.4430
 6527SOL    HW231044   2.858   0.861   9.361 -1.7404 -1.6930  0.2586
 6528SOL     OW31045   4.143   1.393   1.935  0.1141 -0.4815 -0.0854
 6528SOL    HW131046   4.140   1.460   1.866  2.5280 -0.4464 -0.1424
 6528SOL    HW231047   4.196   1.444   1.996 -0.8317 -0.6371  0.8672
 6529SOL     OW31048   0.157   1.301  14.871 -0.3065  0.9319  0.0735
 6529SOL    HW131049   0.079   1.333  14.826 -0.9330 -0.5795  0.0806
 6529SOL    HW231050   0.212   1.380  14.870 -0.0583  0.7538 -0.4740
 6530SOL     OW31051   2.931   2.813   5.252  0.6196  0.0833 -0.4193
 6530SOL    HW131052   2.861   2.879   5.250  1.5024  1.0414  0.1818
 6530SOL    HW231053   2.985   2.849   5.181  0.6729  2.6466  0.9028
 6531SOL     OW31054   2.851   2.821   2.851 -0.1096 -0.2654 -0.1936
 6531SOL    HW131055   2.771   2.875   2.854 -0.3218 -0.6594  1.5460
 6531SOL    HW231056   2.874   2.842   2.761  2.3091 -3.6040 -0.3267
 6532SOL     OW31057   0.144   3.845  17.375  0.1464  0.3865 -0.7162
 6532SOL    HW131058   0.085   3.911  17.411  1.7605  0.7678  1.1755
 6532SOL    HW231059   0.136   3.777  17.442 -2.5292  1.1551 -0.2710
 6533SOL     OW31060   2.858   0.582   8.695 -0.1971  0.3513 -0.6438
 6533SOL    HW131061   2.764   0.596   8.695 -0.5333 -1.7727 -3.1749
 6533SOL    HW231062   2.901   0.665   8.717 -1.1642  1.0048 -1.2038
 6534SOL     OW31063   4.114   3.031   5.206  0.1113  0.2375 -0.0456
 6534SOL    HW131064   4.125   3.072   5.120  0.2172 -1.9261 -1.0791
 6534SOL    HW231065   4.106   2.938   5.183 -2.3069  0.1686  1.0568
 6535SOL     OW31066   4.300   2.463   5.598 -0.5863 -0.2410 -0.1731
 6535SOL    HW131067   4.389   2.470   5.561 -1.1973  0.7450 -1.4883
 6535SOL    HW231068   4.287   2.369   5.609 -0.3994 -0.3441 -0.8205
 6536SOL     OW31069   1.871   3.781   6.425  0.3647  0.3694  0.6137
 6536SOL    HW131070   1.892   3.694   6.391  0.4830  0.5726  0.1662
 6536SOL    HW231071   1.779   3.802   6.409  0.6070 -0.3681 -1.7679
 6537SOL     OW31072   0.488   1.690  11.935 -0.1678 -0.0796  0.2979
 6537SOL    HW131073   0.465   1.642  11.855  1.3780 -0.0048 -0.2000
 6537SOL    HW231074   0.576   1.654  11.945  0.1048  0.2346 -0.9140
 6538SOL     OW31075   4.561   4.476   7.341  0.4356  0.8224 -0.4221
 6538SOL    HW131076   4.534   4.386   7.360  0.5569  0.6931 -0.8580
 6538SOL    HW231077   4.477   4.519   7.323 -0.3618 -0.4846  0.2034
 6539SOL     OW31078   4.472   1.542   0.827  0.7897  0.1753 -0.1023
 6539SOL    HW131079   4.556   1.509   0.795  0.2138 -0.3268 -1.0992
 6539SOL    HW231080   4.504   1.617   0.875 -0.3606  0.1256  0.7570
 6540SOL     OW31081   0.888   1.936   8.495 -0.4582  0.3789  1.1556
 6540SOL    HW131082   0.844   1.955   8.578  0.4030  1.9722  1.2468
 6540SOL    HW231083   0.842   2.003   8.445 -1.4751 -2.0863 -1.1824
 6541SOL     OW31084   4.406   3.050   4.676  0.0099 -0.5949  0.0264
 6541SOL    HW131085   4.462   3.090   4.742  1.1573 -0.8318 -0.8038
 6541SOL    HW231086   4.360   2.982   4.726 -0.6157 -1.3482 -1.5584
 6542SOL     OW31087   1.096   0.485   7.076  0.0501  0.4322 -0.5384
 6542SOL    HW131088   1.108   0.563   7.131 -1.2379 -0.3408  0.8535
 6542SOL    HW231089   1.100   0.535   6.995 -1.9927  1.6552  0.0992
 6543SOL     OW31090   4.588   2.227   8.403  0.0097  0.2978 -0.1248
 6543SOL    HW131091   4.641   2.175   8.343  0.3382 -2.1859  2.3009
 6543SOL    HW231092   4.650   2.228   8.476  0.2258 -2.0530 -0.2757
 6544SOL     OW31093   0.155   1.048   4.440  0.0953 -0.7911  0.4425
 6544SOL    HW131094   0.166   0.994   4.361  0.2758 -1.3238  0.8323
 6544SOL    HW231095   0.061   1.063   4.428 -0.1807 -1.6123  1.6098
 6545SOL     OW31096   2.540   4.286   1.934 -0.0237 -0.1988 -0.2209
 6545SOL    HW131097   2.500   4.341   1.867 -0.5640 -0.7069 -0.3101
 6545SOL    HW231098   2.607   4.344   1.969 -0.1049 -0.0062 -0.3870
 6546SOL     OW31099   2.417   3.791  14.243 -0.4561 -0.3219  0.0695
 6546SOL    HW131100   2.325   3.790  14.216 -0.1672 -2.8625 -0.8762
 6546SOL    HW231101   2.451   3.717  14.193 -2.4886 -0.1007 -1.6328
 6547SOL     OW31102   1.627   0.827  10.427  0.6872 -0.2089 -0.0475
 6547SOL    HW131103   1.693   0.784  10.481 -0.6004 -4.7375 -2.1321
 6547SOL    HW231104   1.567   0.860  10.494 -0.9663 -0.5848 -1.3227
 6548SOL     OW31105   1.680   4.382   8.271 -0.7587  0.0497 -0.7594
 6548SOL    HW131106   1.619   4.309   8.274  0.6745 -1.0187  2.7485
 6548SOL    HW231107   1.676   4.409   8.363  0.0415 -3.4418  0.3012
 6549SOL     OW31108   2.710   4.195   4.326  0.1459  0.3581 -0.2614
 6549SOL    HW131109   2.679   4.275   4.283  1.6006  0.5283 -0.9880
 6549SOL    HW231110   2.625   4.167   4.359  1.3573  0.0458  2.5475
 6550SOL     OW31111   1.855   2.966   8.235  0.5794 -0.2426  0.7579
 6550SOL    HW131112   1.811   2.895   8.187 -1.7705  0.8059  1.4015
 6550SOL    HW231113   1.948   2.944   8.234 -0.1411 -3.3074  0.9546
 6551SOL     OW31114   3.072   1.381  10.298  0.4066  0.4263 -1.1773
 6551SOL    HW131115   2.984   1.346  10.310  0.9899 -0.9313 -0.8595
 6551SOL    HW231116   3.098   1.340  10.215 -0.7617 -1.4826 -0.5849
 6552SOL     OW31117   3.041   0.328  11.615 -0.1348  0.8886 -0.4376
 6552SOL    HW131118   3.104   0.399  11.626 -0.4801  1.2204 -0.6298
 6552SOL    HW231119   3.100   0.255  11.595 -1.9208 -0.7313  0.2554
 6553SOL     OW31120   1.194   1.086  16.970 -0.3396 -0.1239  0.3142
 6553SOL    HW131121   1.225   1.176  16.961 -0.0536 -0.1288  1.2081
 6553SOL    HW231122   1.112   1.092  17.020 -1.8209 -0.2255 -2.0621
 6554SOL     OW31123   4.166   0.971   4.276  0.2380  0.5682  0.2319
 6554SOL    HW131124   4.217   0.960   4.357  0.9526  1.8868 -0.0377
 6554SOL    HW231125   4.098   0.905   4.286 -2.7455  3.5636 -0.3468
 6555SOL     OW31126   3.841   1.920  15.597 -0.5839  0.2829 -0.5855
 6555SOL    HW131127   3.793   1.985  15.546 -1.5466  1.8940  2.3212
 6555SOL    HW231128   3.929   1.924  15.560  0.1073 -3.0307  0.7475
 6556SOL     OW31129   2.521   2.303   8.750  0.4538 -0.2940 -0.0437
 6556SOL    HW131130   2.577   2.256   8.812  0.7119  2.0444  1.4635
 6556SOL    HW231131   2.547   2.387   8.785  0.0208  0.0056 -0.4421
 6557SOL     OW31132   0.025   4.036   6.993 -0.1087  0.3373  0.5934
 6557SOL    HW131133   0.055   4.122   7.023  1.0425 -0.0683  0.6378
 6557SOL    HW231134   0.110   4.010   6.958 -1.1860 -0.2104 -1.5939
 6558SOL     OW31135   2.939   0.196   5.721  0.6114  0.0818 -0.0625
 6558SOL    HW131136   2.903   0.238   5.799  0.1223 -0.8029  0.1898
 6558SOL    HW231137   2.874   0.215   5.653  1.3018  1.2894 -0.3842
 6559SOL     OW31138   1.316   2.890  14.501  0.0954  0.0980 -0.1059
 6559SOL    HW131139   1.408   2.861  14.495 -0.3678 -1.1261 -1.4963
 6559SOL    HW231140   1.334   2.980  14.527 -1.9887 -0.1707  2.2219
 6560SOL     OW31141   2.619   0.048   0.502  0.1176 -0.7022  0.6139
 6560SOL    HW131142   2.627   0.120   0.565  1.8159 -0.0165 -0.3450
 6560SOL    HW231143   2.711   0.036   0.478  0.5948 -0.4816  2.3906
 6561SOL     OW31144   4.039   0.438  12.182  0.0920 -0.0053  0.2168
 6561SOL    HW131145   4.121   0.388  12.178 -0.2484 -0.7029  2.0131
 6561SOL    HW231146   3.972   0.372  12.163  2.8355 -2.7641  0.0843
 6562SOL     OW31147   1.569   1.421   7.681 -0.4062 -0.7290  0.0270
 6562SOL    HW131148   1.536   1.360   7.615  0.1916 -1.3832  0.3269
 6562SOL    HW231149   1.664   1.408   7.675 -0.2508  0.1296  0.5626
 6563SOL     OW31150   2.224   1.884  12.531 -0.3341 -0.3329  0.2084
 6563SOL    HW131151   2.232   1.955  12.467  0.8505 -1.6670 -1.1210
 6563SOL    HW231152   2.135   1.860  12.506 -0.3436  1.4496 -1.4663
 6564SOL     OW31153   3.489   4.219   7.677 -0.4563 -0.6469 -0.6797
 6564SOL    HW131154   3.534   4.283   7.732 -0.4221 -0.1498 -1.2826
 6564SOL    HW231155   3.556   4.190   7.616 -1.3590 -0.8730 -1.5656
 6565SOL     OW31156   0.916   1.261   2.545 -0.4237 -0.2432 -0.4836
 6565SOL    HW131157   0.830   1.239   2.580 -0.1342 -0.6388 -0.0215
 6565SOL    HW231158   0.927   1.213   2.463  2.7355 -1.4541  0.6614
 6566SOL     OW31159   2.342   2.448   2.720  0.2925 -0.7290  0.0235
 6566SOL    HW131160   2.331   2.473   2.628  1.6426  0.5633  0.2204
 6566SOL    HW231161   2.273   2.495   2.767  0.4945  0.2042 -0.6131
 6567SOL     OW31162   3.654   3.281  17.171 -0.9571  0.3323 -0.4501
 6567SOL    HW131163   3.631   3.211  17.110  2.1236 -0.0668 -1.1517
 6567SOL    HW231164   3.630   3.238  17.253  0.9826  1.0559  0.5084
 6568SOL     OW31165   3.705   2.607   9.891 -0.0068  0.0888  0.6428
 6568SOL    HW131166   3.620   2.588   9.931  0.6337 -1.9062  1.0381
 6568SOL    HW231167   3.676   2.674   9.829  2.5757 -0.9032 -1.6360
 6569SOL     OW31168   2.602   0.394   2.824  0.6857  0.0852 -0.1904
 6569SOL    HW131169   2.554   0.311   2.831  0.8368 -0.0434 -0.6329
 6569SOL    HW231170   2.532   0.452   2.854 -0.4737 -1.4995  0.1932
 6570SOL     OW31171   2.459   3.684   1.602 -0.4815 -0.1212  0.0986
 6570SOL    HW131172   2.526   3.624   1.570  0.3723  0.7015  0.3112
 6570SOL    HW231173   2.507   3.767   1.599  1.8907 -1.4384  1.6588
 6571SOL     OW31174   1.319   0.843   5.113 -0.3822 -0.9339 -0.1389
 6571SOL    HW131175   1.284   0.876   5.029 -1.4130 -2.9411 -0.4878
 6571SOL    HW231176   1.239   0.843   5.165  0.8553  0.6424  1.7632
 6572SOL     OW31177   0.972   3.744   6.506 -0.0982 -0.5767 -0.1303
 6572SOL    HW131178   0.933   3.784   6.429  1.8484  0.1337 -0.7312
 6572SOL    HW231179   1.034   3.681   6.470  0.7698  0.3688 -0.3063
 6573SOL     OW31180   3.387   2.629   0.865 -0.4051  0.3911 -0.0346
 6573SOL    HW131181   3.410   2.539   0.842 -3.0260 -0.7218  1.6757
 6573SOL    HW231182   3.458   2.648   0.927  0.2242 -1.4858 -0.1710
 6574SOL     OW31183   0.896   2.991  12.044  0.1333  0.2418 -0.4497
 6574SOL    HW131184   0.969   2.947  12.000  0.8675  1.2314 -0.2147
 6574SOL    HW231185   0.894   2.967  12.137  1.9395  1.2219 -0.1492
 6575SOL     OW31186   0.818   0.669   6.737 -0.2766  0.0564 -0.2693
 6575SOL    HW131187   0.800   0.749   6.687  1.4422 -1.9559 -4.1118
 6575SOL    HW231188   0.831   0.612   6.661 -2.2604  0.2292 -0.7478
 6576SOL     OW31189   4.239   4.678   7.680 -0.0589 -0.1463  0.4849
 6576SOL    HW131190   4.251   0.035   7.622  0.3272  0.3477  1.2013
 6576SOL    HW231191   4.234   0.009   7.762 -0.5356  1.1316 -0.3146
 6577SOL     OW31192   2.319   2.948   5.636 -0.1175  0.0831 -0.2606
 6577SOL    HW131193   2.296   2.886   5.705  3.2844  1.3083  1.9471
 6577SOL    HW231194   2.273   3.029   5.653 -1.5919 -1.0604  1.1228
 6578SOL     OW31195   2.489   0.605  13.046 -0.5678 -0.3083 -0.2761
 6578SOL    HW131196   2.577   0.577  13.019  1.1644 -1.2690  6.2890
 6578SOL    HW231197   2.473   0.695  13.019  1.2491  0.4330  1.1295
 6579SOL     OW31198   2.072   0.716  16.834  0.1430 -0.1380  0.4749
 6579SOL    HW131199   2.016   0.766  16.893  1.3024  1.3497  0.3158
 6579SOL    HW231200   2.030   0.732  16.749 -0.3026 -0.3051  0.6663
 6580SOL     OW31201   3.556   2.571   8.691 -0.2535  0.2441  0.2054
 6580SOL    HW131202   3.519   2.659   8.687 -1.0542 -0.1491 -1.3917
 6580SOL    HW231203   3.651   2.584   8.694 -0.0461 -1.2477  0.1290
 6581SOL     OW31204   1.336   4.636   4.684 -0.4128 -0.3361 -0.5527
 6581SOL    HW131205   1.262   4.691   4.657  0.3500  1.9008  1.9097
 6581SOL    HW231206   1.295   4.561   4.726 -1.7363  0.7620  0.1007
 6582SOL     OW31207   1.514   4.365   7.176 -0.1520 -0.2537 -0.3297
 6582SOL    HW131208   1.500   4.420   7.253 -0.4875 -0.5144 -0.2036
 6582SOL    HW231209   1.482   4.431   7.114 -1.6265  0.4018  1.1229
 6583SOL     OW31210   4.358   0.931   9.318 -0.2963  0.3070 -0.2633
 6583SOL    HW131211   4.330   0.854   9.366 -0.2974  0.2777 -0.3106
 6583SOL    HW231212   4.299   0.920   9.243 -0.3260 -1.1084 -0.0314
 6584SOL     OW31213   0.126   3.153   7.654 -0.1127 -0.4286 -0.1883
 6584SOL    HW131214   0.072   3.145   7.733  1.1400  2.4300  0.9613
 6584SOL    HW231215   0.151   3.245   7.664 -1.6922 -0.0617  0.3768
 6585SOL     OW31216   1.045   3.945   2.504 -0.3313 -0.4871 -0.2671
 6585SOL    HW131217   1.134   3.926   2.532 -0.4485 -2.0394 -0.9653
 6585SOL    HW231218   1.031   3.883   2.432  1.2850 -0.4031 -0.6488
 6586SOL     OW31219   0.339   1.658   2.078 -0.0377  0.6562  0.3935
 6586SOL    HW131220   0.312   1.570   2.104  0.1662 -0.2328 -2.4191
 6586SOL    HW231221   0.253   1.700   2.068 -0.3731 -0.1093  0.1118
 6587SOL     OW31222   1.663   4.148   5.115 -0.0832 -1.0592  0.0722
 6587SOL    HW131223   1.654   4.186   5.203  0.7040 -0.4344 -0.1173
 6587SOL    HW231224   1.575   4.113   5.106 -0.8042  0.2546  1.8896
 6588SOL     OW31225   3.224   3.359   6.852  0.0230  0.5200 -0.2310
 6588SOL    HW131226   3.222   3.348   6.757 -2.2307 -1.1010  0.0192
 6588SOL    HW231227   3.193   3.450   6.855 -2.7793 -0.4979  1.6881
 6589SOL     OW31228   2.091   1.035   4.889 -0.0546 -0.4215  0.2085
 6589SOL    HW131229   2.097   0.991   4.974 -1.1829 -1.2775 -0.1637
 6589SOL    HW231230   2.021   0.987   4.845  0.3109  0.6645 -1.5518
 6590SOL     OW31231   2.300   0.262   6.920 -0.1723 -0.1512 -0.6010
 6590SOL    HW131232   2.368   0.195   6.928  0.7754  0.8196 -0.4526
 6590SOL    HW231233   2.282   0.288   7.011  0.9677 -1.1277 -0.0929
 6591SOL     OW31234   3.181   3.619  15.340 -0.3909 -0.4771 -0.6618
 6591SOL    HW131235   3.133   3.652  15.264 -0.0378  0.7767 -0.3526
 6591SOL    HW231236   3.257   3.677  15.341 -1.8210  1.4000 -0.1396
 6592SOL     OW31237   2.224   3.376  12.196  0.3259 -0.7723  0.6287
 6592SOL    HW131238   2.222   3.459  12.149  0.9460 -0.1866  1.6258
 6592SOL    HW231239   2.309   3.382  12.239  0.8996  2.3854 -0.9426
 6593SOL     OW31240   3.542   4.067  12.763 -0.6539 -0.2616  0.0502
 6593SOL    HW131241   3.539   4.107  12.675  1.1563  1.1315  0.6281
 6593SOL    HW231242   3.589   3.988  12.738 -1.0399 -0.0577 -1.3420
 6594SOL     OW31243   1.784   2.316   6.789 -0.0910 -0.2353 -0.4685
 6594SOL    HW131244   1.764   2.377   6.719  2.2472  0.6700 -0.3543
 6594SOL    HW231245   1.813   2.239   6.740 -1.5624 -0.8242 -0.4162
 6595SOL     OW31246   3.328   2.563  13.366 -0.0218  0.2119 -0.1871
 6595SOL    HW131247   3.247   2.521  13.396 -0.8179  1.9486  0.0747
 6595SOL    HW231248   3.335   2.562  13.271  0.0491  0.7764 -0.1876
 6596SOL     OW31249   0.936   4.539  14.207  0.4378  0.1866 -0.7384
 6596SOL    HW131250   0.851   4.493  14.207 -0.0188  1.0359 -1.6304
 6596SOL    HW231251   0.954   4.559  14.115 -0.4171 -0.3941 -1.0409
 6597SOL     OW31252   0.679   2.068   3.320  0.2556  0.5165  0.4179
 6597SOL    HW131253   0.640   1.983   3.340  0.8821  0.5469  1.7459
 6597SOL    HW231254   0.594   2.107   3.298 -0.2741 -0.4079  0.8365
 6598SOL     OW31255   4.047   1.432   2.545  0.4727  0.6837 -0.2202
 6598SOL    HW131256   4.027   1.354   2.495 -0.9940 -0.3428  1.9841
 6598SOL    HW231257   4.128   1.458   2.501 -0.6844  2.1747 -1.4884
 6599SOL     OW31258   4.125   0.281  13.610  0.3085  0.1099  0.2335
 6599SOL    HW131259   4.111   0.250  13.700 -0.3736  0.2017  0.1638
 6599SOL    HW231260   4.133   0.375  13.630 -1.0324  0.6424 -1.7479
 6600SOL     OW31261   1.934   3.845  11.609  0.1149  0.0258  0.0710
 6600SOL    HW131262   1.875   3.909  11.649 -1.1181 -1.5179  0.7429
 6600SOL    HW231263   1.900   3.768  11.655 -0.1371  0.3485  0.4300
 6601SOL     OW31264   3.352   2.635   9.452  0.4306  0.3293  0.1481
 6601SOL    HW131265   3.338   2.574   9.380  0.5826 -0.7026  0.9819
 6601SOL    HW231266   3.290   2.706   9.441  0.7218  0.3130 -1.5012
 6602SOL     OW31267   0.445   0.573   6.035 -0.6075 -0.3681  0.3621
 6602SOL    HW131268   0.538   0.591   6.051 -1.0115  1.9108  0.2372
 6602SOL    HW231269   0.411   0.550   6.122 -0.7653 -0.0125  0.3959
 6603SOL     OW31270   4.333   3.366   1.572  0.1489 -0.1029 -0.5250
 6603SOL    HW131271   4.316   3.373   1.478  0.0996 -0.1230 -0.5177
 6603SOL    HW231272   4.294   3.279   1.578 -2.8461  1.3200  0.6724
 6604SOL     OW31273   3.999   3.729   4.281  1.2343 -0.1774 -0.1312
 6604SOL    HW131274   3.912   3.767   4.271  1.0379 -0.3771  0.8831
 6604SOL    HW231275   4.001   3.652   4.224 -1.4928 -3.2417  3.9657
 6605SOL     OW31276   4.154   3.352   4.331 -0.3137 -0.5455 -0.2316
 6605SOL    HW131277   4.120   3.270   4.365  0.5453 -1.3248 -1.2435
 6605SOL    HW231278   4.073   3.394   4.302 -0.8952  0.0990  2.2943
 6606SOL     OW31279   2.005   3.411   3.134  0.0707 -0.6566 -0.4583
 6606SOL    HW131280   2.039   3.501   3.132 -0.7813 -0.2831  1.6043
 6606SOL    HW231281   2.023   3.392   3.226  1.0869  0.9308 -0.3245
 6607SOL     OW31282   4.080   1.461   7.098  0.0237 -0.0845 -0.8109
 6607SOL    HW131283   4.048   1.375   7.125  1.0767 -0.3059 -0.2633
 6607SOL    HW231284   4.141   1.475   7.171 -1.4925 -2.0190  0.8395
 6608SOL     OW31285   1.690   0.535   4.545  0.3111  0.0661 -0.5541
 6608SOL    HW131286   1.614   0.520   4.601  0.5434  0.8997 -0.0252
 6608SOL    HW231287   1.653   0.560   4.460  1.0744 -0.0639 -0.9241
 6609SOL     OW31288   0.221   3.443  15.259  0.2600  0.2208 -0.2861
 6609SOL    HW131289   0.223   3.492  15.342  0.5982  1.1983 -0.8751
 6609SOL    HW231290   0.314   3.427  15.244  0.2702 -1.6732  1.7865
 6610SOL     OW31291   1.789   1.672   4.607 -0.2031 -0.5362 -0.1396
 6610SOL    HW131292   1.806   1.707   4.695  1.6579 -3.7695  0.7982
 6610SOL    HW231293   1.782   1.756   4.562  0.0924 -0.5773 -0.2638
 6611SOL     OW31294   3.886   2.402   9.808  0.1543 -0.2067 -0.0578
 6611SOL    HW131295   3.815   2.453   9.848  0.0016 -0.2373 -0.2890
 6611SOL    HW231296   3.890   2.328   9.868 -0.9835 -0.3535 -0.1696
 6612SOL     OW31297   1.540   1.873  16.001  0.2586 -1.0034 -0.0094
 6612SOL    HW131298   1.632   1.879  16.026  0.0188  0.2769  0.5775
 6612SOL    HW231299   1.494   1.919  16.071 -0.0719 -1.8502  0.3251
 6613SOL     OW31300   3.040   1.490   3.352 -0.0101  0.9513 -0.0726
 6613SOL    HW131301   3.071   1.437   3.279  1.7795  1.7909  0.0844
 6613SOL    HW231302   3.088   1.573   3.350 -0.0497  0.9877  0.6133
 6614SOL     OW31303   0.303   2.054   4.264  0.1574 -0.0056  0.1113
 6614SOL    HW131304   0.380   2.007   4.231 -0.6377 -0.4607 -1.1265
 6614SOL    HW231305   0.263   1.974   4.300 -1.7463  0.1974 -1.5098
 6615SOL     OW31306   0.808   0.673   5.451 -0.1695  0.2031  0.1560
 6615SOL    HW131307   0.811   0.737   5.380  0.2117 -0.6059 -0.5529
 6615SOL    HW231308   0.714   0.653   5.447  0.5107 -2.6088 -1.5300
 6616SOL     OW31309   4.269   2.109   3.781  0.3089 -0.3804 -0.0524
 6616SOL    HW131310   4.220   2.036   3.744  0.4403 -0.2304 -0.5311
 6616SOL    HW231311   4.343   2.109   3.719  0.4114 -3.8937  0.1023
 6617SOL     OW31312   4.467   2.782  11.583  0.2425 -0.3493 -0.1705
 6617SOL    HW131313   4.397   2.720  11.598 -0.8474  1.1410  0.8837
 6617SOL    HW231314   4.441   2.789  11.491 -1.1528 -0.0097  0.2493
 6618SOL     OW31315   4.493   2.883   5.856 -0.3913 -0.1100  0.3396
 6618SOL    HW131316   4.413   2.934   5.860 -0.9101 -0.9377  0.5819
 6618SOL    HW231317   4.490   2.858   5.763 -0.2174  1.6496 -0.1306
 6619SOL     OW31318   1.745   1.463  11.585  0.4321  0.0317  0.1969
 6619SOL    HW131319   1.692   1.434  11.510 -0.9745  0.3765  1.0543
 6619SOL    HW231320   1.825   1.492  11.541 -0.5025  2.4179  0.0536
 6620SOL     OW31321   2.298   2.008   5.861 -0.1845 -0.5251 -0.3277
 6620SOL    HW131322   2.353   2.040   5.789  1.0368  0.2560  0.9524
 6620SOL    HW231323   2.369   1.992   5.923  0.2470  0.7981 -0.4707
 6621SOL     OW31324   4.579   4.438  16.283 -0.2952 -0.5577  0.3138
 6621SOL    HW131325   4.591   4.453  16.376 -0.7901 -3.0600  0.7717
 6621SOL    HW231326   4.522   4.361  16.281 -0.7598 -0.2007 -0.3196
 6622SOL     OW31327   0.497   1.511   5.336  0.3747 -0.4583  0.1279
 6622SOL    HW131328   0.456   1.588   5.375 -0.1742 -1.3093  1.2582
 6622SOL    HW231329   0.486   1.441   5.401 -1.4052  0.8969  1.2975
 6623SOL     OW31330   2.201   1.032   9.561 -0.0561 -0.2705 -0.2014
 6623SOL    HW131331   2.243   1.112   9.531  0.9669 -0.0101  1.9366
 6623SOL    HW231332   2.193   1.063   9.651  1.8089 -0.3070 -0.0190
 6624SOL     OW31333   2.177   2.064   7.679  0.2287  0.3580  0.2691
 6624SOL    HW131334   2.130   2.039   7.759 -0.8358  1.5437  0.0188
 6624SOL    HW231335   2.148   2.155   7.681 -0.7440  0.0689 -1.3805
 6625SOL     OW31336   1.081   2.439   1.575 -0.1190 -0.0123 -0.1603
 6625SOL    HW131337   1.054   2.479   1.492  0.3403  0.4929 -0.0614
 6625SOL    HW231338   1.005   2.457   1.629 -0.4890 -0.3478 -0.5629
 6626SOL     OW31339   1.497   3.847   8.337 -0.7663 -0.2054  0.2333
 6626SOL    HW131340   1.462   3.929   8.302 -0.9430 -0.5877 -0.4948
 6626SOL    HW231341   1.411   3.812   8.363 -0.1470 -0.3517  2.1184
 6627SOL     OW31342   3.987   3.784   7.009 -0.2499  0.4157  0.2415
 6627SOL    HW131343   3.941   3.706   6.978 -1.2116  1.3431 -0.6466
 6627SOL    HW231344   4.056   3.783   6.943 -1.4006  1.2479 -0.9747
 6628SOL     OW31345   4.152   2.535   0.064  0.0268  0.1354 -0.2007
 6628SOL    HW131346   4.088   2.467   0.044  1.8984 -1.5044 -0.6369
 6628SOL    HW231347   4.111   2.578   0.139 -0.0274 -0.8304  0.3286
 6629SOL     OW31348   1.038   0.747  12.950 -0.2220  0.1387  0.2502
 6629SOL    HW131349   1.009   0.836  12.930 -1.3288 -0.5554 -1.2298
 6629SOL    HW231350   1.131   0.746  12.927 -0.0939 -0.7211  0.8345
 6630SOL     OW31351   0.480   2.294  11.420  0.2419 -0.3429 -0.4961
 6630SOL    HW131352   0.395   2.338  11.411  1.9051  2.4675 -2.2956
 6630SOL    HW231353   0.506   2.343  11.498 -0.7486  0.8093 -0.8859
 6631SOL     OW31354   2.672   4.083   2.345  0.2129  0.2471  0.0850
 6631SOL    HW131355   2.644   4.108   2.257 -0.2413  0.7666  0.3746
 6631SOL    HW231356   2.742   4.147   2.354  1.8305 -1.5170  0.0487
 6632SOL     OW31357   1.649   0.601   1.356  0.3293  0.5710 -0.0502
 6632SOL    HW131358   1.624   0.660   1.285  0.5257 -0.1991 -0.7501
 6632SOL    HW231359   1.560   0.574   1.380  0.9298 -1.3533 -0.0422
 6633SOL     OW31360   2.262   2.266  16.436  0.1902  0.1062 -0.2015
 6633SOL    HW131361   2.306   2.308  16.510 -0.1060 -2.9179  1.7282
 6633SOL    HW231362   2.249   2.332  16.369 -0.7204 -0.8694 -0.9948
 6634SOL     OW31363   0.970   4.647  13.548 -0.7486  0.1217  0.0626
 6634SOL    HW131364   0.878   4.638  13.572 -0.7069 -1.4073 -0.2942
 6634SOL    HW231365   0.974   4.585  13.474 -0.0509  0.6060 -0.3039
 6635SOL     OW31366   2.155   3.285  12.906 -1.0160 -0.3627 -0.3380
 6635SOL    HW131367   2.207   3.206  12.920 -2.8876 -1.6645 -0.7308
 6635SOL    HW231368   2.103   3.292  12.986 -0.2029 -0.6303  0.2159
 6636SOL     OW31369   3.566   1.320   9.467  0.1016  0.5855 -0.1703
 6636SOL    HW131370   3.553   1.408   9.431 -0.3490 -0.4099 -2.4419
 6636SOL    HW231371   3.623   1.288   9.397  0.2446 -1.2929  0.8296
 6637SOL     OW31372   3.969   3.825   2.464 -0.4213 -0.0575  0.7625
 6637SOL    HW131373   3.965   3.730   2.461 -1.0552  0.0766 -2.5556
 6637SOL    HW231374   3.880   3.854   2.442 -0.4860  0.3323  1.5506
 6638SOL     OW31375   2.791   3.622  14.991 -0.1364 -0.4873 -0.2691
 6638SOL    HW131376   2.711   3.579  15.021 -0.8330  0.5725 -0.5975
 6638SOL    HW231377   2.795   3.690  15.058  0.2375 -2.2837  1.5292
 6639SOL     OW31378   3.718   1.984   2.992 -0.1846  0.0683 -0.4660
 6639SOL    HW131379   3.706   1.925   2.918 -0.4058  0.7417 -0.9647
 6639SOL    HW231380   3.786   2.047   2.968 -1.6129  1.0207 -2.0134
 6640SOL     OW31381   4.581   2.320  11.481  0.1528 -0.3620 -0.1305
 6640SOL    HW131382   4.675   2.304  11.496  0.0755 -2.3335 -1.7291
 6640SOL    HW231383   4.577   2.358  11.394  1.8014  0.2257  0.0435
 6641SOL     OW31384   2.719   3.104   6.698 -0.4848 -0.2360 -0.4946
 6641SOL    HW131385   2.753   3.014   6.697 -1.0770 -0.4314 -1.7314
 6641SOL    HW231386   2.637   3.104   6.650 -0.2756 -1.4599 -0.8544
 6642SOL     OW31387   0.437   1.208   3.988  0.0615  0.0200 -0.2236
 6642SOL    HW131388   0.454   1.296   3.956 -0.6620 -0.3819 -1.7226
 6642SOL    HW231389   0.349   1.222   4.024  0.1961 -0.9438  0.4784
 6643SOL     OW31390   3.303   2.420  11.838 -0.1609 -0.0916 -0.4464
 6643SOL    HW131391   3.264   2.397  11.922  1.1139  2.4937  0.8684
 6643SOL    HW231392   3.309   2.516  11.831  0.3427 -0.0805  0.1272
 6644SOL     OW31393   0.993   0.185   6.018 -0.0050  0.1756 -0.6407
 6644SOL    HW131394   0.930   0.131   6.066  1.0342  0.1624  0.7177
 6644SOL    HW231395   1.064   0.191   6.083  1.9851  0.7656 -2.8692
 6645SOL     OW31396   0.129   0.321   6.658 -0.0499  0.2059  0.0779
 6645SOL    HW131397   0.211   0.370   6.656  0.4051 -0.5974 -0.9690
 6645SOL    HW231398   0.137   0.251   6.722  0.1292 -0.2396 -0.4313
 6646SOL     OW31399   3.790   2.040   9.960  0.4367 -0.3766  0.3370
 6646SOL    HW131400   3.718   2.086  10.003  1.0951 -0.9169  2.0423
 6646SOL    HW231401   3.870   2.090   9.975  0.5610 -0.5132  0.1370
 6647SOL     OW31402   1.206   1.231   8.981  0.0552  0.9606 -0.3737
 6647SOL    HW131403   1.269   1.267   8.918  1.9785 -0.3709  0.7880
 6647SOL    HW231404   1.143   1.304   8.978 -1.2589 -0.1487  0.1980
 6648SOL     OW31405   4.685   3.432   8.957 -0.4155 -0.0929 -0.4305
 6648SOL    HW131406   0.012   3.513   8.936  1.5649 -0.8310  0.9113
 6648SOL    HW231407   4.661   3.453   9.048 -0.9343  0.7514 -0.7666
 6649SOL     OW31408   0.411   0.313   2.412 -0.5713  0.3024 -0.2671
 6649SOL    HW131409   0.453   0.371   2.348  0.5827  0.4303  0.6025
 6649SOL    HW231410   0.457   0.341   2.491 -1.1660 -2.0015  0.8988
 6650SOL     OW31411   3.355   1.018   2.735  0.1873 -0.2877 -0.1319
 6650SOL    HW131412   3.394   1.105   2.748  3.4285 -1.0328 -4.6228
 6650SOL    HW231413   3.341   1.025   2.640  0.0827  0.9868 -0.0300
 6651SOL     OW31414   2.040   3.460  12.550 -0.1081  0.2164  0.1558
 6651SOL    HW131415   2.077   3.517  12.618  0.5399 -0.4179  0.3448
 6651SOL    HW231416   2.113   3.414  12.508 -1.1496 -1.1268 -0.1793
 6652SOL     OW31417   3.115   3.620  16.177  0.3241 -0.1477 -0.5051
 6652SOL    HW131418   3.202   3.582  16.190  0.9664  1.4480 -0.2320
 6652SOL    HW231419   3.102   3.665  16.260 -1.2770  1.8250 -1.8553
 6653SOL     OW31420   3.740   2.882   7.711  0.6492  0.3656 -0.3089
 6653SOL    HW131421   3.810   2.939   7.744 -0.6364  1.9559 -0.3065
 6653SOL    HW231422   3.706   2.834   7.787 -1.1647  0.6486 -0.9513
 6654SOL     OW31423   2.267   3.464  13.124 -0.2311  0.2841 -0.6514
 6654SOL    HW131424   2.182   3.500  13.147  0.6959  2.0213  0.0919
 6654SOL    HW231425   2.274   3.507  13.038 -1.6510 -0.7725 -1.2885
 6655SOL     OW31426   2.326   1.764  15.408  0.4812 -0.1176 -0.9868
 6655SOL    HW131427   2.373   1.848  15.409  0.7191 -0.2521 -0.6156
 6655SOL    HW231428   2.236   1.787  15.386 -0.3135 -1.9124  0.3536
 6656SOL     OW31429   2.703   3.119  13.201  0.0472 -0.3845 -0.1443
 6656SOL    HW131430   2.749   3.188  13.247 -0.9554  1.1867 -1.5134
 6656SOL    HW231431   2.623   3.171  13.188  1.0896  0.7952 -1.7259
 6657SOL     OW31432   1.987   4.554   2.620 -0.1399 -0.0060  0.1147
 6657SOL    HW131433   2.045   4.604   2.677  0.0835 -1.6274  1.3234
 6657SOL    HW231434   1.914   4.538   2.679  1.1522  2.7358  2.4275
 6658SOL     OW31435   2.940   2.147   4.108  0.0325 -0.1964 -0.2723
 6658SOL    HW131436   2.949   2.089   4.033 -2.3294  1.8239 -2.1177
 6658SOL    HW231437   3.013   2.208   4.097 -1.5507  1.6029 -0.7541
 6659SOL     OW31438   4.158   1.335   5.524 -0.2843  0.2406 -0.1879
 6659SOL    HW131439   4.197   1.412   5.482 -0.4228  0.4537  0.0696
 6659SOL    HW231440   4.238   1.287   5.548 -1.0234 -0.9846 -0.1753
 6660SOL     OW31441   4.559   1.529   5.500 -0.2826  0.1923 -0.4086
 6660SOL    HW131442   4.645   1.524   5.542 -0.9547  1.3748  1.0999
 6660SOL    HW231443   4.494   1.550   5.566  2.3141 -0.6917  2.4418
 6661SOL     OW31444   1.476   4.324   4.344 -0.3563 -0.0314 -0.0862
 6661SOL    HW131445   1.406   4.261   4.363  0.6237 -0.9043  0.6191
 6661SOL    HW231446   1.428   4.405   4.327 -1.3826 -0.5618  0.3018
 6662SOL     OW31447   1.771   4.643  16.504  0.0777  0.5836  0.4392
 6662SOL    HW131448   1.681   4.623  16.478  0.6441 -5.5183  3.2269
 6662SOL    HW231449   1.805   4.554  16.514 -2.7783 -0.4834  0.8133
 6663SOL     OW31450   3.805   1.187  10.686 -0.7161 -0.5902 -0.3912
 6663SOL    HW131451   3.837   1.181  10.776  0.9461  0.3417 -0.9220
 6663SOL    HW231452   3.789   1.094  10.669  0.9515 -0.8597 -0.4555
 6664SOL     OW31453   4.058   2.437  12.754 -0.0409  0.2690  0.6752
 6664SOL    HW131454   4.081   2.435  12.846  0.5286 -2.4316  0.4543
 6664SOL    HW231455   4.106   2.515  12.725 -1.1253  0.9818  0.7730
 6665SOL     OW31456   4.204   0.420   8.906  0.1417 -0.3551  0.2803
 6665SOL    HW131457   4.126   0.446   8.955 -1.3120 -2.0035 -1.1432
 6665SOL    HW231458   4.170   0.335   8.879  0.2836  0.3848 -2.3021
 6666SOL     OW31459   1.279   4.623  13.526  0.2013 -0.1868 -0.2707
 6666SOL    HW131460   1.313   4.577  13.604  1.3574  0.0572 -0.6298
 6666SOL    HW231461   1.253   4.544  13.479  2.0504 -0.4953 -0.7903
 6667SOL     OW31462   0.346   2.455   3.344 -0.1433 -0.1210  0.1375
 6667SOL    HW131463   0.383   2.367   3.338 -1.9002 -0.7834 -0.7837
 6667SOL    HW231464   0.258   2.423   3.364 -0.5691  1.5614  0.9682
 6668SOL     OW31465   4.560   3.010   2.806 -0.6427 -0.2965 -0.3389
 6668SOL    HW131466   4.529   3.028   2.894 -2.8702 -0.0150 -1.1615
 6668SOL    HW231467   4.595   2.922   2.816 -1.7109 -0.7704 -0.6579
 6669SOL     OW31468   0.689   3.506  14.703 -0.9477 -0.3082  0.3552
 6669SOL    HW131469   0.732   3.513  14.618  0.9549  1.7606  1.5021
 6669SOL    HW231470   0.612   3.457  14.674 -0.4269 -0.2535 -1.1296
 6670SOL     OW31471   4.511   1.493   4.503  0.2360  0.8432 -0.3736
 6670SOL    HW131472   4.574   1.537   4.447 -2.1812  0.9907 -2.9854
 6670SOL    HW231473   4.461   1.564   4.543 -2.8426 -0.3437 -2.0760
 6671SOL     OW31474   3.616   0.882  12.597 -0.3429  0.1973  0.3933
 6671SOL    HW131475   3.535   0.911  12.555  0.9102 -1.5722 -3.2302
 6671SOL    HW231476   3.659   0.839  12.523 -0.2231 -1.8332  1.6432
 6672SOL     OW31477   0.692   2.048   9.329 -0.1575 -0.5077  0.4850
 6672SOL    HW131478   0.650   2.012   9.251  1.7834  0.1970 -0.8668
 6672SOL    HW231479   0.716   1.972   9.382 -2.7034 -1.2344  0.6294
 6673SOL     OW31480   3.181   3.160   7.445 -0.1158  0.1785 -0.1192
 6673SOL    HW131481   3.202   3.228   7.381  1.2890 -0.3705 -0.2471
 6673SOL    HW231482   3.188   3.086   7.385 -0.6140  0.4754 -0.5475
 6674SOL     OW31483   2.358   4.360  12.458  0.4232 -0.8936  0.0359
 6674SOL    HW131484   2.446   4.393  12.444  0.9849 -2.3231  0.2667
 6674SOL    HW231485   2.335   4.419  12.530  1.6137  0.6691 -0.8709
 6675SOL     OW31486   1.385   1.902   0.399  0.4463 -0.6577  0.0772
 6675SOL    HW131487   1.299   1.944   0.406  1.0480 -0.1810  4.7639
 6675SOL    HW231488   1.363   1.813   0.428 -0.6288 -0.9023 -1.5423
 6676SOL     OW31489   2.118   2.588  14.415 -0.1792 -0.6775  0.3894
 6676SOL    HW131490   2.175   2.593  14.338  0.6971  0.8534  1.1336
 6676SOL    HW231491   2.153   2.511  14.460  0.4953  0.0288  1.0711
 6677SOL     OW31492   4.577   2.055   4.355  0.0890  0.1516 -0.7113
 6677SOL    HW131493   4.516   2.125   4.378 -0.8593 -0.1482 -2.3168
 6677SOL    HW231494   4.629   2.102   4.290  2.2063 -1.1139  0.0754
 6678SOL     OW31495   0.552   3.564  10.117 -0.2777  0.1226 -0.1335
 6678SOL    HW131496   0.503   3.587  10.038  1.2818 -1.5956 -1.5925
 6678SOL    HW231497   0.639   3.538  10.089 -0.9615  0.1370 -2.2656
 6679SOL     OW31498   0.634   0.731   0.392 -0.0114  0.2044  0.3514
 6679SOL    HW131499   0.630   0.667   0.463  1.7493 -0.5096 -0.1879
 6679SOL    HW231500   0.597   0.685   0.316  0.1218  1.2931 -0.3812
 6680SOL     OW31501   3.047   0.546   9.186 -0.5400  0.4561  0.0579
 6680SOL    HW131502   3.100   0.502   9.121 -1.6992 -0.6002 -0.1836
 6680SOL    HW231503   3.105   0.587   9.250 -1.0748 -1.8181  1.9759
 6681SOL     OW31504   3.572   4.065   7.927 -0.0779 -0.1176 -0.9303
 6681SOL    HW131505   3.595   4.077   7.834  0.3276 -1.8906 -1.0456
 6681SOL    HW231506   3.625   3.987   7.940  0.4872  0.2610 -0.9394
 6682SOL     OW31507   3.425   1.496   6.635 -0.2820 -0.4617  0.1950
 6682SOL    HW131508   3.486   1.500   6.708  0.8349 -1.5821 -0.6860
 6682SOL    HW231509   3.469   1.545   6.566  0.9270 -3.2691 -1.0390
 6683SOL     OW31510   1.469   0.934   2.704 -0.1621  0.7210  0.3537
 6683SOL    HW131511   1.378   0.937   2.675 -0.5779 -2.1251  1.2859
 6683SOL    HW231512   1.516   0.927   2.622 -0.3248  1.0509  0.2329
 6684SOL     OW31513   1.262   3.518  12.798 -0.3207 -0.1338  0.3866
 6684SOL    HW131514   1.190   3.561  12.845  0.9835  1.6589  0.6967
 6684SOL    HW231515   1.259   3.581  12.726  0.0382  1.3066  1.6367
 6685SOL     OW31516   2.700   2.499   5.549 -0.2011 -0.2997 -0.4927
 6685SOL    HW131517   2.647   2.578   5.560 -0.2872 -0.5039  0.6074
 6685SOL    HW231518   2.776   2.542   5.512 -0.0709 -1.1931 -1.2487
 6686SOL     OW31519   0.503   1.773   6.716 -0.0509 -0.5566 -0.2391
 6686SOL    HW131520   0.508   1.835   6.644  0.0327  2.2548  2.1947
 6686SOL    HW231521   0.591   1.737   6.710  1.5928  3.3068  0.9696
 6687SOL     OW31522   1.381   3.942  10.733 -0.1715 -1.0852 -0.8051
 6687SOL    HW131523   1.378   3.892  10.815  0.8091 -0.5499 -0.4459
 6687SOL    HW231524   1.473   3.968  10.741 -0.7807  0.5975  0.6855
 6688SOL     OW31525   1.163   1.755   3.459  0.0313 -0.7766  0.1813
 6688SOL    HW131526   1.068   1.761   3.469 -0.2587  0.7163 -3.3490
 6688SOL    HW231527   1.177   1.671   3.414  1.0169 -0.9333  0.7970
 6689SOL     OW31528   3.622   4.235   2.458  0.0710  0.6538 -0.0554
 6689SOL    HW131529   3.611   4.312   2.402 -0.5117  0.1202 -0.6684
 6689SOL    HW231530   3.651   4.279   2.538 -0.5566  0.4760  0.2679
 6690SOL     OW31531   3.698   1.833  13.817  0.0217 -0.0475  0.0100
 6690SOL    HW131532   3.735   1.861  13.734  1.1196  2.3666  1.2953
 6690SOL    HW231533   3.682   1.740  13.801  2.9565  0.0207 -3.1264
 6691SOL     OW31534   4.705   4.428  12.758  0.9821  0.5949  0.8249
 6691SOL    HW131535   0.042   4.422  12.836  2.1980  1.1286  0.0096
 6691SOL    HW231536   4.686   4.336  12.739  3.7588 -0.3422  2.7069
 6692SOL     OW31537   3.809   1.569   3.305 -0.6022 -0.1971  0.2517
 6692SOL    HW131538   3.883   1.511   3.322  1.1141  1.9614  0.0647
 6692SOL    HW231539   3.798   1.622   3.384 -0.1352 -0.1337  0.2733
 6693SOL     OW31540   0.531   3.348   3.198  0.4376 -0.0455  0.1645
 6693SOL    HW131541   0.537   3.379   3.107 -1.2691 -0.7971 -0.2082
 6693SOL    HW231542   0.541   3.253   3.192 -0.1513 -0.0065 -1.6580
 6694SOL     OW31543   1.701   3.261   9.485  0.8902  0.1226  0.6482
 6694SOL    HW131544   1.793   3.243   9.466  0.6507 -2.5275  2.1405
 6694SOL    HW231545   1.693   3.355   9.465 -0.3101 -0.1718 -0.2733
 6695SOL     OW31546   0.764   3.757   8.847  0.1483  0.0556 -0.0749
 6695SOL    HW131547   0.710   3.691   8.802 -2.0494  1.5653  0.3530
 6695SOL    HW231548   0.854   3.731   8.828  0.2086 -1.4867  2.3263
 6696SOL     OW31549   1.123   0.368   5.693 -0.1124  0.3334 -0.5604
 6696SOL    HW131550   1.035   0.382   5.728  0.0954 -0.0219  0.0861
 6696SOL    HW231551   1.174   0.393   5.769 -0.7461  4.9399 -1.6260
 6697SOL     OW31552   3.905   1.438   5.876  0.1663 -0.2568  0.1608
 6697SOL    HW131553   3.915   1.355   5.829 -0.2439  2.0025 -3.8632
 6697SOL    HW231554   3.857   1.486   5.808  1.2415  1.9611  0.9859
 6698SOL     OW31555   3.685   3.902   5.588 -0.7731  0.4862 -0.3063
 6698SOL    HW131556   3.620   3.965   5.620  0.4254  1.5962 -0.0569
 6698SOL    HW231557   3.746   3.965   5.550 -0.2876 -1.3722 -2.5527
 6699SOL     OW31558   3.054   0.511   4.348 -0.0230 -0.3894 -0.6024
 6699SOL    HW131559   3.125   0.572   4.327  0.5833 -0.5414  1.0294
 6699SOL    HW231560   2.991   0.513   4.277  0.6576  1.0914 -1.1558
 6700SOL     OW31561   2.386   0.314   1.241 -0.2985  1.0653 -0.3213
 6700SOL    HW131562   2.469   0.361   1.237  0.4872 -0.2279  1.1291
 6700SOL    HW231563   2.389   0.266   1.324  1.0969 -1.7159 -1.9870
 6701SOL     OW31564   3.481   4.683   1.721 -0.3616  0.0407  0.3731
 6701SOL    HW131565   3.391   4.703   1.749 -1.0845 -0.7940 -1.4004
 6701SOL    HW231566   3.515   4.624   1.788  1.3278  1.0666  0.4190
 6702SOL     OW31567   2.485   3.551  14.978 -0.0715  0.2374 -0.4540
 6702SOL    HW131568   2.462   3.644  14.975 -1.2677  0.0295  2.9892
 6702SOL    HW231569   2.479   3.529  14.885 -0.0724 -1.4287 -0.0525
 6703SOL     OW31570   1.003   1.025   6.847 -0.1050  0.7990  0.2335
 6703SOL    HW131571   1.018   1.005   6.754  3.3025 -1.9267  1.3712
 6703SOL    HW231572   1.091   1.042   6.879  0.1238 -1.7232  0.9597
 6704SOL     OW31573   1.468   2.001   2.870 -0.4388  0.0642  0.6935
 6704SOL    HW131574   1.523   1.940   2.821 -0.0220 -0.6280  2.0041
 6704SOL    HW231575   1.462   2.079   2.815 -0.5485  0.0375  0.6681
 6705SOL     OW31576   4.300   2.791   8.571 -0.2905 -0.4281 -0.1654
 6705SOL    HW131577   4.286   2.697   8.584 -0.8483  0.1913  3.8108
 6705SOL    HW231578   4.345   2.818   8.651  0.0374 -0.2457 -0.4143
 6706SOL     OW31579   3.166   0.176   3.437  0.2122 -0.0283 -0.3340
 6706SOL    HW131580   3.156   0.270   3.426  1.1458  0.2893  1.4232
 6706SOL    HW231581   3.073   0.156   3.433  0.1470 -0.3311  2.2185
 6707SOL     OW31582   4.451   0.796   8.949  0.0065  0.2586  0.1523
 6707SOL    HW131583   4.518   0.833   9.007  0.8584 -1.2367  0.1354
 6707SOL    HW231584   4.376   0.821   9.003 -0.6604  3.1471 -2.1426
 6708SOL     OW31585   3.284   0.062  14.618 -0.3783 -0.5505  0.3956
 6708SOL    HW131586   3.295   4.712  14.684 -0.6135 -2.0889 -1.1606
 6708SOL    HW231587   3.288   0.010  14.538 -1.1617  1.4130 -0.9248
 6709SOL     OW31588   1.194   1.588  12.991 -0.1892  0.5216  0.0794
 6709SOL    HW131589   1.235   1.660  12.944  0.7536 -0.5426 -0.7337
 6709SOL    HW231590   1.258   1.577  13.062  0.0568 -0.8842 -0.3540
 6710SOL     OW31591   1.788   2.913   2.638  0.1727 -0.5895  0.0103
 6710SOL    HW131592   1.821   2.891   2.551 -0.0654 -2.2225  0.3331
 6710SOL    HW231593   1.753   2.999   2.615  0.0231 -0.5777  0.2892
 6711SOL     OW31594   0.390   1.761   9.074  0.1553  0.1407  0.5304
 6711SOL    HW131595   0.479   1.750   9.041 -0.1842  1.3029 -0.7747
 6711SOL    HW231596   0.399   1.765   9.169 -0.0594 -1.2005  0.5996
 6712SOL     OW31597   0.132   2.636   1.257  0.9106  0.1877  0.5655
 6712SOL    HW131598   0.167   2.601   1.339  1.3394  0.0474  0.3186
 6712SOL    HW231599   0.183   2.573   1.207 -3.2108 -2.7573  0.0559
 6713SOL     OW31600   3.765   2.791   4.047  0.1212 -0.0382  0.4439
 6713SOL    HW131601   3.737   2.790   3.955 -0.2087 -0.8249  0.5476
 6713SOL    HW231602   3.772   2.884   4.068  2.9734 -0.4439  1.2043
 6714SOL     OW31603   0.295   0.195   4.802 -0.4137 -0.2431  0.3322
 6714SOL    HW131604   0.236   0.270   4.795 -2.6084 -2.1872 -1.8233
 6714SOL    HW231605   0.247   0.144   4.867 -2.1601 -0.1667 -0.9094
 6715SOL     OW31606   1.601   3.568  16.634 -0.1405 -0.0280  0.0345
 6715SOL    HW131607   1.651   3.645  16.663 -0.9982  0.8610 -0.8627
 6715SOL    HW231608   1.529   3.570  16.697 -2.3985 -0.6878 -2.5792
 6716SOL     OW31609   2.728   1.562  16.835 -0.4153 -0.1796  0.1746
 6716SOL    HW131610   2.806   1.613  16.858  0.6375 -2.3726  1.4333
 6716SOL    HW231611   2.666   1.584  16.905 -2.4422 -0.1865 -1.6268
 6717SOL     OW31612   2.787   2.413   3.957 -0.7107  0.4263  0.0227
 6717SOL    HW131613   2.739   2.473   3.900 -0.8242  0.6688  0.3744
 6717SOL    HW231614   2.858   2.376   3.905  0.0071  1.0778  0.5445
 6718SOL     OW31615   3.917   4.247   1.352 -0.1432  0.4101 -0.2708
 6718SOL    HW131616   3.935   4.299   1.275 -3.1295  1.2727 -0.3812
 6718SOL    HW231617   3.938   4.308   1.423 -1.4004  1.2136 -0.5776
 6719SOL     OW31618   3.185   1.279   5.921 -0.2000  0.2231 -0.0765
 6719SOL    HW131619   3.181   1.263   5.827 -1.8747 -0.7678  0.1623
 6719SOL    HW231620   3.207   1.372   5.929 -0.4850  0.1939  1.1795
 6720SOL     OW31621   1.942   1.774   0.918 -0.1213  0.0072  0.1604
 6720SOL    HW131622   1.936   1.869   0.909 -0.0683  0.2662  2.7404
 6720SOL    HW231623   1.856   1.742   0.891 -0.7228  0.2931  1.7225
 6721SOL     OW31624   1.010   0.924  14.042  0.8034  0.3675  0.1296
 6721SOL    HW131625   0.933   0.888  13.998 -1.6582  2.0066  2.9785
 6721SOL    HW231626   1.051   0.956  13.962 -1.1923 -1.3995 -1.6006
 6722SOL     OW31627   2.380   4.700   5.925 -0.2629  0.1001 -0.1523
 6722SOL    HW131628   2.321   0.008   5.995 -1.3838 -1.7306 -0.4300
 6722SOL    HW231629   2.354   0.033   5.848 -1.6199 -0.5800 -0.1373
 6723SOL     OW31630   4.101   4.045   2.845  0.5881 -0.2140  0.6452
 6723SOL    HW131631   4.077   4.116   2.904 -2.6958 -0.8927  0.0959
 6723SOL    HW231632   4.078   4.077   2.758 -2.2223  0.6068  1.7179
 6724SOL     OW31633   3.016   4.063   2.631 -0.5627 -0.4080 -0.1512
 6724SOL    HW131634   3.030   4.141   2.578  0.4813 -0.8372 -0.5074
 6724SOL    HW231635   3.100   4.022   2.610 -0.0784  0.3758  0.2694
 6725SOL     OW31636   0.831   3.545   4.518  0.2190 -0.1209 -0.4069
 6725SOL    HW131637   0.780   3.492   4.579 -1.6926  0.5030 -1.4616
 6725SOL    HW231638   0.833   3.633   4.557  1.3540  0.3287 -1.4432
 6726SOL     OW31639   1.604   2.333   4.485  0.2719 -0.3947  0.6640
 6726SOL    HW131640   1.643   2.268   4.427 -3.0861 -0.9105 -1.0219
 6726SOL    HW231641   1.677   2.394   4.495  0.3139  0.0031 -2.1157
 6727SOL     OW31642   2.611   2.409   2.927  0.2688 -0.5689 -0.2746
 6727SOL    HW131643   2.549   2.461   2.978 -0.2485  0.0902 -1.5951
 6727SOL    HW231644   2.674   2.475   2.900 -0.5634  0.6669  0.8375
 6728SOL     OW31645   3.835   1.653   5.084  0.4311 -0.5366  0.1383
 6728SOL    HW131646   3.904   1.644   5.150  1.3303  2.4622 -0.3891
 6728SOL    HW231647   3.830   1.562   5.054 -2.0750 -0.7706  1.2603
 6729SOL     OW31648   2.401   0.328  14.764  0.6131  0.6028 -0.7827
 6729SOL    HW131649   2.469   0.390  14.791  1.2892 -1.4370  2.1332
 6729SOL    HW231650   2.404   0.348  14.670  1.1170  2.6051 -0.3427
 6730SOL     OW31651   0.261   0.547   7.534  0.5180  0.5862  1.2225
 6730SOL    HW131652   0.344   0.501   7.519  0.3408 -0.0533  2.1935
 6730SOL    HW231653   0.242   0.523   7.624 -0.4522  0.3123  0.9361
 6731SOL     OW31654   1.161   2.610   9.995  0.4345 -0.1034  0.5284
 6731SOL    HW131655   1.084   2.614   9.939  0.5526 -0.1139  0.3646
 6731SOL    HW231656   1.185   2.519   9.983  1.9033  0.4836 -0.9969
 6732SOL     OW31657   3.788   3.983   7.052 -1.0679  0.5802  0.4309
 6732SOL    HW131658   3.725   3.937   7.108 -0.1943 -1.4861 -0.2823
 6732SOL    HW231659   3.858   3.918   7.041 -2.4148 -1.3967  3.5366
 6733SOL     OW31660   3.543   4.281   2.154  0.5969  0.6378 -0.2345
 6733SOL    HW131661   3.546   4.362   2.204  2.0725 -0.2000  1.0200
 6733SOL    HW231662   3.576   4.306   2.067 -1.0772  0.0563 -1.0469
 6734SOL     OW31663   1.405   3.636   1.373  0.4367 -0.3355 -0.2273
 6734SOL    HW131664   1.406   3.552   1.419  2.4933 -1.3893 -2.1747
 6734SOL    HW231665   1.412   3.598   1.285 -0.4897  0.0712 -0.4768
 6735SOL     OW31666   0.151   0.903  15.270  0.0994  0.1261 -0.1887
 6735SOL    HW131667   0.196   0.937  15.348  0.7212  1.2690 -1.0415
 6735SOL    HW231668   0.213   0.925  15.200  0.4647 -1.8610 -0.4686
 6736SOL     OW31669   3.984   0.281   6.116 -0.2014  0.3492 -0.0633
 6736SOL    HW131670   4.000   0.271   6.022 -1.1320 -1.5735 -0.0250
 6736SOL    HW231671   3.921   0.352   6.114 -0.5262  0.0905  0.6725
 6737SOL     OW31672   0.560   3.451   7.571  0.4509  0.3482 -0.3311
 6737SOL    HW131673   0.491   3.409   7.520 -0.7193  1.1060  0.6352
 6737SOL    HW231674   0.506   3.510   7.624  0.4939  0.1665 -0.0822
 6738SOL     OW31675   0.577   1.363   7.092 -0.1722 -0.5356 -0.4359
 6738SOL    HW131676   0.540   1.281   7.124  1.8079 -1.0116  0.6162
 6738SOL    HW231677   0.643   1.376   7.160  0.0651 -2.2697 -0.3404
 6739SOL     OW31678   4.284   1.156   3.631 -0.2966 -0.1966  0.0078
 6739SOL    HW131679   4.256   1.170   3.722 -0.0773 -2.4783  0.4029
 6739SOL    HW231680   4.362   1.210   3.621  0.6293 -1.3974  0.8735
 6740SOL     OW31681   3.698   1.185   6.851 -0.2064 -0.1162 -0.0028
 6740SOL    HW131682   3.782   1.230   6.843 -0.1170 -0.6883 -2.2182
 6740SOL    HW231683   3.732   1.124   6.918  1.1150  0.4289 -0.1703
 6741SOL     OW31684   0.957   2.669   2.901  0.1719 -0.0425  0.3947
 6741SOL    HW131685   0.951   2.751   2.951  0.7184  0.2629 -0.0326
 6741SOL    HW231686   0.911   2.611   2.961  0.9167  0.5336  1.5369
 6742SOL     OW31687   4.059   4.620   5.879  0.5339 -0.1053 -0.1464
 6742SOL    HW131688   4.042   4.548   5.941  0.3812 -0.0337 -0.1037
 6742SOL    HW231689   4.081   4.692   5.938 -2.2257 -0.2466  1.0781
 6743SOL     OW31690   0.116   1.641   7.444 -0.8662  0.2137 -0.0570
 6743SOL    HW131691   0.075   1.727   7.458 -0.8688  0.1800  0.1310
 6743SOL    HW231692   0.174   1.622   7.517  0.4541 -1.2761 -1.4864
 6744SOL     OW31693   1.962   3.403  16.235  0.1509  0.7814 -0.3828
 6744SOL    HW131694   1.930   3.463  16.303 -0.1404  0.3117 -0.1007
 6744SOL    HW231695   1.889   3.417  16.174 -1.3899 -1.2868  0.9712
 6745SOL     OW31696   1.647   4.143   6.678 -0.0956 -0.2441  0.0007
 6745SOL    HW131697   1.640   4.238   6.664  1.2542 -0.4185 -1.9465
 6745SOL    HW231698   1.585   4.125   6.749  0.1048  1.6301  0.6616
 6746SOL     OW31699   0.645   1.071  12.075 -0.2793 -0.2611 -0.0238
 6746SOL    HW131700   0.597   1.019  12.139 -0.7798  1.6144  1.1360
 6746SOL    HW231701   0.733   1.042  12.098 -0.4795 -1.0925 -0.3264
 6747SOL     OW31702   1.709   1.821   2.286 -0.0651  0.0251  0.0300
 6747SOL    HW131703   1.704   1.787   2.197  3.0051  1.2916 -0.6307
 6747SOL    HW231704   1.703   1.916   2.272 -1.9265 -0.2581 -1.1403
 6748SOL     OW31705   2.368   2.388  13.269  0.3695 -0.0994 -0.5381
 6748SOL    HW131706   2.341   2.305  13.308 -1.7066 -0.5704 -2.9851
 6748SOL    HW231707   2.455   2.397  13.308  0.1321  0.9400 -0.2590
 6749SOL     OW31708   2.156   2.021  14.703  0.0031 -0.6815  0.2058
 6749SOL    HW131709   2.117   2.080  14.639 -0.2031 -0.6430  0.3679
 6749SOL    HW231710   2.197   2.082  14.764 -1.9330 -0.1402  0.9646
 6750SOL     OW31711   1.732   4.386   2.435  0.5982  0.7135 -0.1611
 6750SOL    HW131712   1.762   4.407   2.346  0.6750 -0.7185 -0.4699
 6750SOL    HW231713   1.637   4.391   2.431  0.4644 -0.3251  2.1475
 6751SOL     OW31714   1.686   1.964   3.429 -0.1120  0.2718 -0.3676
 6751SOL    HW131715   1.779   1.946   3.416  0.4378  2.1551  0.8873
 6751SOL    HW231716   1.669   1.898   3.497  0.0594  1.0072  0.3847
 6752SOL     OW31717   0.849   3.282  12.943 -0.2222 -0.6316  0.0258
 6752SOL    HW131718   0.759   3.310  12.963  0.1338  1.5148 -1.3936
 6752SOL    HW231719   0.850   3.187  12.946 -1.4784 -0.6632 -0.1875
 6753SOL     OW31720   2.469   1.816   3.969  0.2735 -0.1398  0.1015
 6753SOL    HW131721   2.472   1.874   3.893 -0.8380 -1.0606 -0.6365
 6753SOL    HW231722   2.442   1.738   3.921  0.6836  0.0038 -0.3694
 6754SOL     OW31723   2.927   3.227  14.817 -0.2035 -0.5055  0.1665
 6754SOL    HW131724   2.906   3.134  14.813 -0.5098 -0.3758 -1.0203
 6754SOL    HW231725   2.840   3.257  14.792 -0.6752 -1.5222  0.5781
 6755SOL     OW31726   1.005   1.070   7.754  0.1378 -0.5019  0.7592
 6755SOL    HW131727   1.079   1.115   7.794  0.0289 -1.2528  1.8167
 6755SOL    HW231728   1.016   0.976   7.770 -0.1394 -0.9895 -1.8600
 6756SOL     OW31729   1.292   1.054   4.253 -0.0008  0.1273 -0.0978
 6756SOL    HW131730   1.253   1.080   4.169  0.6492  2.4148  0.3318
 6756SOL    HW231731   1.244   1.110   4.313  0.6670 -0.8500  1.3394
 6757SOL     OW31732   0.163   4.134  17.031  0.9726  0.1396 -0.2506
 6757SOL    HW131733   0.164   4.165  17.122  0.1152  0.9552 -0.5161
 6757SOL    HW231734   0.174   4.221  16.993  2.1510  1.0411  2.0808
 6758SOL     OW31735   0.363   3.606   1.893  0.1677 -0.3018  0.1832
 6758SOL    HW131736   0.387   3.538   1.830 -1.8854  0.5526 -1.5222
 6758SOL    HW231737   0.416   3.573   1.965  0.7277  0.7708  0.2588
 6759SOL     OW31738   0.200   4.344   3.913  0.2207  0.3047 -0.4797
 6759SOL    HW131739   0.178   4.378   4.000  1.3105  0.9166 -0.4438
 6759SOL    HW231740   0.239   4.421   3.871  1.3063  0.6967  1.2372
 6760SOL     OW31741   2.282   1.107  16.383 -0.3243  0.5021 -0.0789
 6760SOL    HW131742   2.293   1.039  16.449 -0.7174 -0.7636 -1.3422
 6760SOL    HW231743   2.234   1.055  16.319 -0.2704  2.6683 -1.8649
 6761SOL     OW31744   2.787   2.153  16.868 -0.8905  0.6025 -0.1619
 6761SOL    HW131745   2.769   2.171  16.775 -1.0776  0.6095 -0.1237
 6761SOL    HW231746   2.858   2.216  16.879  0.1706 -0.9724  1.8750
 6762SOL     OW31747   1.606   3.576  12.545 -0.6675  0.1800 -0.1704
 6762SOL    HW131748   1.623   3.614  12.631 -3.8141 -0.7079  0.8405
 6762SOL    HW231749   1.530   3.632  12.526 -0.6241  0.4892  0.5830
 6763SOL     OW31750   3.524   3.504   3.419 -0.5831 -0.0039  0.5167
 6763SOL    HW131751   3.463   3.570   3.454 -1.8862 -1.5517  1.1390
 6763SOL    HW231752   3.560   3.555   3.347  0.0626  0.7380  1.3653
 6764SOL     OW31753   1.629   1.971   7.246 -0.2457 -0.7479 -0.4305
 6764SOL    HW131754   1.583   2.055   7.242 -0.6104 -0.9044  0.5836
 6764SOL    HW231755   1.686   1.993   7.320 -0.0239  2.8394 -1.6776
 6765SOL     OW31756   3.665   0.726   2.400  0.2800 -0.4944 -0.1745
 6765SOL    HW131757   3.583   0.735   2.352 -0.0934  1.8563  0.9019
 6765SOL    HW231758   3.704   0.664   2.338  0.6626  1.2506 -1.6967
 6766SOL     OW31759   3.375   0.246   5.700  0.3310  0.1055 -0.3015
 6766SOL    HW131760   3.303   0.306   5.679 -1.1602 -1.5557  0.0068
 6766SOL    HW231761   3.361   0.228   5.793  2.6617  1.1124  0.2207
 6767SOL     OW31762   2.281   1.406   6.114  0.1139 -0.5639  0.0931
 6767SOL    HW131763   2.200   1.455   6.126  0.2806 -0.2998  0.1265
 6767SOL    HW231764   2.325   1.436   6.193  1.5161 -0.7591 -0.6049
 6768SOL     OW31765   1.624   2.917   6.354 -0.2130  0.1827  0.1427
 6768SOL    HW131766   1.642   3.006   6.324 -0.8956  0.3568  0.2354
 6768SOL    HW231767   1.576   2.890   6.275 -0.4841  0.6339  0.1490
 6769SOL     OW31768   3.831   4.024   7.745 -0.4029  0.1273 -0.1131
 6769SOL    HW131769   3.881   3.950   7.781 -0.8817 -0.2363 -0.1927
 6769SOL    HW231770   3.878   4.104   7.768 -1.8413  0.7565  0.6067
 6770SOL     OW31771   4.405   1.972   6.287 -0.1620  0.0193 -0.5681
 6770SOL    HW131772   4.391   1.896   6.230 -0.0012 -1.4857  1.3922
 6770SOL    HW231773   4.327   2.021   6.261 -1.7243 -1.9501  0.3694
 6771SOL     OW31774   0.826   1.150   7.566  0.7656 -0.7398 -0.4435
 6771SOL    HW131775   0.885   1.099   7.622 -0.2227 -0.4056  0.8877
 6771SOL    HW231776   0.806   1.227   7.620  2.4208  0.3750 -1.4140
 6772SOL     OW31777   3.608   3.513   6.565 -0.1121  0.0022 -0.3336
 6772SOL    HW131778   3.603   3.594   6.616  1.2594 -0.7972  1.0955
 6772SOL    HW231779   3.673   3.462   6.613 -0.3155 -0.2498 -0.3222
 6773SOL     OW31780   0.751   0.637   9.321 -0.0791  0.1289 -0.2812
 6773SOL    HW131781   0.671   0.587   9.332 -1.3568  2.8392  2.9051
 6773SOL    HW231782   0.741   0.698   9.394 -0.8278  0.6465 -0.8103
 6774SOL     OW31783   4.026   2.172  11.769 -0.4874 -0.5480  0.1241
 6774SOL    HW131784   4.007   2.105  11.703  0.6400 -0.3623 -0.3917
 6774SOL    HW231785   4.012   2.249  11.714 -0.9004 -0.9589 -0.3494
 6775SOL     OW31786   3.167   3.656   3.283 -0.1082  0.6512  0.5062
 6775SOL    HW131787   3.099   3.723   3.274  0.0354  0.9143  1.3510
 6775SOL    HW231788   3.118   3.575   3.274  0.2926  0.4309  0.2802
 6776SOL     OW31789   1.353   4.014   9.273 -0.8341 -0.0526 -0.2190
 6776SOL    HW131790   1.290   4.004   9.344 -1.1488  1.6001 -0.2476
 6776SOL    HW231791   1.430   3.969   9.307 -0.7905  1.3703  1.5402
 6777SOL     OW31792   4.203   0.572   5.697 -0.2709 -0.7335  0.0549
 6777SOL    HW131793   4.224   0.556   5.605  3.5629 -1.2261  1.0078
 6777SOL    HW231794   4.144   0.647   5.688  1.4544  0.6753  0.3227
 6778SOL     OW31795   0.762   1.725   6.877 -0.1183 -0.1574 -0.8792
 6778SOL    HW131796   0.775   1.660   6.808 -0.8547 -0.8917 -0.3125
 6778SOL    HW231797   0.848   1.765   6.861  0.2498  1.3918  4.9443
 6779SOL     OW31798   0.313   0.026   7.436  0.2402 -0.3422 -0.4031
 6779SOL    HW131799   0.387   4.685   7.421  0.5500  0.2753 -1.3599
 6779SOL    HW231800   0.263   4.705   7.508  0.1838 -0.1851 -0.3555
 6780SOL     OW31801   1.765   3.342   0.105 -0.6179 -0.3410 -0.1050
 6780SOL    HW131802   1.833   3.309   0.046 -1.7703 -1.4924 -0.7953
 6780SOL    HW231803   1.747   3.428   0.067 -1.2317 -0.5168 -0.2242
 6781SOL     OW31804   2.075   2.087   6.073 -0.4995  0.0191 -0.1956
 6781SOL    HW131805   2.110   2.060   5.989 -0.4227 -2.7079  0.7043
 6781SOL    HW231806   2.113   2.174   6.077  1.8819 -1.0842  0.9284
 6782SOL     OW31807   0.913   2.399   1.190 -0.7349 -0.3091  0.0711
 6782SOL    HW131808   0.966   2.461   1.239 -3.4279  1.5262  0.6766
 6782SOL    HW231809   0.847   2.378   1.256  0.9421 -0.7946  1.5853
 6783SOL     OW31810   0.242   2.988  12.705 -0.2046 -0.2073 -0.0370
 6783SOL    HW131811   0.199   3.073  12.717  0.3791  0.3462 -1.9008
 6783SOL    HW231812   0.167   2.935  12.678  0.3088 -0.2683 -1.3286
 6784SOL     OW31813   0.131   1.918   9.154  0.0635 -0.2843  0.1844
 6784SOL    HW131814   0.215   1.885   9.187  0.1374 -0.5109 -0.2342
 6784SOL    HW231815   0.147   1.962   9.071  2.1413 -0.8006  0.3202
 6785SOL     OW31816   0.900   2.772   4.315 -0.1641 -0.4293 -0.6514
 6785SOL    HW131817   0.810   2.802   4.331  0.6000  1.6765 -0.2485
 6785SOL    HW231818   0.937   2.807   4.396  0.1635 -1.6024 -0.2935
 6786SOL     OW31819   4.665   4.553   2.279 -0.2176  0.5118  0.0704
 6786SOL    HW131820   4.707   4.568   2.363 -1.3012 -2.1479  1.0799
 6786SOL    HW231821   4.607   4.479   2.296 -0.9842  1.3064  0.9088
 6787SOL     OW31822   1.708   1.739  11.373 -0.0002 -0.4452 -0.4023
 6787SOL    HW131823   1.645   1.804  11.402  1.6482  0.4229  1.2393
 6787SOL    HW231824   1.678   1.709  11.287 -0.0943 -0.1382 -0.4770
 6788SOL     OW31825   2.174   2.858   3.131 -0.3294 -0.4390 -0.0625
 6788SOL    HW131826   2.108   2.900   3.076 -0.6396  0.3613  0.9451
 6788SOL    HW231827   2.126   2.801   3.191  1.1801 -3.0835 -1.3400
 6789SOL     OW31828   2.575   1.593  15.103 -0.5454  0.3180  0.5648
 6789SOL    HW131829   2.500   1.539  15.129 -1.4892  1.4848  0.2867
 6789SOL    HW231830   2.631   1.587  15.180  0.4614  0.5431 -0.1442
 6790SOL     OW31831   3.674   4.575   3.212 -0.1150 -0.3248  0.3151
 6790SOL    HW131832   3.632   4.551   3.294 -1.1902  1.6572  0.3340
 6790SOL    HW231833   3.731   4.499   3.196 -0.0563 -0.2515  0.1749
 6791SOL     OW31834   0.118   2.779   8.495  0.0643 -0.1921 -0.4077
 6791SOL    HW131835   0.115   2.684   8.485  2.1568  0.0986 -3.6626
 6791SOL    HW231836   0.202   2.797   8.537  0.4943 -1.8397 -0.5749
 6792SOL     OW31837   0.710   1.083   0.620 -0.3079 -0.5722  0.8965
 6792SOL    HW131838   0.755   1.025   0.682 -1.7840  1.5616  3.9886
 6792SOL    HW231839   0.648   1.021   0.581  0.1499  0.2010 -1.0701
 6793SOL     OW31840   3.045   3.125   2.851 -0.0799  0.5114  0.4522
 6793SOL    HW131841   3.116   3.061   2.846 -0.3744  0.1928  0.3505
 6793SOL    HW231842   2.998   3.115   2.768  1.1636 -1.6780 -0.0022
 6794SOL     OW31843   4.343   2.156   1.055 -0.5270 -0.1066 -0.7810
 6794SOL    HW131844   4.418   2.105   1.085 -1.4116 -1.6255 -1.1702
 6794SOL    HW231845   4.270   2.097   1.039 -1.4474  0.8084  0.0266
 6795SOL     OW31846   0.409   0.369   0.478 -0.6963 -0.0710 -0.0460
 6795SOL    HW131847   0.327   0.413   0.500 -0.5954  0.8982 -1.5812
 6795SOL    HW231848   0.434   0.333   0.562 -2.5043  0.1184  0.5851
 6796SOL     OW31849   2.388   1.420   7.778 -0.0582 -0.5093 -0.5108
 6796SOL    HW131850   2.341   1.359   7.836  2.1179 -1.3636  0.3493
 6796SOL    HW231851   2.399   1.496   7.835  0.2295 -1.4818  0.7390
 6797SOL     OW31852   0.446   3.507   4.187 -0.1487  0.0840  0.0260
 6797SOL    HW131853   0.511   3.577   4.201 -0.8226  0.5441  0.8521
 6797SOL    HW231854   0.480   3.465   4.109 -1.4367 -1.9047  0.5304
 6798SOL     OW31855   1.971   3.930   3.916 -0.2980 -0.6445 -0.5123
 6798SOL    HW131856   1.918   3.985   3.858 -1.3298 -1.3702 -0.2567
 6798SOL    HW231857   1.932   3.843   3.924 -0.3587 -0.4864  0.9744
 6799SOL     OW31858   2.291   4.433   9.429 -0.1468  0.2258  0.4068
 6799SOL    HW131859   2.296   4.338   9.427 -0.8057  0.1716  1.1616
 6799SOL    HW231860   2.241   4.438   9.511  1.5593  0.9015  1.3955
 6800SOL     OW31861   2.646   3.681   6.167  0.1377 -0.3154 -0.6144
 6800SOL    HW131862   2.567   3.677   6.221  0.3574  1.7956 -0.1414
 6800SOL    HW231863   2.707   3.689   6.241  0.6937 -1.3657 -0.9514
 6801SOL     OW31864   1.125   3.510   1.012  0.5053 -0.3044  0.1159
 6801SOL    HW131865   1.079   3.428   1.028  1.4223 -0.8212  0.1368
 6801SOL    HW231866   1.119   3.511   0.916  0.3865 -0.5145  0.1209
 6802SOL     OW31867   0.217   4.427   7.835 -0.6480 -0.2186 -0.3640
 6802SOL    HW131868   0.285   4.458   7.776 -0.7447 -0.6333 -0.6911
 6802SOL    HW231869   0.261   4.352   7.875 -0.1810  1.1328  1.6749
 6803SOL     OW31870   2.350   1.203   8.021  1.1638 -0.2351 -0.4917
 6803SOL    HW131871   2.288   1.257   8.070  0.1137 -2.8641  1.0885
 6803SOL    HW231872   2.397   1.157   8.091 -0.8696 -1.3197  0.1505
 6804SOL     OW31873   0.183   2.618  17.535  0.7783  0.5053  0.2174
 6804SOL    HW131874   0.131   2.550  17.492  0.0109  0.8041  0.6715
 6804SOL    HW231875   0.114   2.676  17.568 -0.7276 -0.1185 -1.8597
 6805SOL     OW31876   2.037   3.364  15.350 -0.7331 -0.1024  0.2165
 6805SOL    HW131877   2.106   3.430  15.339 -0.8949 -0.3106 -2.2102
 6805SOL    HW231878   1.974   3.413  15.403 -0.0847  0.2101  0.6954
 6806SOL     OW31879   1.971   3.025   0.203 -0.4305 -0.1725 -0.6007
 6806SOL    HW131880   1.963   3.052   0.294  1.7383  0.3697 -0.5760
 6806SOL    HW231881   2.026   2.947   0.197 -1.2469 -0.7458 -0.6479
 6807SOL     OW31882   0.270   3.341  15.930 -0.2289 -0.4232  0.1834
 6807SOL    HW131883   0.220   3.406  15.980  2.0996  0.5826  1.1996
 6807SOL    HW231884   0.221   3.260  15.944  1.6899 -1.4264  1.0684
 6808SOL     OW31885   3.400   1.622  10.676 -0.3763  0.0931 -0.0721
 6808SOL    HW131886   3.472   1.684  10.663 -0.4330  0.5148  1.5188
 6808SOL    HW231887   3.327   1.673  10.641  2.9537  4.0861 -1.2111
 6809SOL     OW31888   1.065   3.396   8.369 -0.1587 -0.2699  0.1248
 6809SOL    HW131889   1.125   3.469   8.388  1.3166 -0.7048 -2.8553
 6809SOL    HW231890   1.125   3.329   8.335 -0.7299 -0.9703  0.5122
 6810SOL     OW31891   0.817   0.929  10.557 -0.0105  0.2997  0.3979
 6810SOL    HW131892   0.768   0.853  10.589  0.1516  0.2494  0.5289
 6810SOL    HW231893   0.908   0.909  10.576  0.1823  0.2089 -0.6201
 6811SOL     OW31894   1.619   0.855  13.254 -0.2781  0.0691 -0.1859
 6811SOL    HW131895   1.591   0.858  13.162 -0.7091 -1.0231 -0.0864
 6811SOL    HW231896   1.585   0.942  13.277  0.6284  0.3249  0.1778
 6812SOL     OW31897   4.353   1.058  12.277 -0.2253 -0.9014 -0.3992
 6812SOL    HW131898   4.257   1.059  12.276 -0.2046  0.8864 -1.2723
 6812SOL    HW231899   4.384   1.132  12.329 -1.1752  0.0809 -1.2286
 6813SOL     OW31900   2.033   2.514   4.676 -0.0754  0.3679 -1.2834
 6813SOL    HW131901   1.964   2.493   4.614 -2.3897  1.9943  0.7263
 6813SOL    HW231902   2.112   2.486   4.630 -0.0585 -3.0095  0.7667
 6814SOL     OW31903   2.469   1.811   1.790  0.5941  0.0121  0.0229
 6814SOL    HW131904   2.460   1.762   1.871  0.1708  0.1301  0.0468
 6814SOL    HW231905   2.382   1.799   1.753  0.2908 -1.0428  1.0893
 6815SOL     OW31906   3.959   3.622  14.517  0.4143  0.3175  0.5679
 6815SOL    HW131907   4.051   3.646  14.528  0.5983  0.1499 -0.6244
 6815SOL    HW231908   3.908   3.701  14.532  0.5871  0.1117  2.2426
 6816SOL     OW31909   0.686   3.247  14.463 -0.5903  0.3169  0.4526
 6816SOL    HW131910   0.613   3.303  14.439  0.4615  1.4324 -0.1477
 6816SOL    HW231911   0.651   3.221  14.548  0.6340 -0.8005  0.6295
 6817SOL     OW31912   0.349   1.431   6.963 -0.4090  0.1092 -0.2690
 6817SOL    HW131913   0.363   1.526   6.966  1.5357 -0.1370 -1.1477
 6817SOL    HW231914   0.430   1.412   7.010 -1.0313 -1.2647  0.2176
 6818SOL     OW31915   2.279   3.494   2.690  0.2535  0.1037 -0.2880
 6818SOL    HW131916   2.271   3.456   2.603 -1.2355  0.2229 -0.1918
 6818SOL    HW231917   2.297   3.412   2.735 -2.1932 -0.0151  0.4706
 6819SOL     OW31918   4.660   3.021  17.402 -0.6672  0.2105  0.4086
 6819SOL    HW131919   4.658   3.029  17.498 -0.6776  1.0838  0.3418
 6819SOL    HW231920   4.661   2.926  17.398  1.7943  0.3171 -1.8810
 6820SOL     OW31921   4.373   1.832   3.695  0.9122 -0.1997  0.5038
 6820SOL    HW131922   4.457   1.878   3.699  0.1382  1.0973  1.5507
 6820SOL    HW231923   4.395   1.753   3.646 -0.0202  0.9423 -1.7650
 6821SOL     OW31924   0.085   2.620   7.574  0.0261  0.0221 -0.0908
 6821SOL    HW131925   0.028   2.560   7.623  3.0635 -3.5785 -0.9922
 6821SOL    HW231926   0.084   2.569   7.493  0.6361  0.7784 -0.5696
 6822SOL     OW31927   0.814   2.851  15.513 -0.4833  0.2553  0.9810
 6822SOL    HW131928   0.906   2.828  15.500 -1.0331 -2.3880  1.5874
 6822SOL    HW231929   0.801   2.921  15.450  0.9761 -1.0920 -0.8193
 6823SOL     OW31930   1.026   2.917   4.482  0.6657  0.0835  0.3541
 6823SOL    HW131931   0.986   2.999   4.451 -0.6082  0.2062  2.3118
 6823SOL    HW231932   1.116   2.950   4.489  0.9663 -0.5381 -0.5960
 6824SOL     OW31933   4.003   3.019   6.508 -0.3283 -0.4072  0.2611
 6824SOL    HW131934   3.927   2.986   6.557 -0.3560 -1.6014 -0.5788
 6824SOL    HW231935   3.965   3.100   6.475  0.0471 -0.5424 -0.4881
 6825SOL     OW31936   3.322   4.479   9.002 -0.0318  0.2723  0.1817
 6825SOL    HW131937   3.321   4.386   9.022  2.7713  0.1674 -0.2109
 6825SOL    HW231938   3.345   4.515   9.088  2.9828  1.1863 -1.0284
 6826SOL     OW31939   0.957   0.050   2.440  0.4606  0.4719 -0.5719
 6826SOL    HW131940   0.993   0.134   2.414 -0.6691  1.8183  2.2409
 6826SOL    HW231941   1.038   0.000   2.435  2.1355  2.9329  2.6180
 6827SOL     OW31942   3.603   1.175   8.542 -0.7053 -0.1314  0.4807
 6827SOL    HW131943   3.545   1.100   8.527  0.5332 -0.7504 -1.1566
 6827SOL    HW231944   3.681   1.155   8.490 -0.5199  0.2236  0.6217
 6828SOL     OW31945   2.818   2.742   4.214 -0.6011 -0.0726 -0.6854
 6828SOL    HW131946   2.774   2.740   4.129 -1.1430 -1.6643 -0.3679
 6828SOL    HW231947   2.907   2.713   4.190 -0.6144 -0.9129  0.2688
 6829SOL     OW31948   4.687   3.400  15.831 -0.2788 -0.2876  0.0437
 6829SOL    HW131949   0.003   3.380  15.918 -0.2274  0.7673  0.2716
 6829SOL    HW231950   4.600   3.430  15.855 -0.2908 -0.1147 -0.2103
 6830SOL     OW31951   4.359   1.570   3.556 -0.0288 -0.0049  0.3833
 6830SOL    HW131952   4.400   1.553   3.471  1.2547 -0.1335  1.0213
 6830SOL    HW231953   4.272   1.555   3.520  0.3258 -2.5099  0.5639
 6831SOL     OW31954   4.444   0.272   5.155 -0.2850  0.2055 -0.1067
 6831SOL    HW131955   4.468   0.180   5.153  2.5408  1.0415 -4.0394
 6831SOL    HW231956   4.409   0.290   5.068  0.9583  2.3307 -0.1772
 6832SOL     OW31957   2.918   2.574   2.642  0.7216  0.0740  0.2172
 6832SOL    HW131958   2.983   2.511   2.611  0.6915 -0.6679  1.6891
 6832SOL    HW231959   2.923   2.642   2.575 -1.7019 -0.4888 -0.5460
 6833SOL     OW31960   0.582   1.107   9.469 -0.5033 -0.3122  0.6168
 6833SOL    HW131961   0.570   1.013   9.487 -0.3614 -0.4911 -0.2015
 6833SOL    HW231962   0.608   1.148   9.551 -0.3122 -1.4949  1.1462
 6834SOL     OW31963   2.489   3.124   2.763 -0.3771 -0.8726  0.0216
 6834SOL    HW131964   2.456   3.130   2.674  1.8693  0.5632 -0.7301
 6834SOL    HW231965   2.454   3.204   2.803 -1.2060 -1.3859  0.3261
 6835SOL     OW31966   4.304   4.705   5.038  0.5614 -1.2756 -0.4467
 6835SOL    HW131967   4.351   0.001   5.120 -0.7807 -1.2956  0.3054
 6835SOL    HW231968   4.226   0.040   5.051  0.5624 -1.3308 -0.2261
 6836SOL     OW31969   4.670   2.819   5.213 -0.2823  0.2768  0.0739
 6836SOL    HW131970   0.013   2.884   5.248 -0.3467  0.6726 -0.5462
 6836SOL    HW231971   4.702   2.816   5.123  0.0240 -3.0798  0.3032
 6837SOL     OW31972   0.355   3.156  15.256  0.4336  0.0135 -0.0164
 6837SOL    HW131973   0.350   3.160  15.352  0.3774  0.4290 -0.0338
 6837SOL    HW231974   0.362   3.063  15.236  0.1670 -0.0023 -0.0423
 6838SOL     OW31975   0.926   3.157   2.717  0.4238  0.6493 -0.2534
 6838SOL    HW131976   1.016   3.186   2.734  0.9280 -0.4695 -0.9843
 6838SOL    HW231977   0.873   3.214   2.773  1.6792  0.5505  1.0206
 6839SOL     OW31978   1.555   3.540  16.357  0.3002  0.5768 -0.0810
 6839SOL    HW131979   1.581   3.525  16.448 -0.4260 -0.1913 -0.0054
 6839SOL    HW231980   1.637   3.576  16.321  1.3195 -0.4620  1.1745
 6840SOL     OW31981   0.106   4.352   8.795  0.4887 -0.8073 -0.0296
 6840SOL    HW131982   0.043   4.365   8.866  1.9329 -0.5688  1.2263
 6840SOL    HW231983   0.176   4.300   8.836  1.3762  0.1916 -0.2819
 6841SOL     OW31984   3.230   4.155  11.141  0.2346 -0.0719  0.0047
 6841SOL    HW131985   3.189   4.091  11.200 -2.0760 -0.1494 -1.7050
 6841SOL    HW231986   3.323   4.139  11.156  0.4309 -1.1124 -2.3293
 6842SOL     OW31987   2.338   0.591   3.393  0.6801  0.0603  0.1683
 6842SOL    HW131988   2.308   0.677   3.423  0.1141 -0.3296  0.7249
 6842SOL    HW231989   2.400   0.570   3.463  0.3635 -1.2157  0.0721
 6843SOL     OW31990   1.259   4.266  17.584  0.1296  0.4461  0.3011
 6843SOL    HW131991   1.277   4.190  17.639 -0.5151 -0.3192 -0.5516
 6843SOL    HW231992   1.337   4.273  17.529 -1.0341  0.2488 -1.3442
 6844SOL     OW31993   0.905   3.431   4.083 -0.1394  0.0102  0.0756
 6844SOL    HW131994   0.831   3.408   4.027 -0.4768  0.6044  0.2844
 6844SOL    HW231995   0.863   3.495   4.140  1.5790  1.1716  0.0517
 6845SOL     OW31996   3.818   1.900   2.028 -0.8861  0.2612 -0.0155
 6845SOL    HW131997   3.751   1.908   1.960  0.0534 -0.0058 -0.9870
 6845SOL    HW231998   3.767   1.894   2.109 -0.6758  0.3541  0.1247
 6846SOL     OW31999   2.367   0.412   4.727 -0.5759  0.0334 -0.1899
 6846SOL    HW132000   2.455   0.409   4.767  0.6614  0.3344 -2.8870
 6846SOL    HW232001   2.325   0.327   4.741  0.2947 -0.3216  0.2823
 6847SOL     OW32002   2.750   0.164   7.708 -0.3493  0.7551  0.4950
 6847SOL    HW132003   2.837   0.126   7.709 -0.6950 -0.0393  0.5806
 6847SOL    HW232004   2.697   0.091   7.676  1.8595  0.4618 -2.5293
 6848SOL     OW32005   4.674   2.816  14.880 -0.3740  0.1194  0.1073
 6848SOL    HW132006   4.672   2.783  14.791 -2.5152 -1.3566  0.6910
 6848SOL    HW232007   4.687   2.731  14.922 -2.8064 -0.8092 -1.0128
 6849SOL     OW32008   4.338   1.931   7.284  0.0756  0.0058 -0.0183
 6849SOL    HW132009   4.372   1.994   7.348  0.6300 -0.9502  0.6306
 6849SOL    HW232010   4.387   1.852   7.310 -0.6856 -0.3289  0.3848
 6850SOL     OW32011   4.389   1.621   5.695  0.2899 -0.1505  0.0629
 6850SOL    HW132012   4.350   1.576   5.770  1.7867  0.3039  1.1128
 6850SOL    HW232013   4.416   1.704   5.734  1.0765  0.5961 -2.0738
 6851SOL     OW32014   1.856   2.596   5.148 -0.1540 -0.0691  0.5714
 6851SOL    HW132015   1.761   2.601   5.139 -0.1305  0.7680  0.8497
 6851SOL    HW232016   1.881   2.552   5.067 -0.3144  0.1105  0.4243
 6852SOL     OW32017   1.115   2.243   7.923 -0.8423 -0.4996  0.4363
 6852SOL    HW132018   1.133   2.210   8.011  2.1992  0.5955  0.2183
 6852SOL    HW232019   1.182   2.309   7.910  0.1605 -1.6940 -0.5045
 6853SOL     OW32020   2.461   2.993   4.432  0.5075 -0.3194 -0.0213
 6853SOL    HW132021   2.513   3.066   4.466 -1.3364  1.4911 -1.0680
 6853SOL    HW232022   2.384   2.994   4.490  1.0278  1.7261  0.6333
 6854SOL     OW32023   3.284   2.102   6.773  0.8156  0.3962 -0.1633
 6854SOL    HW132024   3.277   2.014   6.735 -3.1111  0.0300  1.3556
 6854SOL    HW232025   3.203   2.100   6.824  0.6020 -0.2952 -0.5347
 6855SOL     OW32026   2.662   3.213   9.016  0.1172  0.5992  0.0799
 6855SOL    HW132027   2.732   3.276   9.003 -1.0655  1.8761 -0.0516
 6855SOL    HW232028   2.597   3.271   9.056  0.7033  0.5266  1.1284
 6856SOL     OW32029   3.852   1.898   8.526  0.3480  0.4813 -0.3235
 6856SOL    HW132030   3.835   1.865   8.614  0.9950  1.3384  0.1220
 6856SOL    HW232031   3.775   1.944   8.494 -1.1956 -0.9433  1.3697
 6857SOL     OW32032   3.762   3.058   9.773  0.1976 -0.5074  0.3149
 6857SOL    HW132033   3.757   3.116   9.849 -1.7683 -0.3858  0.0816
 6857SOL    HW232034   3.847   3.015   9.784  1.6500  2.4157  0.4974
 6858SOL     OW32035   3.943   1.811  10.449  0.2343 -0.6291 -0.1672
 6858SOL    HW132036   3.865   1.860  10.476  2.1349  1.4437  1.6416
 6858SOL    HW232037   4.011   1.876  10.464 -0.4445  0.3002 -1.0906
 6859SOL     OW32038   0.202   3.839   3.771  0.4165  0.0206  0.2682
 6859SOL    HW132039   0.213   3.927   3.808 -0.3445 -1.3398  3.7529
 6859SOL    HW232040   0.295   3.816   3.775  0.5489  0.4829 -0.1966
 6860SOL     OW32041   1.599   1.723   3.538  0.1945 -0.0203 -0.1249
 6860SOL    HW132042   1.640   1.652   3.587  0.2959 -0.0397 -0.2399
 6860SOL    HW232043   1.536   1.745   3.607 -1.2370  0.4941 -1.5858
 6861SOL     OW32044   0.670   2.267   3.559  0.3228 -0.4878  0.0445
 6861SOL    HW132045   0.626   2.209   3.496  1.0321 -2.4335  1.3532
 6861SOL    HW232046   0.665   2.225   3.645 -1.1197  2.6943  1.5359
 6862SOL     OW32047   1.451   1.702  16.699  0.1988  0.7483  0.5090
 6862SOL    HW132048   1.369   1.743  16.674  0.0555  0.4995  0.5696
 6862SOL    HW232049   1.491   1.697  16.612  0.9101 -0.2733  0.8892
 6863SOL     OW32050   1.716   3.484  12.295 -0.3445 -0.0258 -0.2051
 6863SOL    HW132051   1.681   3.510  12.380  1.2736 -1.0706  0.7675
 6863SOL    HW232052   1.777   3.419  12.328 -2.2133 -0.8892  1.5683
 6864SOL     OW32053   1.749   3.259   3.097 -0.2481 -0.2041  0.7623
 6864SOL    HW132054   1.820   3.321   3.115 -0.6819  0.5838 -0.2520
 6864SOL    HW232055   1.764   3.203   3.173  3.3303  1.4779  1.3005
 6865SOL     OW32056   2.833   3.880   4.147  0.2557  0.1289 -0.7504
 6865SOL    HW132057   2.922   3.854   4.173 -0.7326 -1.7615  0.7327
 6865SOL    HW232058   2.834   3.881   4.052  0.2817 -0.0122 -0.7518
 6866SOL     OW32059   4.421   1.752   9.315 -0.3483 -0.1806 -0.3834
 6866SOL    HW132060   4.379   1.747   9.400  0.6735 -3.4113 -0.0689
 6866SOL    HW232061   4.510   1.721   9.329 -0.6382 -0.6201  0.4553
 6867SOL     OW32062   0.869   0.305   5.792 -0.0371  0.4579  0.1927
 6867SOL    HW132063   0.837   0.239   5.730  0.6862 -0.0237  0.3348
 6867SOL    HW232064   0.909   0.250   5.859  2.5739  0.4498 -1.3945
 6868SOL     OW32065   1.697   0.927   8.586 -0.2968 -0.2407  0.4581
 6868SOL    HW132066   1.700   0.938   8.491 -0.7250 -1.0862  0.3483
 6868SOL    HW232067   1.608   0.962   8.597  0.0037  0.7548 -0.1847
 6869SOL     OW32068   0.297   1.880   8.768 -0.0902 -0.1454  0.7445
 6869SOL    HW132069   0.390   1.898   8.751 -1.0923  1.0308 -3.3058
 6869SOL    HW232070   0.289   1.922   8.854 -1.5506  2.0807 -0.4737
 6870SOL     OW32071   0.276   0.977   6.322 -0.3913  0.4529 -0.5981
 6870SOL    HW132072   0.349   0.967   6.383  0.3718  1.1906 -1.3837
 6870SOL    HW232073   0.318   0.980   6.236  0.4153 -3.4855 -0.3491
 6871SOL     OW32074   0.791   1.653  10.502 -0.3136  0.5268  0.1318
 6871SOL    HW132075   0.702   1.679  10.477 -0.7624  0.8363  2.0845
 6871SOL    HW232076   0.777   1.577  10.559  0.8386  0.4867  0.3628
 6872SOL     OW32077   1.776   1.444   3.602 -0.0441  0.8796  0.3761
 6872SOL    HW132078   1.773   1.355   3.566  3.0464  0.0292  2.2887
 6872SOL    HW232079   1.802   1.495   3.525  0.7042 -0.5276 -0.2941
 6873SOL     OW32080   2.451   3.993  17.602  0.4098  0.0006 -0.7178
 6873SOL    HW132081   2.492   4.018  17.520 -0.3308  0.3892 -0.9733
 6873SOL    HW232082   2.519   4.009  17.668  0.4938 -0.8692 -0.6009
 6874SOL     OW32083   2.584   1.922   2.382  0.3848 -0.2216 -0.6695
 6874SOL    HW132084   2.639   1.961   2.450 -0.5299 -1.1978  0.6471
 6874SOL    HW232085   2.576   1.832   2.412  1.5408 -0.5884 -1.4664
 6875SOL     OW32086   0.113   3.799   7.542 -0.7240  0.3406  0.3648
 6875SOL    HW132087   0.090   3.798   7.449  0.6371 -0.3019  0.0397
 6875SOL    HW232088   0.027   3.800   7.585 -1.1893 -0.1932 -0.5653
 6876SOL     OW32089   3.411   0.017   7.307  0.4254  0.1057  0.2475
 6876SOL    HW132090   3.430   4.673   7.377 -1.7781  1.1511  1.7696
 6876SOL    HW232091   3.325   4.694   7.293  0.5400  0.3126 -1.0268
 6877SOL     OW32092   4.566   2.276   1.625  0.2271 -0.1966  0.0798
 6877SOL    HW132093   4.549   2.211   1.556 -1.6013 -2.0960  2.3120
 6877SOL    HW232094   4.599   2.227   1.700  0.4872  1.2906  0.9284
 6878SOL     OW32095   1.230   3.252   5.001 -0.0809  0.1100 -0.4128
 6878SOL    HW132096   1.152   3.238   5.055  0.2207  1.3334  0.3297
 6878SOL    HW232097   1.226   3.346   4.984  2.3702  0.6264  1.9406
 6879SOL     OW32098   2.999   3.103   5.849  0.6422  0.1147  0.2738
 6879SOL    HW132099   2.903   3.105   5.845  0.7341 -1.2409 -3.1031
 6879SOL    HW232100   3.005   3.129   5.941  2.2520  1.4349 -0.2061
 6880SOL     OW32101   1.477   0.604   6.545 -0.3884  0.1808 -0.0597
 6880SOL    HW132102   1.422   0.633   6.619  0.2473 -0.4053  0.6480
 6880SOL    HW232103   1.549   0.568   6.597  0.0898  0.6466 -0.4005
 6881SOL     OW32104   0.224   1.041  11.521 -0.3125 -0.1706 -0.3853
 6881SOL    HW132105   0.218   1.039  11.425  0.9790  1.2995 -0.5106
 6881SOL    HW232106   0.147   1.098  11.529 -1.7014 -2.2267  0.7337
 6882SOL     OW32107   1.350   2.082   5.206 -0.1517  0.1046 -0.3818
 6882SOL    HW132108   1.439   2.047   5.212 -0.7776 -1.7164 -1.8601
 6882SOL    HW232109   1.300   2.009   5.168  1.4556  0.0220 -2.3211
 6883SOL     OW32110   2.641   1.016   8.801  0.3324 -0.1830  0.1475
 6883SOL    HW132111   2.669   0.999   8.891 -1.6521  0.1332  0.8237
 6883SOL    HW232112   2.550   1.038   8.820  0.1160  1.1189 -2.2743
 6884SOL     OW32113   3.761   0.441   3.308 -0.4621 -0.1822 -0.6748
 6884SOL    HW132114   3.679   0.469   3.349  0.0755  0.5156 -0.0807
 6884SOL    HW232115   3.771   0.345   3.309  0.0263 -0.1268 -0.6015
 6885SOL     OW32116   1.816   0.108   5.289 -0.3710 -0.3437  0.4281
 6885SOL    HW132117   1.745   0.109   5.225 -1.2511  1.7283  1.4214
 6885SOL    HW232118   1.855   0.194   5.273  1.1710 -1.1552 -0.1360
 6886SOL     OW32119   0.734   2.611   8.466 -0.1585  0.1022  0.2973
 6886SOL    HW132120   0.658   2.653   8.426  1.8566  2.1282 -1.4240
 6886SOL    HW232121   0.701   2.540   8.521 -0.7441  0.8761  0.9652
 6887SOL     OW32122   4.586   3.829   6.033 -0.4534  0.1216 -0.3207
 6887SOL    HW132123   4.679   3.815   6.048 -0.9467 -0.0049  2.5334
 6887SOL    HW232124   4.569   3.901   6.092 -2.2198  0.2232 -0.9307
 6888SOL     OW32125   3.211   4.115  16.718 -0.2060 -0.2077  0.3450
 6888SOL    HW132126   3.157   4.124  16.796  2.6175 -0.6834  2.3414
 6888SOL    HW232127   3.267   4.040  16.738  1.9079  1.0656 -0.8705
 6889SOL     OW32128   3.100   1.795   2.363  0.0697  0.0759  0.1347
 6889SOL    HW132129   3.020   1.845   2.345  0.7189 -0.0179 -2.8781
 6889SOL    HW232130   3.098   1.735   2.288  2.3672  0.4053 -0.1764
 6890SOL     OW32131   0.495   0.436   2.901  0.0250 -0.0234 -0.7991
 6890SOL    HW132132   0.513   0.521   2.861 -0.7553  0.1768 -0.7306
 6890SOL    HW232133   0.462   0.461   2.987  1.7825  1.1262 -0.4654
 6891SOL     OW32134   0.350   1.602   5.641  0.6973 -0.7563 -0.8623
 6891SOL    HW132135   0.440   1.630   5.625  0.7485 -0.4792 -0.0681
 6891SOL    HW232136   0.348   1.581   5.734 -0.1507 -1.3038 -0.9993
 6892SOL     OW32137   2.069   1.413   8.892  0.0105  0.8485  0.0745
 6892SOL    HW132138   2.158   1.441   8.872 -0.2909  0.6918 -1.4965
 6892SOL    HW232139   2.033   1.492   8.933  1.2704  2.3257 -1.6853
 6893SOL     OW32140   1.594   3.775   6.436  0.4479 -0.2565  0.1080
 6893SOL    HW132141   1.550   3.766   6.520 -1.2884 -2.4707 -1.0286
 6893SOL    HW232142   1.592   3.683   6.410  0.7956 -0.1075 -0.4566
 6894SOL     OW32143   0.335   3.716   8.559  0.4370  0.4699 -0.1794
 6894SOL    HW132144   0.419   3.763   8.558  1.2855 -0.9937  0.9503
 6894SOL    HW232145   0.319   3.691   8.651  0.3911  3.6740  0.6684
 6895SOL     OW32146   2.559   2.383   0.833 -0.2599  0.2036 -0.4042
 6895SOL    HW132147   2.506   2.347   0.762 -2.3147  0.9488  0.7760
 6895SOL    HW232148   2.592   2.468   0.802 -1.3274  0.9099  0.4057
 6896SOL     OW32149   0.050   4.667  13.737  0.5583  0.5391  0.0955
 6896SOL    HW132150   0.095   4.713  13.665  0.6543  2.6093  1.4797
 6896SOL    HW232151   4.701   0.015  13.751 -1.0404 -0.7031 -1.7073
 6897SOL     OW32152   3.504   1.305   3.014  0.3692 -0.4592 -0.7129
 6897SOL    HW132153   3.533   1.214   3.016  3.4515  0.5559  0.1158
 6897SOL    HW232154   3.437   1.312   2.946 -2.1208  0.3772  1.8043
 6898SOL     OW32155   1.937   3.975   6.174 -0.0484  0.5513 -0.1305
 6898SOL    HW132156   1.981   3.976   6.259 -0.6500 -0.5311  0.1956
 6898SOL    HW232157   1.853   3.943   6.206  0.6474 -1.6183 -0.4232
 6899SOL     OW32158   3.871   0.686   4.591 -0.6720  0.1261 -0.2148
 6899SOL    HW132159   3.956   0.647   4.608 -0.8298 -0.5270 -0.9226
 6899SOL    HW232160   3.861   0.718   4.681 -0.9032  1.1555 -0.6025
 6900SOL     OW32161   1.958   3.755  16.147  0.5432 -0.5804 -0.4283
 6900SOL    HW132162   1.967   3.726  16.057 -1.6324 -0.8925 -0.5464
 6900SOL    HW232163   2.044   3.794  16.163  0.0164  1.5288 -2.7077
 6901SOL     OW32164   1.690   4.496   3.228 -0.3378 -0.0717  0.3372
 6901SOL    HW132165   1.701   4.556   3.154  0.4332 -0.5842  0.0430
 6901SOL    HW232166   1.634   4.555   3.279 -0.7371 -0.8138  0.7517
 6902SOL     OW32167   4.444   1.437   3.325 -0.5474 -0.0312  0.3448
 6902SOL    HW132168   4.450   1.467   3.234 -1.6752 -0.4909  0.1158
 6902SOL    HW232169   4.534   1.412   3.347 -0.5408  0.7880  1.2394
 6903SOL     OW32170   2.588   2.273   4.092  0.3907 -0.0844  0.1040
 6903SOL    HW132171   2.534   2.336   4.043 -1.6580 -0.4687  1.8694
 6903SOL    HW232172   2.670   2.298   4.049  0.0110 -2.3625 -1.8910
 6904SOL     OW32173   0.319   4.416   2.226 -0.1712 -0.1568 -0.5230
 6904SOL    HW132174   0.377   4.375   2.291  0.1683  0.0373 -0.7028
 6904SOL    HW232175   0.233   4.376   2.241 -0.9446  1.1896 -1.3738
 6905SOL     OW32176   0.715   3.408  11.396  0.6875  0.8609 -0.1981
 6905SOL    HW132177   0.637   3.355  11.414  0.5050  1.5099  0.9067
 6905SOL    HW232178   0.767   3.361  11.331 -0.6016  0.3043 -0.8444
 6906SOL     OW32179   4.423   3.422   6.875 -0.4124  0.1185  0.4130
 6906SOL    HW132180   4.437   3.333   6.907  2.0163  0.4261  0.2231
 6906SOL    HW232181   4.411   3.402   6.783  1.1987 -1.7894  0.6153
 6907SOL     OW32182   2.624   2.426  13.369  0.1567  0.3090 -0.1950
 6907SOL    HW132183   2.672   2.413  13.286  0.3373  0.9428 -0.1891
 6907SOL    HW232184   2.692   2.411  13.434  0.0168 -1.4484 -0.4473
 6908SOL     OW32185   2.206   0.820   5.495  0.5460  0.2242  0.3452
 6908SOL    HW132186   2.203   0.914   5.480  0.5800  0.5818  2.6069
 6908SOL    HW232187   2.185   0.822   5.589  1.4592  0.1588  0.5570
 6909SOL     OW32188   0.847   0.433   9.105  0.1572  0.1940 -0.0589
 6909SOL    HW132189   0.883   0.441   9.016 -2.0003  0.8054 -0.8682
 6909SOL    HW232190   0.885   0.514   9.139 -1.4247  0.8378  0.1580
 6910SOL     OW32191   3.435   3.060   5.985  0.0266  0.0713 -0.2075
 6910SOL    HW132192   3.358   3.083   6.037 -0.6583 -2.9859  0.1420
 6910SOL    HW232193   3.417   2.968   5.965  0.9777  0.2207 -1.7371
 6911SOL     OW32194   4.160   0.602   1.447 -0.0322 -0.1537 -0.8726
 6911SOL    HW132195   4.082   0.547   1.461 -1.8788  2.4302 -1.0648
 6911SOL    HW232196   4.185   0.567   1.362 -2.3283 -1.1231 -1.1679
 6912SOL     OW32197   1.075   3.559   5.582  0.4334  0.2886 -0.1421
 6912SOL    HW132198   1.080   3.464   5.579  0.7904  0.3869 -3.2269
 6912SOL    HW232199   1.165   3.587   5.568 -0.3758  3.3589  0.8213
 6913SOL     OW32200   0.976   3.812   5.144  0.8760 -0.0404  0.3550
 6913SOL    HW132201   0.921   3.804   5.065  1.7426 -1.9171 -0.0675
 6913SOL    HW232202   0.952   3.894   5.186 -1.4474  0.0424 -1.1085
 6914SOL     OW32203   2.550   4.669  11.864  0.0856  0.4179  0.1347
 6914SOL    HW132204   2.557   0.043  11.891  1.1150 -0.1295  1.7143
 6914SOL    HW232205   2.523   4.634  11.949 -0.1433  1.2633  0.4099
 6915SOL     OW32206   3.876   3.326  17.503  0.5781  0.2103 -0.6968
 6915SOL    HW132207   3.928   3.292  17.576  1.4241  1.0749 -0.8829
 6915SOL    HW232208   3.786   3.314  17.532  1.0747 -0.5631  0.5279
 6916SOL     OW32209   4.021   2.978   9.322 -0.1795 -0.2115  0.3582
 6916SOL    HW132210   4.099   2.965   9.376 -0.1338  1.1386  0.6243
 6916SOL    HW232211   3.958   2.989   9.393  0.4320 -1.9979  1.1706
 6917SOL     OW32212   4.327   4.144   9.099 -0.4214 -0.2852  0.0640
 6917SOL    HW132213   4.280   4.184   9.172 -0.0852  0.2039  0.0119
 6917SOL    HW232214   4.270   4.140   9.022  2.1044  0.1148 -1.8046
 6918SOL     OW32215   4.144   1.947   8.240 -0.0159  0.5966  0.1849
 6918SOL    HW132216   4.225   1.909   8.205 -0.8546 -1.5676  0.6293
 6918SOL    HW232217   4.177   2.002   8.311 -0.9455  0.4441  0.7307
 6919SOL     OW32218   0.434   2.919  14.837  0.3777  0.1825  0.6601
 6919SOL    HW132219   0.486   2.892  14.913  2.8066  1.2824 -0.6186
 6919SOL    HW232220   0.357   2.955  14.882  0.2014  0.6371 -0.0071
 6920SOL     OW32221   4.365   4.484   9.372 -0.6236 -0.2596  0.2791
 6920SOL    HW132222   4.420   4.407   9.390 -0.8755 -0.0515  1.8560
 6920SOL    HW232223   4.306   4.446   9.306 -2.1969  2.1321  0.3178
 6921SOL     OW32224   4.387   3.300   5.556 -0.2064 -0.3698  0.0945
 6921SOL    HW132225   4.396   3.271   5.647 -3.1364 -0.0013  0.4862
 6921SOL    HW232226   4.298   3.277   5.529 -0.1533 -0.3562 -0.0914
 6922SOL     OW32227   4.264   3.684   0.863 -0.2281  0.3512 -0.0234
 6922SOL    HW132228   4.263   3.768   0.818  2.0367  0.2810 -0.2326
 6922SOL    HW232229   4.358   3.668   0.868 -0.2588  0.1883  0.0200
 6923SOL     OW32230   3.442   0.782   6.139  0.2689  0.4420  0.2239
 6923SOL    HW132231   3.401   0.833   6.209 -1.2825 -0.0802 -0.3121
 6923SOL    HW232232   3.517   0.742   6.183 -0.3126 -0.7204  0.1509
 6924SOL     OW32233   4.144   1.382   4.498  0.0964  0.2310 -0.6397
 6924SOL    HW132234   4.052   1.360   4.484  0.1076  0.0074 -0.3538
 6924SOL    HW232235   4.175   1.376   4.408  0.8239  3.1108 -0.5715
 6925SOL     OW32236   1.103   3.479   9.581 -0.3847  0.4065  0.0337
 6925SOL    HW132237   1.169   3.417   9.613 -0.0625  1.4744  1.4508
 6925SOL    HW232238   1.037   3.414   9.558  0.5970 -0.6618  0.2490
 6926SOL     OW32239   1.055   3.259  13.907  0.0234 -0.0063  0.0466
 6926SOL    HW132240   1.135   3.291  13.948  0.0036 -0.4785  0.4673
 6926SOL    HW232241   0.989   3.326  13.923 -0.6633 -0.3482 -1.3684
 6927SOL     OW32242   1.102   1.455  16.139 -0.3276 -0.2505 -0.6693
 6927SOL    HW132243   1.021   1.429  16.096 -0.3460  2.0721 -2.0230
 6927SOL    HW232244   1.173   1.431  16.080  0.2736  3.1674 -1.3042
 6928SOL     OW32245   4.694   2.746   1.028  0.0871 -0.1843  0.0200
 6928SOL    HW132246   0.025   2.745   0.947  0.0143  1.6782 -0.0391
 6928SOL    HW232247   0.032   2.678   1.065  3.6901  1.7195 -1.9918
 6929SOL     OW32248   1.448   4.676   1.947  0.1653  0.1422 -0.2266
 6929SOL    HW132249   1.526   0.002   1.913  1.2192 -0.4827  1.3864
 6929SOL    HW232250   1.492   4.637   2.023 -0.6876 -0.0303  0.1753
 6930SOL     OW32251   4.540   2.904   5.582 -0.2667 -0.0568  0.4219
 6930SOL    HW132252   4.620   2.951   5.604  0.7495 -1.7045  0.2333
 6930SOL    HW232253   4.578   2.831   5.534 -1.3035 -0.6313  0.4650
 6931SOL     OW32254   3.886   2.647   7.227 -0.0370  0.4341 -0.1681
 6931SOL    HW132255   3.924   2.721   7.179  0.6962 -1.2382 -2.2098
 6931SOL    HW232256   3.867   2.694   7.308  1.6067 -1.1567  1.1527
 6932SOL     OW32257   1.461   1.473   7.229 -0.4172  0.7133 -0.5160
 6932SOL    HW132258   1.543   1.428   7.210 -0.6591 -0.1352  0.4460
 6932SOL    HW232259   1.478   1.555   7.275 -0.6635 -1.2463  3.0939
 6933SOL     OW32260   2.951   3.614   3.672 -0.5626  0.0782  0.5844
 6933SOL    HW132261   2.904   3.695   3.653 -0.8153 -0.3856 -0.7513
 6933SOL    HW232262   2.922   3.599   3.762 -2.6856  1.8662  0.2073
 6934SOL     OW32263   1.726   2.821   4.877 -0.8115  0.3962  0.0222
 6934SOL    HW132264   1.782   2.884   4.833 -1.6636  1.0548 -0.1152
 6934SOL    HW232265   1.749   2.838   4.969  0.0507 -2.1247  0.2778
 6935SOL     OW32266   1.930   2.792  16.479  0.0544 -0.2041  0.7177
 6935SOL    HW132267   1.917   2.880  16.443 -3.1453 -0.8725  0.2647
 6935SOL    HW232268   1.852   2.777  16.532  0.9140 -2.4654  1.3305
 6936SOL     OW32269   4.463   1.800   3.319  0.1788 -0.2052  0.3564
 6936SOL    HW132270   4.407   1.869   3.354  1.4432  0.0390  1.8816
 6936SOL    HW232271   4.396   1.754   3.267  0.6399 -0.1948 -0.2430
 6937SOL     OW32272   3.085   2.812   2.963  0.2154 -0.4437 -0.5274
 6937SOL    HW132273   3.009   2.789   2.910  0.2956  0.3027 -0.9746
 6937SOL    HW232274   3.151   2.770   2.907  0.6444  0.9867 -1.1086
 6938SOL     OW32275   1.346   2.520   7.187 -0.2873 -0.2166  0.2608
 6938SOL    HW132276   1.427   2.494   7.231  0.6595  1.8839 -0.2146
 6938SOL    HW232277   1.374   2.525   7.095 -1.0635 -0.7954 -0.0096
 6939SOL     OW32278   1.874   2.298   2.910 -0.0112 -0.1193 -0.5257
 6939SOL    HW132279   1.885   2.393   2.901  3.3661 -0.2277  2.2933
 6939SOL    HW232280   1.950   2.271   2.962 -0.0411  0.3919 -0.2132
 6940SOL     OW32281   2.106   4.378   5.702  0.5685 -0.2255 -0.9647
 6940SOL    HW132282   2.180   4.433   5.725  1.4462 -1.7045 -0.2618
 6940SOL    HW232283   2.156   4.300   5.678  3.9640  0.8059  2.8744
 6941SOL     OW32284   1.327   2.495   2.715 -0.9537 -0.2057 -0.0760
 6941SOL    HW132285   1.243   2.534   2.690 -0.2573  1.1457 -0.3084
 6941SOL    HW232286   1.347   2.430   2.648  1.2686  0.1232  0.2692
 6942SOL     OW32287   3.054   3.500   4.162  0.0131 -0.3243 -0.4861
 6942SOL    HW132288   3.071   3.485   4.069 -2.0480  2.3770 -1.2949
 6942SOL    HW232289   3.041   3.412   4.196  2.0935  0.0145  1.2372
 6943SOL     OW32290   2.845   0.546  14.052 -0.4938 -0.0489 -0.0476
 6943SOL    HW132291   2.759   0.580  14.025 -0.7637  0.8021  1.8850
 6943SOL    HW232292   2.893   0.604  13.992 -0.6862  0.5168  0.3399
 6944SOL     OW32293   2.924   4.179   6.611  0.1685 -0.1391 -0.1107
 6944SOL    HW132294   2.994   4.198   6.548 -1.3002 -0.1224 -1.7592
 6944SOL    HW232295   2.930   4.083   6.618 -1.1038 -0.2509 -0.5480
 6945SOL     OW32296   4.408   4.232   5.470 -0.0915  0.1147 -0.6813
 6945SOL    HW132297   4.316   4.250   5.490  0.4787  0.1721  1.9012
 6945SOL    HW232298   4.458   4.263   5.546  1.3562 -1.2586 -1.0652
 6946SOL     OW32299   1.117   0.755  14.282 -0.4244 -0.0989 -0.3730
 6946SOL    HW132300   1.097   0.832  14.228 -1.0990 -0.0566 -0.0676
 6946SOL    HW232301   1.211   0.752  14.298 -0.3993  1.8459 -0.1593
 6947SOL     OW32302   3.930   1.456   0.971 -0.1188  0.3032 -0.6689
 6947SOL    HW132303   3.967   1.482   0.886  0.3755  0.6649 -0.3374
 6947SOL    HW232304   3.941   1.533   1.027 -0.8205 -0.0340 -0.0692
 6948SOL     OW32305   1.630   4.655   2.991 -1.0543 -0.6207 -0.1663
 6948SOL    HW132306   1.609   4.629   2.902  1.2144 -0.2073 -0.8427
 6948SOL    HW232307   1.595   0.026   2.992 -3.2996 -1.5305  1.2046
 6949SOL     OW32308   4.659   4.492   1.668  0.4657  0.1003  0.0526
 6949SOL    HW132309   4.588   4.487   1.604  0.4140  1.2452  0.0104
 6949SOL    HW232310   4.623   4.456   1.749  2.8307  0.9150  1.4792
 6950SOL     OW32311   0.097   4.434  14.172  0.4936  0.4278 -0.1545
 6950SOL    HW132312   0.118   4.342  14.154  1.4624  0.1684  2.2590
 6950SOL    HW232313   0.024   4.422  14.233  1.0591 -0.5468  0.3411
 6951SOL     OW32314   4.599   4.545   7.601  0.1493  0.2936  0.2756
 6951SOL    HW132315   4.584   4.524   7.509  0.4945  2.3014 -0.2238
 6951SOL    HW232316   4.581   4.639   7.595  0.4745  0.2282 -1.7171
 6952SOL     OW32317   2.725   1.836   8.930  0.6460 -0.1944  0.0497
 6952SOL    HW132318   2.659   1.771   8.907 -0.1509 -0.5056  3.2635
 6952SOL    HW232319   2.804   1.799   8.890  0.1793  1.7925 -2.7399
 6953SOL     OW32320   0.584   1.002   4.857  0.0389  0.1055 -0.0260
 6953SOL    HW132321   0.593   1.089   4.895  2.2273 -0.6722  1.2283
 6953SOL    HW232322   0.600   1.021   4.764 -0.3731 -0.2848 -0.1831
 6954SOL     OW32323   1.237   4.107   6.046 -0.3163  0.6970 -0.0811
 6954SOL    HW132324   1.297   4.181   6.051 -0.4904  0.8539 -0.3280
 6954SOL    HW232325   1.301   4.045   6.010 -0.9115  1.1349 -1.8660
 6955SOL     OW32326   0.451   4.265  12.234  0.1592  0.5584  0.2292
 6955SOL    HW132327   0.380   4.274  12.171  2.2107  0.7494 -2.0810
 6955SOL    HW232328   0.479   4.176  12.212  1.6529  1.2803 -0.8322
 6956SOL     OW32329   0.617   0.075   8.414  0.2140  0.2796  0.0743
 6956SOL    HW132330   0.576   0.141   8.470  1.1634 -1.3951  2.7298
 6956SOL    HW232331   0.665   0.029   8.482 -0.2670 -0.1350  0.1353
 6957SOL     OW32332   1.834   4.086  14.002  0.6355 -0.0331 -0.2760
 6957SOL    HW132333   1.880   4.054  13.924 -0.1474 -0.3384 -0.6089
 6957SOL    HW232334   1.746   4.100  13.967  0.1435 -1.3870  0.4234
 6958SOL     OW32335   1.494   4.197   1.479  0.4350  0.0478  0.5445
 6958SOL    HW132336   1.418   4.219   1.534 -0.2671 -1.4500  0.1867
 6958SOL    HW232337   1.562   4.249   1.521 -0.1376  0.5083  0.9006
 6959SOL     OW32338   4.122   1.363   8.054 -0.1250 -0.1534 -0.0887
 6959SOL    HW132339   4.122   1.282   8.106 -1.5903  0.3276  0.6590
 6959SOL    HW232340   4.078   1.429   8.108  2.8020  0.7036  1.2743
 6960SOL     OW32341   1.013   2.152   9.453  0.0950 -0.2826 -0.1335
 6960SOL    HW132342   0.962   2.127   9.530 -0.9570  0.5513 -0.5609
 6960SOL    HW232343   1.091   2.191   9.493 -1.1303  4.2181 -2.1540
 6961SOL     OW32344   1.292   4.673  12.153  0.1669 -0.9003 -0.4262
 6961SOL    HW132345   1.348   0.021  12.111  0.9868 -1.5381 -0.3508
 6961SOL    HW232346   1.212   0.007  12.150  0.5054 -0.4698 -2.3779
 6962SOL     OW32347   3.359   0.757  10.438 -0.0234 -0.4396  0.1735
 6962SOL    HW132348   3.316   0.697  10.498  2.9750 -0.0698  2.7073
 6962SOL    HW232349   3.286   0.757  10.376  1.4923  2.1994 -1.6285
 6963SOL     OW32350   2.614   3.010   2.336  0.1338  0.0210 -0.2517
 6963SOL    HW132351   2.607   3.102   2.310 -2.2221  0.1795  0.9473
 6963SOL    HW232352   2.523   3.000   2.365 -0.0410  1.9483 -0.1829
 6964SOL     OW32353   3.166   0.426  10.810 -0.1619 -0.5093  0.3648
 6964SOL    HW132354   3.165   0.519  10.791  1.4629 -0.3686  0.9317
 6964SOL    HW232355   3.110   0.392  10.740 -0.9723  0.6517  0.4616
 6965SOL     OW32356   4.541   2.761   6.868 -0.4587  0.3303  0.6387
 6965SOL    HW132357   4.489   2.837   6.896  2.8915  2.4228  1.1956
 6965SOL    HW232358   4.564   2.782   6.777 -0.6738  0.3687  0.5923
 6966SOL     OW32359   3.619   1.192   9.076 -0.0229  0.0805  0.1351
 6966SOL    HW132360   3.551   1.131   9.049 -0.2090  0.5051 -0.3430
 6966SOL    HW232361   3.687   1.183   9.009  0.1957 -2.3255  0.6788
 6967SOL     OW32362   1.997   2.936  13.317  0.3047  0.2875 -0.4520
 6967SOL    HW132363   1.973   2.856  13.364 -1.0119  1.5415  1.0124
 6967SOL    HW232364   2.068   2.963  13.375  0.0976 -1.3782  0.5785
 6968SOL     OW32365   3.013   4.184   3.727  0.2982  0.1534  0.1310
 6968SOL    HW132366   2.933   4.207   3.775 -1.0407 -1.1792 -1.4576
 6968SOL    HW232367   3.004   4.090   3.712  0.3679  0.2501 -0.5060
 6969SOL     OW32368   1.006   3.313   8.982 -0.3895  0.3017  0.3231
 6969SOL    HW132369   1.089   3.308   9.030 -1.2638 -0.3653  1.7631
 6969SOL    HW232370   1.002   3.221   8.958 -0.4183 -0.3165  2.6490
 6970SOL     OW32371   4.431   4.257   6.111 -0.2748  0.3091  0.4343
 6970SOL    HW132372   4.487   4.322   6.067  0.1053 -0.4448 -0.1988
 6970SOL    HW232373   4.379   4.220   6.040 -0.6665 -1.2944  1.5734
 6971SOL     OW32374   3.011   2.569   3.177  0.0974  0.4773  0.4586
 6971SOL    HW132375   3.017   2.664   3.184  0.8872  0.4218  0.5778
 6971SOL    HW232376   2.971   2.563   3.090 -1.5381 -0.1382  1.2576
 6972SOL     OW32377   2.290   2.903   8.016 -0.5401 -0.4451 -0.0700
 6972SOL    HW132378   2.229   2.869   8.081  0.7636  1.2809  2.0189
 6972SOL    HW232379   2.260   2.993   8.013 -1.7253 -0.8033  1.5052
 6973SOL     OW32380   0.987   2.488   9.397 -0.3950 -0.7557  0.1005
 6973SOL    HW132381   1.050   2.490   9.470 -0.0874  0.9358 -0.2268
 6973SOL    HW232382   0.938   2.569   9.410  1.5539  0.7688 -2.1036
 6974SOL     OW32383   1.963   3.883  14.918  0.1007 -0.1650 -0.1802
 6974SOL    HW132384   1.918   3.967  14.913  1.6520  0.6184 -0.7727
 6974SOL    HW232385   2.023   3.888  14.843 -0.3361  1.3174 -0.4225
 6975SOL     OW32386   2.865   3.741  15.238 -0.4686  0.2034 -0.0919
 6975SOL    HW132387   2.955   3.764  15.215  0.7772  0.3706  4.8651
 6975SOL    HW232388   2.816   3.814  15.202 -1.5193 -0.0078  0.9086
 6976SOL     OW32389   1.303   1.747   5.811  0.1191  0.5625 -0.1094
 6976SOL    HW132390   1.398   1.745   5.803 -0.0547 -0.5537 -1.8172
 6976SOL    HW232391   1.295   1.674   5.872  2.8334  0.2067 -0.1810
 6977SOL     OW32392   4.400   1.943   8.985 -0.2086  0.0246  0.0858
 6977SOL    HW132393   4.356   2.000   8.923  1.5270  0.3923 -0.8199
 6977SOL    HW232394   4.410   2.003   9.059  1.3617  0.6634 -0.6515
 6978SOL     OW32395   2.859   1.360   7.453 -0.4879 -0.2544 -0.4994
 6978SOL    HW132396   2.926   1.292   7.460  1.7890  2.1381  0.7595
 6978SOL    HW232397   2.890   1.417   7.523  1.0534 -1.7829  0.0653
 6979SOL     OW32398   4.080   2.178   5.619 -0.3127 -0.0351  0.1521
 6979SOL    HW132399   4.019   2.151   5.688 -1.1860  1.5270 -0.0035
 6979SOL    HW232400   4.164   2.154   5.658 -0.1048 -0.6659 -0.6903
 6980SOL     OW32401   4.388   0.268   6.666  0.1890 -0.2919 -0.1154
 6980SOL    HW132402   4.387   0.250   6.572  0.1147  1.0559 -0.3720
 6980SOL    HW232403   4.293   0.275   6.678  0.3525  2.6158 -0.3170
 6981SOL     OW32404   3.652   3.293  11.348 -0.0308 -0.3191 -0.1587
 6981SOL    HW132405   3.658   3.351  11.424  1.0390  0.3996 -0.7853
 6981SOL    HW232406   3.730   3.324  11.302  0.2419 -2.3020 -1.0465
 6982SOL     OW32407   4.106   3.207  15.341 -0.2227  0.4191  0.3630
 6982SOL    HW132408   4.091   3.137  15.404  0.0087  0.1955  0.1681
 6982SOL    HW232409   4.074   3.289  15.380 -2.4547 -0.4734  0.3531
 6983SOL     OW32410   0.562   1.881   2.473  0.4627  0.0539  0.2756
 6983SOL    HW132411   0.567   1.887   2.378 -1.3867 -2.3121  0.0207
 6983SOL    HW232412   0.511   1.802   2.493 -1.5358  1.2763  0.0061
 6984SOL     OW32413   2.123   2.182   2.077  0.1175 -0.3683 -0.3194
 6984SOL    HW132414   2.218   2.170   2.078  0.1802  0.2426  1.5414
 6984SOL    HW232415   2.098   2.090   2.077 -0.9129 -0.0866 -1.0447
 6985SOL     OW32416   0.701   3.538   4.881 -0.5730  0.2587 -0.2300
 6985SOL    HW132417   0.658   3.558   4.964 -1.8277  0.5420 -0.9447
 6985SOL    HW232418   0.766   3.603   4.855 -0.9511  0.2415 -1.2194
 6986SOL     OW32419   2.918   2.342  12.414 -0.2473  0.0139 -0.4682
 6986SOL    HW132420   2.867   2.279  12.364 -1.1975  0.1769  0.2869
 6986SOL    HW232421   2.946   2.408  12.351  0.6696 -1.2525 -1.3910
 6987SOL     OW32422   1.750   4.347   0.571 -0.0053 -0.9018  0.1417
 6987SOL    HW132423   1.817   4.341   0.503  3.0782  2.1071  3.0011
 6987SOL    HW232424   1.701   4.427   0.551  0.1872 -0.7376  0.3277
 6988SOL     OW32425   1.474   1.667   6.722 -0.3031 -0.6776 -0.3566
 6988SOL    HW132426   1.551   1.677   6.666  0.1805  1.5544  0.7089
 6988SOL    HW232427   1.440   1.756   6.721 -1.6469 -1.1901 -0.4396
 6989SOL     OW32428   0.886   4.159   5.443  0.0183 -0.3583 -0.2099
 6989SOL    HW132429   0.969   4.187   5.482 -0.8999  0.6817  0.9953
 6989SOL    HW232430   0.905   4.127   5.355  2.8144  1.1270 -0.1432
 6990SOL     OW32431   3.165   4.662   6.962 -0.0454 -0.2164 -0.3298
 6990SOL    HW132432   3.103   4.635   6.895  1.3917  0.5089 -1.9372
 6990SOL    HW232433   3.247   4.649   6.915 -0.0154  0.2234 -0.3954
 6991SOL     OW32434   1.182   0.181   3.509 -0.1570  0.3878  0.1059
 6991SOL    HW132435   1.274   0.200   3.530  0.3504 -2.3983  0.3521
 6991SOL    HW232436   1.159   0.269   3.478  0.0256  0.9245  1.4806
 6992SOL     OW32437   3.892   3.450   2.193  0.6359  0.5276  0.1659
 6992SOL    HW132438   3.869   3.364   2.158 -1.1055  0.3769  1.7063
 6992SOL    HW232439   3.901   3.499   2.112 -1.9344 -1.0377 -1.0540
 6993SOL     OW32440   1.044   1.136   6.566  0.4749  0.3049 -0.5007
 6993SOL    HW132441   1.101   1.212   6.573  0.1757  0.7407 -2.6982
 6993SOL    HW232442   0.960   1.158   6.607  0.5743 -0.2366 -0.0058
 6994SOL     OW32443   0.002   0.073  12.368 -0.2195 -0.3266  0.7173
 6994SOL    HW132444   4.671   4.716  12.334 -0.8305 -0.0118  0.9050
 6994SOL    HW232445   0.095   0.056  12.350  0.0199  1.3709  0.3944
 6995SOL     OW32446   4.314   2.400   7.134  0.6239  0.0491  0.4398
 6995SOL    HW132447   4.368   2.333   7.092 -1.4324 -0.1097 -1.9501
 6995SOL    HW232448   4.237   2.354   7.167 -1.3349  2.6547 -0.5128
 6996SOL     OW32449   3.756   3.572  13.093 -0.7018 -0.1870 -0.2034
 6996SOL    HW132450   3.710   3.510  13.035  1.9365 -0.2467 -2.2252
 6996SOL    HW232451   3.769   3.527  13.177 -0.4935 -0.0457 -0.1627
 6997SOL     OW32452   1.787   1.175   5.363  0.3539  0.0092  0.3861
 6997SOL    HW132453   1.872   1.136   5.381  0.3233 -0.0551  0.3886
 6997SOL    HW232454   1.808   1.246   5.301 -0.5667  1.5539  1.8395
 6998SOL     OW32455   4.321   3.156   0.334  0.1300 -0.2645  0.5207
 6998SOL    HW132456   4.302   3.193   0.248 -1.3882 -0.3168  0.8382
 6998SOL    HW232457   4.412   3.127   0.327 -0.8758 -2.8582 -1.5596
 6999SOL     OW32458   1.008   1.620  10.746 -0.8036 -0.1775  0.7611
 6999SOL    HW132459   1.078   1.650  10.805 -0.8000  1.9315 -0.3214
 6999SOL    HW232460   0.950   1.688  10.782  0.3359  1.5659 -0.6976
 7000SOL     OW32461   0.714   1.507   7.314  0.2067 -0.2844 -0.0314
 7000SOL    HW132462   0.711   1.566   7.390  0.9025  0.7914 -0.8338
 7000SOL    HW232463   0.746   1.574   7.253 -1.4196 -0.6186 -1.2543
 7001SOL     OW32464   4.435   3.048   4.262 -0.2587  0.6635 -0.0713
 7001SOL    HW132465   4.496   2.989   4.218  0.2709  2.1626 -1.3217
 7001SOL    HW232466   4.429   3.125   4.206  4.4017 -0.4841 -2.1029
 7002SOL     OW32467   4.302   1.357   4.264 -0.0989  0.7917 -0.1678
 7002SOL    HW132468   4.372   1.411   4.301  1.8683 -0.8020 -1.5991
 7002SOL    HW232469   4.354   1.303   4.205 -1.3418 -0.6983  0.1040
 7003SOL     OW32470   2.578   1.707   8.480 -0.2554 -0.0297  1.5185
 7003SOL    HW132471   2.569   1.612   8.478 -2.3850  0.2295 -0.0410
 7003SOL    HW232472   2.662   1.714   8.434 -0.9794  1.0697  0.3705
 7004SOL     OW32473   1.416   2.371  15.780  0.3276  0.0507 -0.1701
 7004SOL    HW132474   1.389   2.281  15.800  0.7929 -0.0352  0.0760
 7004SOL    HW232475   1.476   2.394  15.851  1.4439 -0.9888 -0.7759
 7005SOL     OW32476   1.308   1.627  17.233  0.2158  0.1683  0.1742
 7005SOL    HW132477   1.328   1.640  17.140 -0.5521  1.9955  0.2581
 7005SOL    HW232478   1.226   1.676  17.241  0.8038  1.3683 -1.2550
 7006SOL     OW32479   1.768   0.332  12.588  0.1738 -0.2211 -0.7825
 7006SOL    HW132480   1.836   0.285  12.636 -1.0037  0.7065  1.7792
 7006SOL    HW232481   1.782   0.420  12.624 -0.4746 -0.3501 -0.2241
 7007SOL     OW32482   3.643   2.258   1.063  0.2530 -0.2964  0.0089
 7007SOL    HW132483   3.711   2.216   1.116 -0.5104  0.0193  1.2585
 7007SOL    HW232484   3.646   2.354   1.073 -0.0482 -0.3680  0.7606
 7008SOL     OW32485   3.834   1.125  12.971 -0.5307  0.1608 -0.0338
 7008SOL    HW132486   3.789   1.070  13.034  0.3451  0.3172  0.7209
 7008SOL    HW232487   3.926   1.099  12.976  0.3422  2.6507 -2.7728
 7009SOL     OW32488   0.682   1.458   5.782 -0.1637 -0.0320 -0.1916
 7009SOL    HW132489   0.671   1.467   5.876  2.1138  0.1727  0.0384
 7009SOL    HW232490   0.660   1.365   5.773 -1.5484  0.1024  1.7647
 7010SOL     OW32491   0.627   0.796  13.541  1.1397 -0.4646  0.4626
 7010SOL    HW132492   0.599   0.767  13.628  0.6976 -0.0189  0.4691
 7010SOL    HW232493   0.720   0.811  13.557  1.5246 -2.5769  0.1368
 7011SOL     OW32494   1.446   1.044   8.643 -0.8413 -0.4087 -0.2179
 7011SOL    HW132495   1.409   1.018   8.559 -0.4700  0.5509 -0.6700
 7011SOL    HW232496   1.375   1.039   8.708 -0.0463  0.3419  0.7110
 7012SOL     OW32497   3.827   2.582   4.205 -0.4997  0.0750  0.4600
 7012SOL    HW132498   3.815   2.672   4.174 -1.4633  0.8110  2.9559
 7012SOL    HW232499   3.906   2.557   4.157 -0.5881 -1.2102  0.9807
 7013SOL     OW32500   4.347   2.235   8.081 -0.2635 -0.0282  0.1146
 7013SOL    HW132501   4.374   2.318   8.121 -1.4660 -0.0418  0.9698
 7013SOL    HW232502   4.262   2.229   8.125 -0.5736 -1.0934 -0.6207
 7014SOL     OW32503   1.206   4.208   3.869 -0.5658  0.0157  0.1996
 7014SOL    HW132504   1.176   4.237   3.783 -0.7830 -1.8054 -0.3449
 7014SOL    HW232505   1.121   4.225   3.908 -0.6360  0.1830 -0.0237
 7015SOL     OW32506   2.960   2.118  12.839  0.2033  0.7571  0.0880
 7015SOL    HW132507   2.994   2.205  12.821 -1.9129  1.6158  0.2479
 7015SOL    HW232508   3.026   2.085  12.900  0.0090 -0.8376 -0.5715
 7016SOL     OW32509   2.521   0.320   5.112  0.0044 -0.6755 -0.0540
 7016SOL    HW132510   2.567   0.236   5.112 -1.8695 -1.7049  0.7252
 7016SOL    HW232511   2.539   0.344   5.021  1.5960  1.3217  0.7821
 7017SOL     OW32512   4.143   0.911  17.352 -0.0988  0.3067  0.5932
 7017SOL    HW132513   4.050   0.907  17.373 -0.6012  2.5890 -1.2169
 7017SOL    HW232514   4.172   0.828  17.391  2.3004  0.5525 -0.6692
 7018SOL     OW32515   0.843   1.137   8.767 -0.4553  0.2663  0.0713
 7018SOL    HW132516   0.768   1.141   8.708 -0.7459 -0.3441  0.3960
 7018SOL    HW232517   0.797   1.112   8.848 -0.5536 -0.5322 -0.2339
 7019SOL     OW32518   4.541   0.305   3.440  0.3420 -0.3526  0.1663
 7019SOL    HW132519   4.532   0.290   3.346 -1.7616  0.3848  0.2571
 7019SOL    HW232520   4.455   0.345   3.449 -0.7150 -2.3121 -1.3642
 7020SOL     OW32521   1.292   2.049   0.624 -0.0391  0.7351 -0.6206
 7020SOL    HW132522   1.239   1.988   0.676  0.7973  0.0608 -0.5706
 7020SOL    HW232523   1.239   2.127   0.637 -1.8591 -0.2391 -2.1657
 7021SOL     OW32524   0.166   4.568   8.583  0.3697 -0.2227 -0.2091
 7021SOL    HW132525   0.181   4.591   8.674 -0.7741  0.5812 -0.2267
 7021SOL    HW232526   0.209   4.649   8.554 -1.7728  0.6208 -1.0111
 7022SOL     OW32527   3.690   1.505   9.670  0.1621  0.9267 -0.2374
 7022SOL    HW132528   3.636   1.578   9.641  1.0426  1.8862  0.5367
 7022SOL    HW232529   3.645   1.439   9.619  1.4535  0.3838 -0.6668
 7023SOL     OW32530   4.596   1.875   8.819 -0.9569  0.1738 -0.0915
 7023SOL    HW132531   4.517   1.894   8.869 -2.4255  1.0640 -2.7207
 7023SOL    HW232532   4.643   1.936   8.874 -1.5409  1.4008 -0.9389
 7024SOL     OW32533   2.650   3.517   9.353  0.0834 -0.3705 -0.0764
 7024SOL    HW132534   2.692   3.434   9.329 -0.6305 -0.6721 -0.2792
 7024SOL    HW232535   2.644   3.497   9.446  0.2374 -0.9638 -0.1937
 7025SOL     OW32536   1.758   2.837   4.408 -0.3637  0.1279 -0.4055
 7025SOL    HW132537   1.727   2.772   4.471  1.9089  1.6029  2.2477
 7025SOL    HW232538   1.683   2.818   4.352  2.7572 -2.6617 -3.7080
 7026SOL     OW32539   1.586   1.691   7.351 -0.5121  0.6167  0.7614
 7026SOL    HW132540   1.577   1.781   7.321  0.8900  0.6978  0.5842
 7026SOL    HW232541   1.679   1.671   7.342 -0.9735 -1.7239  1.1467
 7027SOL     OW32542   3.738   0.519   2.995 -0.5584  0.5294 -0.5549
 7027SOL    HW132543   3.681   0.539   3.069  2.5857  2.5126  1.3601
 7027SOL    HW232544   3.673   0.508   2.925 -1.3511 -1.1459  0.4535
 7028SOL     OW32545   1.093   0.359   9.244 -0.5104 -0.3601 -0.1712
 7028SOL    HW132546   1.022   0.398   9.192 -0.1385 -0.7096 -0.9343
 7028SOL    HW232547   1.161   0.426   9.239  0.7848 -1.7352 -0.9730
 7029SOL     OW32548   1.098   4.367   3.356  0.1636  0.3816 -0.7565
 7029SOL    HW132549   1.112   4.298   3.292  1.2370  0.9255 -1.1069
 7029SOL    HW232550   1.106   4.441   3.296  1.6075  0.2638 -0.7115
 7030SOL     OW32551   3.541   0.181   7.921 -0.2099  0.1511 -0.0297
 7030SOL    HW132552   3.543   0.099   7.971  1.2428  0.0232 -0.3135
 7030SOL    HW232553   3.529   0.246   7.991  0.2517  2.3292 -1.9910
 7031SOL     OW32554   3.942   0.641   8.165  0.1001 -0.0386  0.2804
 7031SOL    HW132555   3.914   0.732   8.156  0.1613 -0.0289  0.1843
 7031SOL    HW232556   4.029   0.650   8.126  0.2065  0.6586  0.6890
 7032SOL     OW32557   3.905   2.988   7.932  0.9719 -0.1769  0.5626
 7032SOL    HW132558   3.916   3.038   8.013  1.0656  0.8414 -0.0744
 7032SOL    HW232559   3.965   2.914   7.939 -0.1247 -0.9601  1.8608
 7033SOL     OW32560   1.138   2.263   5.300 -0.2341  0.0494 -0.5033
 7033SOL    HW132561   1.187   2.194   5.253  0.0025  0.6329 -1.1171
 7033SOL    HW232562   1.183   2.336   5.257  0.6104  1.3200  2.5722
 7034SOL     OW32563   4.627   2.635   4.044 -0.4219 -0.5058 -0.1399
 7034SOL    HW132564   4.539   2.598   4.046 -0.5955 -0.1463 -1.7537
 7034SOL    HW232565   4.636   2.663   3.953  1.0378  0.5802  0.3321
 7035SOL     OW32566   2.277   1.715   7.201 -0.0298 -0.2497  0.0197
 7035SOL    HW132567   2.270   1.620   7.191  2.4029 -0.6753  2.2216
 7035SOL    HW232568   2.352   1.723   7.261  1.0121  0.4149 -1.3489
 7036SOL     OW32569   0.164   4.595  17.468 -0.1360  0.0049 -0.1057
 7036SOL    HW132570   0.260   4.593  17.461 -0.3129 -2.3261 -1.8876
 7036SOL    HW232571   0.137   4.512  17.429 -0.3448  0.0852 -0.1301
 7037SOL     OW32572   2.619   1.748   8.176 -0.1848 -0.0754  0.2726
 7037SOL    HW132573   2.538   1.707   8.209 -1.9884  1.3954 -2.2894
 7037SOL    HW232574   2.594   1.840   8.168 -1.8008 -0.7938 -2.9885
 7038SOL     OW32575   3.149   2.521  11.140 -0.4695 -0.0044  0.3432
 7038SOL    HW132576   3.127   2.610  11.112  2.1758  0.5945  0.1928
 7038SOL    HW232577   3.131   2.525  11.234 -1.5102  0.1652  0.1428
 7039SOL     OW32578   4.233   4.447   7.311  0.4501  0.2860 -0.0182
 7039SOL    HW132579   4.227   4.352   7.308 -1.2488  0.3373  1.6706
 7039SOL    HW232580   4.144   4.461   7.343  0.3441 -2.1464  0.7507
 7040SOL     OW32581   2.612   3.788   3.085  0.1841 -0.1707 -0.3111
 7040SOL    HW132582   2.693   3.790   3.034  1.1667  1.0339  1.3040
 7040SOL    HW232583   2.657   3.773   3.168  0.8342  1.5812 -0.3492
 7041SOL     OW32584   0.818   4.498   8.253 -0.1792  0.1924 -0.3314
 7041SOL    HW132585   0.767   4.430   8.297 -0.2101 -0.0210 -0.6957
 7041SOL    HW232586   0.747   4.556   8.227 -1.5851 -0.2361  2.4959
 7042SOL     OW32587   3.187   1.847   6.679  0.0453  0.2078 -0.1498
 7042SOL    HW132588   3.196   1.768   6.733 -1.7666  1.0924  1.4743
 7042SOL    HW232589   3.192   1.820   6.587 -1.5731 -3.5602  0.8467
 7043SOL     OW32590   0.541   3.061   7.529  0.2870  0.5243 -0.0291
 7043SOL    HW132591   0.523   3.045   7.436  0.2419  1.3082 -0.1538
 7043SOL    HW232592   0.458   3.039   7.571  0.9944 -2.0034  0.0765
 7044SOL     OW32593   3.453   2.022   0.620 -0.2392 -0.2961 -0.1077
 7044SOL    HW132594   3.424   1.931   0.626 -0.1434 -0.3050  0.2544
 7044SOL    HW232595   3.382   2.056   0.675 -0.6454 -0.1304 -0.7367
 7045SOL     OW32596   2.142   1.582   9.166  0.5276 -0.2142 -0.3964
 7045SOL    HW132597   2.100   1.655   9.121  2.4573  2.9028  2.8628
 7045SOL    HW232598   2.232   1.613   9.163  0.2376  0.7213  0.9169
 7046SOL     OW32599   0.435   1.302   5.102  0.3686  0.2058  0.2598
 7046SOL    HW132600   0.485   1.350   5.168  0.4999  0.7170 -0.2086
 7046SOL    HW232601   0.500   1.292   5.032 -1.9882 -0.0846 -1.8562
 7047SOL     OW32602   1.548   0.753  16.900  0.2812 -0.2088 -0.4036
 7047SOL    HW132603   1.574   0.835  16.858 -0.3211  0.9691  1.5114
 7047SOL    HW232604   1.511   0.790  16.980 -0.4481 -0.9971 -0.3729
 7048SOL     OW32605   4.510   1.655   2.636 -0.4177  0.7697 -0.4705
 7048SOL    HW132606   4.437   1.616   2.588 -1.7977  1.5069  1.0061
 7048SOL    HW232607   4.453   1.712   2.688 -1.9682  0.3493 -1.7137
 7049SOL     OW32608   3.387   3.625   7.582 -0.2509 -0.3443  0.2394
 7049SOL    HW132609   3.307   3.585   7.617 -0.1845  0.5942  1.4392
 7049SOL    HW232610   3.462   3.569   7.603 -0.3246 -0.9567 -1.1086
 7050SOL     OW32611   4.235   0.207   4.403 -0.3818  1.2046 -0.0113
 7050SOL    HW132612   4.252   0.193   4.496  2.1515 -0.8690 -0.7769
 7050SOL    HW232613   4.141   0.189   4.408 -0.0779  0.1014  1.7456
 7051SOL     OW32614   3.024   2.785   8.932  0.0583  0.3538  0.0291
 7051SOL    HW132615   3.052   2.707   8.980 -0.1082 -0.2731 -0.8988
 7051SOL    HW232616   3.107   2.818   8.897  1.5965 -0.0313  3.2365
 7052SOL     OW32617   1.527   3.534   2.489  0.1475 -0.0296 -0.1319
 7052SOL    HW132618   1.450   3.582   2.518  0.0381 -0.2472 -0.0583
 7052SOL    HW232619   1.590   3.591   2.532  0.3247 -1.3317  1.3320
 7053SOL     OW32620   1.092   4.660   6.407 -1.0582  0.1520  0.3635
 7053SOL    HW132621   1.163   0.005   6.404 -0.9627 -0.0599 -1.6390
 7053SOL    HW232622   1.111   4.605   6.483  1.5443  1.3290  0.5283
 7054SOL     OW32623   3.904   4.213   2.378  0.1876  0.3458 -0.0538
 7054SOL    HW132624   3.951   4.280   2.427 -0.6289  1.2843 -0.5394
 7054SOL    HW232625   3.814   4.220   2.410  0.5666 -1.4991  1.3860
 7055SOL     OW32626   4.282   3.076   1.227 -0.4287  0.1892  0.3647
 7055SOL    HW132627   4.202   3.024   1.216 -1.0664  1.2077  0.1762
 7055SOL    HW232628   4.310   3.034   1.308  0.2993  0.4941  0.2675
 7056SOL     OW32629   1.386   3.048  15.485  0.6318 -0.3331  0.1822
 7056SOL    HW132630   1.428   3.124  15.444  0.6233 -1.0084 -1.0860
 7056SOL    HW232631   1.299   3.044  15.444  0.3986  0.4940  0.5908
 7057SOL     OW32632   1.865   0.601  14.646  0.3252  0.6021  0.0709
 7057SOL    HW132633   1.820   0.561  14.572  2.5722  0.0652 -0.9932
 7057SOL    HW232634   1.826   0.544  14.713  0.5314  1.0734  0.5942
 7058SOL     OW32635   2.208   0.696   0.221 -0.2818  0.3742 -0.3259
 7058SOL    HW132636   2.238   0.730   0.137  1.6911 -1.8677 -0.5298
 7058SOL    HW232637   2.250   0.748   0.290 -0.8689  1.3826 -0.7280
 7059SOL     OW32638   1.169   2.918  11.549 -0.5700 -0.1419  0.0088
 7059SOL    HW132639   1.251   2.953  11.583 -0.9262  0.5299  0.1964
 7059SOL    HW232640   1.111   2.941  11.621 -0.4577  0.3470 -0.0583
 7060SOL     OW32641   2.760   3.876   5.086 -0.5709 -0.1025 -0.0257
 7060SOL    HW132642   2.740   3.959   5.042  2.1696 -0.4585 -1.9716
 7060SOL    HW232643   2.671   3.857   5.114  0.1730  1.2597  3.3221
 7061SOL     OW32644   2.477   3.124   7.545 -0.7007 -0.4555 -0.3384
 7061SOL    HW132645   2.491   3.034   7.516 -0.5621 -0.1237 -1.2827
 7061SOL    HW232646   2.406   3.117   7.609 -2.0592 -1.7510 -2.0043
 7062SOL     OW32647   1.776   0.223   7.533 -0.2703  0.1774 -0.2420
 7062SOL    HW132648   1.768   0.299   7.475  2.0156  0.6789  0.0782
 7062SOL    HW232649   1.804   0.156   7.470  2.1091  0.0418  0.9543
 7063SOL     OW32650   0.588   2.994  14.374  0.1302 -0.3126  0.8061
 7063SOL    HW132651   0.634   3.043  14.442  1.0718 -0.0901  0.0096
 7063SOL    HW232652   0.500   3.030  14.382  0.3133 -0.0002  1.4658
 7064SOL     OW32653   1.286   2.714  15.534  0.0923 -0.0975  0.7488
 7064SOL    HW132654   1.265   2.653  15.605 -2.4999 -0.6627 -0.5053
 7064SOL    HW232655   1.371   2.683  15.502 -0.1066  0.3549 -0.2212
 7065SOL     OW32656   4.362   1.545  15.379  0.2419 -0.3232 -0.6070
 7065SOL    HW132657   4.329   1.457  15.357 -1.2459 -0.3949  1.7714
 7065SOL    HW232658   4.387   1.574  15.292 -1.2209 -0.1871 -0.9810
 7066SOL     OW32659   2.507   0.009   4.032 -0.3417  0.1013 -0.1100
 7066SOL    HW132660   2.573   0.070   4.063 -0.7983  0.8057 -0.5047
 7066SOL    HW232661   2.466   4.701   4.114 -0.3209  1.2387  0.2565
 7067SOL     OW32662   4.145   3.810   6.601 -0.2875  0.1008 -0.0779
 7067SOL    HW132663   4.061   3.764   6.601 -1.3451  2.0289 -0.1209
 7067SOL    HW232664   4.158   3.809   6.696 -1.4966  4.4678  0.1443
 7068SOL     OW32665   0.610   0.773   0.949 -0.8149 -0.1591 -0.6602
 7068SOL    HW132666   0.559   0.696   0.926 -1.0548 -0.3662  0.5328
 7068SOL    HW232667   0.701   0.743   0.956 -0.6994  0.4867  0.6896
 7069SOL     OW32668   2.772   4.289   8.796 -0.1108  0.0669  0.0538
 7069SOL    HW132669   2.687   4.282   8.839  0.2054  0.4316  0.7410
 7069SOL    HW232670   2.756   4.276   8.703  2.1714 -2.7906  0.0318
 7070SOL     OW32671   2.626   0.955  17.299  0.0918  0.3540 -0.2345
 7070SOL    HW132672   2.655   1.029  17.246 -0.5880  1.0391  0.3474
 7070SOL    HW232673   2.619   0.886  17.233 -1.0340  0.4433 -0.2091
 7071SOL     OW32674   2.099   0.193   3.195 -0.6082  0.3616 -0.3009
 7071SOL    HW132675   2.080   0.276   3.238  2.3157  0.5137  0.7147
 7071SOL    HW232676   2.053   0.212   3.113  1.0933 -0.7940 -1.5242
 7072SOL     OW32677   0.218   2.397   1.895  0.1914 -0.0563  0.5435
 7072SOL    HW132678   0.153   2.463   1.871 -1.5464 -2.3051 -0.8905
 7072SOL    HW232679   0.299   2.448   1.902  0.7533 -1.0171  0.9724
 7073SOL     OW32680   4.664   3.170   6.394 -0.1071  0.4392  0.0727
 7073SOL    HW132681   4.654   3.227   6.317  0.1165 -0.1395 -0.3845
 7073SOL    HW232682   0.033   3.137   6.372  0.0945  0.3019  1.0922
 7074SOL     OW32683   4.305   2.658   0.468 -0.0433  0.3460 -0.2478
 7074SOL    HW132684   4.314   2.563   0.479 -1.1367  0.0996 -1.4984
 7074SOL    HW232685   4.307   2.664   0.373  1.6038 -1.4374 -0.3426
 7075SOL     OW32686   2.930   2.172   9.441  0.1675 -0.3026 -0.0045
 7075SOL    HW132687   2.944   2.083   9.408  0.4613  0.2544 -1.3879
 7075SOL    HW232688   2.930   2.156   9.535  1.0551  0.2200  0.0829
 7076SOL     OW32689   0.275   3.117   9.632  0.3241  0.3572  0.3968
 7076SOL    HW132690   0.191   3.105   9.678 -0.1417 -1.1733 -0.8282
 7076SOL    HW232691   0.268   3.209   9.607  0.1231  0.2305 -0.0237
 7077SOL     OW32692   4.534   1.189  11.861  0.0897 -0.0524 -0.0863
 7077SOL    HW132693   4.458   1.160  11.911  0.5510 -1.6332 -0.3228
 7077SOL    HW232694   4.598   1.218  11.927 -2.3460  1.6065  1.5427
 7078SOL     OW32695   2.802   3.603  15.440 -0.1898  0.1518  0.4751
 7078SOL    HW132696   2.818   3.648  15.357  2.0037 -1.7670 -0.1370
 7078SOL    HW232697   2.726   3.552  15.411  1.3844 -0.9402 -1.7731
 7079SOL     OW32698   2.452   3.949  16.422 -0.0748  0.1564 -0.4930
 7079SOL    HW132699   2.498   3.891  16.362 -1.2482 -0.6067 -0.6521
 7079SOL    HW232700   2.451   3.898  16.502 -1.3874 -0.4628 -0.9023
 7080SOL     OW32701   2.539   3.324   5.190  0.4008 -0.5009 -0.2907
 7080SOL    HW132702   2.480   3.399   5.182  2.9716  1.4946 -0.4301
 7080SOL    HW232703   2.505   3.263   5.125 -0.1111 -0.7433  0.2068
 7081SOL     OW32704   1.528   1.421   5.909  0.4839 -0.2706 -0.1036
 7081SOL    HW132705   1.442   1.443   5.945  1.2608  1.8785  0.4627
 7081SOL    HW232706   1.579   1.497   5.935  0.5456 -0.5300  0.5188
 7082SOL     OW32707   3.944   1.301   6.820  0.3402 -0.2400 -0.0580
 7082SOL    HW132708   3.966   1.394   6.825  0.9344 -0.3685 -0.2950
 7082SOL    HW232709   3.975   1.264   6.903  1.3196  0.9370  0.0947
 7083SOL     OW32710   1.630   0.987   7.969 -0.0109 -0.4187  0.2892
 7083SOL    HW132711   1.581   0.906   7.955 -3.4399  1.7737 -0.4336
 7083SOL    HW232712   1.715   0.953   7.995 -0.4423 -1.7575 -0.0303
 7084SOL     OW32713   1.040   1.030   8.438  0.7765 -0.6016  0.1685
 7084SOL    HW132714   1.127   1.069   8.448  0.2404  0.4837  0.5942
 7084SOL    HW232715   1.038   0.976   8.517 -0.1914  0.4412  0.8584
 7085SOL     OW32716   0.286   0.932  15.047 -0.1526 -0.0547  0.1806
 7085SOL    HW132717   0.361   0.990  15.048 -1.0378  1.0966 -0.1858
 7085SOL    HW232718   0.301   0.890  14.962  1.4545  0.1283  0.3833
 7086SOL     OW32719   2.537   3.960   9.056  0.1549 -0.0164 -0.1037
 7086SOL    HW132720   2.462   4.003   9.096  0.6796  1.5102 -0.7632
 7086SOL    HW232721   2.499   3.915   8.981 -0.3531 -1.0758  0.7789
 7087SOL     OW32722   1.204   2.481  17.200 -0.7815 -0.4165 -0.7351
 7087SOL    HW132723   1.137   2.457  17.135 -0.6082  0.9011 -1.3930
 7087SOL    HW232724   1.156   2.458  17.280  2.7710 -3.0771  0.6071
 7088SOL     OW32725   4.459   1.580   2.154  0.1741 -0.0358  0.1153
 7088SOL    HW132726   4.540   1.558   2.108 -0.3313 -1.2648 -0.1804
 7088SOL    HW232727   4.415   1.615   2.077  3.4698 -0.3399 -1.8872
 7089SOL     OW32728   3.352   4.112   3.775  0.4667  0.1074 -0.3134
 7089SOL    HW132729   3.300   4.071   3.844 -0.0416  2.0113  0.4306
 7089SOL    HW232730   3.359   4.202   3.804  1.3121  0.1132 -0.5531
 7090SOL     OW32731   3.293   2.199   6.522  0.0716  0.2390  0.6185
 7090SOL    HW132732   3.300   2.173   6.614 -2.5873 -1.8694  0.2241
 7090SOL    HW232733   3.379   2.176   6.486 -0.5223 -0.2877 -0.4755
 7091SOL     OW32734   4.267   1.516   7.299  0.3133  0.3131 -0.1637
 7091SOL    HW132735   4.308   1.603   7.306  2.6586 -0.6409 -2.0011
 7091SOL    HW232736   4.311   1.473   7.373  1.0261 -0.2158 -0.9025
 7092SOL     OW32737   2.967   4.583   6.740 -0.0741  0.2754  0.0276
 7092SOL    HW132738   2.897   4.593   6.675  0.6216  2.3128 -0.4252
 7092SOL    HW232739   3.023   4.513   6.707  1.3802  0.9608  1.0598
 7093SOL     OW32740   2.748   4.654   4.363  0.5891 -0.6477  0.1609
 7093SOL    HW132741   2.840   4.666   4.385 -0.2488  1.7660  2.4304
 7093SOL    HW232742   2.738   4.698   4.279 -1.3626  1.2679  1.3857
 7094SOL     OW32743   1.134   1.524   4.727  0.4108  0.1339  0.2805
 7094SOL    HW132744   1.223   1.560   4.725  0.6870 -0.5263  0.5694
 7094SOL    HW232745   1.123   1.531   4.822 -1.3631  2.1737 -0.0678
 7095SOL     OW32746   3.315   0.494   8.597 -0.2458 -0.4881 -0.4329
 7095SOL    HW132747   3.407   0.467   8.593 -0.2586 -0.9909  2.6544
 7095SOL    HW232748   3.281   0.442   8.670  1.5375  0.0980  0.7990
 7096SOL     OW32749   4.299   3.138   3.538 -0.4399  0.6750  0.3634
 7096SOL    HW132750   4.229   3.197   3.512 -1.2320 -1.0424 -1.4300
 7096SOL    HW232751   4.375   3.185   3.507  1.4608 -0.6778  2.9893
 7097SOL     OW32752   2.043   3.236   2.638 -0.6455 -0.1202  0.2801
 7097SOL    HW132753   2.109   3.186   2.687 -0.0326 -0.5097 -0.9456
 7097SOL    HW232754   1.997   3.291   2.701  0.5653  0.8135  0.3518
 7098SOL     OW32755   2.592   2.137   3.221  0.6348  0.2818 -0.4178
 7098SOL    HW132756   2.617   2.225   3.191  0.0250  0.8738  0.8426
 7098SOL    HW232757   2.679   2.101   3.238  0.5748 -0.6975 -2.1014
 7099SOL     OW32758   0.228   0.052  15.104 -0.3676  0.0785 -0.3277
 7099SOL    HW132759   0.251   0.143  15.084  2.2100 -0.4993 -0.0272
 7099SOL    HW232760   0.312   0.007  15.097 -0.5356 -0.2227 -0.4118
 7100SOL     OW32761   3.776   0.459   6.640  0.1705 -0.2131  0.3084
 7100SOL    HW132762   3.740   0.542   6.671  0.5054 -0.6518  1.8905
 7100SOL    HW232763   3.800   0.426   6.727  0.0235  0.7206  0.7012
 7101SOL     OW32764   0.614   4.151   6.664  0.2317 -0.0462  0.0734
 7101SOL    HW132765   0.654   4.179   6.746 -2.1599  0.6794  0.9979
 7101SOL    HW232766   0.539   4.209   6.655  1.0412  1.0974  0.6556
 7102SOL     OW32767   4.325   4.071   0.979 -0.0777 -0.4614 -0.0202
 7102SOL    HW132768   4.293   4.009   0.914  1.6697 -0.3369 -1.0008
 7102SOL    HW232769   4.247   4.077   1.034  0.0953  3.4420 -0.2228
 7103SOL     OW32770   2.927   0.440  10.002  0.3752 -0.2218 -0.2545
 7103SOL    HW132771   2.984   0.363   9.999  1.4804  0.5933 -0.1434
 7103SOL    HW232772   2.854   0.401   9.954  0.5472 -1.0465  0.1496
 7104SOL     OW32773   1.145   2.562   9.591  0.4030  0.1056  0.6091
 7104SOL    HW132774   1.095   2.562   9.672  1.9669  0.2467  1.5767
 7104SOL    HW232775   1.217   2.499   9.601 -0.1158 -0.7328 -0.8296
 7105SOL     OW32776   1.099   1.764   7.933  0.0068 -0.3180  0.0297
 7105SOL    HW132777   1.108   1.853   7.901  2.1470 -0.2906  0.6976
 7105SOL    HW232778   1.112   1.715   7.852  1.1022  3.5300 -2.0734
 7106SOL     OW32779   2.488   3.045  16.682  0.2623  0.0386  0.2327
 7106SOL    HW132780   2.540   3.109  16.635 -1.5411  2.2533  1.2291
 7106SOL    HW232781   2.404   3.091  16.692  0.1089 -0.2047  0.0547
 7107SOL     OW32782   2.444   0.895  15.172  0.4174  0.0198 -0.1121
 7107SOL    HW132783   2.502   0.818  15.175  0.5294  0.0546 -1.4350
 7107SOL    HW232784   2.479   0.961  15.232 -1.7471  2.5291 -1.6458
 7108SOL     OW32785   3.948   2.810   1.806 -0.2625  0.5667  0.6810
 7108SOL    HW132786   3.934   2.719   1.833  1.8505 -0.0133 -0.1153
 7108SOL    HW232787   4.030   2.790   1.759 -1.3135  1.8313 -1.6984
 7109SOL     OW32788   2.501   0.486  11.722  0.4146  0.1777  0.0775
 7109SOL    HW132789   2.436   0.449  11.782  2.2611 -1.1847  1.2182
 7109SOL    HW232790   2.515   0.404  11.675  0.1782  1.9873 -3.1368
 7110SOL     OW32791   1.094   1.618   8.242  0.2953  0.3566  0.4649
 7110SOL    HW132792   1.068   1.569   8.320 -1.2925 -1.5662 -1.2470
 7110SOL    HW232793   1.184   1.586   8.231 -1.0216 -2.2275 -3.0224
 7111SOL     OW32794   0.860   0.110   5.607 -0.3926 -0.1368 -0.2720
 7111SOL    HW132795   0.943   0.145   5.573  0.0977 -0.0499  0.9857
 7111SOL    HW232796   0.896   0.040   5.661  0.4260 -0.2805 -1.0095
 7112SOL     OW32797   0.118   0.448   4.095  0.1161  0.0426 -0.9565
 7112SOL    HW132798   0.159   0.411   4.017 -0.3938  1.4513 -1.8931
 7112SOL    HW232799   0.113   0.366   4.144 -0.1475  0.0413 -0.9877
 7113SOL     OW32800   3.690   3.126   6.046  0.1342  0.1671 -0.0393
 7113SOL    HW132801   3.696   3.090   6.135 -1.5586 -0.2860 -0.1194
 7113SOL    HW232802   3.607   3.097   6.010 -0.6805  2.0333  0.3267
 7114SOL     OW32803   2.566   3.462   7.810 -0.5947 -0.2808 -1.0715
 7114SOL    HW132804   2.640   3.513   7.842  0.6531 -2.3842 -0.5543
 7114SOL    HW232805   2.522   3.437   7.891  3.7926 -0.0096  1.4093
 7115SOL     OW32806   0.421   3.301   8.324  0.5313  0.0935  0.4783
 7115SOL    HW132807   0.376   3.379   8.290  0.3456 -0.9963 -1.7485
 7115SOL    HW232808   0.356   3.231   8.328  0.6035 -0.1027 -1.6311
 7116SOL     OW32809   3.913   4.637  13.522  0.0857 -0.3022  0.8102
 7116SOL    HW132810   3.975   4.678  13.462 -0.7167  1.1680  0.9707
 7116SOL    HW232811   3.887   4.705  13.584  0.4757  0.3777  0.2261
 7117SOL     OW32812   2.369   2.457   3.927  0.4841 -0.3488 -0.0838
 7117SOL    HW132813   2.413   2.483   3.847  2.0505 -1.4951  0.3942
 7117SOL    HW232814   2.376   2.535   3.983 -0.6874 -1.1898  1.2470
 7118SOL     OW32815   0.228   3.579  15.496  0.4154  0.0953  0.8426
 7118SOL    HW132816   0.180   3.658  15.471  0.0745  0.0680  1.4034
 7118SOL    HW232817   0.201   3.562  15.587 -1.9203  0.8906  0.2843
 7119SOL     OW32818   0.599   2.438   7.239 -0.2137 -0.1237  0.2083
 7119SOL    HW132819   0.684   2.467   7.205 -0.4594  0.1002 -0.2106
 7119SOL    HW232820   0.548   2.442   7.158  0.8687  0.9476 -0.4078
 7120SOL     OW32821   1.005   3.283  16.123 -0.1879 -0.1076  0.5504
 7120SOL    HW132822   1.058   3.208  16.151  0.0150 -0.5342 -0.9977
 7120SOL    HW232823   0.980   3.251  16.036  0.3610  1.0955 -0.0572
 7121SOL     OW32824   1.546   3.048  16.360 -0.4136 -0.1790 -0.8550
 7121SOL    HW132825   1.501   3.106  16.299 -0.8850 -1.5138 -1.7891
 7121SOL    HW232826   1.515   3.082  16.444  1.4861 -1.2077  0.2617
 7122SOL     OW32827   0.669   3.352   2.645 -0.2329 -0.0533 -0.3811
 7122SOL    HW132828   0.615   3.353   2.565 -2.5160 -0.2659  1.1580
 7122SOL    HW232829   0.758   3.376   2.621 -0.0443  0.6945  1.0776
 7123SOL     OW32830   1.089   0.024  14.841 -1.1003  0.5460  0.2655
 7123SOL    HW132831   1.098   0.086  14.769  0.5451  0.9571  0.8382
 7123SOL    HW232832   1.080   0.094  14.906 -2.4328  0.6814 -0.0581
 7124SOL     OW32833   2.301   1.148   6.657  0.6691  0.3246 -0.5180
 7124SOL    HW132834   2.310   1.234   6.615  1.3779 -0.1762 -1.3967
 7124SOL    HW232835   2.239   1.112   6.593 -1.8276  0.5473  1.8110
 7125SOL     OW32836   1.633   2.867  13.278  0.0154  0.4363  0.0997
 7125SOL    HW132837   1.672   2.786  13.246 -0.9688  0.0253 -0.0777
 7125SOL    HW232838   1.711   2.911  13.312 -0.0211  0.9385 -0.4655
 7126SOL     OW32839   0.691   1.554   4.298  0.0393 -0.6490 -0.4211
 7126SOL    HW132840   0.596   1.548   4.295 -0.0201  0.4019 -0.5242
 7126SOL    HW232841   0.705   1.580   4.206  0.7925 -1.9981 -0.6891
 7127SOL     OW32842   3.401   1.328   7.008 -0.4174  0.2498 -0.2687
 7127SOL    HW132843   3.336   1.366   7.067  1.6543  1.9708  0.9154
 7127SOL    HW232844   3.467   1.291   7.067 -1.4295 -3.0732 -1.2201
 7128SOL     OW32845   1.486   0.551   2.989  0.1560  0.4205 -0.0865
 7128SOL    HW132846   1.498   0.645   2.982 -0.7860  0.5184 -0.3377
 7128SOL    HW232847   1.392   0.540   2.975 -0.0431  3.5786 -1.0223
 7129SOL     OW32848   3.110   3.806   0.261  0.0080  0.4959 -0.8803
 7129SOL    HW132849   3.206   3.803   0.258  0.0610  0.5086  0.6046
 7129SOL    HW232850   3.090   3.718   0.294  1.0517  0.7691  0.4967
 7130SOL     OW32851   3.784   0.408   6.382 -0.0268  0.2185 -0.3300
 7130SOL    HW132852   3.784   0.438   6.473 -0.3890  0.5182 -0.4286
 7130SOL    HW232853   3.876   0.431   6.364  0.6524 -2.2253  0.0045
 7131SOL     OW32854   3.098   4.028  16.480 -0.1569  0.3750  0.8075
 7131SOL    HW132855   3.013   3.992  16.507 -1.2402  2.2415 -0.1434
 7131SOL    HW232856   3.130   4.065  16.562 -0.2760  2.0501  0.0842
 7132SOL     OW32857   0.911   0.403   3.552  0.0906  1.0641  0.1507
 7132SOL    HW132858   0.900   0.479   3.609 -4.1693 -0.2412  1.1043
 7132SOL    HW232859   0.985   0.429   3.497 -0.1494 -2.1693 -1.7419
 7133SOL     OW32860   3.989   4.031  12.062 -0.0065 -0.1718  0.3304
 7133SOL    HW132861   3.907   4.000  12.025  0.0529 -1.9238  1.6527
 7133SOL    HW232862   3.950   4.091  12.126  0.9768  2.3151 -1.4069
 7134SOL     OW32863   2.732   0.682   2.567 -0.8464  0.5823  0.3655
 7134SOL    HW132864   2.766   0.746   2.504 -0.2060 -0.8328 -0.7380
 7134SOL    HW232865   2.645   0.720   2.569 -0.6929  1.0770 -1.7154
 7135SOL     OW32866   4.036   2.551   3.597 -0.3225  0.2984  0.4443
 7135SOL    HW132867   4.123   2.541   3.560 -0.3614 -1.0989  0.7401
 7135SOL    HW232868   4.030   2.476   3.656 -3.0320 -1.2911 -1.8368
 7136SOL     OW32869   2.877   4.180  12.555 -1.0147 -0.3575  0.0547
 7136SOL    HW132870   2.796   4.137  12.529 -1.0113 -0.8792  0.9050
 7136SOL    HW232871   2.934   4.114  12.595  1.0010  0.5811 -1.2110
 7137SOL     OW32872   0.412   0.140   8.862  0.2873 -0.2204 -0.2022
 7137SOL    HW132873   0.401   0.112   8.953 -2.0324  2.4576  0.3297
 7137SOL    HW232874   0.500   0.176   8.862  0.7364 -1.2571  3.8167
 7138SOL     OW32875   2.134   1.342   4.563  0.3357  0.3896 -0.0328
 7138SOL    HW132876   2.205   1.307   4.510 -1.7701 -1.0893 -1.8865
 7138SOL    HW232877   2.164   1.431   4.584  0.7247  0.5109 -1.1606
 7139SOL     OW32878   3.299   0.057   4.639  0.1630 -0.2087 -0.2066
 7139SOL    HW132879   3.274   0.049   4.731  2.3097  2.6872  0.6226
 7139SOL    HW232880   3.335   4.690   4.612 -1.1520 -1.2806  1.4552
 7140SOL     OW32881   0.422   1.052   6.100 -0.0899  0.1119  0.6344
 7140SOL    HW132882   0.477   1.087   6.170 -0.3184 -0.1222  0.9324
 7140SOL    HW232883   0.471   0.972   6.083  0.0228 -0.0358  1.6342
 7141SOL     OW32884   2.554   3.220   4.208  0.6870  0.4653  0.0499
 7141SOL    HW132885   2.562   3.200   4.302  2.5664  0.7987 -0.0387
 7141SOL    HW232886   2.624   3.285   4.198 -0.4598  1.7383  0.1777
 7142SOL     OW32887   3.568   2.483  13.845  0.3637 -0.0771  0.3963
 7142SOL    HW132888   3.578   2.426  13.922 -1.2041 -0.0727  0.5948
 7142SOL    HW232889   3.647   2.537  13.844  0.0473  0.3846  0.5120
 7143SOL     OW32890   0.761   0.213   3.416 -0.0539 -0.0529 -0.8118
 7143SOL    HW132891   0.707   0.248   3.345 -1.9541 -3.1492 -0.8822
 7143SOL    HW232892   0.810   0.289   3.448  1.8495 -1.4386 -0.4946
 7144SOL     OW32893   2.681   3.030  15.019 -0.3898  0.9782  0.0694
 7144SOL    HW132894   2.624   2.967  14.976  1.6804 -0.4168 -0.6541
 7144SOL    HW232895   2.699   2.984  15.101  0.2819  1.1347  0.0140
 7145SOL     OW32896   1.573   1.420   3.150 -0.1707  0.4801 -0.0938
 7145SOL    HW132897   1.601   1.482   3.217 -2.0169  0.7243  0.4477
 7145SOL    HW232898   1.634   1.440   3.080 -0.6231  0.8189 -0.3952
 7146SOL     OW32899   2.324   4.676  15.478 -0.3812 -0.1534 -0.0530
 7146SOL    HW132900   2.255   4.649  15.538 -0.1095 -2.4983 -0.7994
 7146SOL    HW232901   2.400   4.644  15.527 -1.6388 -0.1196  1.9172
 7147SOL     OW32902   1.205   1.888  15.819  0.4782  0.3089  0.4070
 7147SOL    HW132903   1.258   1.823  15.864  0.3895  0.8746  1.3222
 7147SOL    HW232904   1.193   1.847  15.733  3.3500  2.5381 -1.0521
 7148SOL     OW32905   4.220   0.020   7.311  0.6060 -0.6894  0.3158
 7148SOL    HW132906   4.224   0.026   7.215  0.4105  1.2178  0.4342
 7148SOL    HW232907   4.175   4.654   7.325 -2.0924  0.8097  0.7741
 7149SOL     OW32908   1.701   1.771   9.836  0.6571  0.7042 -0.2241
 7149SOL    HW132909   1.720   1.810   9.922  1.4304 -0.7385  0.2591
 7149SOL    HW232910   1.637   1.836   9.808 -0.9053 -1.0334 -0.7459
 7150SOL     OW32911   0.319   1.205   5.693  0.3367  0.1110 -0.4172
 7150SOL    HW132912   0.287   1.136   5.752  1.0820 -0.8048 -1.0774
 7150SOL    HW232913   0.321   1.282   5.750  0.2615  0.0714 -0.3608
 7151SOL     OW32914   3.358   2.257  12.495  0.5120 -0.1171 -0.1935
 7151SOL    HW132915   3.452   2.269  12.487  0.6000 -1.2765 -0.8517
 7151SOL    HW232916   3.349   2.268  12.590 -2.6457  0.2055 -0.5321
 7152SOL     OW32917   0.631   3.984   9.967 -0.1044  0.1054 -0.1942
 7152SOL    HW132918   0.562   4.040   9.932  1.2173  1.7183 -0.1646
 7152SOL    HW232919   0.588   3.898   9.968 -0.5051  0.3051 -0.3050
 7153SOL     OW32920   3.977   1.162   6.581 -0.6730  0.6244  0.2277
 7153SOL    HW132921   3.929   1.192   6.658  0.6509  0.3120  1.1810
 7153SOL    HW232922   3.985   1.072   6.614  0.1984  1.4699  2.3332
 7154SOL     OW32923   3.583   3.741   7.848  0.0909 -0.5420 -0.2493
 7154SOL    HW132924   3.580   3.781   7.761 -0.5808 -1.8996 -0.8502
 7154SOL    HW232925   3.662   3.780   7.885 -1.1800  2.4907 -0.7091
 7155SOL     OW32926   2.418   1.496   2.736  0.2536 -0.3067  0.2120
 7155SOL    HW132927   2.479   1.431   2.701 -1.1993 -0.6014 -1.7885
 7155SOL    HW232928   2.364   1.527   2.664  0.7566  2.1024  0.8915
 7156SOL     OW32929   3.847   3.739   4.779  0.6148  0.2787  0.3216
 7156SOL    HW132930   3.883   3.729   4.867 -0.1171 -0.5057  0.5304
 7156SOL    HW232931   3.773   3.678   4.775 -0.0277  1.1176 -1.0264
 7157SOL     OW32932   3.794   0.403   6.922  0.0139 -0.2444  0.5725
 7157SOL    HW132933   3.811   0.337   6.989 -0.1550 -2.2549 -1.3587
 7157SOL    HW232934   3.699   0.402   6.933 -0.0100  0.2064  0.3762
 7158SOL     OW32935   2.729   0.548  10.265 -0.0888 -0.3106  0.1855
 7158SOL    HW132936   2.715   0.460  10.298 -1.3241 -1.8268 -4.3171
 7158SOL    HW232937   2.786   0.586  10.331  0.8534  0.0417 -0.8362
 7159SOL     OW32938   4.533   1.586  13.542 -0.3089  0.7243  0.2446
 7159SOL    HW132939   4.495   1.671  13.522  1.3799  1.0601 -1.6127
 7159SOL    HW232940   4.576   1.559  13.460 -0.2874 -0.5642  0.6712
 7160SOL     OW32941   1.329   4.266   5.648 -0.5083  0.5292  0.5325
 7160SOL    HW132942   1.280   4.349   5.646 -3.0062 -0.9655 -0.7768
 7160SOL    HW232943   1.403   4.294   5.702  0.0647 -1.9243  1.0050
 7161SOL     OW32944   0.384   0.710   4.759  0.2930 -0.3559 -0.3244
 7161SOL    HW132945   0.352   0.800   4.763 -0.3959 -0.5150 -1.9617
 7161SOL    HW232946   0.364   0.681   4.848 -0.6155 -1.7970 -0.9959
 7162SOL     OW32947   2.928   3.373   0.523 -0.1227 -0.1986  0.0172
 7162SOL    HW132948   2.946   3.346   0.613 -3.3193 -2.8267 -0.1495
 7162SOL    HW232949   2.852   3.428   0.545 -1.2151 -1.7491  0.0955
 7163SOL     OW32950   3.697   1.292   6.198 -0.5110 -0.0216  0.3702
 7163SOL    HW132951   3.660   1.299   6.286 -0.2755  1.9909  0.3085
 7163SOL    HW232952   3.782   1.335   6.208 -0.0913 -0.6623 -0.4633
 7164SOL     OW32953   1.385   0.666  14.692  0.0478  0.5974  0.3169
 7164SOL    HW132954   1.427   0.743  14.731  0.2721 -0.3375  1.9010
 7164SOL    HW232955   1.413   0.606  14.760 -0.4485  0.6164  0.5370
 7165SOL     OW32956   1.724   0.991  10.202 -0.3087  0.3726 -0.1380
 7165SOL    HW132957   1.678   0.940  10.268  0.2823 -1.8021 -1.4284
 7165SOL    HW232958   1.787   1.045  10.251  0.7964 -1.5329  0.5329
 7166SOL     OW32959   3.648   2.959   0.897 -0.4171 -0.5130  0.2976
 7166SOL    HW132960   3.564   2.935   0.857  0.2105 -1.0847 -0.6737
 7166SOL    HW232961   3.711   2.932   0.831  0.5081 -0.0647  1.0090
 7167SOL     OW32962   2.746   4.388   2.144  0.1561 -0.5086 -0.1088
 7167SOL    HW132963   2.820   4.330   2.130  1.6814  1.3502  0.2594
 7167SOL    HW232964   2.727   4.381   2.237 -0.9573  0.5996 -0.2468
 7168SOL     OW32965   1.986   3.916   7.601 -0.4320 -0.3096 -0.8648
 7168SOL    HW132966   1.972   3.828   7.567  0.1384 -0.9118  0.4647
 7168SOL    HW232967   2.073   3.942   7.570 -1.5398  2.0441 -1.9874
 7169SOL     OW32968   4.277   1.805  15.498  0.5353  0.2287 -0.1981
 7169SOL    HW132969   4.315   1.821  15.412  1.0799  1.5826  0.2956
 7169SOL    HW232970   4.285   1.710  15.509 -1.8392  0.1588  0.9650
 7170SOL     OW32971   2.578   0.091   0.231  0.3621  0.0131  0.2777
 7170SOL    HW132972   2.569   0.121   0.321  1.1139 -1.7300  0.9262
 7170SOL    HW232973   2.622   0.007   0.248  0.0367 -0.3144 -0.4683
 7171SOL     OW32974   3.476   2.538   6.096  0.4503 -0.2424 -0.4035
 7171SOL    HW132975   3.471   2.494   6.011 -2.0112 -0.4884 -0.1415
 7171SOL    HW232976   3.443   2.469   6.154 -2.1104  3.3859  2.4504
 7172SOL     OW32977   0.826   1.428  14.999  0.4040 -0.1255  0.3079
 7172SOL    HW132978   0.732   1.411  14.992 -0.0466  2.4033  0.2850
 7172SOL    HW232979   0.860   1.346  14.965  0.9994  0.2332  0.0471
 7173SOL     OW32980   3.325   1.913  13.234 -1.2416 -0.2057 -0.5716
 7173SOL    HW132981   3.412   1.888  13.202 -0.6492  0.1831  0.7580
 7173SOL    HW232982   3.265   1.873  13.171 -0.9227 -2.3139  0.4445
 7174SOL     OW32983   2.866   1.871   7.917 -0.0984  0.1271 -0.1009
 7174SOL    HW132984   2.910   1.913   7.990  1.9297  0.8835 -1.7760
 7174SOL    HW232985   2.894   1.928   7.846  1.7214  0.0150  0.5201
 7175SOL     OW32986   0.315   3.061   9.337 -0.0723 -0.1452  0.0892
 7175SOL    HW132987   0.260   3.138   9.328  0.6630  0.2384 -1.1742
 7175SOL    HW232988   0.359   3.087   9.417  1.1169 -0.3284 -0.5036
 7176SOL     OW32989   0.881   1.485   8.143 -0.3170  0.9994  0.1339
 7176SOL    HW132990   0.957   1.537   8.170 -0.1028  0.3530  0.7831
 7176SOL    HW232991   0.918   1.484   8.055  0.8376  0.6719  0.6154
 7177SOL     OW32992   2.871   1.687  17.299 -0.9943  0.0233  0.4130
 7177SOL    HW132993   2.937   1.660  17.363 -1.0581  2.2241  1.4045
 7177SOL    HW232994   2.898   1.633  17.225 -0.3694  0.4747  0.3147
 7178SOL     OW32995   2.917   0.518  10.491 -0.0581 -0.0156 -0.0560
 7178SOL    HW132996   2.978   0.458  10.449 -1.2860 -0.8884 -0.6179
 7178SOL    HW232997   2.885   0.461  10.561 -0.7979 -1.4590 -1.5558
 7179SOL     OW32998   0.513   1.449   3.912 -0.4195 -0.7239  0.2424
 7179SOL    HW132999   0.559   1.524   3.950  1.1889 -0.0485 -3.0432
 7179SOL    HW233000   0.432   1.489   3.880  0.7329  1.7233  0.3589
 7180SOL     OW33001   1.082   4.252   9.014 -0.1576  0.3324 -0.4223
 7180SOL    HW133002   1.149   4.273   9.079 -1.8625  1.0368  1.1181
 7180SOL    HW233003   1.111   4.257   8.923 -0.3432 -2.3704 -0.6482
 7181SOL     OW33004   4.239   0.973  16.892 -0.0802 -0.3794  0.0708
 7181SOL    HW133005   4.176   1.000  16.959  0.0926  0.3394 -0.0598
 7181SOL    HW233006   4.173   0.923  16.844  0.7198 -0.7419 -0.6470
 7182SOL     OW33007   0.789   3.316   3.258  0.2751 -0.5218  0.0713
 7182SOL    HW133008   0.804   3.362   3.175 -2.1316  2.2720  1.1938
 7182SOL    HW233009   0.712   3.367   3.282  1.0806  0.8522 -0.2139
 7183SOL     OW33010   2.677   0.377   7.540 -0.3465  0.2697 -0.3708
 7183SOL    HW133011   2.711   0.302   7.590 -0.7756 -0.9599 -1.9099
 7183SOL    HW233012   2.763   0.408   7.511 -1.3414  0.7392 -2.8406
 7184SOL     OW33013   0.395   1.331   6.299  0.0213  0.3849 -0.6924
 7184SOL    HW133014   0.397   1.311   6.392 -1.4383 -1.8182 -1.1333
 7184SOL    HW233015   0.478   1.298   6.265  0.0184  1.0010 -1.2995
 7185SOL     OW33016   1.758   3.575   2.899 -0.0960 -0.4631 -0.1485
 7185SOL    HW133017   1.706   3.642   2.854 -0.3128 -0.2935  0.3479
 7185SOL    HW233018   1.833   3.632   2.918  1.2217 -1.8356 -1.2462
 7186SOL     OW33019   4.599   2.552   1.368  1.0709  0.2077  0.0792
 7186SOL    HW133020   4.662   2.560   1.297  1.4815 -1.6524  0.2228
 7186SOL    HW233021   4.655   2.562   1.445  1.2204  1.1611 -0.1566
 7187SOL     OW33022   0.067   0.801  13.469  0.4489  0.2225 -0.1997
 7187SOL    HW133023   0.148   0.803  13.520  0.5060  0.1595 -0.2893
 7187SOL    HW233024   0.079   0.872  13.406  2.7081  1.4714  1.6423
 7188SOL     OW33025   0.503   1.642   5.992 -0.1472  0.3375 -0.1431
 7188SOL    HW133026   0.464   1.709   5.935  0.9941 -0.8650 -2.3417
 7188SOL    HW233027   0.430   1.593   6.030 -0.0463  0.3660  0.0867
 7189SOL     OW33028   3.639   0.792  11.508 -0.0728  0.4007  0.7913
 7189SOL    HW133029   3.588   0.821  11.433  1.5845 -0.9696 -0.8686
 7189SOL    HW233030   3.571   0.739  11.549 -2.4302  2.5751 -0.3619
 7190SOL     OW33031   3.017   3.436   6.344 -0.2195  0.1672 -0.2012
 7190SOL    HW133032   2.964   3.444   6.265 -0.4036  0.3155 -0.0609
 7190SOL    HW233033   2.968   3.367   6.389 -2.0887  2.2270  0.9069
 7191SOL     OW33034   1.638   1.923   1.227 -0.1117  0.0291 -0.7459
 7191SOL    HW133035   1.603   1.846   1.181  1.2895 -0.8366 -0.3689
 7191SOL    HW233036   1.557   1.970   1.246  1.7550  0.9955  4.6175
 7192SOL     OW33037   1.478   3.066   3.137 -0.4434 -0.0588 -0.4862
 7192SOL    HW133038   1.452   2.975   3.152 -0.9800  0.3760  1.1839
 7192SOL    HW233039   1.561   3.058   3.090 -0.2268 -0.3961 -0.0468
 7193SOL     OW33040   0.973   2.970  13.626 -0.5743  0.2280  0.0541
 7193SOL    HW133041   1.067   2.965  13.608 -0.7317 -0.5639 -0.5460
 7193SOL    HW233042   0.973   2.949  13.720 -0.8026  0.5551  0.1266
 7194SOL     OW33043   0.422   3.023  13.675  0.2927 -0.0117  0.5568
 7194SOL    HW133044   0.382   3.004  13.590  3.5589  0.9320 -1.2155
 7194SOL    HW233045   0.399   2.948  13.729  0.7306 -1.1694 -0.8720
 7195SOL     OW33046   1.632   2.421   5.423  0.0836 -0.0285  0.6686
 7195SOL    HW133047   1.633   2.480   5.499 -1.0273  0.7959  0.0538
 7195SOL    HW233048   1.627   2.474   5.343 -1.6316 -0.7842  0.2727
 7196SOL     OW33049   0.223   2.208   8.070 -0.3285  0.2706 -0.1618
 7196SOL    HW133050   0.218   2.247   7.983  1.0740 -0.3501 -0.5119
 7196SOL    HW233051   0.311   2.172   8.066  0.0979  1.1872  0.9839
 7197SOL     OW33052   4.531   0.187   8.105 -0.2635 -0.6074  0.4528
 7197SOL    HW133053   4.543   0.178   8.010 -1.2901  3.1331  0.0047
 7197SOL    HW233054   4.617   0.209   8.140 -0.5351  0.4947  0.4181
 7198SOL     OW33055   2.881   2.984   2.153  0.0630  0.5899 -0.2914
 7198SOL    HW133056   2.813   2.968   2.218  0.8169 -1.3118  0.0432
 7198SOL    HW233057   2.873   3.079   2.146  1.7766  0.7025 -0.7033
 7199SOL     OW33058   4.478   1.588   8.746 -0.0997 -0.4343 -0.3882
 7199SOL    HW133059   4.537   1.663   8.755  1.7180 -1.7592 -1.3705
 7199SOL    HW233060   4.454   1.584   8.839  0.5376 -1.8257 -0.2854
 7200SOL     OW33061   2.280   0.795   9.710 -0.0368 -0.0854  0.2038
 7200SOL    HW133062   2.288   0.889   9.693 -0.7207  0.0511  0.6307
 7200SOL    HW233063   2.185   0.793   9.718 -0.2005  0.8174 -1.4347
 7201SOL     OW33064   4.702   1.487   7.778 -0.1416 -0.3790 -0.2915
 7201SOL    HW133065   0.054   1.428   7.806 -1.1133 -1.5497 -0.3324
 7201SOL    HW233066   4.681   1.447   7.693 -1.8796 -0.8692  0.3709
 7202SOL     OW33067   0.937   2.971  10.356 -0.6378 -0.0352  0.1129
 7202SOL    HW133068   0.918   3.056  10.316  0.3568 -0.2711 -0.8643
 7202SOL    HW233069   0.976   2.918  10.287 -0.5898 -1.4716  1.2293
 7203SOL     OW33070   2.904   3.256   6.521  0.1876 -0.5567 -0.7761
 7203SOL    HW133071   2.823   3.233   6.566  0.8289 -1.6114 -0.1764
 7203SOL    HW233072   2.950   3.177   6.549  1.2953 -0.6051 -2.7467
 7204SOL     OW33073   1.632   4.571  10.235  0.2352 -0.1730  0.7688
 7204SOL    HW133074   1.626   4.506  10.165  1.6593  0.3797  0.1488
 7204SOL    HW233075   1.701   4.633  10.213  0.7937 -1.0800 -0.0232
 7205SOL     OW33076   2.023   0.255   4.283  0.7158  0.0095  0.2473
 7205SOL    HW133077   1.968   0.302   4.346 -1.0957  0.9454 -2.0491
 7205SOL    HW233078   2.035   0.172   4.330 -1.7472 -0.4934  0.0167
 7206SOL     OW33079   0.126   3.165   3.865  0.2089  0.0206 -0.0715
 7206SOL    HW133080   0.146   3.187   3.957  1.4606  1.8771 -0.7906
 7206SOL    HW233081   0.135   3.250   3.822 -0.7295  0.2150  0.1085
 7207SOL     OW33082   3.528   1.656   4.916 -0.4831 -0.1698  0.3265
 7207SOL    HW133083   3.556   1.570   4.884  0.0634 -0.2223  0.9283
 7207SOL    HW233084   3.438   1.633   4.939  0.0597  1.1423  3.7116
 7208SOL     OW33085   3.217   0.199   4.036  0.7044 -0.6900 -0.0028
 7208SOL    HW133086   3.276   0.275   4.033  0.0989 -0.1279  1.7597
 7208SOL    HW233087   3.166   0.203   3.955 -0.5523 -0.8061  0.7784
 7209SOL     OW33088   2.154   0.237   9.626  0.1852  0.4123 -0.0075
 7209SOL    HW133089   2.178   0.189   9.547 -1.0372  1.7533 -1.1714
 7209SOL    HW233090   2.186   0.321   9.592  0.8668 -0.7475 -2.1897
 7210SOL     OW33091   2.214   1.721  14.392  0.1864  0.2119  0.1003
 7210SOL    HW133092   2.179   1.673  14.466  2.4893 -0.5139  0.7155
 7210SOL    HW233093   2.263   1.788  14.439  0.3415 -0.2898  0.6498
 7211SOL     OW33094   3.015   4.268   7.860 -0.2919 -0.1606 -0.1642
 7211SOL    HW133095   3.105   4.302   7.855  0.0396 -1.3796 -2.7391
 7211SOL    HW233096   3.029   4.206   7.931  2.7899 -0.7801 -1.3097
 7212SOL     OW33097   2.074   1.279   7.628  0.6982 -0.1150  0.0290
 7212SOL    HW133098   2.060   1.191   7.663 -1.2720  0.4958  0.7605
 7212SOL    HW233099   2.062   1.335   7.705 -0.5129 -0.2849 -0.0458
 7213SOL     OW33100   2.390   3.248  15.349  0.1694 -0.0110 -0.2210
 7213SOL    HW133101   2.479   3.274  15.373  0.9039 -2.4228 -0.3502
 7213SOL    HW233102   2.372   3.191  15.424 -3.1986 -1.0462 -1.8172
 7214SOL     OW33103   4.522   2.193   7.294 -0.3781 -0.2716  0.3713
 7214SOL    HW133104   4.614   2.177   7.271 -0.3248  0.0705  0.3444
 7214SOL    HW233105   4.480   2.118   7.254 -0.9537  1.1461 -1.6853
 7215SOL     OW33106   3.599   3.885   7.223  0.4144  0.0256 -0.2062
 7215SOL    HW133107   3.545   3.820   7.178 -0.4356  0.4561  0.2079
 7215SOL    HW233108   3.670   3.835   7.264  0.6034  0.9188  0.5403
 7216SOL     OW33109   3.029   2.502   4.622 -0.0023  0.0696 -0.2938
 7216SOL    HW133110   3.113   2.527   4.584  0.8157 -1.9762  0.1403
 7216SOL    HW233111   2.981   2.578   4.589  1.4722  0.1382 -2.2474
 7217SOL     OW33112   4.477   1.698   7.345  0.2816 -0.7143  0.0658
 7217SOL    HW133113   4.529   1.656   7.276  4.0668  1.1871  1.8156
 7217SOL    HW233114   4.521   1.688   7.429  2.2155 -2.6529 -1.1538
 7218SOL     OW33115   1.949   1.916   4.353  0.1061  0.0536 -0.4361
 7218SOL    HW133116   1.869   1.865   4.343 -1.7613  2.4519  2.3016
 7218SOL    HW233117   1.984   1.909   4.264 -0.4747  0.6826 -0.7131
 7219SOL     OW33118   2.489   3.733   7.316  0.5181 -0.1424  0.0955
 7219SOL    HW133119   2.559   3.668   7.326  0.9280  0.3219  0.2519
 7219SOL    HW233120   2.456   3.703   7.231  0.9907 -0.1593 -0.0868
 7220SOL     OW33121   1.646   1.279   7.299 -0.5302  0.1219  0.4936
 7220SOL    HW133122   1.712   1.302   7.364 -2.2043 -0.4089  2.3743
 7220SOL    HW233123   1.569   1.275   7.356  0.2993 -0.8691  1.5582
 7221SOL     OW33124   0.856   3.324   4.967  0.1062 -0.2366 -0.0633
 7221SOL    HW133125   0.938   3.368   4.943 -0.2688  0.7261  0.4183
 7221SOL    HW233126   0.795   3.396   4.953 -0.8302 -0.7708  1.2348
 7222SOL     OW33127   0.837   0.612   8.040 -0.0343  0.4893 -0.0428
 7222SOL    HW133128   0.762   0.667   8.063 -0.9692 -0.7905  0.0251
 7222SOL    HW233129   0.879   0.658   7.967  1.7893 -3.7231 -1.6459
 7223SOL     OW33130   0.683   1.724   9.019 -0.1600  0.0706  0.9511
 7223SOL    HW133131   0.681   1.629   9.033 -0.0719  0.1849  1.7646
 7223SOL    HW233132   0.769   1.743   8.982  0.2472 -0.3669  1.6587
 7224SOL     OW33133   1.110   4.345  17.375 -0.2884 -0.0059 -0.2337
 7224SOL    HW133134   1.061   4.263  17.377 -0.5373  0.2540  3.5891
 7224SOL    HW233135   1.164   4.332  17.453  0.0919  0.4337 -0.4226
 7225SOL     OW33136   0.221   2.821   7.433 -0.1547  0.6666 -1.1164
 7225SOL    HW133137   0.312   2.795   7.446  0.3404  3.0071  0.0417
 7225SOL    HW233138   0.177   2.770   7.501  1.5868 -1.4141 -1.5641
 7226SOL     OW33139   4.234   0.409   7.913 -0.6013 -0.6130 -0.0794
 7226SOL    HW133140   4.276   0.440   7.993  0.8260  0.3326 -1.2166
 7226SOL    HW233141   4.304   0.442   7.858 -0.3948 -1.5392 -0.3793
 7227SOL     OW33142   0.034   2.393   4.648 -0.0495 -0.3813 -0.1127
 7227SOL    HW133143   0.002   2.304   4.665  0.9247 -0.4897  1.1214
 7227SOL    HW233144   4.716   2.411   4.561  0.4073  1.5411  0.1008
 7228SOL     OW33145   3.150   0.767   8.859 -0.9507  0.1842 -0.3655
 7228SOL    HW133146   3.062   0.785   8.891 -0.5808  2.4856 -0.6628
 7228SOL    HW233147   3.135   0.736   8.770  1.4352  1.8920 -1.3700
 7229SOL     OW33148   1.269   0.411   6.862 -0.0342 -0.5933 -0.1091
 7229SOL    HW133149   1.357   0.407   6.898 -0.1326  1.4606  0.3796
 7229SOL    HW233150   1.214   0.459   6.925  0.8150  0.9401 -0.5403
 7230SOL     OW33151   3.273   3.898  14.246 -0.3411 -0.6599 -0.3399
 7230SOL    HW133152   3.352   3.948  14.225 -0.6962 -0.2913 -0.8171
 7230SOL    HW233153   3.321   3.833  14.296  1.7847  1.4305  0.3519
 7231SOL     OW33154   0.632   4.405  12.044  0.4119 -0.0079 -0.3996
 7231SOL    HW133155   0.573   4.375  12.113  0.5980  1.5194  0.4101
 7231SOL    HW233156   0.571   4.404  11.970  1.8451 -3.0945 -1.5758
 7232SOL     OW33157   2.054   3.675  15.921 -0.8808  0.2596 -0.2379
 7232SOL    HW133158   2.023   3.722  15.843 -1.8547  0.7389  0.4481
 7232SOL    HW233159   2.016   3.588  15.907  1.7102 -0.4904 -2.6556
 7233SOL     OW33160   1.702   1.606   5.437  1.0848  0.1859 -0.7986
 7233SOL    HW133161   1.719   1.612   5.343 -1.5375  2.8467 -1.0665
 7233SOL    HW233162   1.619   1.558   5.439  0.0521  2.0051 -0.8869
 7234SOL     OW33163   3.333   1.861  10.279 -0.1810 -0.2163  0.0167
 7234SOL    HW133164   3.332   1.957  10.272  0.7626 -0.3000 -1.3631
 7234SOL    HW233165   3.424   1.843  10.252 -0.4649 -0.9013 -0.4717
 7235SOL     OW33166   0.523   0.165   4.191  0.1686  0.0593 -0.4149
 7235SOL    HW133167   0.479   0.250   4.192  0.3551  0.1459  0.5834
 7235SOL    HW233168   0.611   0.196   4.170  0.9442  0.1701  3.0654
 7236SOL     OW33169   2.482   3.402  11.141 -0.0945  0.1993 -0.3269
 7236SOL    HW133170   2.548   3.337  11.168  0.7457  0.5639 -1.5139
 7236SOL    HW233171   2.526   3.487  11.140 -2.4213  1.3855 -0.1501
 7237SOL     OW33172   3.063   0.631   7.949 -0.1160 -0.4125  0.0515
 7237SOL    HW133173   2.983   0.622   8.001 -0.7422 -3.3015 -1.3930
 7237SOL    HW233174   3.061   0.724   7.926 -0.8348 -0.4390  0.0212
 7238SOL     OW33175   4.099   3.888   9.203 -0.6812 -0.1057 -0.4660
 7238SOL    HW133176   4.119   3.974   9.241 -1.8271  0.5909 -1.4575
 7238SOL    HW233177   4.004   3.893   9.211 -0.7622 -0.4055 -1.3331
 7239SOL     OW33178   0.658   3.361   6.019 -0.3378 -0.5966 -0.3747
 7239SOL    HW133179   0.609   3.342   5.939  0.5496 -2.2294 -0.5281
 7239SOL    HW233180   0.741   3.376   5.974  0.4946  0.3293  1.5036
 7240SOL     OW33181   1.582   0.098   5.112 -0.0144 -0.6147 -0.0463
 7240SOL    HW133182   1.568   0.102   5.018 -1.2538 -1.0051  0.1238
 7240SOL    HW233183   1.499   0.052   5.126 -1.0718  0.7575 -1.8890
 7241SOL     OW33184   4.115   2.796   6.375  0.0474 -0.3239  0.3060
 7241SOL    HW133185   4.099   2.840   6.292 -1.7118  0.6760  1.1723
 7241SOL    HW233186   4.082   2.857   6.441  1.0543  0.8656 -0.3057
 7242SOL     OW33187   2.909   2.120  12.222 -0.3532 -0.0820 -0.2942
 7242SOL    HW133188   2.862   2.131  12.139 -0.7431 -0.5196 -0.1308
 7242SOL    HW233189   2.994   2.131  12.180 -0.5696 -1.3549 -1.0392
 7243SOL     OW33190   2.988   1.422   5.258  0.0611 -0.0449 -0.3093
 7243SOL    HW133191   3.013   1.431   5.166  0.3309 -2.2653 -0.4451
 7243SOL    HW233192   2.896   1.408   5.236 -0.3801 -0.3691  1.7216
 7244SOL     OW33193   4.561   0.459   6.749 -0.3437 -0.0318  0.0900
 7244SOL    HW133194   4.522   0.382   6.708  0.4140 -1.7096  2.5320
 7244SOL    HW233195   4.608   0.498   6.675 -1.9083  1.7500  0.0281
 7245SOL     OW33196   0.020   4.653  16.229 -0.1338 -0.2096  0.4790
 7245SOL    HW133197   0.068   4.601  16.164  1.6099  0.4956  1.1978
 7245SOL    HW233198   4.689   4.586  16.276 -0.7519 -0.9827 -1.2689
 7246SOL     OW33199   1.182   1.950   2.675  0.2600  0.0080  0.5672
 7246SOL    HW133200   1.215   1.928   2.588 -0.5557 -0.3275  0.3483
 7246SOL    HW233201   1.157   1.862   2.702 -0.0381 -0.7409 -2.1115
 7247SOL     OW33202   0.387   3.608  14.580 -0.4400 -0.3820  0.3400
 7247SOL    HW133203   0.306   3.570  14.547 -0.6898  0.4779 -0.0519
 7247SOL    HW233204   0.398   3.559  14.661 -0.5843 -0.0299  0.5744
 7248SOL     OW33205   2.576   3.652   5.134  0.1591  0.4234  0.0431
 7248SOL    HW133206   2.576   3.628   5.041  0.4603 -1.1807  0.4556
 7248SOL    HW233207   2.484   3.637   5.155  0.3250 -0.1901  0.3472
 7249SOL     OW33208   1.346   2.533   3.727 -0.2206  0.1106  0.5152
 7249SOL    HW133209   1.336   2.460   3.666 -0.3112 -0.3578  1.0910
 7249SOL    HW233210   1.421   2.502   3.779  0.0288 -2.3776 -1.3314
 7250SOL     OW33211   3.135   1.904   8.650 -0.6015 -0.0657  0.5769
 7250SOL    HW133212   3.171   1.972   8.593 -0.9706  1.8857  2.6642
 7250SOL    HW233213   3.179   1.920   8.733  3.5338  0.4472 -1.7542
 7251SOL     OW33214   4.623   3.956   0.872 -0.2508  0.1561  0.1132
 7251SOL    HW133215   4.668   4.040   0.861 -0.6090  0.2815 -0.3699
 7251SOL    HW233216   4.531   3.981   0.867 -1.1917 -3.0539  1.5795
 7252SOL     OW33217   2.207   3.519  12.760  0.0209 -0.1740  0.0684
 7252SOL    HW133218   2.250   3.479  12.685  1.7097 -0.8558  1.3996
 7252SOL    HW233219   2.179   3.434  12.793  3.7017 -0.7706  1.6704
 7253SOL     OW33220   0.731   1.340   8.480 -0.3737 -0.1375  0.1094
 7253SOL    HW133221   0.654   1.359   8.534  0.4056 -0.1368  1.2370
 7253SOL    HW233222   0.751   1.422   8.436 -1.6009 -0.1109 -0.3838
 7254SOL     OW33223   3.112   0.204   1.718 -0.6810 -0.4912 -0.4069
 7254SOL    HW133224   3.061   0.136   1.761  0.2318  0.7587  2.6341
 7254SOL    HW233225   3.144   0.156   1.641  2.6180  2.5432 -0.9519
 7255SOL     OW33226   4.597   4.559   5.372  0.2037  0.0546  0.0471
 7255SOL    HW133227   4.664   4.585   5.435  0.6395 -1.0256  0.0148
 7255SOL    HW233228   4.626   4.471   5.350  0.9602  0.3434 -0.0990
 7256SOL     OW33229   1.249   0.963   9.016 -0.2345 -0.1856 -0.4978
 7256SOL    HW133230   1.238   0.926   9.104  1.0975  1.3795  0.3346
 7256SOL    HW233231   1.212   1.052   9.019  3.6400  1.3902  0.4599
 7257SOL     OW33232   0.950   1.656  14.999  0.5255  0.5165 -0.0472
 7257SOL    HW133233   0.959   1.641  15.093  1.4534 -1.1340 -0.4043
 7257SOL    HW233234   0.914   1.575  14.964  2.1738  0.3550 -1.3720
 7258SOL     OW33235   0.720   4.611  13.562 -0.1237  0.8470 -0.0262
 7258SOL    HW133236   0.681   4.651  13.640  0.3529 -0.7725  1.0295
 7258SOL    HW233237   0.647   4.557  13.532  0.8050 -0.5694  0.2974
 7259SOL     OW33238   1.406   4.674   3.963 -0.0965 -0.1006  0.2918
 7259SOL    HW133239   1.393   4.677   3.868  0.5213 -0.0903  0.2045
 7259SOL    HW233240   1.419   4.580   3.972  2.0359  0.1889  0.4214
 7260SOL     OW33241   3.751   3.401   7.131 -0.0746 -0.7184 -0.3747
 7260SOL    HW133242   3.844   3.418   7.122  0.0175 -1.9494 -1.7721
 7260SOL    HW233243   3.746   3.352   7.213 -4.2698  2.0510  1.0328
 7261SOL     OW33244   4.532   4.254  16.006 -1.0424 -0.4182  0.0747
 7261SOL    HW133245   4.562   4.293  16.089 -0.6180 -0.8702  0.1358
 7261SOL    HW233246   4.601   4.188  16.000  0.9727  1.6295  0.4838
 7262SOL     OW33247   1.015   3.188   2.071 -0.3330 -0.0071  0.3589
 7262SOL    HW133248   1.108   3.191   2.095 -0.2553 -0.3449  0.0970
 7262SOL    HW233249   0.978   3.118   2.125  1.4868 -0.7350  0.6599
 7263SOL     OW33250   0.393   2.617   6.201  0.1291  0.4887 -0.4292
 7263SOL    HW133251   0.331   2.548   6.227  2.3758 -1.3255  0.1101
 7263SOL    HW233252   0.356   2.704   6.217 -1.4182 -0.5266  1.5363
 7264SOL     OW33253   2.332   3.359   3.878 -0.3615  0.3884  0.0015
 7264SOL    HW133254   2.425   3.353   3.857 -0.5040  0.1928 -0.5467
 7264SOL    HW233255   2.333   3.431   3.942 -0.6507  0.6359 -0.2734
 7265SOL     OW33256   0.608   1.441   3.571 -0.5106  0.2771 -0.4108
 7265SOL    HW133257   0.682   1.425   3.629 -0.8547 -1.7491 -0.5149
 7265SOL    HW233258   0.647   1.456   3.485 -1.6216 -2.3679 -1.3825
 7266SOL     OW33259   0.718   4.351   4.626 -0.1045  0.7105 -0.1968
 7266SOL    HW133260   0.696   4.396   4.544  0.5343  0.9254 -0.2520
 7266SOL    HW233261   0.812   4.330   4.625 -0.3824 -0.5085  0.1841
 7267SOL     OW33262   1.656   3.421   5.609  0.5834  0.0065 -0.0606
 7267SOL    HW133263   1.616   3.468   5.536  1.2342 -0.8731 -0.9782
 7267SOL    HW233264   1.709   3.357   5.561  1.5198 -1.9974  3.5928
 7268SOL     OW33265   2.625   3.819   7.558 -0.2452  0.5245 -0.7547
 7268SOL    HW133266   2.649   3.839   7.649 -1.1589 -1.2221 -0.1501
 7268SOL    HW233267   2.543   3.774   7.574  0.9761 -1.5041 -0.1638
 7269SOL     OW33268   2.712   1.022  12.887 -0.1580 -0.0932  0.3867
 7269SOL    HW133269   2.731   1.097  12.831  0.5981 -1.0189 -0.5878
 7269SOL    HW233270   2.726   1.065  12.972  0.2039  0.8210 -0.1403
 7270SOL     OW33271   2.896   0.786  14.245 -0.0407  0.3440  0.0579
 7270SOL    HW133272   2.846   0.825  14.173 -1.7006 -1.0006  0.4695
 7270SOL    HW233273   2.821   0.739  14.283  0.1134 -0.9156 -1.1542
 7271SOL     OW33274   3.352   1.497   9.801 -0.2931  0.0140 -0.5045
 7271SOL    HW133275   3.400   1.572   9.767  0.8165 -1.4399 -2.0899
 7271SOL    HW233276   3.374   1.487   9.894 -0.5252 -0.4985 -0.5050
 7272SOL     OW33277   3.565   2.367   2.756 -0.6272  0.3540 -0.4763
 7272SOL    HW133278   3.595   2.276   2.758  0.8001  0.8440  0.3125
 7272SOL    HW233279   3.559   2.390   2.849 -1.3101  2.1303 -0.9570
 7273SOL     OW33280   3.802   3.220   2.437  0.0157 -0.2257  0.0720
 7273SOL    HW133281   3.891   3.211   2.404 -0.3103 -0.7642 -0.6351
 7273SOL    HW233282   3.810   3.158   2.509  0.7273  0.5002  0.6266
 7274SOL     OW33283   1.051   0.583  15.739 -0.7598 -0.2817 -0.3052
 7274SOL    HW133284   0.993   0.529  15.794 -2.6160  1.0729 -0.9246
 7274SOL    HW233285   1.136   0.541  15.749 -1.0331 -0.7839 -0.0492
 7275SOL     OW33286   4.167   4.405   4.082 -0.2678  0.2553  0.0977
 7275SOL    HW133287   4.098   4.362   4.031  1.2410 -1.6571 -0.3454
 7275SOL    HW233288   4.176   4.344   4.155  1.9798  2.3564  1.5649
 7276SOL     OW33289   1.450   4.402   4.015  0.0389 -0.4004  0.0448
 7276SOL    HW133290   1.406   4.337   4.069 -1.7689  3.1702  2.8904
 7276SOL    HW233291   1.539   4.398   4.049  0.5155 -1.7597 -1.3937
 7277SOL     OW33292   3.038   1.507   7.919 -0.4938  0.0054 -0.2295
 7277SOL    HW133293   3.068   1.447   7.988  1.7349  2.3756  0.8787
 7277SOL    HW233294   2.996   1.570   7.977 -2.1531 -1.7633  0.4963
 7278SOL     OW33295   4.516   1.342   5.312 -0.1789 -0.3423 -0.1838
 7278SOL    HW133296   4.566   1.380   5.240  0.7226 -1.3769 -0.1067
 7278SOL    HW233297   4.524   1.414   5.374 -0.4544 -0.5724  0.1180
 7279SOL     OW33298   1.576   0.862  10.691  0.1208  0.0698  0.0004
 7279SOL    HW133299   1.485   0.835  10.703  0.0729  1.4946  2.7480
 7279SOL    HW233300   1.614   0.796  10.749  1.4845 -0.0856 -1.0658
 7280SOL     OW33301   1.926   4.659  15.499  1.1440  1.0245 -0.1234
 7280SOL    HW133302   1.969   4.667  15.414  2.3643  2.7227  0.6607
 7280SOL    HW233303   1.846   4.608  15.490  1.3788  0.7046 -0.4356
 7281SOL     OW33304   2.153   3.974   8.279  0.5820 -0.3643 -0.0493
 7281SOL    HW133305   2.243   3.952   8.301  0.3304  0.8581  2.2298
 7281SOL    HW233306   2.162   4.068   8.263 -0.2667 -0.6296 -2.1380
 7282SOL     OW33307   0.202   1.442   5.124 -0.1949  0.4750 -0.0664
 7282SOL    HW133308   0.218   1.468   5.215 -0.2134 -0.2430  0.1433
 7282SOL    HW233309   0.290   1.415   5.100 -0.3386  0.1679 -0.2466
 7283SOL     OW33310   0.828   0.029   6.127  0.1269  0.1601 -0.0615
 7283SOL    HW133311   0.817   0.019   6.222 -1.2660  0.0614 -0.2227
 7283SOL    HW233312   0.748   4.708   6.092  2.4052 -3.1824 -1.5081
 7284SOL     OW33313   1.879   0.899   4.719  0.3216 -0.2361  0.6070
 7284SOL    HW133314   1.784   0.893   4.729  0.5016 -3.3573  0.3176
 7284SOL    HW233315   1.903   0.807   4.729 -1.1875 -0.7953 -0.9016
 7285SOL     OW33316   0.498   0.208   3.530  0.3580 -0.4490  0.7361
 7285SOL    HW133317   0.453   0.138   3.482 -2.0967 -0.5406  3.1870
 7285SOL    HW233318   0.589   0.201   3.501  0.2169 -0.7788  0.3745
 7286SOL     OW33319   1.329   2.539  15.283  0.0014  0.0950  0.2580
 7286SOL    HW133320   1.350   2.511  15.373  1.6727 -0.2898 -0.2365
 7286SOL    HW233321   1.251   2.485  15.289 -0.5869  0.6452 -2.5421
 7287SOL     OW33322   0.391   2.226   3.024  0.3393 -0.8438  0.0221
 7287SOL    HW133323   0.385   2.157   2.957  1.4032  1.3116 -2.3037
 7287SOL    HW233324   0.307   2.272   3.016  0.8010  0.4050  2.5373
 7288SOL     OW33325   3.127   4.607   5.209 -0.3904 -1.1882  0.3654
 7288SOL    HW133326   3.179   4.533   5.241 -0.0165 -0.7983  0.6570
 7288SOL    HW233327   3.140   4.664   5.285  0.8863 -1.1907  0.1439
 7289SOL     OW33328   3.116   3.762  15.105 -0.1169 -0.2549  0.2848
 7289SOL    HW133329   3.139   3.852  15.126  0.4631  0.5601 -3.7650
 7289SOL    HW233330   3.189   3.748  15.044  1.5897  2.8793  1.6111
 7290SOL     OW33331   1.893   0.403   0.851 -0.2598 -0.1048 -0.1970
 7290SOL    HW133332   1.798   0.419   0.847 -0.1999  0.2163 -0.3098
 7290SOL    HW233333   1.932   0.490   0.861  1.0755 -0.4994 -1.9165
 7291SOL     OW33334   2.664   3.702   3.331 -0.2482 -0.1255 -0.4209
 7291SOL    HW133335   2.650   3.639   3.402  1.7022  0.1610  0.2173
 7291SOL    HW233336   2.599   3.768   3.359  2.0350  0.7561  2.7899
 7292SOL     OW33337   1.046   2.725   8.915  0.2499  0.5652 -0.1506
 7292SOL    HW133338   1.086   2.810   8.895  0.7871  0.4652  0.4897
 7292SOL    HW233339   1.039   2.728   9.011 -0.5839 -1.5934 -0.1381
 7293SOL     OW33340   0.779   0.819  13.902  0.5395  0.1282 -0.6314
 7293SOL    HW133341   0.695   0.790  13.867  1.2597 -3.2159  0.4133
 7293SOL    HW233342   0.801   0.881  13.831 -0.8702  0.9023 -0.3998
 7294SOL     OW33343   4.620   0.576  13.097  0.1397  0.5286 -0.5695
 7294SOL    HW133344   4.653   0.611  13.179 -0.8286 -0.7852  0.3682
 7294SOL    HW233345   4.695   0.522  13.071 -0.3398  0.1220 -1.1299
 7295SOL     OW33346   0.114   2.892   2.949 -0.0069 -0.1625  0.3672
 7295SOL    HW133347   0.135   2.824   2.885  0.8449  2.8767 -2.5475
 7295SOL    HW233348   0.186   2.869   3.009 -0.5239 -1.5102  0.4729
 7296SOL     OW33349   1.499   2.504   3.388  0.3134 -0.1390  0.1114
 7296SOL    HW133350   1.423   2.538   3.340 -0.7360  0.4510  2.1668
 7296SOL    HW233351   1.458   2.437   3.442  0.1747 -1.8849 -2.1774
 7297SOL     OW33352   3.656   0.200  15.603  0.5309 -0.4105 -0.3286
 7297SOL    HW133353   3.741   0.234  15.574  0.5568  1.0675  1.5295
 7297SOL    HW233354   3.608   0.184  15.522 -0.8613 -1.5077  0.7123
 7298SOL     OW33355   1.652   4.361   9.750 -0.7741  0.2328 -0.4625
 7298SOL    HW133356   1.575   4.417   9.735  0.5846  2.3960  0.6809
 7298SOL    HW233357   1.657   4.314   9.667  1.6691 -0.0643 -0.1309
 7299SOL     OW33358   0.939   0.547   7.598  0.1663  0.3802  0.2222
 7299SOL    HW133359   0.905   0.490   7.667  0.2418  0.8474  0.6427
 7299SOL    HW233360   0.993   0.492   7.540 -1.0869  0.8210 -1.3757
 7300SOL     OW33361   3.451   0.181   2.955 -0.1534 -0.1633  0.5635
 7300SOL    HW133362   3.534   0.193   3.003 -1.2974 -0.4843  2.6213
 7300SOL    HW233363   3.430   0.093   2.984  2.5779 -1.0896 -0.2178
 7301SOL     OW33364   4.220   4.689  10.106  0.6550 -0.0175  0.1453
 7301SOL    HW133365   4.248   0.003  10.020  0.4010 -1.5457 -0.5014
 7301SOL    HW233366   4.267   4.607  10.118 -0.8025 -0.8797  0.0616
 7302SOL     OW33367   1.944   4.671   2.927  0.3362 -0.7681  0.2402
 7302SOL    HW133368   1.875   4.608   2.904 -1.0987  1.4134 -1.4312
 7302SOL    HW233369   1.917   0.029   2.875 -1.4677 -0.9322  0.9297
 7303SOL     OW33370   3.919   1.388   5.109  0.2488 -0.3717 -0.1632
 7303SOL    HW133371   4.001   1.353   5.076  1.1300  0.5215  1.0985
 7303SOL    HW233372   3.939   1.394   5.202  0.6703 -0.6145 -0.2415
 7304SOL     OW33373   3.254   2.106   0.801 -0.4124 -0.5119 -0.0583
 7304SOL    HW133374   3.182   2.150   0.846 -1.0622  0.4531 -2.0554
 7304SOL    HW233375   3.314   2.081   0.871  0.2356 -2.3327 -1.2700
 7305SOL     OW33376   0.298   2.456  15.692  0.6429 -0.3244  0.5684
 7305SOL    HW133377   0.387   2.482  15.717  0.4082  0.5299  0.5479
 7305SOL    HW233378   0.310   2.409  15.610 -2.1063 -1.3922  0.7993
 7306SOL     OW33379   2.083   0.330   1.381 -0.7895  0.1230  0.2991
 7306SOL    HW133380   2.044   0.315   1.295 -2.6953  1.7123  0.8963
 7306SOL    HW233381   2.151   0.387   1.344 -1.4858  0.7369 -0.0165
 7307SOL     OW33382   4.221   2.011   4.461 -0.1117  0.9254 -0.4019
 7307SOL    HW133383   4.269   2.088   4.429 -0.9440  1.1032 -1.2416
 7307SOL    HW233384   4.259   1.992   4.546  0.3426  3.1386 -0.1040
 7308SOL     OW33385   3.327   1.921   0.362  0.4360  0.5865 -0.4760
 7308SOL    HW133386   3.377   1.982   0.415 -0.9089  0.0381  1.4570
 7308SOL    HW233387   3.330   1.844   0.419  0.9751  0.0820 -1.1766
 7309SOL     OW33388   4.322   2.035   6.604  0.8983 -0.3850  0.2664
 7309SOL    HW133389   4.280   2.114   6.637 -1.0584 -1.7087  0.9723
 7309SOL    HW233390   4.355   2.058   6.518 -1.0388  2.8945  0.4053
 7310SOL     OW33391   3.229   0.334   4.650  0.4165  0.0766  0.6298
 7310SOL    HW133392   3.306   0.388   4.632  0.2988 -0.6979 -2.1821
 7310SOL    HW233393   3.263   0.244   4.643  0.7983  0.3826 -1.2568
 7311SOL     OW33394   3.022   1.701   0.059 -0.1389  0.5278  0.2310
 7311SOL    HW133395   3.042   1.755   0.135  2.2216  0.2531 -0.1759
 7311SOL    HW233396   3.111   1.678   0.033  0.1497  1.6172  0.2632
 7312SOL     OW33397   0.220   2.482   6.366 -0.0270  0.5437 -0.0268
 7312SOL    HW133398   0.267   2.431   6.432  0.2637  2.6703  1.3762
 7312SOL    HW233399   0.202   2.411   6.304 -0.2955  0.8412 -0.2864
 7313SOL     OW33400   2.030   1.145   3.920 -0.1415  0.2094 -0.1439
 7313SOL    HW133401   2.121   1.122   3.938 -0.1227  1.0115  0.7738
 7313SOL    HW233402   2.028   1.135   3.825  0.3292  0.2470 -0.1545
 7314SOL     OW33403   4.567   3.217   4.818  0.9812 -0.1624  0.3066
 7314SOL    HW133404   4.582   3.302   4.778 -0.3577  0.3178  0.8360
 7314SOL    HW233405   4.540   3.234   4.909 -1.2856  0.4296 -0.4860
 7315SOL     OW33406   4.068   2.782   0.763 -0.5312 -0.0751 -0.0983
 7315SOL    HW133407   4.151   2.817   0.732 -0.5592 -2.5217 -3.0040
 7315SOL    HW233408   4.096   2.715   0.825 -0.8725  1.2395  1.4504
 7316SOL     OW33409   4.214   3.470   0.682  0.5113 -0.4481 -0.0901
 7316SOL    HW133410   4.175   3.430   0.760 -1.1630 -1.2715 -1.3488
 7316SOL    HW233411   4.203   3.563   0.702 -0.1143 -1.0046  2.1913
 7317SOL     OW33412   2.186   3.224  15.155 -0.3666  0.1006 -0.2534
 7317SOL    HW133413   2.263   3.223  15.211 -1.7192 -0.6030  1.6031
 7317SOL    HW233414   2.130   3.233  15.232  1.1483 -1.1373  0.9868
 7318SOL     OW33415   4.099   4.235   0.797 -0.2561  0.0711  0.3731
 7318SOL    HW133416   4.092   4.145   0.830 -0.8521  0.6401  1.7805
 7318SOL    HW233417   4.194   4.237   0.806 -0.3208  0.3577  0.9550
 7319SOL     OW33418   3.926   2.286  12.277  0.4406  0.0453  0.6325
 7319SOL    HW133419   3.878   2.367  12.291  1.4222  0.5259  1.2083
 7319SOL    HW233420   3.944   2.281  12.183  1.6483  0.4372  0.8414
 7320SOL     OW33421   3.655   2.917   1.741  0.2338 -0.9103 -0.3755
 7320SOL    HW133422   3.732   2.883   1.786  0.4624  0.9919  0.6593
 7320SOL    HW233423   3.701   2.975   1.682  3.4096  0.5085  3.4739
 7321SOL     OW33424   0.105   2.887  15.490 -0.3781  0.0227 -0.4443
 7321SOL    HW133425   0.055   2.872  15.410 -2.2036 -1.6306  1.0151
 7321SOL    HW233426   0.139   2.975  15.474  0.1821  0.2587  1.9743
 7322SOL     OW33427   2.130   3.400   5.635 -0.0197 -0.0269 -0.0821
 7322SOL    HW133428   2.049   3.355   5.657 -0.7891  1.6533  0.4525
 7322SOL    HW233429   2.101   3.490   5.623 -0.9755 -0.0875  1.9258
 7323SOL     OW33430   2.953   0.632   1.723  0.4449 -0.1250  0.4752
 7323SOL    HW133431   3.000   0.608   1.644 -1.0806 -1.1444 -0.1185
 7323SOL    HW233432   3.009   0.700   1.761  0.0789  0.1957  0.4300
 7324SOL     OW33433   1.128   0.474  13.376  0.9510  1.0716  0.2233
 7324SOL    HW133434   1.101   0.540  13.440 -2.2767 -0.1283  0.1039
 7324SOL    HW233435   1.166   0.533  13.311 -0.7341 -0.4368 -2.1093
 7325SOL     OW33436   0.026   1.573   6.234 -0.8061  0.3042 -0.2227
 7325SOL    HW133437   0.008   1.554   6.142  2.5706  0.5582 -0.9221
 7325SOL    HW233438   0.030   1.668   6.235  0.7254  0.2197  3.6234
 7326SOL     OW33439   1.612   4.006   0.572 -0.2238  0.0205 -0.2078
 7326SOL    HW133440   1.631   4.075   0.635  1.4735 -1.7466  1.1806
 7326SOL    HW233441   1.641   3.924   0.611 -0.6464 -0.6413 -1.2816
 7327SOL     OW33442   0.878   3.375  17.007 -0.2719  0.4386  0.1733
 7327SOL    HW133443   0.964   3.404  16.978  0.1486  0.4841  1.5033
 7327SOL    HW233444   0.826   3.440  16.959 -0.2108  1.1584  1.0838
 7328SOL     OW33445   2.706   2.392   2.071 -0.2299  0.3037  0.5597
 7328SOL    HW133446   2.623   2.345   2.065 -0.6893  0.9594  1.7607
 7328SOL    HW233447   2.746   2.359   1.991 -0.1271  2.1731 -0.1783
 7329SOL     OW33448   0.297   1.012   3.148  0.4028  0.0234 -0.0044
 7329SOL    HW133449   0.305   0.980   3.058  0.9026  1.9206 -0.6273
 7329SOL    HW233450   0.357   0.955   3.194 -0.4706 -0.9347 -0.0480
 7330SOL     OW33451   2.226   0.285   1.862  0.0705 -0.5744  0.2370
 7330SOL    HW133452   2.226   0.321   1.773  0.5188 -3.5797 -1.0132
 7330SOL    HW233453   2.319   0.261   1.869  0.6375  1.7354  0.4363
 7331SOL     OW33454   0.710   3.553  16.890 -0.1022 -0.0564 -0.3125
 7331SOL    HW133455   0.662   3.579  16.811  3.0719  0.2339 -2.1648
 7331SOL    HW233456   0.637   3.534  16.948  1.9470 -2.8434  1.3251
 7332SOL     OW33457   3.513   4.376  16.099 -0.0544 -0.4510 -0.1485
 7332SOL    HW133458   3.500   4.281  16.094 -3.2975 -0.0397  1.0370
 7332SOL    HW233459   3.424   4.399  16.124 -0.5389 -0.2331 -2.0535
 7333SOL     OW33460   4.532   0.391   7.691 -0.4125 -0.0206 -0.0569
 7333SOL    HW133461   4.487   0.475   7.680 -0.7084 -0.1270  0.3495
 7333SOL    HW233462   4.496   0.340   7.619  3.2628 -2.3939 -0.1893
 7334SOL     OW33463   4.140   4.269   2.994  0.1711 -0.0802  0.2362
 7334SOL    HW133464   4.163   4.185   3.034  0.0699  0.3743  1.2625
 7334SOL    HW233465   4.059   4.281   3.043  0.0661 -0.9007  0.2619
 7335SOL     OW33466   3.812   2.870   0.698 -0.3114 -0.1007 -0.4961
 7335SOL    HW133467   3.907   2.865   0.698 -0.3005  0.0100  0.1439
 7335SOL    HW233468   3.796   2.777   0.716  0.8950 -0.4845 -1.4567
 7336SOL     OW33469   4.515   3.057  14.600 -0.1764  0.0626  0.0713
 7336SOL    HW133470   4.442   3.056  14.663 -1.4803  1.8047 -1.4071
 7336SOL    HW233471   4.482   3.006  14.526  0.2178  0.1550 -0.1619
 7337SOL     OW33472   4.375   2.908  14.414 -0.5216  0.5709 -0.0185
 7337SOL    HW133473   4.329   2.902  14.498 -0.4496 -1.8180 -0.1365
 7337SOL    HW233474   4.341   2.834  14.362 -3.8398  0.6429  2.0481
 7338SOL     OW33475   1.098   4.269   7.135  0.3518 -0.1935  0.5346
 7338SOL    HW133476   1.047   4.337   7.090  0.1210 -0.3959  0.4878
 7338SOL    HW233477   1.135   4.223   7.059 -0.6470  0.4465 -0.3534
 7339SOL     OW33478   4.118   3.836   7.261  0.1747  0.1063  0.0059
 7339SOL    HW133479   4.087   3.854   7.172  2.5157  1.2009 -0.5989
 7339SOL    HW233480   4.212   3.831   7.246  0.5648 -0.0099  2.4643
 7340SOL     OW33481   3.937   1.803   3.404  0.4685 -0.1674 -0.1130
 7340SOL    HW133482   3.995   1.877   3.423  0.5118  0.2075 -1.7022
 7340SOL    HW233483   3.995   1.733   3.432 -0.9908 -1.0367  0.6865
 7341SOL     OW33484   1.462   1.113  16.947  0.1174 -0.5719  0.4787
 7341SOL    HW133485   1.371   1.091  16.970  0.5736 -2.4662  0.4372
 7341SOL    HW233486   1.502   1.123  17.033 -2.6593 -0.2122  1.7324
 7342SOL     OW33487   2.883   2.722   4.498 -0.4215  0.1596  0.2757
 7342SOL    HW133488   2.845   2.737   4.412 -1.6841  1.2332  1.0256
 7342SOL    HW233489   2.946   2.793   4.512  0.4329 -0.6474  0.5367
 7343SOL     OW33490   0.279   4.629  14.418 -0.4171  0.4801 -0.0179
 7343SOL    HW133491   0.279   4.582  14.335  0.0883 -2.1074  1.4647
 7343SOL    HW233492   0.190   4.605  14.445 -0.3907  3.2869  2.6836
 7344SOL     OW33493   3.635   1.358   5.897 -0.1271 -0.3453 -0.4113
 7344SOL    HW133494   3.718   1.312   5.894 -0.3753 -0.9589  1.9495
 7344SOL    HW233495   3.612   1.338   5.988  1.7765 -1.1805 -0.1234
 7345SOL     OW33496   3.895   0.403  16.499 -0.1721  0.0902  0.5452
 7345SOL    HW133497   3.912   0.311  16.481 -1.0359  0.1029 -0.2815
 7345SOL    HW233498   3.819   0.425  16.446  1.3119 -0.0463 -1.6209
 7346SOL     OW33499   1.976   4.286   8.254  0.1327 -0.3826  0.0909
 7346SOL    HW133500   1.892   4.325   8.232  0.8833  0.6869 -0.8903
 7346SOL    HW233501   1.955   4.261   8.344 -0.7811  2.9850  0.8318
 7347SOL     OW33502   4.012   0.228   1.847 -0.0608  0.6959 -0.1799
 7347SOL    HW133503   4.033   0.227   1.754  0.7937  0.6512  0.0165
 7347SOL    HW233504   3.926   0.186   1.852  0.5209 -0.1088  3.0389
 7348SOL     OW33505   1.312   3.133   5.814 -0.2581  0.0995  0.4003
 7348SOL    HW133506   1.365   3.213   5.815  0.9172 -0.6358 -1.6082
 7348SOL    HW233507   1.383   3.084   5.773  1.2469  0.9392  2.0142
 7349SOL     OW33508   1.438   4.521   6.255 -0.0561  0.2148 -0.2848
 7349SOL    HW133509   1.485   4.591   6.299  1.8347 -0.9682 -0.4081
 7349SOL    HW233510   1.408   4.476   6.335 -0.4753  1.0728  0.0374
 7350SOL     OW33511   1.644   0.581   8.732 -0.0480 -0.0978 -0.6391
 7350SOL    HW133512   1.652   0.491   8.701  2.1225 -0.0571 -0.2033
 7350SOL    HW233513   1.727   0.624   8.709 -0.5253  0.8296 -0.6219
 7351SOL     OW33514   4.567   1.746   6.429  0.0366  0.5131  0.1013
 7351SOL    HW133515   4.590   1.835   6.456  4.2165 -0.0588 -1.5283
 7351SOL    HW233516   4.583   1.744   6.335  0.3125 -2.5009  0.1985
 7352SOL     OW33517   3.079   4.344   2.787  0.2448  0.5285  0.2677
 7352SOL    HW133518   3.131   4.389   2.720  0.7119 -0.3246  0.0569
 7352SOL    HW233519   2.992   4.369   2.756  0.8437  1.2318 -0.8251
 7353SOL     OW33520   3.430   4.541   9.587  0.3422  0.2860  0.0062
 7353SOL    HW133521   3.396   4.621   9.547 -2.6887 -0.0870  1.7912
 7353SOL    HW233522   3.361   4.541   9.654  0.0542 -2.0995 -0.2905
 7354SOL     OW33523   0.827   3.546  10.185 -0.0431 -0.2022  0.6886
 7354SOL    HW133524   0.835   3.624  10.240 -0.6676 -0.1970  0.7689
 7354SOL    HW233525   0.854   3.586  10.101 -0.5725  0.5863  0.8952
 7355SOL     OW33526   3.600   3.211  16.823 -0.2141  0.3000 -0.0488
 7355SOL    HW133527   3.661   3.170  16.884  0.6393  1.2415 -0.2636
 7355SOL    HW233528   3.634   3.173  16.742 -0.0057 -0.4090  0.3740
 7356SOL     OW33529   1.299   4.004   2.581  0.3539  0.1880  0.1269
 7356SOL    HW133530   1.361   3.959   2.524  0.3251  1.5665 -0.9942
 7356SOL    HW233531   1.320   3.950   2.657 -1.1862 -1.3952 -0.5742
 7357SOL     OW33532   3.867   0.269   9.386 -0.0478 -0.2546  0.0302
 7357SOL    HW133533   3.827   0.339   9.436 -1.0124 -1.8753  1.5147
 7357SOL    HW233534   3.788   0.220   9.362 -0.4833  0.4350  0.0820
 7358SOL     OW33535   2.731   0.359  16.077 -0.5742 -0.1230  0.1894
 7358SOL    HW133536   2.741   0.396  15.989 -0.5384  1.2709  0.7772
 7358SOL    HW233537   2.816   0.391  16.110 -0.7990  1.1442 -0.4401
 7359SOL     OW33538   0.948   1.039   2.380 -0.3538 -0.1811  0.0528
 7359SOL    HW133539   0.872   1.062   2.325  2.1496  2.7681 -2.1590
 7359SOL    HW233540   1.021   1.070   2.327 -1.0533  0.6064 -0.4574
 7360SOL     OW33541   4.102   2.700   7.807 -0.1404  0.4898 -0.4157
 7360SOL    HW133542   4.062   2.763   7.747  0.0232  1.0610  0.0813
 7360SOL    HW233543   4.080   2.737   7.892 -3.0542 -1.2174 -0.4448
 7361SOL     OW33544   3.584   0.946  10.074  0.0091 -0.1487  0.6690
 7361SOL    HW133545   3.502   0.948  10.025 -0.0461  1.9794  0.8365
 7361SOL    HW233546   3.618   1.034  10.054  0.6483 -0.6861 -0.5739
 7362SOL     OW33547   2.078   1.297   2.269  0.0423 -0.6010  0.0015
 7362SOL    HW133548   2.004   1.342   2.309  1.3632 -0.9405  2.8228
 7362SOL    HW233549   2.105   1.242   2.343  1.0822  1.9236  1.4729
 7363SOL     OW33550   3.836   2.586  11.271 -0.5890 -0.6091 -1.1002
 7363SOL    HW133551   3.905   2.545  11.323  0.2600  2.1443 -0.0505
 7363SOL    HW233552   3.820   2.659  11.331  0.4522 -0.2173 -1.3071
 7364SOL     OW33553   3.939   0.385  11.165  0.1056 -0.3612  0.2192
 7364SOL    HW133554   4.018   0.386  11.219 -0.0558  0.6230  0.4324
 7364SOL    HW233555   3.871   0.365  11.230 -0.7165 -1.0118 -0.8439
 7365SOL     OW33556   2.171   3.698   3.455  0.2529  0.0876  0.5839
 7365SOL    HW133557   2.078   3.713   3.473  0.3662 -1.5612  2.5541
 7365SOL    HW233558   2.221   3.780   3.454 -0.0977  0.2858 -0.8484
 7366SOL     OW33559   2.159   2.501   6.457  0.7599  0.4412 -0.3829
 7366SOL    HW133560   2.148   2.450   6.537 -0.5674 -0.5916 -1.2165
 7366SOL    HW233561   2.226   2.458   6.403 -1.8799 -0.7741 -2.6644
 7367SOL     OW33562   2.682   0.294  10.364 -0.3345  0.0754 -0.1534
 7367SOL    HW133563   2.709   0.262  10.450 -1.3301  0.4164  0.2912
 7367SOL    HW233564   2.602   0.242  10.363 -0.7581  0.8096 -3.4594
 7368SOL     OW33565   0.018   3.083   7.179  0.1653  0.2209 -0.4852
 7368SOL    HW133566   0.057   3.080   7.267 -0.4500 -2.0632 -0.2877
 7368SOL    HW233567   0.076   3.024   7.131  2.0044 -0.6037  2.7266
 7369SOL     OW33568   0.247   2.530   8.285  0.2118 -0.2781 -0.4848
 7369SOL    HW133569   0.270   2.552   8.195  1.0722 -0.2137 -0.2445
 7369SOL    HW233570   0.275   2.439   8.289 -2.0900 -0.8017  3.7295
 7370SOL     OW33571   4.640   0.859  14.905  0.1668 -0.3806 -0.1175
 7370SOL    HW133572   4.641   0.821  14.993 -0.1058  0.6547  0.3245
 7370SOL    HW233573   4.709   0.925  14.914  0.4032 -0.6943  0.3827
 7371SOL     OW33574   3.282   1.612  13.448  0.4460  0.2042 -0.4547
 7371SOL    HW133575   3.280   1.611  13.352 -0.1953  2.5102 -0.4626
 7371SOL    HW233576   3.328   1.528  13.460  1.6690  0.9805  0.2888
 7372SOL     OW33577   0.435   1.501  16.202 -0.4444 -0.4811  0.7139
 7372SOL    HW133578   0.524   1.467  16.194 -0.9365 -1.4820 -0.4297
 7372SOL    HW233579   0.409   1.465  16.287 -1.2086  1.5027  1.3198
 7373SOL     OW33580   1.088   4.043   8.126  0.6081  0.0619  0.3192
 7373SOL    HW133581   1.055   3.964   8.170 -1.3381  1.9396  2.2616
 7373SOL    HW233582   1.082   4.010   8.036  1.1171 -3.1828  1.4518
 7374SOL     OW33583   4.546   4.431   9.639  0.6227  0.7101  0.5720
 7374SOL    HW133584   4.521   4.382   9.561  3.3387  1.8609 -0.9969
 7374SOL    HW233585   4.616   4.374   9.672  0.9726  0.9936  0.3103
 7375SOL     OW33586   2.897   0.708   4.766 -0.5623 -0.0799  0.0300
 7375SOL    HW133587   2.974   0.651   4.760 -0.7400 -0.2041 -1.0218
 7375SOL    HW233588   2.938   0.777   4.818 -1.6526 -1.1768  2.3168
 7376SOL     OW33589   4.035   1.599   2.960 -1.3688 -0.0670 -0.0654
 7376SOL    HW133590   3.983   1.525   2.991  0.8009 -1.5910 -0.1096
 7376SOL    HW233591   3.997   1.669   3.014 -1.6684  0.8987 -1.5238
 7377SOL     OW33592   2.228   1.464   2.091  0.1182 -0.2604  0.6549
 7377SOL    HW133593   2.310   1.419   2.112  0.4387  0.7114  1.4609
 7377SOL    HW233594   2.170   1.401   2.134 -1.9036  0.1136 -1.5500
 7378SOL     OW33595   2.662   0.060   5.924 -0.2958 -0.1807  0.6244
 7378SOL    HW133596   2.668   0.119   5.999  0.6643  1.8504 -1.0572
 7378SOL    HW233597   2.568   0.042   5.933 -0.3217  0.0349  0.7892
 7379SOL     OW33598   1.554   2.640   2.769 -0.2877 -0.1192 -0.2586
 7379SOL    HW133599   1.492   2.569   2.751  0.2130 -0.5818 -0.1300
 7379SOL    HW233600   1.582   2.669   2.682 -1.3143  2.6885  0.3458
 7380SOL     OW33601   2.150   4.708   7.607  0.2053  0.2716 -0.0583
 7380SOL    HW133602   2.167   4.712   7.513  0.6490 -0.1014  0.0030
 7380SOL    HW233603   2.143   4.613   7.617 -2.7091  0.2634 -2.3046
 7381SOL     OW33604   3.855   4.547   0.162  0.2103 -0.1611  0.1412
 7381SOL    HW133605   3.841   4.641   0.164 -1.4392 -0.3261 -2.9337
 7381SOL    HW233606   3.947   4.541   0.185  0.0665  0.1019  0.7711
 7382SOL     OW33607   0.225   1.391   7.862  0.6799 -0.3401 -0.1230
 7382SOL    HW133608   0.286   1.358   7.796  0.3254  1.1242 -1.1878
 7382SOL    HW233609   0.289   1.415   7.929 -0.3211  1.4473  0.2076
 7383SOL     OW33610   3.481   3.767  10.174  0.0223 -0.2787 -0.0630
 7383SOL    HW133611   3.538   3.842  10.189  0.1108 -0.0495 -1.4892
 7383SOL    HW233612   3.542   3.694  10.177  0.1308 -0.1493  0.8362
 7384SOL     OW33613   0.933   0.142   2.736 -0.3791  0.0541 -0.0830
 7384SOL    HW133614   0.935   0.088   2.657 -4.8498  0.6360 -0.6343
 7384SOL    HW233615   0.862   0.092   2.777 -0.2054  0.1960  0.3908
 7385SOL     OW33616   2.641   0.441   4.838 -0.2152  0.6290  0.5328
 7385SOL    HW133617   2.604   0.528   4.826 -1.5052  0.0053  0.0309
 7385SOL    HW233618   2.660   0.405   4.751  0.4734 -1.9070  1.7102
 7386SOL     OW33619   4.091   2.031   1.969  0.2176 -0.1224 -0.1696
 7386SOL    HW133620   4.007   2.076   1.972  0.2296 -0.2650  2.4243
 7386SOL    HW233621   4.132   2.061   1.888 -0.0655 -1.7233 -0.9147
 7387SOL     OW33622   3.135   3.631   6.843  0.2256 -0.2558  0.7958
 7387SOL    HW133623   3.045   3.613   6.871 -0.1196  1.5962  0.8955
 7387SOL    HW233624   3.160   3.708   6.895 -1.1347  0.4082  0.4640
 7388SOL     OW33625   3.820   0.007   8.340  0.6567 -0.3581 -0.5027
 7388SOL    HW133626   3.726   4.709   8.326  0.5796 -0.6988  0.4353
 7388SOL    HW233627   3.851   4.653   8.394 -1.3690 -2.2267 -1.8200
 7389SOL     OW33628   1.722   1.336   6.573  0.1826 -0.3046 -0.4913
 7389SOL    HW133629   1.779   1.263   6.594  0.4489 -0.6210 -2.3071
 7389SOL    HW233630   1.769   1.415   6.599  0.7803 -0.8159 -0.0337
 7390SOL     OW33631   1.002   1.613  15.846  0.3721 -0.0437 -0.0507
 7390SOL    HW133632   0.912   1.635  15.824  0.1105  0.1498  1.1844
 7390SOL    HW233633   0.995   1.542  15.910 -0.4793  0.0950  0.0141
 7391SOL     OW33634   3.083   0.967  10.038 -0.3655 -0.4980 -0.6427
 7391SOL    HW133635   3.034   1.048  10.021  0.8486  0.1053 -1.3707
 7391SOL    HW233636   3.021   0.895  10.031  0.4505 -1.1636 -1.0674
 7392SOL     OW33637   1.245   2.096  14.017  0.1953 -0.2374  0.0760
 7392SOL    HW133638   1.293   2.038  13.957  1.2951 -1.1642  1.8380
 7392SOL    HW233639   1.164   2.097  13.966 -0.5795 -2.2909  1.2771
 7393SOL     OW33640   1.882   3.687   8.834  0.0598 -0.6733 -0.4734
 7393SOL    HW133641   1.974   3.705   8.856 -0.1191 -0.7529  0.3183
 7393SOL    HW233642   1.855   3.771   8.796 -1.0278 -1.2614 -0.9950
 7394SOL     OW33643   0.215   3.119   1.568  0.1745  0.4799  0.1744
 7394SOL    HW133644   0.144   3.172   1.532 -1.0528 -0.7468  0.8012
 7394SOL    HW233645   0.282   3.118   1.500 -0.9618 -0.5079 -0.9325
 7395SOL     OW33646   4.367   1.766  11.531  0.0508 -0.1163 -0.2370
 7395SOL    HW133647   4.443   1.796  11.482  1.3950 -0.6558  1.5324
 7395SOL    HW233648   4.343   1.686  11.484  1.9028 -0.6135 -0.3061
 7396SOL     OW33649   3.105   3.842   0.819 -0.7129 -0.3795  0.5204
 7396SOL    HW133650   3.181   3.851   0.877  0.2041 -0.5052 -0.6566
 7396SOL    HW233651   3.128   3.890   0.739  1.5037 -1.8310  0.2900
 7397SOL     OW33652   1.143   2.700  11.373  0.1354 -0.1386 -0.3392
 7397SOL    HW133653   1.053   2.719  11.347  0.1628  2.0237  1.1001
 7397SOL    HW233654   1.150   2.783  11.421  0.9073 -0.7730  0.6296
 7398SOL     OW33655   2.838   0.608   2.812 -0.1263 -0.3594 -0.2739
 7398SOL    HW133656   2.758   0.559   2.831 -2.3855  2.9307 -1.3890
 7398SOL    HW233657   2.809   0.652   2.732 -3.5482 -0.1718  1.0834
 7399SOL     OW33658   3.138   0.413   1.553  0.0757 -0.2868  0.3471
 7399SOL    HW133659   3.223   0.372   1.538  0.6114  1.1382 -0.5659
 7399SOL    HW233660   3.100   0.347   1.611  0.0439 -0.6587 -0.0931
 7400SOL     OW33661   0.323   4.595   4.567  0.0155  0.2104 -0.2523
 7400SOL    HW133662   0.372   4.602   4.485 -0.5069  0.4411 -0.5488
 7400SOL    HW233663   0.393   4.610   4.631  0.1794 -1.3096 -0.0869
 7401SOL     OW33664   0.481   2.298  16.207  0.0059 -0.9045  0.1780
 7401SOL    HW133665   0.476   2.309  16.112 -0.3343  1.7778  0.4985
 7401SOL    HW233666   0.446   2.383  16.234  1.4684 -0.4378  0.5704
 7402SOL     OW33667   3.119   0.218   6.501  0.1076  0.3036  0.1484
 7402SOL    HW133668   3.079   0.295   6.461 -1.4210 -0.8204 -0.4857
 7402SOL    HW233669   3.108   0.247   6.591 -1.5694 -0.3836  0.1631
 7403SOL     OW33670   4.352   2.214   5.760 -0.6054  0.0412 -0.0509
 7403SOL    HW133671   4.369   2.281   5.826 -1.8539  0.4721 -0.1636
 7403SOL    HW233672   4.321   2.140   5.813  1.3572 -0.2407  0.6869
 7404SOL     OW33673   2.306   2.109   4.568  0.4764  0.0186 -0.1597
 7404SOL    HW133674   2.397   2.085   4.549  0.7500  0.0949  1.0532
 7404SOL    HW233675   2.278   2.046   4.501  2.3449  0.1932 -1.1049
 7405SOL     OW33676   3.842   1.709   9.491 -0.0302 -0.2265  0.1752
 7405SOL    HW133677   3.801   1.623   9.499 -0.5505  0.0576  0.4945
 7405SOL    HW233678   3.790   1.765   9.547 -1.7161 -0.8132 -0.8106
 7406SOL     OW33679   1.498   3.013  12.683  0.2498  0.4730  0.2827
 7406SOL    HW133680   1.409   3.017  12.717  0.5169 -4.6587  1.5071
 7406SOL    HW233681   1.473   3.025  12.591  0.2068 -0.4149  0.1807
 7407SOL     OW33682   4.508   3.690   7.204  0.0071 -0.2727  1.0470
 7407SOL    HW133683   4.460   3.764   7.241  0.5342  0.8540 -0.5322
 7407SOL    HW233684   4.587   3.738   7.180 -0.0776 -0.8235 -0.4014
 7408SOL     OW33685   3.692   3.629   3.957  0.4300 -0.2610  0.0176
 7408SOL    HW133686   3.649   3.695   4.012 -1.2506 -1.4353  0.1113
 7408SOL    HW233687   3.667   3.554   4.011 -0.7529 -0.8870 -1.4051
 7409SOL     OW33688   3.280   0.062   4.938  0.0234 -0.3687  0.0586
 7409SOL    HW133689   3.337   0.099   5.005  1.9316 -0.0742 -1.7167
 7409SOL    HW233690   3.204   0.119   4.949 -0.3984 -1.1728  1.2407
 7410SOL     OW33691   4.695   2.578   6.477 -0.1089 -0.0290  0.0369
 7410SOL    HW133692   4.669   2.652   6.422 -3.4480 -1.3095 -0.1128
 7410SOL    HW233693   0.066   2.561   6.447 -0.0722 -1.6619  1.0769
 7411SOL     OW33694   3.531   4.666   8.290  0.3065  0.2455  0.5593
 7411SOL    HW133695   3.479   4.586   8.293  1.5367 -0.5400  0.8665
 7411SOL    HW233696   3.486   0.008   8.349  0.7846  1.2208 -0.0756
 7412SOL     OW33697   2.097   0.909  10.167  0.1739  0.6019 -0.1118
 7412SOL    HW133698   2.064   0.966  10.098  1.1172  0.4140 -0.7109
 7412SOL    HW233699   2.046   0.831  10.143  0.6521  0.6241 -1.1671
 7413SOL     OW33700   2.758   1.579   2.683  0.1684  0.1954  0.7093
 7413SOL    HW133701   2.743   1.625   2.765  1.7479  1.6404  0.1955
 7413SOL    HW233702   2.708   1.623   2.614 -1.1929  2.6621  3.2752
 7414SOL     OW33703   0.681   0.420   4.400  0.6222 -0.5150  0.3265
 7414SOL    HW133704   0.586   0.427   4.387  0.9912  2.3673 -0.8422
 7414SOL    HW233705   0.720   0.434   4.314 -1.2170 -0.3239 -0.4809
 7415SOL     OW33706   4.124   1.747   5.998 -0.3035 -0.0410  0.1923
 7415SOL    HW133707   4.054   1.787   6.049  0.7924  0.4777  1.2867
 7415SOL    HW233708   4.158   1.675   6.051  0.6605  0.5927  0.4283
 7416SOL     OW33709   0.423   3.488  13.900  0.1786 -0.1352 -0.3406
 7416SOL    HW133710   0.508   3.451  13.873 -0.0181 -0.7180 -0.1657
 7416SOL    HW233711   0.409   3.465  13.992  2.3156 -0.1309 -0.0111
 7417SOL     OW33712   2.912   1.257   5.897 -0.5277 -0.0653 -0.6274
 7417SOL    HW133713   3.005   1.278   5.891  0.2966 -3.5767  0.0167
 7417SOL    HW233714   2.881   1.308   5.973  0.4308  0.1647 -0.3947
 7418SOL     OW33715   0.954   2.967   2.236  0.6121 -0.8237 -0.3084
 7418SOL    HW133716   0.940   2.998   2.325 -1.1847  1.6624 -1.4506
 7418SOL    HW233717   0.878   2.909   2.226 -2.1857  2.8694 -0.3883
 7419SOL     OW33718   1.332   4.622  12.421  0.5415 -0.0453  0.3255
 7419SOL    HW133719   1.240   4.594  12.427  0.6675 -0.5019  0.1520
 7419SOL    HW233720   1.334   4.642  12.327  1.2371  1.6082  0.7034
 7420SOL     OW33721   0.589   4.565   5.337  0.4444 -0.2885  0.0226
 7420SOL    HW133722   0.505   4.552   5.382  1.0222 -0.4001  1.0741
 7420SOL    HW233723   0.654   4.559   5.407  1.0240 -1.6488 -0.6401
 7421SOL     OW33724   4.399   2.852   0.218  0.5179 -0.1894  0.0973
 7421SOL    HW133725   4.394   2.758   0.201  2.0955 -0.2164 -0.1668
 7421SOL    HW233726   4.361   2.877   0.134  0.9050  1.6323  0.4563
 7422SOL     OW33727   4.317   0.250   1.900  0.3392  0.2711 -0.2479
 7422SOL    HW133728   4.314   0.264   1.806  0.8972 -0.0442 -0.3117
 7422SOL    HW233729   4.225   0.241   1.924  0.5466 -2.3256 -0.3987
 7423SOL     OW33730   1.336   1.909   9.140  0.0267 -0.2495  0.2264
 7423SOL    HW133731   1.333   1.904   9.236 -1.3564  0.3371  0.2173
 7423SOL    HW233732   1.388   1.989   9.130  0.2030 -0.4311 -0.2692
 7424SOL     OW33733   2.165   3.787   7.232 -0.4185 -0.8603 -0.1912
 7424SOL    HW133734   2.249   3.778   7.188 -0.1014 -1.4278  0.5429
 7424SOL    HW233735   2.177   3.726   7.305 -1.9325  1.3511  1.9043
 7425SOL     OW33736   4.124   0.262   4.880 -0.3476  0.0029 -0.0982
 7425SOL    HW133737   4.096   0.204   4.951  2.8498 -1.5520 -0.1203
 7425SOL    HW233738   4.181   0.321   4.930  2.1700 -1.8764 -0.7769
 7426SOL     OW33739   2.096   1.929  15.363  0.0472  0.0899  0.4725
 7426SOL    HW133740   2.050   1.972  15.292 -0.7386  0.9560  1.5016
 7426SOL    HW233741   2.046   1.848  15.377 -1.3322  0.7369 -0.7230
 7427SOL     OW33742   1.901   1.872   2.844 -0.0726  0.0788  0.3385
 7427SOL    HW133743   1.876   1.937   2.778 -0.7877  0.3400  0.8743
 7427SOL    HW233744   1.832   1.807   2.831  1.7752 -1.9269  0.5080
 7428SOL     OW33745   1.689   0.209   4.800 -0.2432 -0.2353 -0.3816
 7428SOL    HW133746   1.711   0.269   4.872  1.6541 -0.1261 -1.0531
 7428SOL    HW233747   1.615   0.264   4.771  0.9822  0.3997 -2.3065
 7429SOL     OW33748   3.221   3.619   0.590  0.1083  0.5454 -0.7319
 7429SOL    HW133749   3.216   3.539   0.539  1.4728  0.0861 -0.1456
 7429SOL    HW233750   3.199   3.599   0.681 -3.1610  0.5113 -1.5338
 7430SOL     OW33751   3.353   2.656  17.473  0.2536  0.4943 -0.0643
 7430SOL    HW133752   3.318   2.588  17.531  0.2461  0.5388 -0.0156
 7430SOL    HW233753   3.351   2.603  17.394 -0.7577  1.8158 -0.9432
 7431SOL     OW33754   4.605   2.082   1.821 -0.3247 -0.3141  0.0501
 7431SOL    HW133755   4.553   2.021   1.769  0.1819 -1.5223  0.9426
 7431SOL    HW233756   4.626   2.032   1.900 -4.2778  1.1325  1.9980
 7432SOL     OW33757   2.520   1.156  10.954 -0.1720  0.1141  0.2875
 7432SOL    HW133758   2.499   1.066  10.930 -1.7509  0.7821 -0.7958
 7432SOL    HW233759   2.494   1.203  10.875 -2.2119  0.6613  1.2781
 7433SOL     OW33760   0.985   2.790   8.367  0.1595 -0.2332  0.1193
 7433SOL    HW133761   0.977   2.706   8.321  0.6496 -0.6995  0.8790
 7433SOL    HW233762   0.925   2.841   8.312 -0.2858 -1.5305 -0.6013
 7434SOL     OW33763   2.665   0.542   3.777  0.4537 -0.2721 -0.0796
 7434SOL    HW133764   2.621   0.531   3.693 -1.9879 -0.4967  1.2012
 7434SOL    HW233765   2.754   0.573   3.762  0.2964  1.2947  2.1011
 7435SOL     OW33766   2.960   3.325   8.778  0.0271 -0.7034 -0.0848
 7435SOL    HW133767   2.946   3.301   8.687 -2.4329 -2.0876  0.6644
 7435SOL    HW233768   2.967   3.239   8.820 -2.7128 -1.3829 -1.0434
 7436SOL     OW33769   0.289   2.300   8.821 -0.4656 -0.0374  0.2081
 7436SOL    HW133770   0.216   2.334   8.872  1.2818  2.3409  1.1314
 7436SOL    HW233771   0.237   2.272   8.745 -1.6548 -3.1492  2.1847
 7437SOL     OW33772   2.491   0.183  17.634  0.7914  0.1969 -0.0720
 7437SOL    HW133773   2.461   0.273  17.646  0.4496 -0.2791  2.7196
 7437SOL    HW233774   2.544   0.174   0.038  0.7134  0.9476  0.0681
 7438SOL     OW33775   2.891   0.507   7.023  0.2866  0.2092  0.3307
 7438SOL    HW133776   2.848   0.422   7.015 -1.1245  0.9975 -0.4454
 7438SOL    HW233777   2.962   0.489   6.961 -0.1846  0.3316 -0.2408
 7439SOL     OW33778   3.329   1.282  10.151 -0.0172  0.1361 -0.0225
 7439SOL    HW133779   3.394   1.261  10.084  0.8730  0.7674  0.6322
 7439SOL    HW233780   3.245   1.286  10.105 -0.1809 -1.0873  0.1740
 7440SOL     OW33781   0.425   2.092  13.855  0.3582  0.2448 -0.1460
 7440SOL    HW133782   0.366   2.140  13.914 -0.4735  0.3072 -1.0285
 7440SOL    HW233783   0.509   2.114  13.894 -0.4648  1.8071  0.7357
 7441SOL     OW33784   1.337   0.009   1.451  0.3703  0.7683  0.2700
 7441SOL    HW133785   1.402   0.014   1.382  1.4590  0.8346  1.2883
 7441SOL    HW233786   1.258   0.056   1.424 -0.4561 -0.0630  1.1736
 7442SOL     OW33787   2.732   0.804   3.335 -0.1821  0.2146  0.2499
 7442SOL    HW133788   2.713   0.744   3.263  2.2437 -0.2561  0.0009
 7442SOL    HW233789   2.795   0.866   3.297  1.1881 -1.4914 -0.2822
 7443SOL     OW33790   0.076   3.537   7.313 -0.0449 -0.0723  0.1567
 7443SOL    HW133791   0.047   3.510   7.226  1.8751  0.3947 -0.6124
 7443SOL    HW233792   0.061   3.631   7.304 -2.0105 -0.1855  2.0783
 7444SOL     OW33793   2.755   0.142   5.499  0.7423  0.4839  0.3206
 7444SOL    HW133794   2.671   0.184   5.480 -0.0369 -1.7942 -1.2312
 7444SOL    HW233795   2.824   0.173   5.440  1.1169 -0.4611  0.2695
 7445SOL     OW33796   2.042   4.711   5.886 -0.1615  0.7175  0.0424
 7445SOL    HW133797   2.022   4.629   5.842 -1.9723  1.9090 -1.3215
 7445SOL    HW233798   2.032   0.047   5.808  0.8547 -0.1817 -0.7088
 7446SOL     OW33799   3.014   0.270  10.656  0.6673 -0.0572  0.2185
 7446SOL    HW133800   3.024   0.212  10.581 -1.2377  1.9650 -1.5930
 7446SOL    HW233801   2.966   0.205  10.707  0.2681  0.0635 -0.0011
 7447SOL     OW33802   0.686   0.494  13.250 -0.1185  0.1920  0.2879
 7447SOL    HW133803   0.714   0.583  13.230  1.3062 -0.0187  1.3302
 7447SOL    HW233804   0.764   0.452  13.285  0.5530  1.5261  0.3857
 7448SOL     OW33805   0.575   4.417   2.403  0.1417 -0.2466  0.1863
 7448SOL    HW133806   0.630   4.495   2.413  1.9843 -1.6521  0.9692
 7448SOL    HW233807   0.643   4.362   2.362  1.5512  2.1609 -0.7390
 7449SOL     OW33808   3.687   2.123  10.304 -0.2682 -0.1091  0.3559
 7449SOL    HW133809   3.653   2.165  10.225 -0.3604  0.5340  0.7404
 7449SOL    HW233810   3.689   2.033  10.270  0.9837  0.0984 -0.1431
 7450SOL     OW33811   1.607   1.972   3.728 -0.6072  0.1069 -0.3429
 7450SOL    HW133812   1.557   1.929   3.797  1.0594  0.6495  1.2065
 7450SOL    HW233813   1.535   2.031   3.705 -0.5598 -0.7054 -2.5512
 7451SOL     OW33814   2.844   1.670   4.092  0.2898  0.2814  0.5277
 7451SOL    HW133815   2.886   1.699   4.173  2.0489 -0.4428 -0.1183
 7451SOL    HW233816   2.913   1.668   4.026 -1.4665  0.4713 -1.2965
 7452SOL     OW33817   3.872   0.713  11.406 -0.0588  0.1818  0.1827
 7452SOL    HW133818   3.792   0.745  11.447 -0.5955  0.5137 -1.1268
 7452SOL    HW233819   3.939   0.777  11.430 -0.0581  0.8030 -1.4570
 7453SOL     OW33820   0.450   0.329   6.852 -0.7265  0.4114 -0.4449
 7453SOL    HW133821   0.510   0.272   6.804  0.6102 -0.1365  1.8869
 7453SOL    HW233822   0.400   0.259   6.893 -1.8970  1.3350 -0.3138
 7454SOL     OW33823   2.403   1.293   4.486  0.2323  0.5596 -0.3224
 7454SOL    HW133824   2.479   1.244   4.454 -1.1936 -1.0778 -1.2034
 7454SOL    HW233825   2.381   1.344   4.408 -0.9260  1.0688  0.3507
 7455SOL     OW33826   4.262   3.363   1.268 -0.2339 -0.5501 -0.4403
 7455SOL    HW133827   4.331   3.304   1.235 -1.1622 -0.8582 -1.8240
 7455SOL    HW233828   4.188   3.320   1.226  0.3182 -0.1896 -1.8069
 7456SOL     OW33829   3.459   0.131  15.811  0.2327 -0.2487  0.3783
 7456SOL    HW133830   3.401   0.063  15.777 -1.5525  2.1607 -1.3427
 7456SOL    HW233831   3.497   0.172  15.733  1.9972 -1.5784  0.5381
 7457SOL     OW33832   2.798   4.120   3.256  0.4390 -0.2560 -0.5538
 7457SOL    HW133833   2.797   4.197   3.313  0.7309 -1.3772  0.9645
 7457SOL    HW233834   2.710   4.115   3.219  0.4310  0.4280 -0.6328
 7458SOL     OW33835   3.637   2.355   0.799  0.0447 -0.6968  0.3956
 7458SOL    HW133836   3.541   2.356   0.792  0.0746 -0.6503  0.0270
 7458SOL    HW233837   3.636   2.301   0.879 -0.4375 -0.3239  0.6465
 7459SOL     OW33838   2.575   4.465   9.498  0.2213  0.6173  0.1812
 7459SOL    HW133839   2.489   4.472   9.457  0.1086  1.6958  0.5983
 7459SOL    HW233840   2.594   4.371   9.503 -0.9586  0.2927 -1.5202
 7460SOL     OW33841   0.150   3.189   2.912 -0.1188 -0.1029  0.0824
 7460SOL    HW133842   0.140   3.094   2.905 -0.7838 -0.0804  0.7760
 7460SOL    HW233843   0.218   3.201   2.846 -1.0687  0.3377 -0.8173
 7461SOL     OW33844   4.710   2.106  11.187  0.5708  0.4635 -1.0358
 7461SOL    HW133845   4.707   2.018  11.149 -2.1440  0.1773 -0.1900
 7461SOL    HW233846   4.622   2.144  11.178  0.1407 -0.4319 -0.5794
 7462SOL     OW33847   1.068   0.462   9.600 -0.7629  0.5262  1.3819
 7462SOL    HW133848   0.977   0.441   9.578 -0.0974  1.2127 -1.9227
 7462SOL    HW233849   1.057   0.556   9.615  0.8956  0.7791  1.0411
 7463SOL     OW33850   4.039   1.013   7.618  0.3840  0.1883  0.0743
 7463SOL    HW133851   4.063   1.061   7.539 -1.9573  0.0154 -0.7203
 7463SOL    HW233852   4.118   1.017   7.672  0.1841 -0.3240  0.4011
 7464SOL     OW33853   4.232   1.293  11.588  0.5823  0.2648  0.2603
 7464SOL    HW133854   4.219   1.298  11.683  0.1481  0.6495  0.1788
 7464SOL    HW233855   4.153   1.343  11.566  2.9831  3.3971 -1.0806
 7465SOL     OW33856   1.897   1.971   5.797  0.1494 -0.3287 -0.0618
 7465SOL    HW133857   1.934   2.034   5.734 -1.3901 -0.4075 -1.0345
 7465SOL    HW233858   1.821   1.951   5.743  1.5472 -0.1615 -2.1311
 7466SOL     OW33859   0.312   3.990   5.663 -0.1635 -0.6914  0.1080
 7466SOL    HW133860   0.245   3.923   5.672 -1.4779  0.7812  1.3110
 7466SOL    HW233861   0.308   4.027   5.751  1.0313  0.7673 -0.4444
 7467SOL     OW33862   1.103   3.015  16.242  0.4254 -0.4131 -0.3619
 7467SOL    HW133863   1.034   2.979  16.297  1.2851  0.7413  1.4725
 7467SOL    HW233864   1.157   2.938  16.224  0.0072 -0.9160  0.5975
 7468SOL     OW33865   0.024   2.006  14.251  0.0022  0.2662  0.8196
 7468SOL    HW133866   4.693   2.039  14.326  2.3521  2.0724  1.5517
 7468SOL    HW233867   4.670   2.003  14.188 -1.6013 -2.2951  2.7991
 7469SOL     OW33868   1.276   4.014  12.130  0.4136  0.1304 -0.2198
 7469SOL    HW133869   1.248   4.058  12.049 -0.6637 -1.3189 -0.6428
 7469SOL    HW233870   1.203   4.026  12.190  2.3914 -2.0495  2.5971
 7470SOL     OW33871   0.066   3.802   7.284 -0.0019 -0.4598  0.6541
 7470SOL    HW133872   0.014   3.882   7.285  1.3264  0.4473 -1.3846
 7470SOL    HW233873   0.150   3.839   7.255  0.7978 -1.5217  1.6338
 7471SOL     OW33874   1.290   1.079   4.618  0.3925  0.9488  0.3005
 7471SOL    HW133875   1.217   1.091   4.557  0.7540  4.1643  0.5532
 7471SOL    HW233876   1.344   1.147   4.580  1.2526  0.4963  0.7146
 7472SOL     OW33877   3.080   3.116   8.068 -0.3294  0.1485  0.2123
 7472SOL    HW133878   3.041   3.039   8.026 -2.1969  2.0455 -1.5029
 7472SOL    HW233879   3.143   3.148   8.004 -1.0307  1.9093  0.3881
 7473SOL     OW33880   4.415   4.487  14.964  0.1367  0.2891  0.1314
 7473SOL    HW133881   4.416   4.524  15.053 -1.6624 -0.5548  0.4861
 7473SOL    HW233882   4.331   4.443  14.961 -0.1221  0.9425 -1.8516
 7474SOL     OW33883   2.700   1.006   3.937 -0.7965 -0.4575  0.2321
 7474SOL    HW133884   2.637   0.961   3.881 -0.3790 -0.6958 -0.0391
 7474SOL    HW233885   2.647   1.027   4.014  0.2327 -0.9891  1.0690
 7475SOL     OW33886   2.945   4.022   0.272  0.4346  0.3233 -0.1242
 7475SOL    HW133887   2.877   3.954   0.271  1.5857 -0.8402  0.3491
 7475SOL    HW233888   3.019   3.969   0.245 -0.5420 -1.3179  0.3836
 7476SOL     OW33889   1.891   1.940   8.955 -0.0793  0.3218  1.1002
 7476SOL    HW133890   1.927   1.999   8.889 -1.1220 -0.5161 -0.2490
 7476SOL    HW233891   1.831   1.996   9.004 -0.4748  0.0474  0.9348
 7477SOL     OW33892   2.327   2.368   5.739 -0.0665 -0.1298  0.3450
 7477SOL    HW133893   2.387   2.296   5.721 -0.9435 -0.3763 -1.5860
 7477SOL    HW233894   2.394   2.432   5.762  0.5005 -0.2565 -0.9808
 7478SOL     OW33895   3.227   1.684   6.428 -0.0502 -0.3825 -0.0378
 7478SOL    HW133896   3.195   1.594   6.435 -1.8575  0.1437 -1.6866
 7478SOL    HW233897   3.309   1.668   6.381  0.2353  1.1942 -0.0715
 7479SOL     OW33898   2.428   0.694   0.793  0.3218  0.7118  0.0019
 7479SOL    HW133899   2.364   0.688   0.864  1.3873  0.7941  0.9579
 7479SOL    HW233900   2.512   0.699   0.838  2.0285  0.5744 -3.1562
 7480SOL     OW33901   4.337   4.687  12.681  0.0605  0.7021 -0.2035
 7480SOL    HW133902   4.421   4.647  12.705 -1.0093 -1.7235 -0.5198
 7480SOL    HW233903   4.349   0.060  12.708 -0.7943  0.4441  1.0387
 7481SOL     OW33904   0.915   4.575   4.681 -0.3776  1.2149  0.0728
 7481SOL    HW133905   0.860   4.616   4.615  0.6615 -0.7496 -2.0379
 7481SOL    HW233906   0.971   4.651   4.697  0.6803  0.3150  0.6687
 7482SOL     OW33907   1.009   0.636   9.223  0.0413 -0.3462 -0.0648
 7482SOL    HW133908   1.068   0.711   9.231 -0.6770  0.0078  2.0659
 7482SOL    HW233909   0.950   0.652   9.297  0.7107 -5.3436  1.5295
 7483SOL     OW33910   1.718   1.789   4.314  0.6676  0.2455  0.1264
 7483SOL    HW133911   1.696   1.703   4.278  0.7833 -1.0479  3.1527
 7483SOL    HW233912   1.630   1.815   4.341  0.3048  1.3429 -2.0879
 7484SOL     OW33913   2.769   0.183   1.920 -0.3756  0.0639  0.1399
 7484SOL    HW133914   2.816   0.109   1.881 -3.8230 -1.9691 -0.1877
 7484SOL    HW233915   2.733   0.151   2.003 -0.8661 -0.9447 -0.4529
 7485SOL     OW33916   4.207   1.822  13.651 -0.1697 -0.0586 -0.0267
 7485SOL    HW133917   4.283   1.797  13.598 -0.2570  0.0337 -0.1950
 7485SOL    HW233918   4.243   1.869  13.725 -0.2761  0.5593 -0.3636
 7486SOL     OW33919   3.052   1.738   9.085  0.4657 -0.8451  0.3343
 7486SOL    HW133920   3.120   1.684   9.125 -0.6021 -0.2819  2.8662
 7486SOL    HW233921   3.068   1.719   8.992 -0.8256  0.4223 -0.1561
 7487SOL     OW33922   4.304   0.791  16.183  0.0119 -0.3890  0.0788
 7487SOL    HW133923   4.396   0.810  16.200  0.4129 -0.5526 -1.9530
 7487SOL    HW233924   4.274   0.774  16.272 -0.5633 -0.2251 -0.0843
 7488SOL     OW33925   0.642   4.649   3.833  0.6699 -0.3440 -0.3114
 7488SOL    HW133926   0.567   4.686   3.785 -0.3770 -1.1575  0.6950
 7488SOL    HW233927   0.590   4.608   3.902 -4.1462  2.7215 -2.0290
 7489SOL     OW33928   1.882   2.512   6.300  0.1908 -0.4472 -0.4822
 7489SOL    HW133929   1.958   2.478   6.347  1.3662 -1.7173 -3.3419
 7489SOL    HW233930   1.828   2.520   6.379  0.3129 -0.3605 -0.4067
 7490SOL     OW33931   0.056   1.207   8.025 -0.0011 -0.0245  0.2465
 7490SOL    HW133932   0.135   1.255   8.000  1.4076 -1.9118  1.0425
 7490SOL    HW233933   0.052   1.234   8.116 -0.2836  0.1451  0.1837
 7491SOL     OW33934   3.927   3.217   0.682  0.1857 -0.1312  0.5874
 7491SOL    HW133935   3.966   3.267   0.754 -1.2926  1.0580  0.5437
 7491SOL    HW233936   4.005   3.189   0.634  1.2582  2.8676  0.5978
 7492SOL     OW33937   1.751   3.077  13.887 -0.1141 -0.1816  0.2657
 7492SOL    HW133938   1.662   3.059  13.858  1.0164 -1.8270 -2.1301
 7492SOL    HW233939   1.751   3.034  13.972 -2.0342  0.8952  0.8061
 7493SOL     OW33940   4.055   3.475   3.873  0.3176 -0.5954  0.2145
 7493SOL    HW133941   4.043   3.380   3.873  2.3215 -0.8574 -1.0252
 7493SOL    HW233942   4.096   3.479   3.786 -1.6613  0.4034 -0.6666
 7494SOL     OW33943   1.509   2.175  13.803 -0.0915  0.3590  0.2369
 7494SOL    HW133944   1.513   2.122  13.883 -0.4761 -1.2379 -0.8064
 7494SOL    HW233945   1.603   2.168  13.786 -0.4481 -1.1976 -1.1662
 7495SOL     OW33946   4.229   3.617   2.154 -0.4586  0.5799  0.0044
 7495SOL    HW133947   4.210   3.709   2.172  0.7229  0.9664 -0.7649
 7495SOL    HW233948   4.204   3.617   2.061  0.2287 -0.9651 -0.1836
 7496SOL     OW33949   3.170   1.004   4.187  0.1386  0.3061  0.1663
 7496SOL    HW133950   3.187   0.987   4.280  0.2916 -0.1806  0.0514
 7496SOL    HW233951   3.199   0.921   4.148  1.4795  0.0944  1.5875
 7497SOL     OW33952   2.818   2.604   8.822  0.5111 -0.0616  0.5522
 7497SOL    HW133953   2.881   2.532   8.825  0.4356 -0.1490 -0.0823
 7497SOL    HW233954   2.865   2.666   8.878  0.4272 -0.1437  0.7153
 7498SOL     OW33955   4.270   4.266   8.631  0.2586  0.3043 -0.1849
 7498SOL    HW133956   4.329   4.237   8.701 -0.0460  1.6605  0.6316
 7498SOL    HW233957   4.327   4.305   8.564 -0.1268  2.9539  1.0036
 7499SOL     OW33958   1.626   3.497   3.905 -0.3788  0.0414 -0.0595
 7499SOL    HW133959   1.589   3.451   3.829 -1.2537 -1.2080  1.1382
 7499SOL    HW233960   1.547   3.547   3.922  1.2235  2.4496  0.2606
 7500SOL     OW33961   3.571   0.380   8.554  0.2395 -0.1597  1.1232
 7500SOL    HW133962   3.573   0.306   8.614 -0.4007 -0.8525  0.2928
 7500SOL    HW233963   3.583   0.331   8.473 -1.1346  1.3697 -0.0067
 7501SOL     OW33964   1.232   2.921  12.779 -0.1325  0.3207 -0.0505
 7501SOL    HW133965   1.238   2.833  12.817 -1.6601  0.3222  0.1968
 7501SOL    HW233966   1.137   2.932  12.786 -0.2507 -0.9197  0.3277
 7502SOL     OW33967   0.235   2.920  14.313 -0.9195  0.3396 -0.4935
 7502SOL    HW133968   0.196   2.929  14.400  2.5676  3.3331  0.7796
 7502SOL    HW233969   0.262   2.830  14.295  1.0267  0.4050  2.0689
 7503SOL     OW33970   4.591   0.915  12.904  0.0020 -0.5256  0.1006
 7503SOL    HW133971   4.659   0.941  12.966 -0.5716  3.0012 -0.7596
 7503SOL    HW233972   4.534   0.861  12.959 -1.2091  0.2322 -0.4036
 7504SOL     OW33973   2.233   0.342   0.317 -0.3473 -0.0475  0.7097
 7504SOL    HW133974   2.249   0.369   0.408  0.0748 -2.1589  1.2517
 7504SOL    HW233975   2.240   0.247   0.318 -3.2478 -0.2569  2.3485
 7505SOL     OW33976   1.659   3.831  13.906 -0.2879 -0.1172 -0.1100
 7505SOL    HW133977   1.637   3.921  13.884 -0.0149 -0.2642 -0.9460
 7505SOL    HW233978   1.675   3.796  13.819 -0.1971  1.0189 -0.5400
 7506SOL     OW33979   1.591   4.712   4.168  0.2204  0.1558  0.1813
 7506SOL    HW133980   1.560   0.055   4.234 -0.6790  0.2792 -0.3599
 7506SOL    HW233981   1.528   4.701   4.097 -1.3638  0.6713  1.5260
 7507SOL     OW33982   1.008   4.322   4.537  0.2467  0.4185  0.2913
 7507SOL    HW133983   1.054   4.253   4.585 -0.7632  0.8132  1.8332
 7507SOL    HW233984   1.033   4.396   4.592  2.1318  1.9088 -2.5599
 7508SOL     OW33985   4.215   0.396   7.251 -0.1832  0.4788  0.4316
 7508SOL    HW133986   4.246   0.486   7.240  0.7147  0.0691 -0.4592
 7508SOL    HW233987   4.296   0.373   7.297 -0.0541  0.3138  0.1292
 7509SOL     OW33988   2.350   1.441  15.208  0.4773  0.4401 -0.3975
 7509SOL    HW133989   2.322   1.376  15.144 -0.5856  0.5211 -0.0260
 7509SOL    HW233990   2.290   1.514  15.190  0.3048  0.1421 -1.0070
 7510SOL     OW33991   3.218   2.936   7.272  0.7546 -0.5599 -0.1129
 7510SOL    HW133992   3.174   2.853   7.254  0.1277 -0.1667 -0.4317
 7510SOL    HW233993   3.287   2.935   7.205  0.7290 -1.5688 -0.1232
 7511SOL     OW33994   2.962   0.952   3.247  0.5963  0.4294  0.0144
 7511SOL    HW133995   3.020   1.027   3.246  1.0676  0.0605 -0.1668
 7511SOL    HW233996   3.022   0.877   3.243  1.0805  0.7768  0.9707
 7512SOL     OW33997   3.816   2.623   7.899  0.3041 -0.1208  0.0417
 7512SOL    HW133998   3.796   2.619   7.992  1.2099  2.2680  0.3317
 7512SOL    HW233999   3.893   2.567   7.895  0.2046 -0.2656  0.1479
 7513SOL     OW34000   2.949   3.328  10.898 -0.0965  0.6194 -0.2676
 7513SOL    HW134001   2.994   3.244  10.907  0.4145  0.4937 -4.3306
 7513SOL    HW234002   2.856   3.304  10.901 -0.4176  1.8931  0.0922
 7514SOL     OW34003   2.667   2.937   4.672 -0.4508  0.1966  0.3221
 7514SOL    HW134004   2.635   2.921   4.760  1.0641 -2.5889  0.3784
 7514SOL    HW234005   2.673   2.847   4.641 -0.2143 -0.1792  1.4583
 7515SOL     OW34006   1.551   2.790   4.233  0.3016  0.3173 -0.7686
 7515SOL    HW134007   1.496   2.835   4.168 -0.4369  0.7387  0.1506
 7515SOL    HW234008   1.500   2.720   4.273  0.5215  0.1828 -0.7247
 7516SOL     OW34009   3.821   4.701  13.038 -0.5128  1.1110  0.3546
 7516SOL    HW134010   3.889   0.023  13.093  1.5705 -2.9084  0.7199
 7516SOL    HW234011   3.813   0.051  12.971  2.4765 -1.7604 -2.9004
 7517SOL     OW34012   1.557   3.823  16.962 -0.4498 -0.3577  0.1749
 7517SOL    HW134013   1.464   3.846  16.961 -0.5247 -0.6476  0.3780
 7517SOL    HW234014   1.576   3.757  17.029 -1.1339 -1.4222 -0.6719
 7518SOL     OW34015   4.295   2.902   6.953 -0.4785 -0.2332 -0.7126
 7518SOL    HW134016   4.267   2.829   7.008 -0.5873  0.0676 -0.3647
 7518SOL    HW234017   4.292   2.979   7.011  1.9216 -1.6352  1.2602
 7519SOL     OW34018   3.367   2.357   0.786  0.3424  0.2429 -0.4623
 7519SOL    HW134019   3.292   2.369   0.728  0.8193  1.8019 -0.7470
 7519SOL    HW234020   3.324   2.298   0.848  1.6464  1.1173  1.2637
 7520SOL     OW34021   2.535   1.924   4.229 -0.5364  0.2247 -0.3444
 7520SOL    HW134022   2.608   1.974   4.192  0.4898 -0.3677  0.8419
 7520SOL    HW234023   2.503   1.891   4.146  2.2346 -1.1600 -0.8880
 7521SOL     OW34024   2.647   3.713   0.836 -0.3610 -0.3077  0.5760
 7521SOL    HW134025   2.572   3.656   0.853  0.3413 -1.6853 -1.0082
 7521SOL    HW234026   2.622   3.776   0.904  1.4534  1.0881 -0.0500
 7522SOL     OW34027   2.411   1.661   4.861 -0.2142  0.3259  0.1245
 7522SOL    HW134028   2.396   1.648   4.767 -1.7162 -0.1504  0.4304
 7522SOL    HW234029   2.448   1.579   4.893 -0.2622  0.1874 -0.1776
 7523SOL     OW34030   2.137   3.599   8.420 -0.4321  0.7734 -0.0265
 7523SOL    HW134031   2.215   3.646   8.450 -0.7117  2.4373 -1.9150
 7523SOL    HW234032   2.071   3.637   8.478 -0.2968 -1.0981  1.3650
 7524SOL     OW34033   1.627   1.661   5.943  0.4570  0.0760  0.3393
 7524SOL    HW134034   1.695   1.658   5.876 -0.3860 -0.3241 -0.4897
 7524SOL    HW234035   1.664   1.700   6.022 -2.0447 -0.9084  1.9943
 7525SOL     OW34036   4.664   0.856   3.713 -0.0787  0.1843  0.1982
 7525SOL    HW134037   4.575   0.821   3.713  0.7239 -1.8436 -0.5802
 7525SOL    HW234038   4.649   0.923   3.780 -0.2265 -0.0908  0.4385
 7526SOL     OW34039   1.502   1.191   4.483  0.0642  0.3950  0.5453
 7526SOL    HW134040   1.555   1.266   4.511 -0.1512  1.1235 -1.0052
 7526SOL    HW234041   1.567   1.120   4.489  0.6474  0.7816 -1.1639
 7527SOL     OW34042   1.895   0.720   6.512 -0.0168  0.2395 -0.2085
 7527SOL    HW134043   1.806   0.718   6.476  0.8073  1.5058 -2.2748
 7527SOL    HW234044   1.940   0.761   6.439  1.1419  1.5768  1.2576
 7528SOL     OW34045   3.876   2.037  12.642  0.7014  0.3308 -0.1219
 7528SOL    HW134046   3.952   2.095  12.642 -0.4604  1.8467  1.7206
 7528SOL    HW234047   3.902   1.973  12.709 -2.2610  0.8182  1.5046
 7529SOL     OW34048   1.923   4.323   4.190  0.1333 -0.2742  0.2955
 7529SOL    HW134049   1.886   4.245   4.232 -0.5335  0.1021  0.4042
 7529SOL    HW234050   1.853   4.387   4.201  0.4659  0.2836 -0.8951
 7530SOL     OW34051   0.472   3.813   3.797 -0.2504  0.1381  0.5032
 7530SOL    HW134052   0.531   3.759   3.849 -0.1748 -0.1685  0.0951
 7530SOL    HW234053   0.517   3.821   3.713 -1.5001 -0.6792 -0.2437
 7531SOL     OW34054   0.681   3.915   5.215  0.6654  0.0010  0.0676
 7531SOL    HW134055   0.674   3.825   5.246  1.4256 -0.8996 -2.3523
 7531SOL    HW234056   0.655   3.980   5.281 -1.5807 -2.8370  1.9517
 7532SOL     OW34057   0.971   0.651   0.340  0.8202 -0.0365 -0.0860
 7532SOL    HW134058   0.959   0.616   0.428 -0.6379  0.1137 -0.2341
 7532SOL    HW234059   1.018   0.576   0.303  0.2322  0.2079 -1.3390
 7533SOL     OW34060   4.528   1.505   3.824  0.2413  0.4130 -0.2711
 7533SOL    HW134061   4.492   1.583   3.866  1.2270  0.1294  1.1136
 7533SOL    HW234062   4.474   1.502   3.745 -0.1532  1.7146 -0.0579
 7534SOL     OW34063   2.731   0.709   8.404 -0.2812 -0.1321 -0.1951
 7534SOL    HW134064   2.689   0.743   8.483  0.9068  1.5403 -0.2816
 7534SOL    HW234065   2.664   0.643   8.385 -1.7292  1.3882 -0.3127
 7535SOL     OW34066   2.123   1.629   0.776 -0.7565  0.6048  0.2786
 7535SOL    HW134067   2.062   1.684   0.824 -0.0616 -0.0557  1.9483
 7535SOL    HW234068   2.077   1.545   0.770 -0.3883  0.3645  0.7433
 7536SOL     OW34069   1.410   1.714  16.315  0.1993  0.0287  0.1966
 7536SOL    HW134070   1.473   1.739  16.384 -0.3600  0.8983  0.3884
 7536SOL    HW234071   1.433   1.776  16.246 -0.4805  0.2628  0.1795
 7537SOL     OW34072   3.395   3.516  16.163 -0.1597 -0.0766  0.3568
 7537SOL    HW134073   3.472   3.468  16.133 -0.1863  0.1042 -0.0021
 7537SOL    HW234074   3.431   3.597  16.199 -1.2949  0.2721  0.6898
 7538SOL     OW34075   4.660   4.103   2.977 -0.6465 -0.2367  0.0180
 7538SOL    HW134076   4.596   4.064   2.918  1.3383 -0.8008 -1.7656
 7538SOL    HW234077   4.716   4.142   2.910 -1.1035 -0.1449 -0.3127
 7539SOL     OW34078   4.249   1.953   2.504  0.0086  0.9017  0.5608
 7539SOL    HW134079   4.165   1.992   2.529 -0.2272  1.3016 -0.8563
 7539SOL    HW234080   4.231   1.920   2.415 -0.7317 -2.4294  1.9532
 7540SOL     OW34081   4.171   2.955   2.128  0.5009  0.4707  0.1735
 7540SOL    HW134082   4.203   2.876   2.173  0.0469 -0.4150 -1.0890
 7540SOL    HW234083   4.242   2.968   2.066  1.7265 -1.0906  1.2315
 7541SOL     OW34084   2.673   0.651  11.916  0.3980 -0.1964  0.4499
 7541SOL    HW134085   2.596   0.698  11.946  1.9017  1.3599  1.8664
 7541SOL    HW234086   2.632   0.608  11.840 -0.4150  0.7455  0.3688
 7542SOL     OW34087   2.769   2.123   4.969 -0.2568  0.4794  0.4792
 7542SOL    HW134088   2.678   2.099   4.988 -1.1907  3.8943  0.2510
 7542SOL    HW234089   2.770   2.214   4.997  1.7948  0.8364 -0.7011
 7543SOL     OW34090   1.619   0.860   6.018  0.5965  0.2564 -0.3783
 7543SOL    HW134091   1.665   0.780   6.044  1.5035  0.0976 -2.5048
 7543SOL    HW234092   1.663   0.886   5.937  0.7298 -1.7489 -0.9519
 7544SOL     OW34093   1.816   2.354   9.617  0.3456  0.0528 -1.2911
 7544SOL    HW134094   1.897   2.405   9.627 -0.5408  1.0209  1.0036
 7544SOL    HW234095   1.828   2.281   9.679  0.6987 -0.9667 -2.5584
 7545SOL     OW34096   3.527   3.760   6.656  0.5362 -0.4613 -0.5265
 7545SOL    HW134097   3.458   3.705   6.619  0.3531 -0.7302  0.2064
 7545SOL    HW234098   3.487   3.818   6.721  0.3247  0.4471 -1.4687
 7546SOL     OW34099   3.785   1.786   0.926  0.3395 -0.4464 -0.1159
 7546SOL    HW134100   3.789   1.876   0.894 -0.7807 -0.0620  0.8309
 7546SOL    HW234101   3.715   1.758   0.866  0.8015  0.0986 -0.9044
 7547SOL     OW34102   2.134   3.673   4.190 -0.1264 -0.1382  0.5752
 7547SOL    HW134103   2.118   3.628   4.107  0.4326  0.6981  0.0175
 7547SOL    HW234104   2.228   3.662   4.200  0.1071  0.8400 -0.5456
 7548SOL     OW34105   0.360   3.858   4.127 -0.4315 -0.3344 -0.0066
 7548SOL    HW134106   0.392   3.859   4.036  1.6246 -0.6397  0.7243
 7548SOL    HW234107   0.375   3.947   4.160  2.8810 -0.8992  0.0346
 7549SOL     OW34108   1.769   3.288   1.921 -0.0610 -0.0093 -0.2218
 7549SOL    HW134109   1.700   3.228   1.946  1.3814 -0.6542  2.2121
 7549SOL    HW234110   1.821   3.293   2.001 -0.1830 -0.7080 -0.0999
 7550SOL     OW34111   3.866   3.567   0.915 -0.5996  0.1354 -0.6113
 7550SOL    HW134112   3.809   3.503   0.957  1.3675 -1.6430 -0.6635
 7550SOL    HW234113   3.931   3.592   0.981 -2.0417 -0.8957  1.1932
 7551SOL     OW34114   2.864   0.144   0.329 -0.2314  0.3101 -0.7417
 7551SOL    HW134115   2.951   0.147   0.290 -0.3821  1.8619 -0.9820
 7551SOL    HW234116   2.888   0.197   0.406 -0.4089 -0.3627 -0.2240
 7552SOL     OW34117   2.322   2.383  10.755 -0.4101 -0.5050  0.0608
 7552SOL    HW134118   2.375   2.315  10.714 -0.3786 -1.5141  1.7758
 7552SOL    HW234119   2.305   2.335  10.836  0.7452  0.5213  0.9104
 7553SOL     OW34120   4.338   0.159   7.499 -0.5095  0.4283 -0.7039
 7553SOL    HW134121   4.311   0.120   7.416 -0.8232 -1.2083  0.1747
 7553SOL    HW234122   4.432   0.141   7.495 -0.1358  2.0076  0.8382
 7554SOL     OW34123   2.310   0.798   0.547  0.2874 -0.0783  0.2437
 7554SOL    HW134124   2.366   0.874   0.559 -1.2243  0.6612  2.5761
 7554SOL    HW234125   2.357   0.734   0.601  0.6600  0.5240  0.6381
 7555SOL     OW34126   1.901   1.706   3.888 -0.2040 -0.2619 -0.1850
 7555SOL    HW134127   1.942   1.649   3.822  2.1830  2.6720 -1.2315
 7555SOL    HW234128   1.898   1.791   3.846  0.7096 -0.1816 -0.1017
 7556SOL     OW34129   0.336   0.124  10.514 -0.1667 -0.0064 -0.2756
 7556SOL    HW134130   0.352   0.029  10.511 -1.0091 -0.1656  0.1896
 7556SOL    HW234131   0.393   0.161  10.447 -1.3444  1.7407 -0.2977
 7557SOL     OW34132   2.612   1.209  15.153 -0.2321 -0.5616  0.2912
 7557SOL    HW134133   2.581   1.269  15.084  2.8974 -0.2277 -0.8004
 7557SOL    HW234134   2.689   1.173  15.109 -0.0890 -0.0392  0.1172
 7558SOL     OW34135   3.395   3.669   5.718 -0.1661 -0.2353  0.9499
 7558SOL    HW134136   3.406   3.761   5.741  0.3145 -0.2369  0.7276
 7558SOL    HW234137   3.382   3.680   5.624 -0.4347 -0.8337  0.9202
 7559SOL     OW34138   3.302   0.835  14.639 -0.6176  0.2132 -0.0539
 7559SOL    HW134139   3.228   0.806  14.586  0.9678  0.9311 -2.6511
 7559SOL    HW234140   3.308   0.765  14.704  0.8377  0.0042 -0.4095
 7560SOL     OW34141   1.793   1.627   8.358  0.1436  0.3447  0.0657
 7560SOL    HW134142   1.721   1.579   8.399  0.4557  0.9235  1.3069
 7560SOL    HW234143   1.808   1.701   8.417 -0.6962  0.4768  0.1093
 7561SOL     OW34144   1.763   2.809   5.472 -0.0655 -0.2420  0.0597
 7561SOL    HW134145   1.681   2.764   5.490  1.6459 -2.6403  1.8685
 7561SOL    HW234146   1.796   2.813   5.562  0.1333  2.4249 -0.1202
 7562SOL     OW34147   3.246   4.186   9.022  0.5926 -0.1409 -0.4600
 7562SOL    HW134148   3.176   4.248   9.000 -0.0854 -1.2842 -1.5250
 7562SOL    HW234149   3.226   4.171   9.115 -0.3034  3.8401 -0.0324
 7563SOL     OW34150   0.102   1.853   3.901  0.3405 -0.1249  0.1236
 7563SOL    HW134151   0.088   1.852   3.996  3.2332  0.0485  0.5539
 7563SOL    HW234152   0.195   1.874   3.901  0.0297  1.2688  0.4534
 7564SOL     OW34153   1.533   3.072   0.744 -0.2284  0.3395 -0.3564
 7564SOL    HW134154   1.568   2.986   0.768 -0.6468 -0.1271 -1.3987
 7564SOL    HW234155   1.603   3.124   0.783 -0.8071  1.6643 -1.0670
 7565SOL     OW34156   2.250   0.457   5.697  0.0174  0.6316 -0.2802
 7565SOL    HW134157   2.188   0.395   5.658 -0.6724  2.1076 -1.5155
 7565SOL    HW234158   2.195   0.525   5.736  0.9480  1.1554  0.1216
 7566SOL     OW34159   1.534   4.544   2.175  0.1122 -0.2643 -0.8205
 7566SOL    HW134160   1.505   4.497   2.254  0.0839  0.9369 -0.1242
 7566SOL    HW234161   1.625   4.514   2.165  0.0788 -0.1867 -1.3456
 7567SOL     OW34162   1.848   3.274  15.159 -0.0829 -0.2844 -0.5265
 7567SOL    HW134163   1.774   3.323  15.122 -1.6194 -0.6895  2.0600
 7567SOL    HW234164   1.917   3.339  15.170 -0.5130  0.3204 -1.3560
 7568SOL     OW34165   4.348   1.074   4.781  0.3001  0.2337 -0.3539
 7568SOL    HW134166   4.390   1.124   4.712 -0.1974  0.1239 -0.7361
 7568SOL    HW234167   4.289   1.141   4.816 -2.0410  0.2321 -4.3405
 7569SOL     OW34168   3.043   3.677   2.587 -0.4919  0.2831 -0.4765
 7569SOL    HW134169   3.057   3.700   2.495  1.4251 -1.3321 -0.6009
 7569SOL    HW234170   3.133   3.652   2.610 -0.3754  1.0902 -0.0598
 7570SOL     OW34171   3.488   0.517   5.256 -0.1146  0.3148 -0.7696
 7570SOL    HW134172   3.546   0.451   5.295 -0.2401  1.8424  1.9524
 7570SOL    HW234173   3.411   0.494   5.307 -0.9547  0.7745 -1.8381
 7571SOL     OW34174   3.643   3.420   4.116 -0.5474  0.2767  0.1565
 7571SOL    HW134175   3.575   3.367   4.075  0.8322  0.9397 -3.0010
 7571SOL    HW234176   3.612   3.434   4.205 -0.3689 -0.5247  0.3423
 7572SOL     OW34177   0.431   2.931   6.853 -0.3376 -0.3063  0.0423
 7572SOL    HW134178   0.434   2.999   6.786  0.6242 -1.9647 -1.6132
 7572SOL    HW234179   0.524   2.908   6.852 -0.1476  0.4726  0.1300
 7573SOL     OW34180   0.775   3.921  17.536  0.6301 -0.1280  0.5113
 7573SOL    HW134181   0.789   4.015  17.542 -1.0905  0.2535 -1.2293
 7573SOL    HW234182   0.848   3.896  17.481  0.2803  1.8891 -0.8372
 7574SOL     OW34183   2.448   3.923   6.124 -0.5877 -0.9387  0.5464
 7574SOL    HW134184   2.373   3.979   6.143 -0.2506  0.2004 -1.5229
 7574SOL    HW234185   2.449   3.921   6.029  0.7256 -3.0874  0.6103
 7575SOL     OW34186   2.715   0.282   1.525  0.7146  0.2316 -0.8756
 7575SOL    HW134187   2.746   0.337   1.597 -1.2648  1.1859 -0.7736
 7575SOL    HW234188   2.778   0.211   1.513  0.7178  0.0725  0.0192
 7576SOL     OW34189   3.054   4.011   7.257  0.7609  0.1311  0.2576
 7576SOL    HW134190   2.964   3.980   7.264  0.9189 -0.5220 -0.6168
 7576SOL    HW234191   3.088   3.961   7.332  1.5365  1.8533  1.0407
 7577SOL     OW34192   4.717   1.207  11.492  0.4305  0.2802 -0.0821
 7577SOL    HW134193   4.646   1.268  11.509  0.3590  0.5211 -1.3203
 7577SOL    HW234194   0.060   1.281  11.485  0.1196  0.6842  1.4341
 7578SOL     OW34195   2.785   4.603   0.248  0.1200  0.3123 -0.4222
 7578SOL    HW134196   2.835   4.681   0.224 -1.6544  1.4962 -0.3175
 7578SOL    HW234197   2.747   4.565   0.168 -1.4854  2.3983 -0.6490
 7579SOL     OW34198   3.237   2.689   4.955  0.3805  0.1482 -0.4345
 7579SOL    HW134199   3.194   2.766   4.991 -0.1761 -0.8728  1.1064
 7579SOL    HW234200   3.172   2.628   4.919  1.1881 -0.4701 -0.8583
 7580SOL     OW34201   2.529   0.802   4.154  0.1371 -0.3685  0.0189
 7580SOL    HW134202   2.526   0.721   4.103 -0.8306  0.9440 -1.9663
 7580SOL    HW234203   2.567   0.759   4.231  0.9394  0.0554 -0.1392
 7581SOL     OW34204   2.397   0.514  16.940 -1.0528 -0.6396 -0.8585
 7581SOL    HW134205   2.402   0.609  16.946 -1.6600 -0.7004  0.6213
 7581SOL    HW234206   2.318   0.510  16.887 -0.3225 -4.2891 -1.7146
 7582SOL     OW34207   0.534   0.099  13.144  0.3570 -0.5313  0.2555
 7582SOL    HW134208   0.570   0.120  13.231 -0.6989 -0.1034  0.5807
 7582SOL    HW234209   0.603   0.130  13.086  0.7085 -0.5989  0.6343
 7583SOL     OW34210   4.246   0.861   6.005 -0.4648 -0.4663 -0.7383
 7583SOL    HW134211   4.151   0.870   5.995 -0.5971 -0.8869  0.1247
 7583SOL    HW234212   4.243   0.819   6.091 -1.0240  0.7406 -0.1669
 7584SOL     OW34213   3.979   3.472   8.889  0.4014 -0.1348 -0.5692
 7584SOL    HW134214   4.067   3.435   8.891  0.1490 -0.6763  0.3210
 7584SOL    HW234215   4.001   3.565   8.894  1.1495 -0.1755 -2.7683
 7585SOL     OW34216   1.495   3.332  15.007 -0.2724 -0.1552 -0.2714
 7585SOL    HW134217   1.442   3.363  15.080  0.5739  0.6172  0.0184
 7585SOL    HW234218   1.553   3.408  15.002 -1.4310  0.8380  1.5845
 7586SOL     OW34219   3.041   0.280   7.208  0.0958  0.8248 -0.2997
 7586SOL    HW134220   3.025   0.353   7.268  0.1666  0.1373  0.5601
 7586SOL    HW234221   2.959   0.260   7.163  1.2595 -1.3763 -1.4355
 7587SOL     OW34222   0.536   4.642   7.940 -0.3282  0.0194  0.2614
 7587SOL    HW134223   0.512   4.599   8.021 -1.9812  1.3157  0.4497
 7587SOL    HW234224   0.489   0.007   7.943 -0.7614 -0.1732 -1.0501
 7588SOL     OW34225   1.358   4.468   1.551 -0.1981 -0.2150  0.0111
 7588SOL    HW134226   1.342   4.546   1.498  0.7568  0.9120  1.3899
 7588SOL    HW234227   1.302   4.412   1.497 -0.6912 -2.2255  2.6204
 7589SOL     OW34228   1.634   3.307  12.592  0.4315  0.0129  0.6677
 7589SOL    HW134229   1.680   3.292  12.509 -2.5661 -1.9354 -0.6502
 7589SOL    HW234230   1.604   3.397  12.579 -0.8090 -0.7512 -1.9579
 7590SOL     OW34231   1.734   3.910   8.728  0.1572 -0.8531 -0.1543
 7590SOL    HW134232   1.715   3.895   8.636  1.3783  1.2389 -0.7362
 7590SOL    HW234233   1.644   3.903   8.759 -0.3647 -0.5237 -1.6309
 7591SOL     OW34234   0.242   2.372   2.216 -0.5408 -0.0387 -0.2697
 7591SOL    HW134235   0.252   2.419   2.299  1.2283  2.3956 -1.8496
 7591SOL    HW234236   0.195   2.436   2.162 -0.4909  0.0025 -0.2638
 7592SOL     OW34237   0.536   0.415   1.747  0.3758 -0.5159  0.8335
 7592SOL    HW134238   0.509   0.417   1.655  0.6371  1.7490  0.8011
 7592SOL    HW234239   0.506   0.502   1.775  2.6710 -0.3525  2.7088
 7593SOL     OW34240   3.313   3.366   0.525 -0.0408  1.1117  0.3352
 7593SOL    HW134241   3.240   3.306   0.510  0.3196  1.2352 -1.9962
 7593SOL    HW234242   3.375   3.294   0.512 -1.1084  0.1882  0.4235
 7594SOL     OW34243   2.143   3.901   5.737 -0.3998 -0.6478 -0.1965
 7594SOL    HW134244   2.059   3.877   5.698 -1.1311 -0.3702  1.2181
 7594SOL    HW234245   2.154   3.983   5.688  0.1239 -0.7018 -0.1752
 7595SOL     OW34246   2.718   2.755  14.000  0.1919  0.1150  0.3324
 7595SOL    HW134247   2.623   2.758  14.006  0.1504 -2.6370  1.1904
 7595SOL    HW234248   2.738   2.842  14.035 -0.1135  0.3669 -0.1213
 7596SOL     OW34249   1.436   2.202   4.758  0.6846 -0.7036  0.2855
 7596SOL    HW134250   1.353   2.168   4.791 -0.0435 -1.3183 -2.1478
 7596SOL    HW234251   1.408   2.275   4.702 -0.6893 -0.1483  1.6750
 7597SOL     OW34252   1.161   1.491   3.369 -0.4818  0.0627 -0.5595
 7597SOL    HW134253   1.195   1.436   3.298 -0.3644  1.0396 -1.2458
 7597SOL    HW234254   1.068   1.470   3.362  0.6571 -4.0409 -3.4513
 7598SOL     OW34255   2.121   3.804   4.753 -0.0123  0.2471  0.9023
 7598SOL    HW134256   2.064   3.727   4.754 -2.0728  1.7460 -1.5802
 7598SOL    HW234257   2.170   3.790   4.672  1.7721  0.4761  1.9251
 7599SOL     OW34258   3.202   3.218   7.780 -0.2727 -0.3542  0.4504
 7599SOL    HW134259   3.162   3.301   7.756  0.6215 -0.2756 -0.7811
 7599SOL    HW234260   3.225   3.185   7.694  0.1807  0.4891  0.2416
 7600SOL     OW34261   0.307   1.362  10.084 -0.2230 -0.1948  0.0083
 7600SOL    HW134262   0.397   1.353  10.115 -0.6883 -0.0981  1.4213
 7600SOL    HW234263   0.269   1.296  10.143  0.9072 -1.7339 -0.9950
 7601SOL     OW34264   2.319   3.235   4.599  0.0043 -0.3671  0.3147
 7601SOL    HW134265   2.253   3.184   4.553 -1.5861  1.8850  0.0830
 7601SOL    HW234266   2.321   3.311   4.540  1.4892 -2.4970 -2.4294
 7602SOL     OW34267   2.652   2.069   7.945 -0.1937 -0.5532 -0.0697
 7602SOL    HW134268   2.723   2.005   7.943  0.6654  0.4274 -0.8633
 7602SOL    HW234269   2.586   2.041   8.009  0.0315  1.0400  0.8529
 7603SOL     OW34270   0.407   1.288   3.195  0.4450 -0.1015  0.3351
 7603SOL    HW134271   0.332   1.231   3.210 -0.8245  1.6009  0.4543
 7603SOL    HW234272   0.447   1.255   3.114  1.3534  0.2602  0.6325
 7604SOL     OW34273   1.224   1.738   3.000 -0.2329 -0.0009 -0.7203
 7604SOL    HW134274   1.150   1.743   3.061 -0.3999 -0.0846 -0.9192
 7604SOL    HW234275   1.188   1.715   2.915 -1.7279 -0.1768 -0.0462
 7605SOL     OW34276   2.018   3.350   6.077 -0.0428  0.2548 -0.4118
 7605SOL    HW134277   2.102   3.365   6.034  1.0473 -2.8363  0.6326
 7605SOL    HW234278   2.050   3.265   6.106  3.0851  0.1887 -4.0074
 7606SOL     OW34279   3.643   4.299   9.078  0.1919  0.4559  0.3917
 7606SOL    HW134280   3.620   4.324   9.167 -3.0520  0.1319 -0.3405
 7606SOL    HW234281   3.699   4.373   9.054  0.1214  0.4094  0.0764
 7607SOL     OW34282   1.125   0.015  13.803  0.2356  0.3650 -0.1369
 7607SOL    HW134283   1.195   4.702  13.859 -0.7506  1.5591  1.7914
 7607SOL    HW234284   1.044   4.692  13.832  0.7360  0.3118  1.1481
 7608SOL     OW34285   1.618   0.781   5.230  0.7815 -0.2235 -0.1150
 7608SOL    HW134286   1.525   0.787   5.205  0.2721  0.4039  1.9242
 7608SOL    HW234287   1.623   0.854   5.291  0.3340  0.1956 -0.5780
 7609SOL     OW34288   4.323   3.724  16.705 -0.4085 -0.3317 -0.4991
 7609SOL    HW134289   4.253   3.665  16.731  1.1562 -1.1954  1.8021
 7609SOL    HW234290   4.270   3.788  16.658 -0.3081 -1.8187 -2.6231
 7610SOL     OW34291   0.444   2.329   9.503  0.3272  0.6827  0.3815
 7610SOL    HW134292   0.381   2.348   9.572  0.9687  1.9307  0.6163
 7610SOL    HW234293   0.473   2.242   9.529  1.0452  0.9094  0.3390
 7611SOL     OW34294   1.271   0.597  16.760  0.8280  0.4150  0.5241
 7611SOL    HW134295   1.364   0.606  16.778  0.5194 -0.8293  2.7038
 7611SOL    HW234296   1.234   0.681  16.789 -1.7402 -0.6434  0.3082
 7612SOL     OW34297   3.679   0.545   9.864  0.1391  0.0578  1.1332
 7612SOL    HW134298   3.624   0.524   9.939  0.2942  2.8376  2.0320
 7612SOL    HW234299   3.706   0.632   9.893  0.5328 -0.4985  2.4111
 7613SOL     OW34300   4.714   0.883   4.703 -0.0311 -0.2339  0.1516
 7613SOL    HW134301   4.645   0.875   4.637  2.9413 -0.4038 -2.9400
 7613SOL    HW234302   4.683   0.944   4.770 -0.2375  0.3751 -0.4928
 7614SOL     OW34303   2.444   2.256   8.335  0.3424 -0.4657  0.0279
 7614SOL    HW134304   2.375   2.236   8.398  1.8521  0.2599  1.9078
 7614SOL    HW234305   2.461   2.350   8.337  1.2049 -0.5811 -1.3239
 7615SOL     OW34306   2.352   0.933  17.436  0.2343 -0.7008 -0.0748
 7615SOL    HW134307   2.317   1.019  17.413  0.9290 -0.6644 -1.0217
 7615SOL    HW234308   2.447   0.932  17.420  0.0904 -0.9157 -0.8937
 7616SOL     OW34309   0.082   4.151   2.763  0.0474 -0.3271 -0.4263
 7616SOL    HW134310   0.161   4.171   2.813 -1.0675  0.2191  1.1206
 7616SOL    HW234311   0.112   4.131   2.674  1.1064 -1.9336  0.2836
 7617SOL     OW34312   1.601   4.468  11.176 -0.1403 -0.6315  0.0490
 7617SOL    HW134313   1.563   4.410  11.242  1.1754 -1.4420  0.0924
 7617SOL    HW234314   1.691   4.475  11.210 -0.2030  0.2591  0.0427
 7618SOL     OW34315   1.015   0.950   5.711 -0.2201  0.0116  0.0415
 7618SOL    HW134316   1.027   1.018   5.776  1.0354 -0.7285  0.5824
 7618SOL    HW234317   0.958   0.889   5.758  1.9285 -1.5788  0.5920
 7619SOL     OW34318   1.073   1.700   6.516 -0.0796 -0.4110 -0.0141
 7619SOL    HW134319   1.151   1.655   6.483 -0.4310  0.0806 -1.5489
 7619SOL    HW234320   1.034   1.740   6.438 -3.2002 -3.3733  0.0475
 7620SOL     OW34321   4.350   0.588   6.870 -0.1318  0.3145 -0.1719
 7620SOL    HW134322   4.431   0.547   6.838 -0.4282  1.0588 -1.8688
 7620SOL    HW234323   4.368   0.581   6.964 -0.2397  0.6580 -0.1283
 7621SOL     OW34324   0.799   2.242   4.317 -0.2582  0.3718 -0.1691
 7621SOL    HW134325   0.715   2.256   4.360 -1.5141 -0.5532 -2.2829
 7621SOL    HW234326   0.808   2.327   4.275 -0.5752  0.0124 -0.9718
 7622SOL     OW34327   3.139   4.192  12.382  0.0314 -0.7978  0.0823
 7622SOL    HW134328   3.214   4.133  12.372 -0.0165 -0.9854  0.8437
 7622SOL    HW234329   3.137   4.205  12.477  1.1223 -0.9378  0.1252
 7623SOL     OW34330   4.414   2.266   4.431  0.0054  0.5704 -0.2617
 7623SOL    HW134331   4.435   2.355   4.404  0.5820  0.5633  0.1647
 7623SOL    HW234332   4.391   2.276   4.524  1.1504  0.5481  0.0265
 7624SOL     OW34333   3.166   2.417  15.764  0.4393  0.7838  0.2914
 7624SOL    HW134334   3.082   2.461  15.768  0.9467  1.4659  2.9964
 7624SOL    HW234335   3.227   2.490  15.765 -0.1197  1.2523  0.0215
 7625SOL     OW34336   2.994   3.882   6.275 -0.2016 -0.0437  0.0590
 7625SOL    HW134337   3.050   3.818   6.230 -0.7881  0.5059 -1.4459
 7625SOL    HW234338   2.929   3.913   6.212  0.3865 -0.3825 -0.7094
 7626SOL     OW34339   2.891   4.503   5.522 -0.4111 -0.0582 -0.0340
 7626SOL    HW134340   2.927   4.568   5.582  0.4066 -1.7890  1.3501
 7626SOL    HW234341   2.949   4.427   5.526  0.8050  0.7461 -2.8477
 7627SOL     OW34342   3.097   2.269   0.959  0.1083 -0.4360  0.4309
 7627SOL    HW134343   3.049   2.344   0.924 -2.1938 -1.5749  1.0995
 7627SOL    HW234344   3.136   2.311   1.036 -0.7889  0.5048  0.3700
 7628SOL     OW34345   0.641   3.565   8.732  0.3804 -0.6093 -0.0976
 7628SOL    HW134346   0.638   3.475   8.764 -0.0856 -0.7205 -0.4532
 7628SOL    HW234347   0.714   3.560   8.671  2.3802  2.5390  2.0082
 7629SOL     OW34348   0.196   2.193  15.782  0.2500  0.4855  0.3241
 7629SOL    HW134349   0.192   2.288  15.770 -2.5129  0.3594  0.2335
 7629SOL    HW234350   0.291   2.185  15.782  0.0867 -1.3876 -1.4553
 7630SOL     OW34351   2.495   1.583   6.310 -0.5223 -0.6492 -1.1614
 7630SOL    HW134352   2.510   1.524   6.383 -1.1885  1.8270  0.9725
 7630SOL    HW234353   2.516   1.526   6.235  2.3375  0.4023 -1.1499
 7631SOL     OW34354   1.409   0.573  12.576  0.5274  0.2905 -0.5151
 7631SOL    HW134355   1.499   0.604  12.580 -0.8295  3.9744  1.5749
 7631SOL    HW234356   1.358   0.653  12.589  0.9980  0.2470  1.7189
 7632SOL     OW34357   0.963   2.964   7.395  0.2612 -0.4295  0.0397
 7632SOL    HW134358   1.052   2.994   7.412 -0.2364  0.7615  0.6000
 7632SOL    HW234359   0.911   3.004   7.465  2.3253  2.9895 -0.3818
 7633SOL     OW34360   0.515   2.328  15.945 -0.4748 -0.5295 -0.1592
 7633SOL    HW134361   0.537   2.386  15.872  0.6848 -0.9118 -0.1091
 7633SOL    HW234362   0.588   2.268  15.955 -0.0656 -0.1642 -0.8846
 7634SOL     OW34363   3.974   4.153   1.631  0.1868 -0.2065  0.4260
 7634SOL    HW134364   4.015   4.102   1.701 -1.4703 -2.5163 -0.2801
 7634SOL    HW234365   3.961   4.102   1.551 -0.3251  0.3254  0.1717
 7635SOL     OW34366   1.580   1.119   6.102 -0.0955 -1.1449 -0.0225
 7635SOL    HW134367   1.614   1.030   6.111  0.6384 -0.9094 -0.4485
 7635SOL    HW234368   1.635   1.180   6.152 -2.9167  1.3548  0.0595
 7636SOL     OW34369   2.401   0.248  17.055 -0.3745 -0.3727 -0.5803
 7636SOL    HW134370   2.479   0.258  17.110 -1.5008  0.7340  0.8243
 7636SOL    HW234371   2.398   0.335  17.016  0.8199  1.6030  3.6873
 7637SOL     OW34372   3.077   4.385   4.328  0.1601  0.6383  0.6025
 7637SOL    HW134373   3.140   4.454   4.353 -0.1225  0.7834  0.9159
 7637SOL    HW234374   3.022   4.383   4.406  0.5711 -1.6519  0.8297
 7638SOL     OW34375   0.094   4.416  16.097 -0.4747  0.1536 -0.4995
 7638SOL    HW134376   0.017   4.418  16.153 -0.1672 -1.7336  0.0184
 7638SOL    HW234377   0.166   4.410  16.159  0.5545 -0.0044 -1.7185
 7639SOL     OW34378   4.534   4.176   1.094  0.2630  0.3547  0.3371
 7639SOL    HW134379   4.466   4.196   1.158 -1.3374 -1.5991 -0.7483
 7639SOL    HW234380   4.475   4.141   1.027  1.2567 -2.5788  1.0222
 7640SOL     OW34381   4.168   0.979   8.777  0.1643 -0.0845 -0.6072
 7640SOL    HW134382   4.105   0.908   8.791 -1.1096  1.0279 -0.6703
 7640SOL    HW234383   4.114   1.045   8.734  2.1088  0.0808 -2.7630
 7641SOL     OW34384   0.785   4.222   8.980  0.3481 -0.2042 -0.4545
 7641SOL    HW134385   0.826   4.172   9.050  0.0241  0.0009 -0.1159
 7641SOL    HW234386   0.869   4.249   8.942 -0.5643  0.1504 -2.2553
 7642SOL     OW34387   1.004   3.716   9.485 -0.2580  0.1559 -0.1650
 7642SOL    HW134388   1.035   3.636   9.528 -0.7583  0.6738  1.1810
 7642SOL    HW234389   1.016   3.777   9.558  0.8075  1.0066 -1.0395
 7643SOL     OW34390   0.320   0.529   4.977 -0.4546 -0.1827 -0.0667
 7643SOL    HW134391   0.259   0.476   4.926 -0.3108  0.0136 -0.4410
 7643SOL    HW234392   0.365   0.462   5.029 -2.3822 -1.8728 -0.5676
 7644SOL     OW34393   1.251   0.579  10.961 -0.1286 -0.5482  0.1203
 7644SOL    HW134394   1.248   0.631  11.042 -0.2274 -0.3427 -0.0150
 7644SOL    HW234395   1.262   0.494  11.003 -0.5953  0.2911  1.9641
 7645SOL     OW34396   2.774   1.015   7.833  0.5131  0.0063 -0.2095
 7645SOL    HW134397   2.845   0.978   7.885 -0.2879 -1.0015  0.1614
 7645SOL    HW234398   2.810   1.103   7.836 -1.5806  0.7875  2.1482
 7646SOL     OW34399   4.521   0.012   4.700  0.1150  0.1246  0.4530
 7646SOL    HW134400   4.538   4.676   4.777  0.3233 -2.0442 -1.1338
 7646SOL    HW234401   4.610   0.025   4.669 -0.1298 -1.2774 -0.8182
 7647SOL     OW34402   4.587   2.348  14.325  0.5698 -0.6086 -0.2478
 7647SOL    HW134403   4.601   2.265  14.371  1.5157  0.3265  1.1947
 7647SOL    HW234404   4.613   2.328  14.235  1.8044  0.6839 -0.1843
 7648SOL     OW34405   0.736   3.893   8.285 -0.2312 -0.9425 -0.0924
 7648SOL    HW134406   0.773   3.907   8.198 -1.3589  2.4296  0.0062
 7648SOL    HW234407   0.659   3.947   8.268 -0.0519 -1.2208 -1.7858
 7649SOL     OW34408   1.835   1.622  11.824 -0.2880  0.5144 -0.7821
 7649SOL    HW134409   1.791   1.586  11.748 -1.7579  0.2668  0.1743
 7649SOL    HW234410   1.919   1.577  11.825 -0.1937  0.6401 -3.0345
 7650SOL     OW34411   0.683   2.469   2.792  0.2517  0.0565 -0.0393
 7650SOL    HW134412   0.734   2.497   2.716  0.2513  1.8400  0.6069
 7650SOL    HW234413   0.744   2.482   2.864 -0.5748  0.8002  0.5305
 7651SOL     OW34414   1.023   1.160   8.167  0.0714 -0.1484  0.2826
 7651SOL    HW134415   1.051   1.248   8.140 -0.5290  0.1821  0.7128
 7651SOL    HW234416   1.001   1.176   8.259  0.3459  0.3295  0.2669
 7652SOL     OW34417   3.891   1.777  16.656 -0.2195 -0.2309 -0.1087
 7652SOL    HW134418   3.824   1.844  16.642 -0.0578 -0.6076 -2.7241
 7652SOL    HW234419   3.968   1.830  16.674 -0.8970  0.4946  0.6546
 7653SOL     OW34420   2.987   0.907  16.898 -0.7792 -0.0037  0.2592
 7653SOL    HW134421   2.934   0.833  16.925  2.1739 -2.8880 -1.8269
 7653SOL    HW234422   2.931   0.945  16.830 -0.7516 -0.3114  0.0621
 7654SOL     OW34423   1.270   2.678   5.800  0.0132  0.2900 -0.7426
 7654SOL    HW134424   1.253   2.713   5.712 -0.7142  2.5564  0.2977
 7654SOL    HW234425   1.230   2.592   5.787 -0.5241  0.8023 -2.5212
 7655SOL     OW34426   3.160   2.216  11.573  0.8341  0.1130  0.2884
 7655SOL    HW134427   3.098   2.285  11.596  0.5215 -0.0721  0.0116
 7655SOL    HW234428   3.125   2.185  11.489  0.4700  0.0853  0.4523
 7656SOL     OW34429   1.284   3.663   2.519  0.3065  0.3915  0.4668
 7656SOL    HW134430   1.217   3.636   2.456 -1.0447  1.7071  1.3459
 7656SOL    HW234431   1.238   3.675   2.602  1.3584  0.7522  0.9994
 7657SOL     OW34432   2.973   2.361   7.837 -0.5667  0.1037 -0.0537
 7657SOL    HW134433   3.034   2.319   7.898  0.6553  1.7442 -0.1393
 7657SOL    HW234434   3.019   2.443   7.822 -1.6311  0.4402 -1.4864
 7658SOL     OW34435   3.948   2.570   1.898 -0.3028  0.1189 -0.1833
 7658SOL    HW134436   4.039   2.539   1.899 -0.0581  0.8553  0.4932
 7658SOL    HW234437   3.900   2.514   1.959  0.2119 -0.3305 -0.1914
 7659SOL     OW34438   0.814   2.635   0.800 -0.2644 -0.3997 -0.5053
 7659SOL    HW134439   0.740   2.603   0.850 -1.3419 -0.0187 -1.8308
 7659SOL    HW234440   0.776   2.631   0.712  0.9764 -1.0213 -1.0139
 7660SOL     OW34441   4.259   2.395   0.848 -0.1179 -0.1979 -0.2260
 7660SOL    HW134442   4.313   2.470   0.873  0.3342 -1.2891  2.0985
 7660SOL    HW234443   4.171   2.428   0.832  0.4688  0.7048 -1.5078
 7661SOL     OW34444   0.985   1.642  10.274 -0.8086 -0.0956  0.0777
 7661SOL    HW134445   0.912   1.637  10.336  0.3701 -1.8588  1.3368
 7661SOL    HW234446   0.993   1.736  10.264  0.3470 -0.3002 -0.8395
 7662SOL     OW34447   2.664   2.124   2.747  0.0321  0.4053 -0.1765
 7662SOL    HW134448   2.701   2.077   2.672  1.2841  0.0481  0.6635
 7662SOL    HW234449   2.713   2.081   2.818  1.2285 -2.1221 -2.5243
 7663SOL     OW34450   1.680   2.159   5.495 -0.4434  0.4721 -0.3989
 7663SOL    HW134451   1.651   2.235   5.445 -1.3842  1.7967  2.1430
 7663SOL    HW234452   1.770   2.183   5.515 -1.1946  1.4519  1.8359
 7664SOL     OW34453   4.484   1.429  10.269  0.2286  0.2055 -0.1987
 7664SOL    HW134454   4.564   1.395  10.309 -0.1139 -0.7819 -0.3707
 7664SOL    HW234455   4.420   1.405  10.335 -0.3227 -0.7067 -1.0752
 7665SOL     OW34456   0.868   3.065   0.337 -0.2594 -0.3559  0.3518
 7665SOL    HW134457   0.845   3.004   0.407  2.4901 -1.2135  0.5394
 7665SOL    HW234458   0.786   3.108   0.311 -0.8717 -0.8874  1.4185
 7666SOL     OW34459   2.735   4.566  11.614  0.2440  0.9954 -0.2597
 7666SOL    HW134460   2.742   4.602  11.525  2.1994  0.3847 -0.3667
 7666SOL    HW234461   2.750   4.473  11.596 -1.2543  0.8444 -0.6630
 7667SOL     OW34462   1.529   3.096  11.871  0.2112 -0.5088 -0.2656
 7667SOL    HW134463   1.556   3.004  11.876 -0.8903 -0.7351  1.5892
 7667SOL    HW234464   1.471   3.089  11.796  1.0073 -1.9971 -0.7362
 7668SOL     OW34465   3.532   0.285   4.065 -0.1657 -0.3875 -0.2240
 7668SOL    HW134466   3.551   0.198   4.032 -2.0171 -0.5305 -0.9096
 7668SOL    HW234467   3.576   0.329   3.993  0.7637  1.5527  1.5384
 7669SOL     OW34468   0.960   3.631  17.203 -0.0688  0.4370 -0.4538
 7669SOL    HW134469   0.937   3.614  17.112  0.2157 -0.1015 -0.4274
 7669SOL    HW234470   1.008   3.549  17.219 -0.3682  0.9180  3.0659
 7670SOL     OW34471   2.239   2.933   9.233 -1.0006 -0.1738  0.0139
 7670SOL    HW134472   2.147   2.961   9.233 -0.8602  0.2989 -0.8239
 7670SOL    HW234473   2.282   3.002   9.183 -1.2635 -1.3255 -1.8170
 7671SOL     OW34474   3.052   3.889   8.856  0.1373 -0.1765  0.1034
 7671SOL    HW134475   3.072   3.959   8.793  0.2603 -2.4492 -2.3603
 7671SOL    HW234476   2.961   3.912   8.879  0.2425 -0.3289  0.6628
 7672SOL     OW34477   4.148   0.113  13.389 -0.0259 -0.3918 -0.2942
 7672SOL    HW134478   4.228   0.062  13.403  0.2793 -0.4748 -2.3443
 7672SOL    HW234479   4.138   0.164  13.470  0.9637  2.4347 -1.9221
 7673SOL     OW34480   1.718   3.569   0.747 -0.3266 -0.3168 -0.3474
 7673SOL    HW134481   1.774   3.518   0.689  0.4962  0.1067  0.0890
 7673SOL    HW234482   1.767   3.553   0.828 -0.2099  1.7848 -0.0042
 7674SOL     OW34483   2.614   2.541   4.910  0.4125  0.3460  0.2854
 7674SOL    HW134484   2.601   2.468   4.850  0.1325 -0.4158  1.2628
 7674SOL    HW234485   2.540   2.592   4.877  1.6521  1.9156 -0.0635
 7675SOL     OW34486   2.257   0.391   3.649 -0.8419 -0.7266  0.3306
 7675SOL    HW134487   2.234   0.353   3.734 -1.0970 -0.3657  0.4278
 7675SOL    HW234488   2.214   0.476   3.658  0.4006  0.0547 -1.1351
 7676SOL     OW34489   3.683   0.650   1.907  0.3314 -0.3281 -0.0694
 7676SOL    HW134490   3.723   0.578   1.857 -1.1532 -2.0031  1.1964
 7676SOL    HW234491   3.737   0.724   1.879 -0.1999  0.7164  1.7013
 7677SOL     OW34492   0.056   3.447   4.979 -0.1175 -0.1831 -0.1227
 7677SOL    HW134493   4.682   3.423   4.970  0.0487  0.2790 -3.3668
 7677SOL    HW234494   0.068   3.455   5.073 -1.4063 -0.7027  0.0848
 7678SOL     OW34495   2.964   3.156   6.136 -0.0317 -0.2236 -1.1847
 7678SOL    HW134496   2.920   3.241   6.139 -0.2754 -0.4010  0.2451
 7678SOL    HW234497   2.954   3.122   6.225 -1.2623 -0.9817 -1.6130
 7679SOL     OW34498   2.258   2.634   0.095  0.0617 -0.1355  0.2494
 7679SOL    HW134499   2.201   2.662   0.167 -1.7813 -0.1488 -1.2069
 7679SOL    HW234500   2.313   2.574   0.146  0.6082  1.8024  1.9423
 7680SOL     OW34501   0.146   1.940   2.868 -0.1630 -0.0582  0.1538
 7680SOL    HW134502   0.103   1.990   2.938 -1.3692 -0.3728 -0.3676
 7680SOL    HW234503   0.068   1.887   2.850  0.3504 -1.0869  0.9212
 7681SOL     OW34504   0.864   1.665   5.933 -0.2408 -0.3321  0.2888
 7681SOL    HW134505   0.796   1.671   6.001 -0.2870 -2.1458  0.3924
 7681SOL    HW234506   0.908   1.750   5.938 -2.6749  0.7719  2.5280
 7682SOL     OW34507   3.411   1.461   4.163 -0.4378 -0.0477 -0.2318
 7682SOL    HW134508   3.442   1.552   4.165  0.1550 -0.2433 -0.3795
 7682SOL    HW234509   3.444   1.425   4.080 -1.1683  0.7963 -0.8951
 7683SOL     OW34510   0.313   2.971   3.798  0.3957  0.1030  0.2173
 7683SOL    HW134511   0.237   3.025   3.820  0.7837  0.1625  1.3807
 7683SOL    HW234512   0.261   2.892   3.780  1.2286 -0.1259 -1.2286
 7684SOL     OW34513   1.126   1.129   7.168  0.1952 -0.9254 -0.0218
 7684SOL    HW134514   1.218   1.154   7.162 -0.6210  1.5578 -2.1847
 7684SOL    HW234515   1.121   1.130   7.263  0.2879  0.2066 -0.0229
 7685SOL     OW34516   0.118   3.192   3.436 -0.1064  0.5488 -0.1075
 7685SOL    HW134517   0.100   3.254   3.364 -0.1423  0.6073 -0.0478
 7685SOL    HW234518   0.203   3.221   3.469 -0.4507 -1.3141  2.3567
 7686SOL     OW34519   4.130   2.435   6.276 -0.1705  0.3854  0.8758
 7686SOL    HW134520   4.192   2.455   6.347  0.6073  1.6302 -0.1584
 7686SOL    HW234521   4.047   2.447   6.321 -0.3744  1.0763  0.2980
 7687SOL     OW34522   2.170   3.704   1.784 -0.1595  0.4842  0.4931
 7687SOL    HW134523   2.238   3.641   1.807  0.2093  0.6815 -0.0839
 7687SOL    HW234524   2.093   3.647   1.791  0.4556 -0.5758 -1.6216
 7688SOL     OW34525   3.915   2.423   6.428 -0.0604  0.0308 -0.3436
 7688SOL    HW134526   3.910   2.363   6.502  0.9470  0.9841  0.4925
 7688SOL    HW234527   3.823   2.447   6.421  0.0993  0.5878 -0.5166
 7689SOL     OW34528   2.889   3.364   5.074 -0.2315 -0.3237 -0.0094
 7689SOL    HW134529   2.888   3.385   4.981 -1.7676 -3.9784 -0.8243
 7689SOL    HW234530   2.970   3.314   5.079 -0.3591 -0.6630 -1.3762
 7690SOL     OW34531   0.144   0.990   2.278 -0.1576  0.4390 -0.5505
 7690SOL    HW134532   0.066   1.041   2.298  0.6596  0.5619  2.4722
 7690SOL    HW234533   0.183   0.982   2.366  1.4448 -1.9877 -1.4696
 7691SOL     OW34534   1.832   0.824   3.305  0.4893  0.3894 -0.2743
 7691SOL    HW134535   1.910   0.867   3.270 -0.1065  0.2298 -1.7807
 7691SOL    HW234536   1.836   0.857   3.395  2.7860 -2.3385  0.6358
 7692SOL     OW34537   3.664   2.271  17.453  0.1024  0.0823  1.0002
 7692SOL    HW134538   3.609   2.223  17.515 -1.0148  1.9661  1.4695
 7692SOL    HW234539   3.638   2.358  17.484 -2.1166 -0.5585  0.9252
 7693SOL     OW34540   1.893   2.723   6.620 -0.1879 -0.6109 -0.1061
 7693SOL    HW134541   1.935   2.684   6.697  1.1619  1.3130  0.1448
 7693SOL    HW234542   1.953   2.792   6.591  0.4007  0.1693  2.9782
 7694SOL     OW34543   4.327   0.856   5.755 -0.0134 -0.5392  0.4669
 7694SOL    HW134544   4.256   0.866   5.692  0.9831  0.1246 -0.5509
 7694SOL    HW234545   4.299   0.847   5.846  2.8285  4.3010  1.7978
 7695SOL     OW34546   2.837   1.799   3.466  0.0877 -0.2911 -0.2915
 7695SOL    HW134547   2.908   1.772   3.524  0.4630 -0.0527 -0.6374
 7695SOL    HW234548   2.758   1.805   3.518  0.5158 -3.0943  0.6941
 7696SOL     OW34549   1.447   4.335   3.734 -0.1475  0.1516 -0.2098
 7696SOL    HW134550   1.378   4.314   3.798 -1.0267 -1.7049 -1.7516
 7696SOL    HW234551   1.428   4.424   3.707  0.6711  1.3403  3.1345
 7697SOL     OW34552   0.378   0.803   7.800 -0.0901  0.7961  0.0079
 7697SOL    HW134553   0.284   0.815   7.782 -0.0892 -2.1168 -1.9668
 7697SOL    HW234554   0.411   0.871   7.741 -0.8491  0.5111 -0.7535
 7698SOL     OW34555   3.406   3.807  11.167  0.1292  0.3088 -0.1199
 7698SOL    HW134556   3.435   3.894  11.194 -0.8775  0.7686 -0.5258
 7698SOL    HW234557   3.337   3.785  11.230 -1.1451  0.4651 -1.4823
 7699SOL     OW34558   4.137   3.026   8.592 -0.4359 -0.6042  0.0117
 7699SOL    HW134559   4.173   2.937   8.586  0.4953 -0.2868  0.8454
 7699SOL    HW234560   4.179   3.062   8.670  0.6115 -1.0839 -0.3235
 7700SOL     OW34561   4.256   0.715   4.532  0.1667 -0.3041 -0.1498
 7700SOL    HW134562   4.181   0.669   4.495 -0.8933  1.4870 -0.2191
 7700SOL    HW234563   4.320   0.643   4.535  0.9454  0.4372  1.4835
 7701SOL     OW34564   3.559   1.884   6.756  0.6727 -0.3361  0.9154
 7701SOL    HW134565   3.647   1.922   6.758  0.3076  0.5489  0.2056
 7701SOL    HW234566   3.582   1.798   6.720 -1.3182 -0.1262 -0.8582
 7702SOL     OW34567   0.160   3.871  17.115  0.0428 -0.0053 -0.1682
 7702SOL    HW134568   0.171   3.965  17.102 -0.4553  0.0817  0.0058
 7702SOL    HW234569   0.165   3.863  17.211  0.5214  0.0863 -0.1891
 7703SOL     OW34570   0.410   0.854  15.981  0.0402  0.1905 -0.0198
 7703SOL    HW134571   0.373   0.780  16.028 -1.5316  1.1665  0.2724
 7703SOL    HW234572   0.340   0.868  15.917  0.1744 -1.0180 -0.4311
 7704SOL     OW34573   2.393   3.221  14.246  0.1857 -0.4175 -0.2573
 7704SOL    HW134574   2.433   3.176  14.171  2.3925  2.7784 -0.9906
 7704SOL    HW234575   2.418   3.309  14.221 -0.1653  0.3911  2.2011
 7705SOL     OW34576   4.272   1.298   5.188  0.8016 -0.1426  0.1738
 7705SOL    HW134577   4.242   1.355   5.259  0.8331 -1.0478  0.9131
 7705SOL    HW234578   4.367   1.304   5.196  0.6806  3.0344 -0.4841
 7706SOL     OW34579   0.669   3.485  16.533  0.5440  0.2078 -0.0252
 7706SOL    HW134580   0.574   3.474  16.530  0.6888 -1.6842  1.5497
 7706SOL    HW234581   0.691   3.464  16.442 -0.0949 -1.7941  0.2838
 7707SOL     OW34582   1.068   3.351   7.656  0.3552 -0.1508  0.2359
 7707SOL    HW134583   1.115   3.355   7.573 -0.2380  0.5324 -0.0583
 7707SOL    HW234584   0.976   3.351   7.631  0.5614  0.7771 -0.5027
 7708SOL     OW34585   0.684   1.674  16.308 -0.4778  0.4927 -0.2624
 7708SOL    HW134586   0.778   1.667  16.324 -0.5525 -1.0761 -0.5180
 7708SOL    HW234587   0.678   1.669  16.212 -1.3642  0.5027 -0.2118
 7709SOL     OW34588   3.462   1.682   3.917 -0.8327  0.2182 -0.1956
 7709SOL    HW134589   3.445   1.763   3.965 -1.1234 -0.5677  1.0439
 7709SOL    HW234590   3.552   1.698   3.889 -0.6388  0.7751  0.7606
 7710SOL     OW34591   4.593   2.547   5.173  0.2488  0.7326  0.0886
 7710SOL    HW134592   4.655   2.507   5.112  0.1363 -0.0313  0.4696
 7710SOL    HW234593   4.613   2.640   5.161 -0.2053  0.6002 -1.7437
 7711SOL     OW34594   1.809   4.083   8.969  0.2164  0.6256  0.2951
 7711SOL    HW134595   1.801   4.177   8.953  2.7193  0.9302  0.9189
 7711SOL    HW234596   1.791   4.036   8.888 -1.1187  1.1961  0.2602
 7712SOL     OW34597   4.228   2.107   8.758  0.5146  1.0127 -0.3433
 7712SOL    HW134598   4.298   2.156   8.715 -1.2871  2.2070 -1.8538
 7712SOL    HW234599   4.153   2.163   8.742  1.0915  1.0454 -2.8213
 7713SOL     OW34600   0.983   1.844   6.762  0.0952  0.2283 -0.3931
 7713SOL    HW134601   1.017   1.811   6.679 -0.8194 -0.7472 -0.3768
 7713SOL    HW234602   1.056   1.820   6.819 -0.9140  0.4981  1.0289
 7714SOL     OW34603   3.646   2.783   9.679  0.0483 -0.2473  0.5027
 7714SOL    HW134604   3.664   2.877   9.675 -0.5746 -0.3048 -3.3142
 7714SOL    HW234605   3.551   2.786   9.683  0.0643  0.7155  0.2895
 7715SOL     OW34606   0.880   2.544   3.841  0.4006 -0.1715 -0.0450
 7715SOL    HW134607   0.967   2.559   3.878  1.0978  0.4940 -1.9366
 7715SOL    HW234608   0.872   2.450   3.858  0.8715 -0.3089 -0.5856
 7716SOL     OW34609   3.365   1.252   4.733  0.2576  0.1840  0.0519
 7716SOL    HW134610   3.391   1.186   4.669 -1.6979 -1.5870  1.0805
 7716SOL    HW234611   3.401   1.208   4.810 -0.5479 -0.4032  0.1003
 7717SOL     OW34612   3.482   2.993   4.835 -0.2768  0.5961 -0.1484
 7717SOL    HW134613   3.517   2.997   4.924  1.4933  0.2961 -0.8290
 7717SOL    HW234614   3.543   3.044   4.781  0.4511  0.3261  0.4201
 7718SOL     OW34615   1.702   2.930   7.937  0.4187 -0.3214  0.2795
 7718SOL    HW134616   1.610   2.919   7.913  0.1422  0.4202  0.9834
 7718SOL    HW234617   1.696   2.886   8.022 -3.2248  0.5471  0.4599
 7719SOL     OW34618   1.655   2.364   2.324 -0.1629 -0.1596  0.1552
 7719SOL    HW134619   1.615   2.450   2.314 -3.3099 -1.2062  3.4428
 7719SOL    HW234620   1.730   2.377   2.267 -0.0548  0.7367  0.5137
 7720SOL     OW34621   4.504   1.346  11.617  0.5483  0.2400 -0.4035
 7720SOL    HW134622   4.498   1.327  11.711  2.3195  4.4233  0.5431
 7720SOL    HW234623   4.411   1.348  11.597 -0.0289 -0.0607  2.1661
 7721SOL     OW34624   1.931   3.333   2.122 -0.0005  0.4253 -0.4425
 7721SOL    HW134625   1.910   3.410   2.175 -1.0075  1.0186 -1.6868
 7721SOL    HW234626   2.025   3.316   2.125  0.1129  0.8408 -1.6546
 7722SOL     OW34627   1.975   3.621   7.839 -0.2253  0.2110  0.1373
 7722SOL    HW134628   1.967   3.712   7.869  0.7599  0.0200  0.9585
 7722SOL    HW234629   1.889   3.587   7.863  0.1113  0.2368  1.3486
 7723SOL     OW34630   0.826   1.334   6.656  0.1275 -0.0066  0.0766
 7723SOL    HW134631   0.900   1.352   6.713  0.0343 -1.7793  0.7650
 7723SOL    HW234632   0.770   1.374   6.723 -0.8676 -1.2564 -0.0079
 7724SOL     OW34633   3.734   1.548   3.594 -0.4267  0.3010  0.0358
 7724SOL    HW134634   3.734   1.640   3.621  1.7316  0.8488 -1.9068
 7724SOL    HW234635   3.649   1.546   3.549 -0.1957 -2.0246 -0.2771
 7725SOL     OW34636   1.412   3.517   8.199 -0.4341  0.3278 -0.2635
 7725SOL    HW134637   1.375   3.503   8.287 -1.5814 -2.5425 -1.2116
 7725SOL    HW234638   1.398   3.612   8.194  1.4604  0.4755 -2.3598
 7726SOL     OW34639   3.944   3.272   6.308 -0.2364 -0.6672 -0.0323
 7726SOL    HW134640   3.948   3.324   6.388 -2.6169 -2.1517  1.0615
 7726SOL    HW234641   3.889   3.324   6.249 -0.7967 -1.7238 -0.4478
 7727SOL     OW34642   0.296   3.917  15.313 -0.6340  0.5072  0.3151
 7727SOL    HW134643   0.275   3.896  15.404  1.0172 -1.7280  0.1909
 7727SOL    HW234644   0.325   4.008  15.314  0.7972  0.0350  2.3197
 7728SOL     OW34645   0.678   2.231  13.877  0.5587 -0.0917  0.0572
 7728SOL    HW134646   0.686   2.303  13.940 -0.4539  0.4687 -0.4550
 7728SOL    HW234647   0.733   2.248  13.800  1.1599 -2.1311  0.0216
 7729SOL     OW34648   2.413   2.828   1.160  0.6076 -0.3560  0.0917
 7729SOL    HW134649   2.392   2.876   1.240 -0.8209 -0.5562 -0.1603
 7729SOL    HW234650   2.405   2.903   1.101  0.4888 -0.7011 -0.3358
 7730SOL     OW34651   3.818   2.246   0.340 -0.4763  0.5391  0.0036
 7730SOL    HW134652   3.809   2.161   0.298  1.0663 -0.1000  0.9677
 7730SOL    HW234653   3.731   2.263   0.377  0.6748  1.8860  2.1066
 7731SOL     OW34654   3.691   4.044  16.174 -0.3634 -0.3845 -0.3257
 7731SOL    HW134655   3.606   4.087  16.165  0.5090  0.7483 -3.1135
 7731SOL    HW234656   3.659   3.962  16.134  0.3763 -1.0983  0.5500
 7732SOL     OW34657   2.143   4.400   8.701 -1.1614 -0.4503 -0.9332
 7732SOL    HW134658   2.174   4.491   8.706  0.1510 -0.8373 -1.9921
 7732SOL    HW234659   2.129   4.394   8.606  0.3827 -0.0251 -1.1935
 7733SOL     OW34660   3.366   0.390   1.784 -0.1468  0.0131  0.5646
 7733SOL    HW134661   3.317   0.326   1.732  1.7236 -1.6050  0.7879
 7733SOL    HW234662   3.349   0.367   1.876  0.1970 -0.4723  0.5092
 7734SOL     OW34663   0.362   3.543   4.673 -0.3455  0.5790  0.1427
 7734SOL    HW134664   0.404   3.621   4.637  0.2004  0.5101  0.6267
 7734SOL    HW234665   0.273   3.572   4.692 -0.4981  0.6798 -0.7117
 7735SOL     OW34666   2.125   1.143   8.886  0.4245 -0.2545  0.4161
 7735SOL    HW134667   2.086   1.230   8.885  1.3334  0.1717  2.1666
 7735SOL    HW234668   2.047   1.087   8.883  0.0173  0.4189 -1.6361
 7736SOL     OW34669   4.460   1.608   9.008  0.0375 -1.0767  0.5307
 7736SOL    HW134670   4.543   1.575   9.043  0.9024 -1.3775 -1.7772
 7736SOL    HW234671   4.425   1.662   9.079 -0.6861  0.4226 -0.9676
 7737SOL     OW34672   0.707   3.077   4.105  0.4062 -0.1282 -0.2606
 7737SOL    HW134673   0.770   3.096   4.036  0.5450 -1.0925 -0.4052
 7737SOL    HW234674   0.632   3.098   4.050 -0.0062  1.0578  0.7607
 7738SOL     OW34675   1.392   4.581   7.006 -0.3250  0.3521  0.4608
 7738SOL    HW134676   1.461   4.647   7.001 -0.0509  0.1660  1.7465
 7738SOL    HW234677   1.371   4.567   6.914  1.6367 -0.1265  0.1072
 7739SOL     OW34678   4.475   3.458   8.280 -0.1301  0.0309 -0.3921
 7739SOL    HW134679   4.382   3.436   8.286  0.3103 -2.0520 -1.2887
 7739SOL    HW234680   4.505   3.383   8.230  1.4109  0.6476 -0.3867
 7740SOL     OW34681   2.593   2.444   2.630  0.5943 -0.5189 -0.1889
 7740SOL    HW134682   2.683   2.445   2.598  0.6993 -0.5163  0.1011
 7740SOL    HW234683   2.550   2.524   2.598  0.2678 -0.9672 -0.8755
 7741SOL     OW34684   1.859   3.389  12.860 -0.4335  0.7939 -0.4231
 7741SOL    HW134685   1.846   3.294  12.858 -2.3253  1.0724 -1.3216
 7741SOL    HW234686   1.925   3.412  12.796  1.7646 -1.4602  1.0322
 7742SOL     OW34687   1.065   0.551   4.714  0.1365 -0.1251 -0.1760
 7742SOL    HW134688   1.099   0.534   4.626  1.1355  0.9493  0.0038
 7742SOL    HW234689   1.044   0.463   4.744  1.7423 -0.9823 -1.5770
 7743SOL     OW34690   2.161   4.408   5.363 -0.3783  0.5930  0.8627
 7743SOL    HW134691   2.234   4.346   5.358 -1.3317 -0.5440  0.9779
 7743SOL    HW234692   2.204   4.467   5.424 -0.9287  0.1286  1.7015
 7744SOL     OW34693   1.200   4.628  17.314  0.0073 -0.0736 -0.2003
 7744SOL    HW134694   1.254   4.584  17.249 -0.2161  2.8612 -2.3840
 7744SOL    HW234695   1.138   4.557  17.331 -1.3770  1.0160 -0.6985
 7745SOL     OW34696   3.968   4.630  16.573  0.0184  0.4966 -0.4830
 7745SOL    HW134697   3.993   4.541  16.547 -0.7302 -0.0174  0.5333
 7745SOL    HW234698   4.027   4.653  16.645  0.4463 -2.1992  0.0367
 7746SOL     OW34699   2.283   3.756   8.629  0.2731  0.4274  0.9781
 7746SOL    HW134700   2.237   3.761   8.712 -1.3079  1.4072  0.0387
 7746SOL    HW234701   2.349   3.689   8.649 -0.1565 -0.1784  0.3467
 7747SOL     OW34702   3.956   0.198   4.449 -0.2239  0.5051  0.0057
 7747SOL    HW134703   3.949   0.222   4.357  0.2836  1.0287  0.1082
 7747SOL    HW234704   3.891   0.259   4.484 -1.0471  0.8489 -2.1173
 7748SOL     OW34705   0.560   1.690   6.427 -0.2092 -0.2035  0.2408
 7748SOL    HW134706   0.469   1.715   6.417  0.2411  0.9812 -0.7729
 7748SOL    HW234707   0.554   1.617   6.490  0.0879 -0.1948  0.2792
 7749SOL     OW34708   3.832   4.427   8.163  0.7866  0.4654 -0.2233
 7749SOL    HW134709   3.823   4.406   8.256 -1.2570  2.3024 -0.0126
 7749SOL    HW234710   3.762   4.372   8.126  1.4100 -1.4198  1.4220
 7750SOL     OW34711   3.008   2.424   8.318 -0.2387 -0.7630 -0.0543
 7750SOL    HW134712   2.960   2.406   8.399 -3.0132  1.5479 -1.1795
 7750SOL    HW234713   2.928   2.423   8.266 -0.3876  1.6583  0.1176
 7751SOL     OW34714   1.287   1.353   3.185  0.4850 -0.0205 -0.1081
 7751SOL    HW134715   1.277   1.320   3.096 -0.3115  2.5043 -0.9741
 7751SOL    HW234716   1.379   1.378   3.188  0.1665  1.2866 -1.0661
 7752SOL     OW34717   2.126   3.725  10.931 -0.0425  0.3218 -0.0587
 7752SOL    HW134718   2.062   3.736  10.861 -2.8136 -2.2860  2.0747
 7752SOL    HW234719   2.071   3.715  11.009 -1.6108  4.3964 -0.6524
 7753SOL     OW34720   4.220   0.878   9.089 -0.2161  0.3290  0.2138
 7753SOL    HW134721   4.155   0.811   9.111  0.7468 -0.0445  1.9420
 7753SOL    HW234722   4.160   0.951   9.072 -1.1279 -0.7018 -1.0226
 7754SOL     OW34723   0.748   2.129   2.121  0.2118 -0.3269 -0.3460
 7754SOL    HW134724   0.830   2.100   2.163  0.6194 -4.8805 -4.1814
 7754SOL    HW234725   0.751   2.070   2.045  2.4397  0.2309 -0.7002
 7755SOL     OW34726   2.782   4.257   6.359 -0.2137 -0.2191 -0.8700
 7755SOL    HW134727   2.810   4.219   6.443 -0.3945 -1.0147 -1.1715
 7755SOL    HW234728   2.690   4.274   6.379 -0.0890 -0.7381  0.1562
 7756SOL     OW34729   1.311   1.333   6.182 -0.0364 -0.1764  0.1181
 7756SOL    HW134730   1.396   1.299   6.211  1.9379  3.2350 -1.7040
 7756SOL    HW234731   1.259   1.261   6.146 -0.7561  1.8994 -2.9564
 7757SOL     OW34732   3.959   0.404   5.406  0.0658  0.0601 -0.3120
 7757SOL    HW134733   4.052   0.422   5.424 -0.1779  2.4498 -1.4149
 7757SOL    HW234734   3.938   0.482   5.355 -0.6560  0.2009  0.1966
 7758SOL     OW34735   2.951   2.030  16.596  0.4491 -0.0807  0.0419
 7758SOL    HW134736   2.942   1.974  16.519 -3.2245  0.8982 -0.2343
 7758SOL    HW234737   2.886   2.100  16.596  2.0900  1.4619  0.0089
 7759SOL     OW34738   2.639   1.164   1.694  0.0655 -1.0947  0.7351
 7759SOL    HW134739   2.654   1.258   1.692 -0.8491 -0.9490  0.5955
 7759SOL    HW234740   2.711   1.124   1.645  0.7475  0.0076  0.8436
 7760SOL     OW34741   1.514   4.009  11.819  0.6921 -0.2342 -0.8217
 7760SOL    HW134742   1.532   4.036  11.729 -1.4009 -0.5698 -1.3497
 7760SOL    HW234743   1.440   4.069  11.828  0.5601 -0.3574 -1.0808
 7761SOL     OW34744   1.255   0.528   8.515  0.1272  0.0030 -0.0383
 7761SOL    HW134745   1.168   0.534   8.476  0.8130  2.8331 -1.0852
 7761SOL    HW234746   1.240   0.481   8.597 -1.6160 -2.5113 -1.8065
 7762SOL     OW34747   0.328   2.892   5.474  0.1452 -0.2286  0.5605
 7762SOL    HW134748   0.327   2.798   5.455  1.6451  0.5020 -3.2093
 7762SOL    HW234749   0.382   2.903   5.552  0.4923 -0.2345  0.3177
 7763SOL     OW34750   0.518   0.791   7.182 -0.0352  0.3857 -0.0867
 7763SOL    HW134751   0.600   0.793   7.133  1.2351  0.7642  2.0418
 7763SOL    HW234752   0.449   0.800   7.117  0.3708  0.2245 -0.5388
 7764SOL     OW34753   3.966   3.040   1.968  0.1550  0.3986 -0.2588
 7764SOL    HW134754   3.964   2.968   1.906 -1.2883  1.0138 -0.9203
 7764SOL    HW234755   4.017   3.010   2.044 -0.1446  1.5824  0.4236
 7765SOL     OW34756   3.793   2.131  10.557  0.4797 -0.0406  0.1583
 7765SOL    HW134757   3.805   2.225  10.569  0.6762 -0.3188  2.2791
 7765SOL    HW234758   3.777   2.117  10.464 -0.4302  1.1584  0.1265
 7766SOL     OW34759   0.432   4.622   5.103 -0.6407  0.4008  0.4493
 7766SOL    HW134760   0.474   4.601   5.187  0.1273 -0.9709 -0.2909
 7766SOL    HW234761   0.399   4.534   5.087 -0.7274  0.3904  0.6821
 7767SOL     OW34762   4.522   3.882  14.676 -0.0216 -0.3747  0.2859
 7767SOL    HW134763   4.557   3.943  14.741 -1.0643  2.1382 -1.5290
 7767SOL    HW234764   4.602   3.834  14.652  0.1930  0.2484 -0.2617
 7768SOL     OW34765   3.657   1.676   3.051 -0.4022 -0.2339 -0.1113
 7768SOL    HW134766   3.623   1.698   2.964  2.5815 -1.9663 -1.7369
 7768SOL    HW234767   3.724   1.745   3.058 -1.0186  0.3543  0.0097
 7769SOL     OW34768   4.212   2.460   7.548  0.2077  0.0739 -0.4112
 7769SOL    HW134769   4.277   2.403   7.508  2.0490  1.4434  0.6133
 7769SOL    HW234770   4.270   2.485   7.620 -0.7759  1.2870 -0.0421
 7770SOL     OW34771   2.491   1.746   5.300 -0.4971 -0.4767 -0.3771
 7770SOL    HW134772   2.565   1.778   5.352  0.1198 -1.5075 -0.6107
 7770SOL    HW234773   2.530   1.679   5.243 -0.4804 -1.6054  0.9581
 7771SOL     OW34774   2.146   4.635  12.539  0.4236  0.4083  0.1083
 7771SOL    HW134775   2.195   4.566  12.583 -2.5025  0.3069  3.1600
 7771SOL    HW234776   2.145   4.709  12.600 -1.6562  1.3890 -1.1034
 7772SOL     OW34777   2.470   3.260   2.279 -0.0689 -1.0757 -0.7522
 7772SOL    HW134778   2.514   3.299   2.204  2.6798 -0.0291  1.3932
 7772SOL    HW234779   2.408   3.326   2.310  1.0069 -0.8471  0.9293
 7773SOL     OW34780   4.449   1.714   0.374  1.0505 -0.4542  1.0744
 7773SOL    HW134781   4.511   1.646   0.349  1.5578  0.4161 -0.0400
 7773SOL    HW234782   4.421   1.692   0.463  1.9108  0.2101  1.5087
 7774SOL     OW34783   3.734   0.152  13.434  0.4305 -0.1711  0.6829
 7774SOL    HW134784   3.786   0.193  13.503  0.4564  0.1348  0.4792
 7774SOL    HW234785   3.746   0.217  13.365  1.2727 -2.4937 -1.3283
 7775SOL     OW34786   2.011   3.883  15.738  0.2064 -0.6012  0.1520
 7775SOL    HW134787   1.984   3.967  15.775 -1.4139 -1.5021  1.0086
 7775SOL    HW234788   2.103   3.907  15.727 -0.2062 -0.2937 -2.8317
 7776SOL     OW34789   0.084   2.564  13.485 -0.2481  0.2120  0.5951
 7776SOL    HW134790   0.108   2.504  13.556 -0.6367  1.0411  1.4291
 7776SOL    HW234791   0.045   2.509  13.418 -0.8949  1.9872 -0.4693
 7777SOL     OW34792   3.146   0.033   7.896 -0.1592  0.5385 -0.1994
 7777SOL    HW134793   3.096   0.009   7.818 -2.9063  1.2147  1.3213
 7777SOL    HW234794   3.205   0.102   7.867 -1.0416  1.5198  0.3685
 7778SOL     OW34795   3.215   3.485   0.860  0.2639 -0.0696  0.5617
 7778SOL    HW134796   3.286   3.424   0.839 -0.1904  1.0586 -4.1671
 7778SOL    HW234797   3.214   3.490   0.956  1.3272 -3.2343  0.7247
 7779SOL     OW34798   3.608   4.608  10.440  0.1488  0.4059  0.1863
 7779SOL    HW134799   3.669   4.681  10.451  1.3062 -0.4410 -0.5385
 7779SOL    HW234800   3.610   4.613  10.344  1.2631  1.2025  0.2550
 7780SOL     OW34801   0.446   0.939  12.686  0.6548  0.3237 -0.0224
 7780SOL    HW134802   0.421   0.923  12.595  0.5051 -0.9860  0.2436
 7780SOL    HW234803   0.513   0.872  12.696  0.2092 -0.2611 -0.9352
 7781SOL     OW34804   2.059   3.203  13.140 -0.4009  0.1579 -0.3484
 7781SOL    HW134805   2.009   3.152  13.204  2.8980 -0.3379  1.8277
 7781SOL    HW234806   2.147   3.172  13.160 -0.0348  1.4436  0.0612
 7782SOL     OW34807   4.219   1.086  13.164 -0.3691  0.1519  0.5434
 7782SOL    HW134808   4.160   1.011  13.156  0.1812 -0.4454  2.0069
 7782SOL    HW234809   4.191   1.143  13.093 -0.8196 -2.3161 -1.2762
 7783SOL     OW34810   0.982   0.090   5.156 -0.7533 -0.0521  0.1013
 7783SOL    HW134811   0.967   0.019   5.094 -0.2861 -0.2550  0.2192
 7783SOL    HW234812   0.981   0.038   5.236  1.1306 -0.0276  0.1490
 7784SOL     OW34813   3.664   4.431   4.436 -0.3033  0.2509 -0.6225
 7784SOL    HW134814   3.643   4.474   4.519 -1.0443 -2.0026  0.3541
 7784SOL    HW234815   3.631   4.343   4.454  0.5896 -0.4080 -2.2544
 7785SOL     OW34816   4.163   2.663   6.778  0.1190  0.9321 -0.4091
 7785SOL    HW134817   4.087   2.706   6.817  0.3454  0.7416  0.2398
 7785SOL    HW234818   4.147   2.675   6.684 -1.3428  1.0484 -0.1473
 7786SOL     OW34819   1.610   2.051   7.944 -0.2645  0.2776  0.1671
 7786SOL    HW134820   1.534   2.086   7.991 -0.2611 -1.4677  1.4792
 7786SOL    HW234821   1.596   1.962   7.975  1.3676  0.0400  0.2224
 7787SOL     OW34822   0.525   1.957  13.427  0.1922 -0.1422 -0.0883
 7787SOL    HW134823   0.550   1.944  13.519 -2.2723  0.2209  0.6252
 7787SOL    HW234824   0.449   1.900  13.416 -0.9719  1.0083  1.9284
 7788SOL     OW34825   0.135   3.277  10.034  0.1297 -0.0515  0.1231
 7788SOL    HW134826   0.113   3.333  10.109 -2.1121 -0.2571 -0.4044
 7788SOL    HW234827   0.223   3.307  10.013  0.6025 -3.0578 -2.2056
 7789SOL     OW34828   2.177   0.949  15.065  0.0081 -0.4603 -0.0246
 7789SOL    HW134829   2.164   0.866  15.019  1.0519 -1.0823  0.8147
 7789SOL    HW234830   2.268   0.938  15.092 -0.4871 -0.5120  1.6743
 7790SOL     OW34831   2.146   3.126   5.784  0.2964 -0.3169 -0.1875
 7790SOL    HW134832   2.076   3.191   5.779  0.1338 -0.5077 -0.3531
 7790SOL    HW234833   2.221   3.185   5.798  1.1224 -0.7905 -2.6836
 7791SOL     OW34834   0.432   3.219  13.129 -0.3977  0.2166 -0.3245
 7791SOL    HW134835   0.415   3.141  13.075 -0.0011 -0.9591  1.2601
 7791SOL    HW234836   0.415   3.173  13.211 -0.5566 -0.6204 -0.8190
 7792SOL     OW34837   0.365   0.904   5.104  0.2274 -0.1672  0.3510
 7792SOL    HW134838   0.334   0.821   5.139  0.9058 -0.4249  0.3307
 7792SOL    HW234839   0.458   0.891   5.085  0.6875  0.0384  2.4318
 7793SOL     OW34840   1.898   1.616   7.706 -0.0646 -0.1733  0.3169
 7793SOL    HW134841   1.841   1.655   7.772 -1.3325 -1.7642  0.1468
 7793SOL    HW234842   1.910   1.526   7.737 -1.5707 -0.2557  0.6696
 7794SOL     OW34843   1.815   3.667   6.007 -0.6619  0.5816 -0.7852
 7794SOL    HW134844   1.910   3.678   6.007 -0.4916 -0.9915  1.8088
 7794SOL    HW234845   1.809   3.626   5.920  1.8727  1.0959 -1.2140
 7795SOL     OW34846   3.856   2.775  16.715 -0.3872 -0.6874  0.0622
 7795SOL    HW134847   3.788   2.744  16.775 -1.0338 -2.5470 -1.6033
 7795SOL    HW234848   3.900   2.840  16.770  0.7835 -1.6402  0.2527
 7796SOL     OW34849   1.333   1.827   8.110  0.3370 -0.7389  0.4551
 7796SOL    HW134850   1.256   1.801   8.059  0.3342 -0.6418  0.4095
 7796SOL    HW234851   1.398   1.759   8.091 -0.5862 -0.8061 -2.5042
 7797SOL     OW34852   3.181   4.009   4.486 -0.0047 -0.2147  0.4405
 7797SOL    HW134853   3.175   4.086   4.429 -0.1572 -0.9551 -0.5299
 7797SOL    HW234854   3.107   4.024   4.545 -0.5069 -1.8341  0.2278
 7798SOL     OW34855   2.300   0.802   8.215 -0.0204 -0.0483  0.2107
 7798SOL    HW134856   2.292   0.731   8.279  1.1440  0.4754  0.9429
 7798SOL    HW234857   2.217   0.793   8.168 -0.4161  0.9234  0.7251
 7799SOL     OW34858   3.560   1.629   0.809  0.0155  0.8175  0.0302
 7799SOL    HW134859   3.468   1.625   0.832  0.2555 -0.2193  0.8085
 7799SOL    HW234860   3.591   1.538   0.805 -0.9668  0.4390  0.9555
 7800SOL     OW34861   3.338   0.322   9.847 -0.2502 -0.6451 -0.2620
 7800SOL    HW134862   3.342   0.385   9.919 -0.4314  1.1119 -1.7868
 7800SOL    HW234863   3.249   0.287   9.850  0.2373 -1.7400  1.5366
 7801SOL     OW34864   2.426   3.377   8.834  0.5878  0.1875  0.3926
 7801SOL    HW134865   2.378   3.294   8.830 -0.0097  0.5241  0.5415
 7801SOL    HW234866   2.513   3.342   8.814  0.4495 -0.8871  1.6474
 7802SOL     OW34867   3.689   0.854   5.395 -0.1518  0.4462  0.3208
 7802SOL    HW134868   3.669   0.766   5.427 -1.2774  0.5540 -0.0733
 7802SOL    HW234869   3.617   0.910   5.426  0.2243  1.6104 -0.9209
 7803SOL     OW34870   2.089   2.808   4.739  0.1530 -0.4006  0.8069
 7803SOL    HW134871   2.022   2.740   4.732  1.2852 -1.7662  3.5460
 7803SOL    HW234872   2.164   2.750   4.725 -1.4502 -2.2064 -0.4158
 7804SOL     OW34873   0.803   4.382  13.369 -0.3403  0.5007  0.1765
 7804SOL    HW134874   0.734   4.381  13.435 -0.4113 -2.7014  0.0534
 7804SOL    HW234875   0.815   4.287  13.369  0.6803  0.6408 -2.0843
 7805SOL     OW34876   0.359   2.787  13.845  0.2844  0.0602 -0.7619
 7805SOL    HW134877   0.293   2.774  13.777 -2.6117 -2.5479  2.5257
 7805SOL    HW234878   0.423   2.720  13.823  0.6415  0.1770 -0.0710
 7806SOL     OW34879   4.011   2.197  12.935  0.1040  0.4502  0.3847
 7806SOL    HW134880   3.916   2.202  12.921 -0.0145 -0.1598  0.9574
 7806SOL    HW234881   4.030   2.115  12.888  1.6901  1.9016 -1.4893
 7807SOL     OW34882   3.107   3.772  16.688  0.1431 -0.5181  0.1162
 7807SOL    HW134883   3.122   3.841  16.752 -1.1937  1.4193 -1.6532
 7807SOL    HW234884   3.136   3.695  16.737 -1.0350 -0.4160  0.9632
 7808SOL     OW34885   1.137   0.109   3.168 -0.1379 -0.2073 -0.1592
 7808SOL    HW134886   1.088   0.116   3.250 -1.7275  0.8592 -1.1947
 7808SOL    HW234887   1.140   0.203   3.147 -1.7641  0.0751  0.8954
 7809SOL     OW34888   0.193   3.769   1.169 -0.3842  0.2486 -0.0034
 7809SOL    HW134889   0.261   3.825   1.207  0.3245 -0.4309 -0.2475
 7809SOL    HW234890   0.109   3.808   1.191 -0.9491 -1.0908  0.2034
 7810SOL     OW34891   2.417   2.387   9.037  0.5212  0.3805  0.3100
 7810SOL    HW134892   2.339   2.435   9.008  1.9709  2.6522  0.1268
 7810SOL    HW234893   2.484   2.443   8.997  0.9420  1.2164  2.1518
 7811SOL     OW34894   3.412   2.446   5.848  0.2189  0.2469  0.3294
 7811SOL    HW134895   3.446   2.384   5.783  0.5178 -0.2271  0.9433
 7811SOL    HW234896   3.395   2.519   5.787 -1.5529 -0.4785 -0.0431
 7812SOL     OW34897   1.670   4.255   0.801 -0.0574  0.1133 -0.1577
 7812SOL    HW134898   1.722   4.309   0.861 -0.0389  1.5026 -1.4149
 7812SOL    HW234899   1.686   4.302   0.720  0.0259 -0.3052 -0.3836
 7813SOL     OW34900   4.319   4.642   1.596 -0.2472  0.0641  0.2518
 7813SOL    HW134901   4.258   4.599   1.656  1.5092  1.8422  3.2905
 7813SOL    HW234902   4.368   4.563   1.572 -1.6254 -0.2612 -1.5376
 7814SOL     OW34903   4.590   4.286   7.090  0.0114  0.0002 -0.1463
 7814SOL    HW134904   4.620   4.342   7.019 -1.0889 -0.5999 -1.0924
 7814SOL    HW234905   4.505   4.325   7.111  0.0999 -1.0737  2.1683
 7815SOL     OW34906   2.222   0.657   3.976 -0.4185  0.7982 -0.0228
 7815SOL    HW134907   2.142   0.705   3.999 -1.3663 -0.7664 -0.0668
 7815SOL    HW234908   2.293   0.704   4.020  1.8220 -0.9326 -1.8065
 7816SOL     OW34909   0.686   0.145  13.400 -0.2627 -0.6252  0.0699
 7816SOL    HW134910   0.719   0.078  13.461 -0.4039  0.5959  1.4708
 7816SOL    HW234911   0.764   0.201  13.393 -1.4834  1.0999  0.5194
 7817SOL     OW34912   1.178   2.766   6.040 -0.4946  0.8405  0.6793
 7817SOL    HW134913   1.220   2.742   5.957  2.8493  0.0156  2.5743
 7817SOL    HW234914   1.184   2.683   6.088 -0.4687  1.3385  1.5468
 7818SOL     OW34915   0.477   3.967   8.970 -0.1789 -0.9848 -0.0327
 7818SOL    HW134916   0.493   3.879   8.937 -1.9326 -1.1519 -0.4590
 7818SOL    HW234917   0.385   3.957   8.997 -0.1968 -0.7160  0.0051
 7819SOL     OW34918   4.470   2.269  13.495 -0.1560  0.4880  0.3410
 7819SOL    HW134919   4.476   2.221  13.577 -0.5146  1.6229  1.0350
 7819SOL    HW234920   4.381   2.304  13.499  0.2233  1.5222 -0.2024
 7820SOL     OW34921   2.069   1.497   7.357 -0.0799  0.1156 -0.4044
 7820SOL    HW134922   2.135   1.458   7.300 -0.7912  0.2442 -1.3292
 7820SOL    HW234923   2.126   1.525   7.429 -0.3012 -1.1098  0.2528
 7821SOL     OW34924   2.322   3.387  12.545 -0.2688 -0.1112  0.5578
 7821SOL    HW134925   2.349   3.296  12.557 -1.5789 -0.4483  0.9619
 7821SOL    HW234926   2.374   3.397  12.466 -1.2850 -0.1187 -0.1001
 7822SOL     OW34927   1.460   4.038   6.895  0.0892  0.0996  0.4110
 7822SOL    HW134928   1.413   3.968   6.850  1.8062 -1.5720  1.2451
 7822SOL    HW234929   1.390   4.104   6.895  1.2268  1.3077  2.7647
 7823SOL     OW34930   2.587   2.084   4.542  0.2728 -0.0451 -0.1435
 7823SOL    HW134931   2.593   2.006   4.598 -1.3958 -0.7455 -0.9182
 7823SOL    HW234932   2.660   2.078   4.481  0.9510 -1.2031  0.7949
 7824SOL     OW34933   4.109   1.375   8.398  0.0118  0.9466  0.3213
 7824SOL    HW134934   4.173   1.424   8.450  0.2684 -0.3756  1.2846
 7824SOL    HW234935   4.065   1.445   8.350 -2.4560  0.1505  1.4018
 7825SOL     OW34936   3.338   4.174   2.343 -0.4956 -0.2685  0.6457
 7825SOL    HW134937   3.371   4.230   2.272  1.1984 -1.8048  0.2403
 7825SOL    HW234938   3.413   4.152   2.397 -1.3530 -2.2142  1.0275
 7826SOL     OW34939   2.841   0.537  11.574  0.1440 -0.4688 -0.0811
 7826SOL    HW134940   2.911   0.558  11.511  1.8494 -2.1720  1.2356
 7826SOL    HW234941   2.860   0.585  11.654  0.2289  1.0051 -0.9852
 7827SOL     OW34942   4.425   2.522   6.785 -0.4323  0.2775  0.5725
 7827SOL    HW134943   4.468   2.592   6.834 -0.1358  1.3533 -1.2400
 7827SOL    HW234944   4.340   2.563   6.771  0.2322  0.7376 -1.9676
 7828SOL     OW34945   0.704   0.319   4.042  0.2077  0.0190 -0.6204
 7828SOL    HW134946   0.800   0.320   4.041  0.2406 -1.9056  0.2348
 7828SOL    HW234947   0.689   0.316   3.948 -1.7240  0.9133 -0.3376
 7829SOL     OW34948   4.088   1.803   6.322 -0.1592  0.3109  0.3689
 7829SOL    HW134949   4.024   1.732   6.318  1.8639 -1.5116 -0.0204
 7829SOL    HW234950   4.162   1.756   6.361 -2.4235  0.2373  4.5886
 7830SOL     OW34951   0.406   1.845   3.861  0.3153 -0.4538  0.0102
 7830SOL    HW134952   0.491   1.802   3.858  0.4486 -0.2817  1.0830
 7830SOL    HW234953   0.354   1.800   3.794 -1.3819  2.1614 -0.4061
 7831SOL     OW34954   1.290   2.132   5.777  0.1883  0.0564 -0.2166
 7831SOL    HW134955   1.263   2.082   5.700 -0.0182  0.5839 -0.4893
 7831SOL    HW234956   1.386   2.131   5.772  0.2842  0.3670  1.6674
 7832SOL     OW34957   2.739   0.620   0.129  0.2852 -0.4896  0.0985
 7832SOL    HW134958   2.673   0.668   0.179  0.6351 -0.7702  0.8293
 7832SOL    HW234959   2.730   0.533   0.166  0.0517 -0.3596  0.3487
 7833SOL     OW34960   1.038   2.834   3.222  0.1224 -0.2644  0.2641
 7833SOL    HW134961   0.979   2.805   3.292 -2.4560  0.0141 -1.7708
 7833SOL    HW234962   1.121   2.816   3.266  0.1629 -0.3843  0.1382
 7834SOL     OW34963   1.031   2.130  13.875  0.0937  0.0410  0.0219
 7834SOL    HW134964   1.016   2.220  13.902  1.0078  0.5188 -1.0703
 7834SOL    HW234965   0.960   2.088  13.923 -0.7742  1.8440  0.2940
 7835SOL     OW34966   1.661   2.025   6.731  0.4868  0.0611 -0.0532
 7835SOL    HW134967   1.702   2.001   6.814  1.0418 -0.4646 -0.4828
 7835SOL    HW234968   1.673   1.949   6.674  1.2050  0.4164 -0.3663
 7836SOL     OW34969   2.679   1.506   5.510  0.3470 -0.2585 -0.0405
 7836SOL    HW134970   2.753   1.450   5.530  0.9677  0.6287  0.1539
 7836SOL    HW234971   2.613   1.460   5.561  0.3586  1.9207  1.9370
 7837SOL     OW34972   4.283   2.436   1.133  0.0139 -0.1504 -0.0264
 7837SOL    HW134973   4.344   2.384   1.186  1.3749  1.3428 -0.1094
 7837SOL    HW234974   4.262   2.363   1.075 -0.0070 -0.7800  0.7778
 7838SOL     OW34975   0.546   0.414   2.630  0.3801 -0.3010 -0.0329
 7838SOL    HW134976   0.540   0.432   2.724  0.5847  0.7001 -0.2077
 7838SOL    HW234977   0.640   0.424   2.614  0.7598 -0.7632  1.9503
 7839SOL     OW34978   4.571   1.464   8.026 -0.7407  0.6029  0.1860
 7839SOL    HW134979   4.634   1.417   8.080 -0.0632  1.6902  0.3558
 7839SOL    HW234980   4.622   1.495   7.951 -1.8400  0.3035 -0.6774
 7840SOL     OW34981   0.815   3.691  12.199  0.9487 -0.3686  0.0904
 7840SOL    HW134982   0.783   3.774  12.166  1.0005  0.6807  2.6648
 7840SOL    HW234983   0.867   3.658  12.126  0.9523  1.0585 -0.5499
 7841SOL     OW34984   0.778   1.134   3.512  0.0198 -0.1437  0.6311
 7841SOL    HW134985   0.822   1.217   3.492  2.2791 -2.0209 -2.1879
 7841SOL    HW234986   0.745   1.158   3.599  0.2615  2.0887  0.1016
 7842SOL     OW34987   1.284   4.290   4.682  0.4287  0.0096 -0.1123
 7842SOL    HW134988   1.311   4.210   4.727 -1.3777 -0.4516  0.1284
 7842SOL    HW234989   1.373   4.327   4.680 -0.0218  1.0882  0.0055
 7843SOL     OW34990   0.424   4.367   9.479  0.2521  0.0611  0.0281
 7843SOL    HW134991   0.405   4.321   9.561  2.1996 -1.0043 -0.1098
 7843SOL    HW234992   0.343   4.339   9.437  0.6091  0.1815 -0.7482
 7844SOL     OW34993   2.128   2.105   8.482 -0.2578  0.5532 -0.1367
 7844SOL    HW134994   2.176   2.040   8.533 -0.7908  0.7493  0.6230
 7844SOL    HW234995   2.168   2.180   8.525  0.2053 -0.2072  0.7674
 7845SOL     OW34996   3.588   1.974  12.203  0.6584  0.0426  0.3940
 7845SOL    HW134997   3.663   2.027  12.176  0.3699  0.7556  0.9732
 7845SOL    HW234998   3.598   1.975  12.298 -0.4333 -0.8167  0.5113
 7846SOL     OW34999   3.176   3.339   6.561  0.6419 -0.7482 -0.2325
 7846SOL    HW135000   3.081   3.333   6.563  0.6353 -1.0395 -1.4327
 7846SOL    HW235001   3.200   3.361   6.471 -0.9984 -0.5283 -0.6150
 7847SOL     OW35002   2.555   1.341   6.249  0.1010 -0.5093 -0.1502
 7847SOL    HW135003   2.588   1.262   6.206  0.3662 -0.6264  0.2734
 7847SOL    HW235004   2.618   1.345   6.321  0.1710 -0.6868 -0.2023
 7848SOL     OW35005   1.136   1.467   7.453 -0.3166  0.6263 -0.0121
 7848SOL    HW135006   1.090   1.497   7.375  0.6582  1.1927 -0.3789
 7848SOL    HW235007   1.193   1.540   7.479  2.7270 -2.4782  1.9890
 7849SOL     OW35008   0.024   2.377   1.110  0.1525 -0.8610  0.1770
 7849SOL    HW135009   0.099   2.435   1.098 -1.7279  1.3867 -0.6069
 7849SOL    HW235010   0.031   2.327   1.029 -0.5535  1.5242 -1.3649
 7850SOL     OW35011   2.425   2.797   2.856 -0.5145  0.1128  0.0448
 7850SOL    HW135012   2.466   2.859   2.917 -1.5045  0.7972  0.0056
 7850SOL    HW235013   2.441   2.719   2.911 -1.3602 -0.4680 -0.5393
 7851SOL     OW35014   0.720   1.124   6.529  0.2542 -0.3898 -0.4242
 7851SOL    HW135015   0.746   1.209   6.565  0.2866  0.1232 -1.6712
 7851SOL    HW235016   0.711   1.076   6.612 -1.3551 -1.3253 -1.1382
 7852SOL     OW35017   0.254   2.057   5.372 -0.1985  0.1161 -0.0666
 7852SOL    HW135018   0.332   2.046   5.317 -1.1489  1.7108 -1.7485
 7852SOL    HW235019   0.285   2.009   5.449  1.2761  0.3425 -0.4993
 7853SOL     OW35020   0.746   0.076   7.748  0.1867 -0.3941 -0.4905
 7853SOL    HW135021   0.683   0.052   7.815  0.5813  2.4550  0.9391
 7853SOL    HW235022   0.819   0.023   7.780  2.1762  2.7039  0.1533
 7854SOL     OW35023   2.786   4.568   6.955 -0.3848 -0.5616 -0.2170
 7854SOL    HW135024   2.754   4.484   6.922  1.2823 -1.5376  0.7010
 7854SOL    HW235025   2.847   4.598   6.887 -0.3197  1.7654  0.8622
 7855SOL     OW35026   2.263   1.602   5.467 -0.0167 -0.1923  0.1025
 7855SOL    HW135027   2.354   1.584   5.445 -0.7635 -1.4859 -1.8853
 7855SOL    HW235028   2.279   1.653   5.547 -1.1114  0.5751 -0.1613
 7856SOL     OW35029   4.631   0.049  15.244  0.0795  1.0981 -0.2383
 7856SOL    HW135030   4.547   0.040  15.199 -0.0289  0.2589  0.1287
 7856SOL    HW235031   4.627   0.142  15.265 -0.3163  1.0089  0.0953
 7857SOL     OW35032   3.913   4.662   4.407  0.2297 -0.3827 -0.0127
 7857SOL    HW135033   3.928   0.036   4.429  0.8467 -0.8138  1.3994
 7857SOL    HW235034   3.835   4.655   4.462 -1.0755  2.8456 -1.4807
 7858SOL     OW35035   1.074   3.648   7.518 -0.0806  0.3684  0.5103
 7858SOL    HW135036   0.995   3.596   7.503  1.3858 -1.3662 -1.1326
 7858SOL    HW235037   1.056   3.704   7.594 -0.2247 -1.4413  1.8148
 7859SOL     OW35038   4.683   2.351   2.985 -0.6316 -0.1180 -1.0391
 7859SOL    HW135039   0.041   2.353   2.927  1.6523 -1.4115  1.9494
 7859SOL    HW235040   4.688   2.431   3.038 -0.0536 -0.5751 -0.4025
 7860SOL     OW35041   4.025   0.794   7.860 -0.1890 -0.3039 -0.0333
 7860SOL    HW135042   3.949   0.844   7.889  0.3988  0.2655  0.5244
 7860SOL    HW235043   4.072   0.770   7.939 -0.1018  1.1461  0.3521
 7861SOL     OW35044   1.749   3.183   2.674 -0.5064 -0.1562  0.2604
 7861SOL    HW135045   1.806   3.195   2.598 -2.0052  2.6227 -0.4191
 7861SOL    HW235046   1.791   3.239   2.740 -1.4560  2.2419 -1.1595
 7862SOL     OW35047   0.109   3.617   5.918  0.2469  0.4239  0.4425
 7862SOL    HW135048   0.033   3.562   5.931  0.1784  0.3848 -0.1070
 7862SOL    HW235049   0.133   3.629   6.010 -0.5377 -1.4453  0.8879
 7863SOL     OW35050   0.583   1.278   8.202  0.0666  0.1157  0.0276
 7863SOL    HW135051   0.619   1.219   8.136  3.5042  2.4318 -0.1640
 7863SOL    HW235052   0.643   1.264   8.276  0.4579 -0.2855 -0.3654
 7864SOL     OW35053   0.916   2.827  11.288  0.6263 -0.3221  0.0762
 7864SOL    HW135054   0.864   2.899  11.323  2.0197  1.4399 -1.4788
 7864SOL    HW235055   0.854   2.755  11.298 -0.5330  0.7155  0.3997
 7865SOL     OW35056   0.062   0.559  14.850  0.3274  0.0301 -0.6129
 7865SOL    HW135057   4.701   0.507  14.866  0.6182 -0.3958 -0.5559
 7865SOL    HW235058   0.094   0.530  14.765  0.9533  0.7907 -0.6354
 7866SOL     OW35059   3.796   2.464  12.660 -0.2525  0.0604 -0.4541
 7866SOL    HW135060   3.881   2.432  12.691  0.4879 -0.1140 -2.7064
 7866SOL    HW235061   3.744   2.385  12.643  0.6272 -0.6414  0.1097
 7867SOL     OW35062   2.556   2.114   7.432  0.9483  0.2098 -0.2631
 7867SOL    HW135063   2.478   2.062   7.416  1.8374 -1.4402  0.7765
 7867SOL    HW235064   2.606   2.055   7.488  0.9722 -1.0400 -1.5987
 7868SOL     OW35065   0.447   2.030   8.183  0.2145  0.6255 -0.7612
 7868SOL    HW135066   0.418   1.939   8.188  0.4596  0.5789 -0.1155
 7868SOL    HW235067   0.525   2.019   8.238 -0.1604  1.0702 -0.1430
 7869SOL     OW35068   4.212   1.930  11.827 -0.1157 -0.1403 -0.1952
 7869SOL    HW135069   4.164   1.861  11.781 -0.7221  0.4024 -0.3810
 7869SOL    HW235070   4.163   1.925  11.909  0.2952  0.0144  0.0605
 7870SOL     OW35071   2.699   4.020   9.305  0.3395 -0.1367  0.6094
 7870SOL    HW135072   2.779   4.056   9.266  0.2681 -1.3804 -0.6647
 7870SOL    HW235073   2.712   3.927   9.285  0.8384 -0.1752  1.1049
 7871SOL     OW35074   4.520   3.579  12.338  0.2104 -0.9830 -0.0313
 7871SOL    HW135075   4.507   3.487  12.315 -0.6518 -1.0309  0.6345
 7871SOL    HW235076   4.508   3.622  12.254 -1.3258  0.2956  0.8475
 7872SOL     OW35077   0.102   4.037   5.241  0.2726  0.6244 -0.3338
 7872SOL    HW135078   0.183   4.072   5.203  0.9379  0.7996  1.2580
 7872SOL    HW235079   0.103   4.082   5.326  0.0422  1.2368 -0.6512
 7873SOL     OW35080   2.282   2.295   8.595 -0.1021 -0.3599 -0.0906
 7873SOL    HW135081   2.363   2.294   8.646  0.6476 -1.7729 -1.2982
 7873SOL    HW235082   2.250   2.382   8.618  2.0765 -0.0971  1.9506
 7874SOL     OW35083   0.971   0.418  17.039  0.0214  0.2926  0.4324
 7874SOL    HW135084   0.966   0.369  16.957  0.4446  1.9786 -0.5859
 7874SOL    HW235085   0.885   0.456  17.053  0.6434  1.2470  1.6508
 7875SOL     OW35086   4.227   0.857   5.321  0.1630  0.3272  0.2700
 7875SOL    HW135087   4.301   0.905   5.358  0.1897 -0.1367  0.8257
 7875SOL    HW235088   4.168   0.850   5.397 -1.6197 -1.1595 -1.2428
 7876SOL     OW35089   3.775   3.288   7.396  0.1377  0.1853 -1.1432
 7876SOL    HW135090   3.837   3.299   7.468 -0.4600 -1.1898 -0.4325
 7876SOL    HW235091   3.770   3.194   7.379  0.1609  0.0335 -0.2762
 7877SOL     OW35092   1.027   3.735   8.564  0.1458 -0.0422 -0.2168
 7877SOL    HW135093   1.044   3.751   8.657  2.7577 -1.2389 -0.5049
 7877SOL    HW235094   0.945   3.687   8.574 -0.3159  0.6222 -0.7843
 7878SOL     OW35095   2.683   2.263  15.828 -0.3314  0.0289 -0.0975
 7878SOL    HW135096   2.704   2.342  15.877  0.8943 -0.4540  0.1647
 7878SOL    HW235097   2.754   2.205  15.856 -0.1725 -0.3549 -1.2975
 7879SOL     OW35098   1.304   2.200   6.983 -0.2840 -0.5775 -0.0252
 7879SOL    HW135099   1.363   2.210   6.909 -0.4142 -1.0664 -0.1948
 7879SOL    HW235100   1.244   2.272   6.964  1.3061  0.7984  0.2348
 7880SOL     OW35101   1.491   4.040   5.412 -0.4518  0.2907 -0.2600
 7880SOL    HW135102   1.432   3.966   5.395 -0.1328 -0.1985  0.7311
 7880SOL    HW235103   1.446   4.118   5.380  0.4811  1.3093  0.9351
 7881SOL     OW35104   3.334   0.583   9.967  0.5966  1.0052  0.5730
 7881SOL    HW135105   3.308   0.543  10.050 -2.0694 -0.4657 -0.9669
 7881SOL    HW235106   3.425   0.602   9.989  0.7798  0.8969 -0.0908
 7882SOL     OW35107   1.189   2.753   9.404  0.1813  0.6338  0.4023
 7882SOL    HW135108   1.168   2.690   9.472  1.5762  0.6473  0.8433
 7882SOL    HW235109   1.284   2.756   9.418  0.3289  2.4158 -0.9682
 7883SOL     OW35110   0.590   2.771  15.768 -0.2332  0.3054  0.1828
 7883SOL    HW135111   0.575   2.860  15.800  1.7379  0.3508  0.9403
 7883SOL    HW235112   0.681   2.741  15.770  0.2157  1.8422  2.4368
 7884SOL     OW35113   1.895   0.304   7.043  0.5643 -0.4096 -0.5170
 7884SOL    HW135114   1.895   0.209   7.030 -0.3077 -0.1669 -2.3510
 7884SOL    HW235115   1.949   0.327   6.967  0.8901  0.8894  0.1138
 7885SOL     OW35116   2.112   2.532   3.066  0.3387 -0.3570 -0.1200
 7885SOL    HW135117   2.128   2.568   2.979  0.3243  1.2535  0.5360
 7885SOL    HW235118   2.104   2.437   3.060 -1.4845 -0.2118 -0.0838
 7886SOL     OW35119   0.454   2.032   5.208  0.4026 -0.2980  0.5179
 7886SOL    HW135120   0.528   1.970   5.212  0.4011 -0.1829  2.4757
 7886SOL    HW235121   0.460   2.076   5.124  0.4257 -0.3965  0.4688
 7887SOL     OW35122   0.756   3.104  13.533  0.5262  0.6521  0.2885
 7887SOL    HW135123   0.833   3.074  13.582 -0.2336  0.7802  1.5497
 7887SOL    HW235124   0.788   3.127  13.446  1.0850  0.7934  0.5310
 7888SOL     OW35125   2.687   2.128   8.857 -0.2713 -0.2383 -0.2676
 7888SOL    HW135126   2.707   2.168   8.941  2.2155 -0.6918 -0.6239
 7888SOL    HW235127   2.711   2.037   8.875 -1.8385 -0.5419  0.2398
 7889SOL     OW35128   0.902   1.906   3.807  0.3680 -0.1894  0.0870
 7889SOL    HW135129   0.891   1.811   3.806  2.2714 -0.4073 -0.2534
 7889SOL    HW235130   0.958   1.917   3.883 -1.8650  1.4384  1.5020
 7890SOL     OW35131   3.513   3.647   0.880 -0.7102  0.1627 -0.4731
 7890SOL    HW135132   3.501   3.599   0.962  0.5447 -1.1080 -1.0373
 7890SOL    HW235133   3.516   3.575   0.818  0.6983  0.0032 -0.2358
 7891SOL     OW35134   2.641   2.614   4.590  0.2763 -0.6345 -0.2089
 7891SOL    HW135135   2.643   2.525   4.627  0.1740 -0.6333 -0.2000
 7891SOL    HW235136   2.726   2.627   4.548  1.0357 -1.1535  1.1493
 7892SOL     OW35137   1.120   4.567   9.346 -0.5648  0.3996  0.5553
 7892SOL    HW135138   1.032   4.576   9.311 -0.5111  0.2381  0.3795
 7892SOL    HW235139   1.125   4.641   9.407  2.6723  0.1763  0.5563
 7893SOL     OW35140   4.394   0.517   6.033 -0.2150  0.5080  0.3523
 7893SOL    HW135141   4.367   0.427   6.016  2.3584 -0.5010  1.7035
 7893SOL    HW235142   4.399   0.546   5.942 -0.7864 -0.8802 -0.1154
 7894SOL     OW35143   4.225   1.376   9.761  0.4718  0.5147  0.3159
 7894SOL    HW135144   4.239   1.371   9.666 -3.4788  0.0604 -0.2301
 7894SOL    HW235145   4.273   1.297   9.788  1.9336  1.4296  0.4167
 7895SOL     OW35146   4.205   3.863   2.270  0.2383 -0.2379  0.4950
 7895SOL    HW135147   4.113   3.858   2.294  0.3512  0.0427  1.0038
 7895SOL    HW235148   4.198   3.950   2.231 -2.1645 -1.2355 -1.2050
 7896SOL     OW35149   2.234   3.253   9.106 -0.1888 -0.0319 -0.2888
 7896SOL    HW135150   2.192   3.295   9.181  1.3009 -2.2240  1.7574
 7896SOL    HW235151   2.320   3.294   9.112  0.3338 -1.1094 -0.3593
 7897SOL     OW35152   1.306   2.818   7.446 -0.3475 -0.0772 -0.3355
 7897SOL    HW135153   1.382   2.854   7.492  0.3787  0.0376 -1.6083
 7897SOL    HW235154   1.229   2.871   7.467 -1.1623 -0.4759 -2.3019
 7898SOL     OW35155   4.278   0.984   6.494 -0.4641  0.8502 -0.3908
 7898SOL    HW135156   4.275   1.071   6.534  0.4761  1.9109 -2.6427
 7898SOL    HW235157   4.360   1.003   6.448 -0.8444  1.0717 -0.9618
 7899SOL     OW35158   2.397   1.171  13.072 -0.0077  0.0747 -0.0746
 7899SOL    HW135159   2.347   1.173  13.153  3.3948 -0.4325  2.0323
 7899SOL    HW235160   2.478   1.209  13.105 -2.1432  2.2485  2.6305
 7900SOL     OW35161   2.198   0.747  11.196  0.4070  0.1255 -0.0099
 7900SOL    HW135162   2.282   0.703  11.188 -0.0525 -1.2615  2.7383
 7900SOL    HW235163   2.218   0.833  11.159 -0.8887  1.0135  1.3290
 7901SOL     OW35164   4.334   0.939  17.616 -0.0081  0.1647 -0.0261
 7901SOL    HW135165   4.383   0.967   0.018 -0.7802  1.1679  0.0955
 7901SOL    HW235166   4.411   0.930  17.559 -1.2730  1.5082 -1.9282
 7902SOL     OW35167   4.140   1.633   0.345 -0.7288 -0.1120  0.1958
 7902SOL    HW135168   4.155   1.543   0.372 -0.9932  0.4042  2.0170
 7902SOL    HW235169   4.226   1.673   0.362 -0.0580 -1.9546  1.1245
 7903SOL     OW35170   1.492   3.710  14.828  0.5245  0.4613 -0.0980
 7903SOL    HW135171   1.576   3.755  14.822  1.3495 -1.1351 -0.4939
 7903SOL    HW235172   1.442   3.750  14.899  2.4678  0.6776  1.1434
 7904SOL     OW35173   2.706   0.128   4.158  0.9082 -0.3453  0.3826
 7904SOL    HW135174   2.690   0.222   4.170  0.3260 -0.3891 -0.0283
 7904SOL    HW235175   2.799   0.113   4.141  0.8024 -0.3183 -0.2060
 7905SOL     OW35176   3.852   3.159   4.941 -0.0898  0.2629  0.6856
 7905SOL    HW135177   3.946   3.145   4.952 -0.3795  0.0216  2.8847
 7905SOL    HW235178   3.833   3.200   5.026 -0.9279  0.0464  0.6053
 7906SOL     OW35179   4.492   4.609   3.266 -0.0979  0.0211  0.0071
 7906SOL    HW135180   4.467   4.585   3.355  1.7408 -0.9516  0.2533
 7906SOL    HW235181   4.453   4.537   3.216  0.7857  0.3588 -1.1681
 7907SOL     OW35182   0.213   0.189   3.180  0.6137  0.1859 -0.3317
 7907SOL    HW135183   0.178   0.164   3.265 -0.7773  1.4062 -0.5654
 7907SOL    HW235184   0.278   0.120   3.161 -0.4011 -1.2585  1.4949
 7908SOL     OW35185   1.254   0.404   5.951  0.2807  0.2059 -0.1635
 7908SOL    HW135186   1.206   0.326   5.981  2.3550 -1.5468 -1.4093
 7908SOL    HW235187   1.326   0.424   6.011 -0.3419 -0.2525  0.7384
 7909SOL     OW35188   4.521   3.697   5.619 -0.5081 -0.0445 -0.2910
 7909SOL    HW135189   4.472   3.770   5.657  0.4099  0.1250  0.5778
 7909SOL    HW235190   4.605   3.702   5.665 -1.8324  0.8494  1.9965
 7910SOL     OW35191   2.179   2.649   2.828 -0.5204  0.0837 -0.3134
 7910SOL    HW135192   2.107   2.700   2.791 -0.3262  0.3445 -0.3289
 7910SOL    HW235193   2.250   2.711   2.809 -1.0144  0.0480 -2.2989
 7911SOL     OW35194   1.090   0.431  16.049 -0.8209  0.2765  0.2843
 7911SOL    HW135195   1.158   0.466  15.992 -0.8860  1.1330  0.7242
 7911SOL    HW235196   1.124   0.462  16.133  0.7653 -0.4230 -0.1055
 7912SOL     OW35197   4.403   4.631  12.404  0.4725 -0.0654  0.1087
 7912SOL    HW135198   4.370   4.632  12.494 -3.2415  1.4255 -1.2747
 7912SOL    HW235199   4.389   4.538  12.385 -0.2404  0.0112  0.2379
 7913SOL     OW35200   4.271   1.541   5.385  0.3171 -0.0448 -0.6499
 7913SOL    HW135201   4.324   1.575   5.313  1.2145 -0.7911 -0.3347
 7913SOL    HW235202   4.288   1.609   5.450  1.1963 -1.2802  0.4134
 7914SOL     OW35203   2.172   2.566  11.282 -0.2843 -0.4986  0.0140
 7914SOL    HW135204   2.132   2.480  11.282  0.7088 -0.9568 -1.0624
 7914SOL    HW235205   2.229   2.558  11.358  1.2597 -2.7067 -1.3848
 7915SOL     OW35206   1.335   2.747   8.551 -0.2029  0.0731  0.1110
 7915SOL    HW135207   1.268   2.679   8.556  0.5630 -0.6949 -0.0018
 7915SOL    HW235208   1.383   2.716   8.628 -1.0076  0.2865  0.6978
 7916SOL     OW35209   1.335   4.339   8.346 -0.5213  0.4574  0.1109
 7916SOL    HW135210   1.346   4.357   8.253  0.0946  1.6595  0.4074
 7916SOL    HW235211   1.243   4.355   8.367 -0.0334  0.0797  2.5236
 7917SOL     OW35212   2.228   2.522   8.277 -0.4617  0.2749  0.5865
 7917SOL    HW135213   2.234   2.466   8.200 -1.3619  0.3809  0.4284
 7917SOL    HW235214   2.146   2.487   8.312 -0.3747 -1.3190 -0.7986
 7918SOL     OW35215   3.584   3.610  17.361  0.5346  0.0337 -0.1252
 7918SOL    HW135216   3.505   3.659  17.382  1.2173  1.1317 -0.1111
 7918SOL    HW235217   3.601   3.583  17.452  0.4716  1.7773  0.3934
 7919SOL     OW35218   2.205   3.038  13.964  0.5494 -0.2157  0.8886
 7919SOL    HW135219   2.162   3.040  14.049 -1.8660 -0.8551 -0.3213
 7919SOL    HW235220   2.273   3.103  13.984 -0.2744  0.6184  0.9895
 7920SOL     OW35221   4.524   2.057   5.619 -0.1977 -0.0793  0.6729
 7920SOL    HW135222   4.458   2.123   5.638 -0.8852 -0.2408 -1.0721
 7920SOL    HW235223   4.593   2.076   5.682 -0.8273  0.1052  1.3083
 7921SOL     OW35224   4.178   4.510   6.853 -0.4529  0.0307 -0.2282
 7921SOL    HW135225   4.160   4.438   6.793 -0.4003 -0.3418  0.2081
 7921SOL    HW235226   4.097   4.560   6.844 -0.0404  0.6660 -0.4807
 7922SOL     OW35227   3.213   2.162  12.291 -0.1056 -0.1508 -0.1558
 7922SOL    HW135228   3.253   2.185  12.374 -1.8632 -2.8425  1.4514
 7922SOL    HW235229   3.261   2.082  12.266  0.5736  1.2579 -3.4323
 7923SOL     OW35230   1.153   0.455   2.630 -0.1699 -0.2805  0.3013
 7923SOL    HW135231   1.122   0.542   2.654  1.1082  0.4913 -0.8493
 7923SOL    HW235232   1.235   0.455   2.680 -0.4451  1.6679  0.7422
 7924SOL     OW35233   1.190   0.330  16.824  0.3740  0.2787 -0.0193
 7924SOL    HW135234   1.243   0.297  16.896 -1.2093  1.0989  1.5260
 7924SOL    HW235235   1.219   0.421  16.820  0.0509  0.3113 -1.7373
 7925SOL     OW35236   1.556   0.358   8.393  0.3306  0.0857 -0.3646
 7925SOL    HW135237   1.503   0.286   8.360  0.0721  0.7694 -1.4235
 7925SOL    HW235238   1.645   0.336   8.364  0.1349 -1.0415 -0.1286
 7926SOL     OW35239   2.728   4.131   4.043 -0.1454 -0.0036 -0.5726
 7926SOL    HW135240   2.758   4.149   4.132 -1.1975 -1.2160  0.0331
 7926SOL    HW235241   2.747   4.037   4.047  1.7736  0.4749  1.3178
 7927SOL     OW35242   0.602   3.610   3.303 -0.3901  0.0968 -0.3522
 7927SOL    HW135243   0.656   3.685   3.278 -0.1732  0.0799  0.0603
 7927SOL    HW235244   0.534   3.606   3.236  0.0122 -0.2499 -0.7385
 7928SOL     OW35245   3.282   3.275   8.707  0.1845 -0.9066 -0.7843
 7928SOL    HW135246   3.371   3.245   8.724 -0.3515 -1.6196  0.8094
 7928SOL    HW235247   3.255   3.299   8.796  0.9575  1.0749 -1.0754
 7929SOL     OW35248   2.673   3.554   7.312  0.0581  0.3848  0.2904
 7929SOL    HW135249   2.655   3.496   7.386 -2.7204 -0.4941 -1.0861
 7929SOL    HW235250   2.753   3.519   7.273 -0.4583  0.7140 -1.0494
 7930SOL     OW35251   0.460   1.598   4.922 -0.3006  0.2437 -0.5023
 7930SOL    HW135252   0.473   1.505   4.904 -0.6147 -0.0334  0.6729
 7930SOL    HW235253   0.470   1.637   4.836  0.7743 -1.3033 -1.0725
 7931SOL     OW35254   1.046   2.073   2.897  0.3406 -0.2215  0.5183
 7931SOL    HW135255   1.098   2.028   2.830 -1.6651 -0.5841 -0.7963
 7931SOL    HW235256   0.976   2.101   2.838  1.2468  0.0569 -0.4146
 7932SOL     OW35257   0.967   2.535  17.014  0.4117  1.3191 -0.3849
 7932SOL    HW135258   0.905   2.466  16.990  0.9708  0.7234 -0.1278
 7932SOL    HW235259   0.950   2.546  17.108  0.8017 -2.7619  0.1770
 7933SOL     OW35260   4.574   4.489   6.074  0.4031  0.2111 -0.3494
 7933SOL    HW135261   4.609   4.541   6.147 -1.3517  0.8056  0.0807
 7933SOL    HW235262   4.520   4.562   6.043  1.5543  1.8223  1.4307
 7934SOL     OW35263   0.297   1.439  11.970 -0.6516  0.5773 -0.2681
 7934SOL    HW135264   0.305   1.355  12.013 -1.3738  0.3757 -0.5155
 7934SOL    HW235265   0.346   1.501  12.024  1.3938 -0.0019 -1.4823
 7935SOL     OW35266   1.476   0.567   3.704 -0.5661 -0.9620 -0.2533
 7935SOL    HW135267   1.409   0.599   3.644  0.2617  0.2261 -0.5507
 7935SOL    HW235268   1.542   0.547   3.638 -0.9858 -1.0389 -0.6484
 7936SOL     OW35269   3.963   1.917   5.342 -0.4544  0.3214 -0.1961
 7936SOL    HW135270   4.008   1.981   5.288  1.6360  0.1616  1.3637
 7936SOL    HW235271   4.005   1.833   5.322 -0.2319  0.4314 -0.1827
 7937SOL     OW35272   4.518   0.812  17.434 -0.2004 -0.2147 -0.2025
 7937SOL    HW135273   4.488   0.723  17.413  0.4354 -0.0233 -1.8846
 7937SOL    HW235274   4.559   0.787  17.517  0.3675  3.9106  0.7722
 7938SOL     OW35275   3.937   4.364  16.493 -0.1140  0.5436 -0.3549
 7938SOL    HW135276   3.976   4.280  16.471  1.4250  0.9590  0.7811
 7938SOL    HW235277   3.887   4.373  16.412 -1.0429 -0.0083  0.1563
 7939SOL     OW35278   3.382   1.767   0.581  0.4529  0.6401 -0.4304
 7939SOL    HW135279   3.458   1.715   0.555  1.3660  1.7845 -0.0649
 7939SOL    HW235280   3.343   1.707   0.645  2.9263 -0.2581  0.2458
 7940SOL     OW35281   1.343   0.567  14.434  0.4496  0.0401  0.6576
 7940SOL    HW135282   1.369   0.643  14.383  0.3018 -0.6830 -0.4759
 7940SOL    HW235283   1.369   0.592  14.523  1.5571 -1.0354  0.6409
 7941SOL     OW35284   3.422   0.162  10.644  0.5615 -0.0934  0.2475
 7941SOL    HW135285   3.516   0.169  10.625  0.8897 -2.1052  1.0806
 7941SOL    HW235286   3.392   0.073  10.625 -2.2657  1.1263 -1.0282
 7942SOL     OW35287   2.281   1.856   5.005 -0.5545 -0.7838 -0.0721
 7942SOL    HW135288   2.203   1.800   5.004 -0.1795 -1.2960 -0.2886
 7942SOL    HW235289   2.345   1.805   4.957  0.9804  1.5862 -0.5690
 7943SOL     OW35290   1.195   4.541   8.882 -0.2193  0.1059 -0.4056
 7943SOL    HW135291   1.214   4.487   8.806  1.7704  0.7412 -0.3767
 7943SOL    HW235292   1.244   4.498   8.952 -2.3235 -2.7453 -0.7203
 7944SOL     OW35293   2.029   4.094   2.776 -0.1821  0.5616  0.1424
 7944SOL    HW135294   2.023   4.183   2.743 -0.7591  0.2715 -0.5497
 7944SOL    HW235295   2.115   4.067   2.744 -0.3504  1.2656 -0.8982
 7945SOL     OW35296   3.889   2.432   3.360  0.6999  0.2044  0.0844
 7945SOL    HW135297   3.903   2.488   3.437  0.6207 -1.7003  1.4915
 7945SOL    HW235298   3.830   2.488   3.310  3.1483  1.5397 -1.2568
 7946SOL     OW35299   0.033   4.184  11.790  0.7251  0.4262 -0.1030
 7946SOL    HW135300   0.050   4.206  11.699 -2.8058  0.2349 -0.7995
 7946SOL    HW235301   0.002   4.093  11.790 -1.7883  1.2913  1.3521
 7947SOL     OW35302   1.473   2.387   5.860  0.3048  0.6178  0.5181
 7947SOL    HW135303   1.563   2.411   5.836 -0.7689  0.6997 -3.5196
 7947SOL    HW235304   1.428   2.415   5.780  0.8119  0.9237  0.3367
 7948SOL     OW35305   2.218   3.042   2.800 -0.2952  0.2525 -0.6736
 7948SOL    HW135306   2.244   2.964   2.752  2.0304  0.8499 -0.3659
 7948SOL    HW235307   2.302   3.063   2.841 -0.4874 -0.5459  0.1261
 7949SOL     OW35308   0.230   0.380   9.196  0.1721 -0.0830 -0.2004
 7949SOL    HW135309   0.298   0.355   9.259 -0.3588  1.0271  0.8170
 7949SOL    HW235310   0.177   0.302   9.182 -0.3018 -0.0464  1.5092
 7950SOL     OW35311   0.157   0.364   7.097 -0.0458  0.0608  0.0315
 7950SOL    HW135312   0.120   0.452   7.094 -1.4020 -0.5307 -0.2025
 7950SOL    HW235313   0.184   0.369   7.189 -0.7480  0.2248  0.2276
 7951SOL     OW35314   0.949   3.521  15.990  0.6272  0.1083 -0.0541
 7951SOL    HW135315   1.000   3.462  16.045 -0.9252 -1.3520 -0.1991
 7951SOL    HW235316   0.866   3.473  15.980  0.0866  1.0989 -0.3530
 7952SOL     OW35317   3.352   0.226   1.522  0.2452  0.7185 -0.5894
 7952SOL    HW135318   3.376   0.156   1.461 -0.4058 -0.1161  0.1258
 7952SOL    HW235319   3.430   0.234   1.577  1.1903 -1.6124 -1.6302
 7953SOL     OW35320   1.911   3.340   2.869 -0.2747  0.1773  0.4624
 7953SOL    HW135321   1.857   3.419   2.865 -0.3691  0.1880  1.9930
 7953SOL    HW235322   1.965   3.354   2.947  2.0664  2.6745 -1.5817
 7954SOL     OW35323   1.589   1.535   8.540  0.2636  0.7442 -0.4253
 7954SOL    HW135324   1.622   1.494   8.619 -0.7552  0.8257  0.0398
 7954SOL    HW235325   1.527   1.468   8.512 -4.0400  4.9628 -1.1074
 7955SOL     OW35326   3.151   2.378   0.615  0.2689 -0.3779  0.5718
 7955SOL    HW135327   3.074   2.433   0.629  0.1327 -0.6797  1.0282
 7955SOL    HW235328   3.119   2.312   0.554 -0.7952 -0.0530  0.7821
 7956SOL     OW35329   2.182   3.792  13.014 -0.0112 -0.0045 -0.0298
 7956SOL    HW135330   2.152   3.703  13.030 -0.6025  0.6803  2.6168
 7956SOL    HW235331   2.260   3.777  12.961  0.9101  0.3548  1.2085
 7957SOL     OW35332   3.235   3.511  11.038  0.2876 -1.1589  0.1579
 7957SOL    HW135333   3.173   3.439  11.042  0.8387 -1.4671  2.7599
 7957SOL    HW235334   3.211   3.543  10.950  0.2901  0.6194  0.8076
 7958SOL     OW35335   4.140   4.315   6.673  0.7563  0.4164 -0.7941
 7958SOL    HW135336   4.219   4.278   6.634  0.9334 -0.8301  0.7625
 7958SOL    HW235337   4.067   4.269   6.634 -1.1853  2.4702  0.3952
 7959SOL     OW35338   2.869   3.380   5.565  0.3874 -0.1207  0.1621
 7959SOL    HW135339   2.956   3.405   5.533 -0.3791  1.3843 -0.7085
 7959SOL    HW235340   2.839   3.330   5.489  0.3356  3.5811 -2.2261
 7960SOL     OW35341   2.432   1.265   5.898 -0.1260  0.2196 -0.2089
 7960SOL    HW135342   2.522   1.287   5.923 -0.7636  1.4714  1.0018
 7960SOL    HW235343   2.381   1.321   5.956 -0.8208 -0.5154 -0.1101
 7961SOL     OW35344   4.025   3.285  17.054  0.2883 -0.0281  0.1851
 7961SOL    HW135345   4.001   3.339  17.130 -1.6320 -3.5859  2.1191
 7961SOL    HW235346   4.096   3.234  17.094 -0.6020  0.1366  1.9989
 7962SOL     OW35347   1.144   3.959  15.600 -0.1204 -0.6217  0.0895
 7962SOL    HW135348   1.123   3.949  15.693  0.5189 -0.2162  0.2782
 7962SOL    HW235349   1.148   3.866  15.576  1.9533 -1.0145  1.9540
 7963SOL     OW35350   0.663   3.643   8.397 -0.2482  0.4238  0.0978
 7963SOL    HW135351   0.684   3.735   8.381 -1.1179  0.4790 -0.7607
 7963SOL    HW235352   0.729   3.623   8.463  0.2605  0.9412 -0.2474
 7964SOL     OW35353   3.681   2.873   3.798 -0.2961  0.4963 -0.0794
 7964SOL    HW135354   3.644   2.958   3.824 -1.6887 -0.3682  0.8022
 7964SOL    HW235355   3.618   2.845   3.732  0.5076 -1.3692 -0.0424
 7965SOL     OW35356   0.493   0.280   0.724 -0.2530  0.0740  0.1071
 7965SOL    HW135357   0.532   0.193   0.717 -1.1368 -0.2509 -0.7609
 7965SOL    HW235358   0.433   0.269   0.798  1.1336 -1.8680  0.9283
 7966SOL     OW35359   1.358   3.213  16.215  0.2264 -0.2823  0.3088
 7966SOL    HW135360   1.332   3.199  16.124 -0.5502 -0.5517  0.5655
 7966SOL    HW235361   1.287   3.162  16.255 -0.3240 -1.6240 -2.3783
 7967SOL     OW35362   3.014   3.559   0.325  0.5506 -0.0313 -0.5209
 7967SOL    HW135363   3.029   3.488   0.262  1.6944 -1.5974  1.5171
 7967SOL    HW235364   3.002   3.509   0.405 -1.4913 -1.4073 -1.6724
 7968SOL     OW35365   2.490   2.803   4.875  0.2603  0.1266  0.2611
 7968SOL    HW135366   2.442   2.830   4.954 -1.5696  2.5003 -1.6665
 7968SOL    HW235367   2.437   2.729   4.845  0.9339 -0.8022  1.3636
 7969SOL     OW35368   1.377   1.718   3.246  0.1497 -0.5202 -0.0564
 7969SOL    HW135369   1.321   1.760   3.312 -0.6486 -3.6172  1.2455
 7969SOL    HW235370   1.311   1.689   3.183 -2.8273  2.5439  1.6748
 7970SOL     OW35371   2.417   1.082  12.711 -0.1797  0.1498 -0.5071
 7970SOL    HW135372   2.415   1.049  12.622 -1.2578 -0.7443 -0.1537
 7970SOL    HW235373   2.448   1.005  12.760  1.6567 -1.9860 -5.0751
 7971SOL     OW35374   1.722   3.059   1.104  0.0776 -0.3473  0.2868
 7971SOL    HW135375   1.654   3.004   1.065  0.0124  1.8106 -2.6531
 7971SOL    HW235376   1.805   3.015   1.085  0.7807  0.6974  0.9253
 7972SOL     OW35377   3.042   0.447   7.720  0.1572  0.1696 -0.4208
 7972SOL    HW135378   3.090   0.373   7.756  0.4646  0.0365 -1.1218
 7972SOL    HW235379   3.036   0.496   7.802  1.0846  0.6005 -0.6173
 7973SOL     OW35380   2.279   3.118   5.190 -0.7991 -0.0288  0.5497
 7973SOL    HW135381   2.316   3.175   5.124 -1.2212 -0.5933 -0.1692
 7973SOL    HW235382   2.317   3.032   5.170  0.9832  0.6912  0.8547
 7974SOL     OW35383   4.599   0.042   2.852 -0.2454 -0.0369  0.1855
 7974SOL    HW135384   4.570   4.669   2.852  0.9436 -0.4235 -1.3790
 7974SOL    HW235385   4.694   0.034   2.837 -0.4085  1.1414 -1.4777
 7975SOL     OW35386   0.253   4.079   5.910 -0.0377  0.0929 -0.5653
 7975SOL    HW135387   0.309   4.027   5.968 -2.5541  0.4489  2.1783
 7975SOL    HW235388   0.179   4.058   5.967  1.7185  2.7670  2.6786
 7976SOL     OW35389   2.178   2.685   5.414 -0.3821  0.0593 -0.0680
 7976SOL    HW135390   2.138   2.686   5.501 -3.2459 -4.1116 -1.3624
 7976SOL    HW235391   2.231   2.606   5.419 -0.2934  0.1467  0.3489
 7977SOL     OW35392   1.383   0.787   8.508  0.1853 -0.3001 -0.3542
 7977SOL    HW135393   1.335   0.705   8.523  0.3281 -0.3180  0.0040
 7977SOL    HW235394   1.402   0.779   8.415  1.6992  2.2560 -0.2660
 7978SOL     OW35395   1.211   4.487   5.382 -0.3582 -0.1430 -0.5517
 7978SOL    HW135396   1.167   4.484   5.467 -0.9584  0.3509 -0.8482
 7978SOL    HW235397   1.144   4.490   5.313 -1.1534  1.6829  0.3206
 7979SOL     OW35398   4.461   0.604   5.788  0.1427 -0.4107  0.0621
 7979SOL    HW135399   4.495   0.693   5.779 -0.5991 -0.0888  0.4211
 7979SOL    HW235400   4.374   0.604   5.748  0.2964 -1.3429 -0.2699
 7980SOL     OW35401   0.122   0.766   4.476  0.3374 -0.2214  0.7468
 7980SOL    HW135402   0.128   0.849   4.523  0.3498  1.1187 -1.5850
 7980SOL    HW235403   0.061   0.791   4.406 -1.0006 -1.3218  1.5222
 7981SOL     OW35404   2.010   4.596   3.184 -0.3459  0.0624 -0.3460
 7981SOL    HW135405   1.972   4.607   3.097 -0.2066 -1.7504 -0.6317
 7981SOL    HW235406   2.084   4.657   3.177  0.0575 -0.2617  1.1234
 7982SOL     OW35407   0.489   4.536   1.443  0.0277 -0.0667 -0.4803
 7982SOL    HW135408   0.414   4.548   1.502 -1.6760  1.1083 -2.8664
 7982SOL    HW235409   0.554   4.519   1.511  0.8633  0.8197 -1.0605
 7983SOL     OW35410   1.388   4.035   9.725 -0.1550  0.5070  0.3746
 7983SOL    HW135411   1.465   4.035   9.782  0.2144  0.8592 -0.1238
 7983SOL    HW235412   1.318   4.037   9.790 -0.9671  0.1086 -0.4740
 7984SOL     OW35413   0.344   0.391   8.333 -0.6728  0.2627  0.2332
 7984SOL    HW135414   0.363   0.448   8.258 -1.3249 -0.4068 -0.4285
 7984SOL    HW235415   0.251   0.370   8.335 -0.6443  0.0939 -0.2734
 7985SOL     OW35416   3.332   1.339   8.575 -0.2441  1.1000  0.0684
 7985SOL    HW135417   3.415   1.298   8.595  0.0757  1.9071  0.4162
 7985SOL    HW235418   3.337   1.426   8.614  1.9204 -0.0858  2.4135
 7986SOL     OW35419   4.637   4.429   9.052 -0.2358  0.7112 -0.5110
 7986SOL    HW135420   4.600   4.368   9.115  1.3289 -0.3954 -0.6715
 7986SOL    HW235421   0.007   4.432   9.089 -0.9022  0.5404  1.0908
 7987SOL     OW35422   3.677   4.411   6.810 -0.1294  0.1019  0.0912
 7987SOL    HW135423   3.755   4.396   6.863 -1.2065  0.2404  1.7078
 7987SOL    HW235424   3.676   4.507   6.811  0.6943  0.0989  0.4967
 7988SOL     OW35425   3.712   2.568   5.960  1.2253 -0.3461  0.6862
 7988SOL    HW135426   3.631   2.590   6.006  0.2008  0.9414 -1.7309
 7988SOL    HW235427   3.699   2.479   5.925  0.4099 -0.3984  1.1339
 7989SOL     OW35428   2.205   3.783   4.467  0.4081 -0.0603 -0.3490
 7989SOL    HW135429   2.178   3.702   4.425  2.8766 -0.4951 -1.1067
 7989SOL    HW235430   2.158   3.843   4.410  1.0922  0.7436 -0.0713
 7990SOL     OW35431   3.161   1.164   7.810  0.1891  1.3236 -0.5165
 7990SOL    HW135432   3.228   1.197   7.869  1.8845 -1.5181 -0.8855
 7990SOL    HW235433   3.188   1.074   7.794 -1.7651  0.6197  0.1228
 7991SOL     OW35434   3.893   0.877   3.613  0.4202  0.0245  0.5639
 7991SOL    HW135435   3.852   0.888   3.699 -0.6579  0.7737 -0.0463
 7991SOL    HW235436   3.938   0.793   3.612  0.0403 -0.2011  1.7309
 7992SOL     OW35437   2.856   4.012   5.656  0.0595  0.2962  0.3816
 7992SOL    HW135438   2.786   3.976   5.601 -1.6580 -0.6586  3.1624
 7992SOL    HW235439   2.890   3.942   5.711 -1.9677 -1.1815 -0.2471
 7993SOL     OW35440   0.472   0.015  14.555 -0.3034 -0.5029  0.0154
 7993SOL    HW135441   0.402   4.687  14.508 -0.3305 -0.6230  0.1745
 7993SOL    HW235442   0.554   4.691  14.527 -1.0883 -0.7150 -1.9560
 7994SOL     OW35443   2.105   1.227  11.787  0.0128 -0.4497 -0.0146
 7994SOL    HW135444   2.066   1.140  11.787 -0.7776 -0.0912  0.2349
 7994SOL    HW235445   2.188   1.201  11.746 -0.4972 -4.9537  1.8129
 7995SOL     OW35446   0.729   0.116  12.268 -0.4782  0.0880 -0.3107
 7995SOL    HW135447   0.675   0.106  12.346 -1.1793 -1.1392 -0.9596
 7995SOL    HW235448   0.678   0.184  12.223  0.8925  0.8432 -0.7381
 7996SOL     OW35449   0.688   0.467   8.496  0.2119  0.0799 -0.0468
 7996SOL    HW135450   0.618   0.531   8.478  1.2877  1.4722  0.7103
 7996SOL    HW235451   0.664   0.399   8.433 -0.7137 -0.9026  1.3777
 7997SOL     OW35452   2.090   3.831   6.008 -0.0205 -0.1102  0.1751
 7997SOL    HW135453   2.108   3.875   5.925 -0.5772  0.6475  0.4537
 7997SOL    HW235454   2.026   3.883   6.057  1.4211 -0.2704  2.1947
 7998SOL     OW35455   3.180   3.296   5.688 -0.4051  0.0327 -0.7869
 7998SOL    HW135456   3.259   3.292   5.742 -0.4067 -1.0597 -0.8680
 7998SOL    HW235457   3.122   3.256   5.752  0.2536  1.3558  0.6454
 7999SOL     OW35458   0.288   1.533   6.146 -0.0032 -0.0672 -0.1992
 7999SOL    HW135459   0.329   1.460   6.194 -0.6984 -0.3331 -0.0182
 7999SOL    HW235460   0.207   1.560   6.188 -0.3236 -0.5740 -0.4850
 8000SOL     OW35461   2.729   0.448   5.704 -0.4511 -0.0150 -0.3464
 8000SOL    HW135462   2.652   0.442   5.646 -0.2034 -0.0280 -0.6748
 8000SOL    HW235463   2.713   0.379   5.767  2.1744 -2.1514 -2.0239
 8001SOL     OW35464   2.549   0.345   9.777  0.3603 -0.0939  0.5029
 8001SOL    HW135465   2.608   0.341   9.852  0.2503  0.2748  0.6136
 8001SOL    HW235466   2.501   0.427   9.791 -0.8680 -0.7174 -0.0540
 8002SOL     OW35467   0.752   0.049   4.537  0.2562 -0.2305  0.2823
 8002SOL    HW135468   0.695   0.013   4.469  1.2322  0.4457 -0.8826
 8002SOL    HW235469   0.695   0.051   4.613  0.0038  0.8679  0.0575
 8003SOL     OW35470   2.985   0.799   8.612  0.1955 -0.2475 -0.4342
 8003SOL    HW135471   3.021   0.759   8.533  4.3981  1.3296  0.6803
 8003SOL    HW235472   2.975   0.894   8.599 -0.1965 -0.0791  1.0257
 8004SOL     OW35473   3.664   3.547   4.754  0.6605 -0.5102 -0.1464
 8004SOL    HW135474   3.596   3.499   4.801  1.3059  0.2074  1.5268
 8004SOL    HW235475   3.608   3.625   4.750  1.4911  0.2066  2.0784
 8005SOL     OW35476   3.502   2.223   8.118 -0.0048  0.2629  0.0926
 8005SOL    HW135477   3.462   2.227   8.031  0.0464  2.0175  0.1362
 8005SOL    HW235478   3.453   2.289   8.167 -1.4214 -1.9059  1.5967
 8006SOL     OW35479   4.024   2.133  14.389 -0.5994 -0.3793  0.1115
 8006SOL    HW135480   3.993   2.065  14.329  0.5128  1.1699 -2.2170
 8006SOL    HW235481   4.107   2.165  14.352 -0.2301  0.5659  1.7785
 8007SOL     OW35482   2.238   3.787   5.417  0.4283  0.1225  0.0190
 8007SOL    HW135483   2.212   3.817   5.330  0.1640  0.3170  0.1671
 8007SOL    HW235484   2.312   3.845   5.434 -1.1834  1.3917  2.8162
 8008SOL     OW35485   1.938   1.663   8.991  0.3983 -0.0102  0.3236
 8008SOL    HW135486   1.894   1.749   8.988 -2.8649 -1.6523  1.1190
 8008SOL    HW235487   1.867   1.604   9.018  1.6157 -2.4035 -1.7316
 8009SOL     OW35488   3.231   1.314  10.581  0.2876  0.1338 -0.1288
 8009SOL    HW135489   3.248   1.303  10.487 -0.8093 -2.3193 -0.0234
 8009SOL    HW235490   3.136   1.321  10.577  0.2691 -0.3268 -0.5174
 8010SOL     OW35491   3.944   2.154   4.938 -0.2512  0.5683  0.2875
 8010SOL    HW135492   3.864   2.207   4.930 -0.7555 -0.0479  1.2642
 8010SOL    HW235493   4.018   2.214   4.947  0.9403 -0.8307 -0.3753
 8011SOL     OW35494   0.224   4.288   1.486 -0.2175 -0.0307 -0.1525
 8011SOL    HW135495   0.137   4.254   1.462 -0.4348  0.0098  0.5785
 8011SOL    HW235496   0.256   4.215   1.539 -0.8943  0.1150  0.4533
 8012SOL     OW35497   1.951   0.692   0.902  0.4867  0.1818 -0.4235
 8012SOL    HW135498   1.908   0.716   0.984  0.0387 -3.2423  0.3227
 8012SOL    HW235499   1.912   0.752   0.839  1.3218  0.4715 -0.6691
 8013SOL     OW35500   2.467   2.070   1.451 -0.5571 -0.1198 -0.5429
 8013SOL    HW135501   2.488   2.001   1.388  2.8594 -0.6699  1.2032
 8013SOL    HW235502   2.425   2.135   1.395  0.0581 -0.0375 -0.9059
 8014SOL     OW35503   4.257   0.954  10.806 -0.3960  0.4359  0.5971
 8014SOL    HW135504   4.222   1.028  10.756  0.9581  0.6415 -0.0592
 8014SOL    HW235505   4.213   0.953  10.891 -2.4770  2.2537 -0.4617
 8015SOL     OW35506   3.224   4.178   2.942  0.6071 -0.0251  0.1874
 8015SOL    HW135507   3.162   4.114   2.979 -0.2061  0.3473 -0.5517
 8015SOL    HW235508   3.175   4.235   2.884  0.4900 -0.7456 -0.4152
 8016SOL     OW35509   1.602   2.272  10.971  0.5940 -0.7585  0.0687
 8016SOL    HW135510   1.689   2.308  10.955 -0.0170  0.5978 -0.1493
 8016SOL    HW235511   1.554   2.349  10.943  0.2804 -1.2199 -0.6726
 8017SOL     OW35512   2.421   3.601   4.281  0.3809  0.2013 -0.3940
 8017SOL    HW135513   2.500   3.635   4.322  0.1272 -1.4132  1.4382
 8017SOL    HW235514   2.449   3.593   4.190  1.7031 -2.0946  0.2259
 8018SOL     OW35515   4.711   1.341   3.372  0.6074  0.4169 -0.0175
 8018SOL    HW135516   0.068   1.396   3.349  0.7087  0.9305  1.4950
 8018SOL    HW235517   0.021   1.250   3.368  1.8582  0.8737 -1.6492
 8019SOL     OW35518   0.102   2.991   4.980  0.1985  0.1043  0.4500
 8019SOL    HW135519   0.040   3.014   4.911 -1.3371 -0.5101  1.6388
 8019SOL    HW235520   0.141   2.912   4.941 -0.3877  1.2743 -2.5122
 8020SOL     OW35521   3.632   0.330   5.386 -0.0094  0.3018 -0.3735
 8020SOL    HW135522   3.677   0.265   5.331 -1.9755 -0.1866 -1.4039
 8020SOL    HW235523   3.667   0.320   5.474  0.4683  0.1270 -0.5827
 8021SOL     OW35524   0.062   1.631   5.707 -0.1772 -0.3094  0.0913
 8021SOL    HW135525   0.150   1.592   5.709  0.4274  1.2865  3.1772
 8021SOL    HW235526   0.091   1.720   5.728 -0.0374 -0.5835  1.0252
 8022SOL     OW35527   2.113   1.864   8.289 -0.6028 -0.1837  0.3835
 8022SOL    HW135528   2.165   1.868   8.369  0.4903 -0.4557 -0.3275
 8022SOL    HW235529   2.120   1.952   8.251  2.1322 -0.9656 -0.8711
 8023SOL     OW35530   1.262   1.560   6.389  0.3210  0.2796 -0.0811
 8023SOL    HW135531   1.296   1.487   6.337  2.2461 -0.3991  2.1447
 8023SOL    HW235532   1.341   1.606   6.417  0.0698  0.9331 -0.4504
 8024SOL     OW35533   2.804   3.753   2.345 -0.2864  0.0953  0.3392
 8024SOL    HW135534   2.757   3.816   2.400 -0.3296  0.6214 -0.2999
 8024SOL    HW235535   2.885   3.803   2.329 -0.3752  0.1015 -0.0829
 8025SOL     OW35536   3.026   1.841   6.342  0.1532  0.0903 -0.7963
 8025SOL    HW135537   3.062   1.929   6.330 -0.4380  0.8191  2.7225
 8025SOL    HW235538   3.104   1.793   6.370  0.9307  1.0566 -1.3063
 8026SOL     OW35539   4.005   4.456  10.656 -0.3536 -0.4043  0.4728
 8026SOL    HW135540   3.946   4.382  10.642 -0.1666 -0.5072  0.2108
 8026SOL    HW235541   3.996   4.482  10.748 -1.1789 -0.8537  0.5155
 8027SOL     OW35542   4.686   3.675  11.784  0.4088 -0.1321  1.1576
 8027SOL    HW135543   0.047   3.623  11.792 -1.2663 -2.9649 -0.3478
 8027SOL    HW235544   4.621   3.605  11.772  1.7297 -0.8701 -1.6766
 8028SOL     OW35545   2.510   2.300   4.369  0.0481 -0.0884  0.0959
 8028SOL    HW135546   2.549   2.258   4.293  0.5576 -0.9050  0.8122
 8028SOL    HW235547   2.523   2.224   4.426  2.8894 -1.3933 -2.3519
 8029SOL     OW35548   2.192   3.174   7.985  0.2764 -0.2558 -0.5863
 8029SOL    HW135549   2.110   3.203   8.025  1.4547  1.2350  0.7062
 8029SOL    HW235550   2.253   3.240   8.018 -1.0427  0.5036  0.3315
 8030SOL     OW35551   3.950   2.386  17.628  0.3359 -0.4158 -0.1005
 8030SOL    HW135552   3.910   2.462  17.586  1.6598 -0.4769 -1.4689
 8030SOL    HW235553   3.932   2.318  17.563  0.3296 -0.2633 -0.2579
 8031SOL     OW35554   3.398   2.602  15.783 -0.2339 -0.2238  0.1957
 8031SOL    HW135555   3.444   2.519  15.795  0.2466  0.2585  1.6686
 8031SOL    HW235556   3.345   2.627  15.858  2.2746  0.9147  1.5714
 8032SOL     OW35557   0.604   1.095   6.285 -0.1006  0.3794 -0.4711
 8032SOL    HW135558   0.630   1.129   6.371 -0.1430 -0.1747 -0.2396
 8032SOL    HW235559   0.679   1.044   6.253  0.0425 -0.1307  0.6685
 8033SOL     OW35560   0.310   1.367  13.325 -0.2938  0.0739 -0.3144
 8033SOL    HW135561   0.339   1.423  13.397 -1.1348  0.0407  0.0419
 8033SOL    HW235562   0.348   1.413  13.250  1.1266  0.5968  0.7037
 8034SOL     OW35563   0.423   3.522   2.526 -0.2146 -0.1962 -0.0552
 8034SOL    HW135564   0.469   3.553   2.448 -0.8057  0.5580 -0.1055
 8034SOL    HW235565   0.352   3.586   2.524 -0.8232 -0.8398  0.7636
 8035SOL     OW35566   3.674   0.904   8.428  0.0636 -0.4901 -0.0834
 8035SOL    HW135567   3.675   0.823   8.478  2.3267 -0.4742 -0.0963
 8035SOL    HW235568   3.768   0.919   8.440  0.5049 -2.5908 -0.9260
 8036SOL     OW35569   1.538   1.471   9.153  0.6360  0.0717 -0.6648
 8036SOL    HW135570   1.572   1.404   9.212  1.1703  0.7599 -0.1961
 8036SOL    HW235571   1.449   1.469   9.188 -0.6718  0.9974 -3.9746
 8037SOL     OW35572   0.429   4.429  10.018 -0.1501  0.3585  0.0541
 8037SOL    HW135573   0.353   4.423  10.076 -0.8340  3.7326 -0.4517
 8037SOL    HW235574   0.493   4.391  10.077 -0.2299 -0.2629 -0.2582
 8038SOL     OW35575   2.646   0.157   6.173 -0.2064 -0.1894  0.4397
 8038SOL    HW135576   2.735   0.187   6.192 -0.4224  0.5668  0.2551
 8038SOL    HW235577   2.632   0.101   6.249  0.1575  0.2243  0.8197
 8039SOL     OW35578   3.667   4.243   8.113 -0.0942  0.2663 -1.0593
 8039SOL    HW135579   3.676   4.173   8.177  1.2613  1.2620 -0.1710
 8039SOL    HW235580   3.620   4.195   8.045  0.6965  0.2343 -1.5838
 8040SOL     OW35581   2.181   4.446   4.522  0.0604  0.0628 -0.3016
 8040SOL    HW135582   2.189   4.506   4.595 -1.2661  0.3536 -0.3869
 8040SOL    HW235583   2.087   4.457   4.508  0.0778 -0.0129 -0.4859
 8041SOL     OW35584   2.212   1.412   8.461  0.7761 -0.0955  0.1920
 8041SOL    HW135585   2.300   1.407   8.499  0.3131  1.0736  1.3944
 8041SOL    HW235586   2.198   1.501   8.493 -1.2117 -1.7388  3.8821
 8042SOL     OW35587   2.740   0.517   5.267  0.3159 -0.2068 -0.3036
 8042SOL    HW135588   2.663   0.480   5.224  0.0624  1.4946 -1.3483
 8042SOL    HW235589   2.710   0.608   5.258  0.8143 -0.2835 -2.7927
 8043SOL     OW35590   3.673   1.802  12.653 -0.0504  0.1630  0.0523
 8043SOL    HW135591   3.710   1.730  12.602  2.2536  0.5287  1.2098
 8043SOL    HW235592   3.680   1.762  12.740  3.0849  2.5196  0.8806
 8044SOL     OW35593   4.547   0.782   3.007 -0.1771 -0.7258 -0.2570
 8044SOL    HW135594   4.520   0.822   2.924  3.0599  1.5324 -0.2429
 8044SOL    HW235595   4.565   0.862   3.057  0.8171  0.6516 -2.7617
 8045SOL     OW35596   1.385   4.646   3.676 -0.2777  0.3274  0.2253
 8045SOL    HW135597   1.347   4.627   3.590 -2.2399 -0.9490  1.3779
 8045SOL    HW235598   1.478   4.650   3.657  0.1006  0.6445  2.1115
 8046SOL     OW35599   3.939   0.872   6.856  0.1064 -0.0562  0.2768
 8046SOL    HW135600   4.022   0.853   6.811  0.7189 -0.6303  1.6602
 8046SOL    HW235601   3.966   0.870   6.948  0.6721 -2.6708  0.0372
 8047SOL     OW35602   4.268   3.597   5.539  0.0764 -0.2061  0.0510
 8047SOL    HW135603   4.264   3.560   5.451 -2.1829  1.1609 -0.4199
 8047SOL    HW235604   4.359   3.610   5.564  0.3237  0.3058 -1.1182
 8048SOL     OW35605   3.177   2.336   4.064  0.4019 -0.3132 -0.7477
 8048SOL    HW135606   3.201   2.388   4.140 -0.4822 -2.3706  0.9361
 8048SOL    HW235607   3.154   2.400   3.997  0.1477  0.1045 -0.2548
 8049SOL     OW35608   3.980   0.120   2.104  0.0886  0.5376 -0.1245
 8049SOL    HW135609   4.038   0.178   2.055  0.1340  0.1872 -0.4819
 8049SOL    HW235610   3.944   0.181   2.169  0.1474  1.2215 -0.7355
 8050SOL     OW35611   3.190   0.246   7.465 -0.3864  0.0064 -0.4620
 8050SOL    HW135612   3.252   0.239   7.538  1.9287  0.2290 -2.4035
 8050SOL    HW235613   3.252   0.220   7.397 -1.5100  2.7585 -2.5472
 8051SOL     OW35614   3.476   3.237  12.357 -0.1444  0.5920  0.1032
 8051SOL    HW135615   3.538   3.295  12.401  1.6155 -0.2389 -1.2963
 8051SOL    HW235616   3.500   3.155  12.400  1.7969  0.7517 -0.6642
 8052SOL     OW35617   0.289   4.346  16.295 -0.0557 -0.3575  0.3816
 8052SOL    HW135618   0.259   4.292  16.368  0.6831 -2.6619 -1.0286
 8052SOL    HW235619   0.376   4.312  16.276  1.8026  4.3451  0.4404
 8053SOL     OW35620   3.703   4.017   4.301  0.5034  0.8820 -0.3253
 8053SOL    HW135621   3.786   4.041   4.259  0.4609  3.0407  0.8055
 8053SOL    HW235622   3.729   3.979   4.385 -0.9466 -2.8855 -1.5860
 8054SOL     OW35623   0.272   1.037   5.882 -0.0864 -0.2722 -0.0515
 8054SOL    HW135624   0.320   1.046   5.964  1.0352  1.1896 -0.8589
 8054SOL    HW235625   0.255   0.943   5.877  3.2545 -0.8815  0.0412
 8055SOL     OW35626   3.125   1.597   8.461 -0.2400 -0.2077 -0.0041
 8055SOL    HW135627   3.165   1.647   8.390  0.5875  0.8402  1.1957
 8055SOL    HW235628   3.189   1.530   8.487 -0.3622 -0.5912 -0.6767
 8056SOL     OW35629   2.398   3.043   4.066  0.2205  0.1425  0.0916
 8056SOL    HW135630   2.414   3.138   4.068  0.8475  0.0703 -2.3551
 8056SOL    HW235631   2.429   3.032   4.156 -2.0281  0.1833  0.8579
 8057SOL     OW35632   4.366   0.741   2.490  0.0078  0.2521  0.6150
 8057SOL    HW135633   4.380   0.649   2.511 -0.2628  0.3050  1.0424
 8057SOL    HW235634   4.278   0.737   2.452 -0.4028 -0.7974  1.6561
 8058SOL     OW35635   4.622   0.104   1.748  0.2222 -0.0357  0.1239
 8058SOL    HW135636   4.613   0.063   1.834  2.4159 -1.1142 -0.1638
 8058SOL    HW235637   4.704   0.153   1.762 -0.1108  0.3547  0.7096
 8059SOL     OW35638   3.453   0.838   2.257  0.1935 -0.4518 -0.1908
 8059SOL    HW135639   3.424   0.863   2.169 -3.2147 -1.0743  0.7678
 8059SOL    HW235640   3.368   0.831   2.300  1.3146  2.7200  2.5564
 8060SOL     OW35641   1.094   3.555   3.889  0.4420 -0.4200  0.5367
 8060SOL    HW135642   1.037   3.525   3.818  0.8911  1.1679 -0.4893
 8060SOL    HW235643   1.060   3.514   3.969  1.1384  0.3961  1.2460
 8061SOL     OW35644   0.628   3.412   0.471  0.5152 -0.1802 -0.0857
 8061SOL    HW135645   0.653   3.449   0.556  0.4646  0.6373 -0.4245
 8061SOL    HW235646   0.534   3.413   0.485  0.6468 -0.3697  0.8462
 8062SOL     OW35647   0.474   4.488   8.557 -0.0941 -0.5759  0.3708
 8062SOL    HW135648   0.418   4.565   8.563 -0.1807 -0.6059 -0.0969
 8062SOL    HW235649   0.518   4.485   8.642  0.7765 -0.1112 -0.0577
 8063SOL     OW35650   0.311   3.603   1.514  0.0822 -0.1371  0.0098
 8063SOL    HW135651   0.299   3.531   1.576 -1.2832  0.8426  0.8710
 8063SOL    HW235652   0.221   3.614   1.485  0.0574 -2.2150 -0.7112
 8064SOL     OW35653   3.909   3.418   4.697 -0.5226 -0.0526  0.2806
 8064SOL    HW135654   3.824   3.459   4.712 -0.9535 -1.0311  0.5684
 8064SOL    HW235655   3.958   3.486   4.652 -2.5057  0.7329 -0.6908
 8065SOL     OW35656   3.082   1.671  16.905 -0.2932  0.2365  0.1313
 8065SOL    HW135657   3.151   1.642  16.846  1.4890  1.2346  1.7110
 8065SOL    HW235658   3.050   1.751  16.864  0.2281  0.7747  0.7685
 8066SOL     OW35659   2.257   3.518  15.264 -0.0981  0.4630  0.0021
 8066SOL    HW135660   2.266   3.448  15.200  0.3186  3.2425 -2.9780
 8066SOL    HW235661   2.337   3.505  15.317 -1.1481 -0.2413  1.4132
 8067SOL     OW35662   2.213   0.779   0.980  0.5073  0.1949 -0.2747
 8067SOL    HW135663   2.135   0.732   1.011 -0.9096  1.5673 -1.7607
 8067SOL    HW235664   2.279   0.769   1.048  1.1829  0.7015 -0.8442
 8068SOL     OW35665   4.237   3.482  17.349  0.1425 -0.1229  0.3201
 8068SOL    HW135666   4.186   3.405  17.324  3.9251 -1.4558 -3.2755
 8068SOL    HW235667   4.304   3.482  17.281 -3.0100 -0.1167 -2.7554
 8069SOL     OW35668   1.348   0.792   0.764  0.2279 -0.0376 -0.2337
 8069SOL    HW135669   1.406   0.726   0.726  0.0799 -0.5224  0.3605
 8069SOL    HW235670   1.398   0.810   0.844  2.2815 -1.6481 -1.1542
 8070SOL     OW35671   4.703   4.590  17.673  0.4507 -0.4572 -1.0036
 8070SOL    HW135672   4.675   4.503  17.647 -0.1297 -0.2554 -1.0579
 8070SOL    HW235673   0.068   4.593  17.625  0.9758  3.0657  0.1165
 8071SOL     OW35674   0.494   3.881  12.466  0.0757 -0.4965  0.1948
 8071SOL    HW135675   0.489   3.921  12.379  0.0332  1.1483  0.9475
 8071SOL    HW235676   0.567   3.936  12.493 -1.2716  2.3935 -1.9943
 8072SOL     OW35677   0.482   2.122   5.693 -0.1333  0.2686 -0.0677
 8072SOL    HW135678   0.418   2.067   5.647 -0.5604  0.9416 -0.2634
 8072SOL    HW235679   0.519   2.049   5.743 -2.8955 -1.5538 -0.6442
 8073SOL     OW35680   4.448   3.177   2.117 -0.4018 -0.4229 -0.7322
 8073SOL    HW135681   4.498   3.254   2.144 -2.0550 -0.2987  1.9272
 8073SOL    HW235682   4.362   3.218   2.114  0.0199  0.4472 -1.0428
 8074SOL     OW35683   0.771   0.932  15.037  0.6420 -0.7598 -0.6285
 8074SOL    HW135684   0.772   0.869  14.966 -1.0671 -0.0184 -1.2971
 8074SOL    HW235685   0.799   0.879  15.112 -2.7018  0.5301  1.5391
 8075SOL     OW35686   4.037   3.815   3.805  0.5329 -0.3169 -0.5563
 8075SOL    HW135687   4.074   3.864   3.731 -0.2027 -0.0860 -0.7656
 8075SOL    HW235688   4.058   3.869   3.881  1.2700 -1.1324 -0.1720
 8076SOL     OW35689   3.291   0.710   8.403  0.0037 -0.0564  0.2502
 8076SOL    HW135690   3.305   0.650   8.477  0.7174 -0.1216  0.0626
 8076SOL    HW235691   3.195   0.703   8.400  0.2804 -3.6516 -0.6039
 8077SOL     OW35692   3.029   0.183   5.012  0.4279  0.5595  0.2329
 8077SOL    HW135693   3.026   0.155   5.103 -1.6230  0.7869  0.2341
 8077SOL    HW235694   2.960   0.249   5.015  0.9860  1.2681 -2.3304
 8078SOL     OW35695   3.089   1.212   7.521 -0.4217  0.2238  0.7309
 8078SOL    HW135696   3.159   1.189   7.461 -0.1201  0.5761  0.9456
 8078SOL    HW235697   3.130   1.212   7.608 -1.0829  0.6637  1.0469
 8079SOL     OW35698   1.315   0.504   4.490  0.2571 -0.6737 -0.2370
 8079SOL    HW135699   1.264   0.429   4.458 -1.4237  0.4499 -0.2218
 8079SOL    HW235700   1.286   0.582   4.443  2.0279  0.4268  0.5125
 8080SOL     OW35701   3.466   0.374  12.313  0.3736 -0.1931 -0.9748
 8080SOL    HW135702   3.440   0.445  12.254  0.5683  0.7109  0.0262
 8080SOL    HW235703   3.430   0.298  12.267 -1.1582 -0.9219  1.4105
 8081SOL     OW35704   1.888   2.979  12.426  0.5531 -0.2332  0.1874
 8081SOL    HW135705   1.963   3.033  12.402 -0.4382  1.5159  0.9998
 8081SOL    HW235706   1.848   3.024  12.501  0.0046 -1.8070  0.8262
 8082SOL     OW35707   0.835   1.940   3.525 -0.1882 -0.1138 -0.4622
 8082SOL    HW135708   0.869   1.941   3.615 -0.5418  2.8902 -0.3673
 8082SOL    HW235709   0.751   1.983   3.540 -0.3888 -0.7051  0.1443
 8083SOL     OW35710   0.059   2.964  10.178  0.1968 -0.0317 -0.1969
 8083SOL    HW135711   0.083   2.936  10.267 -0.3494 -0.2281 -0.1080
 8083SOL    HW235712   0.020   3.048  10.201  0.3501  0.1591 -0.6493
 8084SOL     OW35713   4.199   4.184   5.186 -0.9612 -0.5913 -0.1625
 8084SOL    HW135714   4.103   4.182   5.182 -1.0312  1.9035  0.3978
 8084SOL    HW235715   4.206   4.230   5.269 -0.9933 -2.5702  0.9308
 8085SOL     OW35716   2.861   2.640  15.059  0.3336 -0.0423  0.0526
 8085SOL    HW135717   2.873   2.656  14.965  2.5835  0.4242  0.4162
 8085SOL    HW235718   2.889   2.549  15.070  0.3405 -0.2400 -1.5987
 8086SOL     OW35719   0.938   2.403  11.914  0.2045 -0.1504 -0.3796
 8086SOL    HW135720   0.934   2.361  11.999 -2.0599  0.7522 -0.0304
 8086SOL    HW235721   1.002   2.348  11.869 -0.3483 -0.5075 -0.7401
 8087SOL     OW35722   1.714   3.016  13.616  0.8556 -0.1898 -0.2462
 8087SOL    HW135723   1.753   3.076  13.679 -1.6704  1.0630  0.1325
 8087SOL    HW235724   1.782   2.951  13.598  2.0678  0.8238  0.6774
 8088SOL     OW35725   4.640   2.912   4.125 -0.7331 -0.6211  0.0142
 8088SOL    HW135726   4.630   2.819   4.102 -1.0890 -0.4359 -0.5820
 8088SOL    HW235727   0.012   2.920   4.155 -0.3784 -1.4777 -0.8429
 8089SOL     OW35728   1.144   3.488  14.900  0.6762  0.2968  0.1733
 8089SOL    HW135729   1.063   3.490  14.951 -0.0245 -2.6105 -0.7850
 8089SOL    HW235730   1.166   3.396  14.881 -2.7039 -1.0210  2.7453
 8090SOL     OW35731   1.127   1.190   3.415 -0.7919 -0.1936 -0.1175
 8090SOL    HW135732   1.109   1.214   3.506 -2.9512 -2.1472 -0.0330
 8090SOL    HW235733   1.057   1.238   3.371  0.9360  2.4155 -0.0324
 8091SOL     OW35734   3.628   3.647   4.385  0.2316  0.0894 -0.5085
 8091SOL    HW135735   3.612   3.675   4.475 -0.6709 -0.5298 -0.4779
 8091SOL    HW235736   3.665   3.559   4.393 -2.1457 -0.9481 -0.7690
 8092SOL     OW35737   2.953   4.388   5.808  0.5292 -0.1916 -0.4300
 8092SOL    HW135738   2.899   4.454   5.851  0.1363 -0.4793 -0.4837
 8092SOL    HW235739   3.013   4.355   5.875 -0.4282 -0.9016  0.0894
 8093SOL     OW35740   0.503   3.823   2.539  0.1328 -0.2836 -0.2438
 8093SOL    HW135741   0.535   3.780   2.460  1.1010  1.3221 -0.7380
 8093SOL    HW235742   0.569   3.891   2.554 -0.6707  0.0203  1.9184
 8094SOL     OW35743   0.783   3.613   4.243 -0.0646 -0.1469  0.0376
 8094SOL    HW135744   0.798   3.581   4.332 -0.6110  0.4736  0.3514
 8094SOL    HW235745   0.724   3.686   4.258 -2.2795 -1.8241 -0.4373
 8095SOL     OW35746   0.417   2.881  15.240  0.0286  0.5070  0.2053
 8095SOL    HW135747   0.421   2.832  15.321  0.3066 -0.9179 -0.6681
 8095SOL    HW235748   0.338   2.844  15.202 -0.2203 -0.1577  1.4013
 8096SOL     OW35749   4.133   3.165   5.438 -0.2626 -0.0673  0.4250
 8096SOL    HW135750   4.134   3.119   5.354  0.8947 -2.5067  1.7799
 8096SOL    HW235751   4.041   3.144   5.456 -0.3304 -0.8793 -0.9265
 8097SOL     OW35752   2.890   0.307  13.271 -0.8725  0.5402 -0.3132
 8097SOL    HW135753   2.956   0.253  13.314 -0.5340  1.3423  0.1809
 8097SOL    HW235754   2.925   0.300  13.182 -2.1412  1.5582 -0.8939
 8098SOL     OW35755   2.809   4.507   3.845 -0.3013 -0.5096  0.2319
 8098SOL    HW135756   2.806   4.412   3.836  0.3461 -0.5881  0.8511
 8098SOL    HW235757   2.858   4.520   3.927 -2.0015 -1.5656  1.4142
 8099SOL     OW35758   1.847   1.772   1.348 -0.0392  0.0519  0.3195
 8099SOL    HW135759   1.768   1.818   1.317 -0.1997  1.2173  2.4634
 8099SOL    HW235760   1.811   1.743   1.432  1.7851  1.9403  1.7676
 8100SOL     OW35761   3.388   3.507   8.415 -0.4149  0.4589 -0.4856
 8100SOL    HW135762   3.431   3.588   8.444 -0.4569  0.8959 -1.6186
 8100SOL    HW235763   3.298   3.538   8.424 -0.9640 -1.0136 -0.8229
 8101SOL     OW35764   2.252   0.755   2.856  0.0209  0.0411  0.4989
 8101SOL    HW135765   2.186   0.705   2.808  1.4775 -0.8708 -0.5857
 8101SOL    HW235766   2.311   0.689   2.893  0.4670 -0.6354 -1.4242
 8102SOL     OW35767   2.046   2.307   5.348 -0.1997  0.4789 -0.0817
 8102SOL    HW135768   2.123   2.359   5.373  0.8849 -0.3817 -1.6392
 8102SOL    HW235769   1.981   2.374   5.367  0.5015  0.4070  2.7315
 8103SOL     OW35770   2.471   2.273   2.390  0.2462  0.8821  0.0905
 8103SOL    HW135771   2.417   2.219   2.449 -0.5052  1.6570  0.1119
 8103SOL    HW235772   2.437   2.361   2.406  0.6420  1.2885 -1.2962
 8104SOL     OW35773   0.555   3.065   5.011  0.2957  0.0809 -0.0094
 8104SOL    HW135774   0.541   2.983   5.059  0.1709  0.8072  1.1916
 8104SOL    HW235775   0.480   3.117   5.039 -0.6487 -1.4656  0.3395
 8105SOL     OW35776   3.213   4.288  16.145 -0.0598  0.4599 -0.0194
 8105SOL    HW135777   3.249   4.231  16.213  0.5719  0.0750 -0.6660
 8105SOL    HW235778   3.131   4.321  16.180  1.4453  0.7184  3.2669
 8106SOL     OW35779   1.264   3.367   9.082  0.3984 -0.7045 -0.1603
 8106SOL    HW135780   1.235   3.388   9.171 -0.7519  3.1575 -1.4250
 8106SOL    HW235781   1.313   3.442   9.049 -1.8660 -0.4856 -3.0399
 8107SOL     OW35782   0.671   2.840   6.815 -0.1717  0.3732  0.3841
 8107SOL    HW135783   0.664   2.787   6.736  0.3753  1.2941 -0.2845
 8107SOL    HW235784   0.731   2.788   6.870  0.8925  2.2506  0.9869
 8108SOL     OW35785   1.646   2.246   8.747  0.3535 -0.1318 -0.6209
 8108SOL    HW135786   1.640   2.334   8.710 -1.6231 -0.1347 -0.3014
 8108SOL    HW235787   1.620   2.275   8.834  0.4645  0.5679 -0.8201
 8109SOL     OW35788   4.135   0.163  13.858  0.4653 -0.3923 -0.0148
 8109SOL    HW135789   4.101   0.172  13.947  0.7239 -1.6187  0.2142
 8109SOL    HW235790   4.213   0.216  13.876  0.2404  0.0819 -0.4711
 8110SOL     OW35791   0.124   2.009   4.652 -0.3121 -0.5178 -0.4464
 8110SOL    HW135792   0.160   1.991   4.739  0.5347  0.4824 -0.5867
 8110SOL    HW235793   0.041   2.050   4.672 -0.6125 -0.0108 -2.6676
 8111SOL     OW35794   0.674   2.436  17.270  0.3215  0.2157  0.4762
 8111SOL    HW135795   0.735   2.370  17.302 -0.9572 -1.0830  0.2554
 8111SOL    HW235796   0.672   2.407  17.179 -1.5589  1.0848  0.2333
 8112SOL     OW35797   0.041   4.395  13.757 -0.3666 -0.0165 -0.1096
 8112SOL    HW135798   0.008   4.466  13.811  2.6327  0.9177  0.5057
 8112SOL    HW235799   0.134   4.395  13.780 -0.6522  0.3043  1.0577
 8113SOL     OW35800   2.237   1.826  13.470 -0.0492  0.1046 -0.2663
 8113SOL    HW135801   2.216   1.907  13.517 -1.1306 -0.3658  0.0562
 8113SOL    HW235802   2.157   1.804  13.424  0.2985 -1.5160 -0.0922
 8114SOL     OW35803   0.160   4.395   8.222 -0.1782  0.0373 -0.5220
 8114SOL    HW135804   0.128   4.305   8.209 -3.6702  0.8757  2.0958
 8114SOL    HW235805   0.118   4.438   8.147 -0.2049  0.6807 -0.1344
 8115SOL     OW35806   2.874   2.439  10.121  0.0069 -0.0375  0.2059
 8115SOL    HW135807   2.901   2.389  10.198  1.6081  0.9355  0.2622
 8115SOL    HW235808   2.836   2.368  10.069  1.5917  0.4636 -1.6205
 8116SOL     OW35809   2.372   1.100   2.670  0.2499 -0.3873  0.7661
 8116SOL    HW135810   2.388   1.062   2.756  0.8945  0.1909  0.9053
 8116SOL    HW235811   2.431   1.175   2.677  1.3312 -1.0104 -1.7973
 8117SOL     OW35812   0.074   3.874   6.738  0.2313 -0.1123  0.1555
 8117SOL    HW135813   0.146   3.882   6.800  1.4709 -2.3074 -0.9817
 8117SOL    HW235814   0.115   3.924   6.668 -0.3527 -0.1204 -0.2000
 8118SOL     OW35815   2.443   1.305   3.795  0.0148 -0.3326  0.2344
 8118SOL    HW135816   2.417   1.340   3.710 -0.3118  1.4965  1.0890
 8118SOL    HW235817   2.508   1.243   3.762  1.0954  0.8559  0.1197
 8119SOL     OW35818   3.766   0.809   8.741 -0.7262 -0.0629  0.0334
 8119SOL    HW135819   3.684   0.802   8.790 -0.2660  0.6342  0.8987
 8119SOL    HW235820   3.750   0.762   8.659 -0.9993  0.6195 -0.3032
 8120SOL     OW35821   4.047   0.093   2.910 -0.3025  0.7569 -0.0583
 8120SOL    HW135822   4.007   0.179   2.895 -0.2384  0.6165 -0.9892
 8120SOL    HW235823   4.137   0.125   2.901  0.7101 -1.9145  0.6990
 8121SOL     OW35824   2.527   1.043   6.536  0.2755 -0.5447  0.1704
 8121SOL    HW135825   2.452   1.063   6.591 -0.3723  0.7237 -1.2027
 8121SOL    HW235826   2.588   1.005   6.601  0.5424 -1.2431 -0.4820
 8122SOL     OW35827   0.273   2.110   3.707  0.1052  0.4022 -0.1011
 8122SOL    HW135828   0.194   2.158   3.732 -1.6708 -2.5611  0.0016
 8122SOL    HW235829   0.232   2.027   3.681 -1.4541  1.1667 -0.1030
 8123SOL     OW35830   4.336   3.130   7.987  0.7854 -0.4468  0.4276
 8123SOL    HW135831   4.382   3.214   7.984  1.5006 -0.9175 -1.7815
 8123SOL    HW235832   4.382   3.079   7.920  0.0580 -3.1385  1.9641
 8124SOL     OW35833   3.086   2.489   7.355  0.3790  0.2813  0.1313
 8124SOL    HW135834   3.026   2.492   7.430  0.9908 -0.8509  0.6532
 8124SOL    HW235835   3.129   2.575   7.361 -0.4198  0.7853 -1.3329
 8125SOL     OW35836   0.358   3.690   0.439 -0.2804  0.0714 -0.4472
 8125SOL    HW135837   0.363   3.605   0.483 -2.3528  0.1937  0.0254
 8125SOL    HW235838   0.406   3.671   0.358 -0.1557  3.0756 -1.0550
 8126SOL     OW35839   3.529   0.892   8.975  0.4732  0.2821 -0.6002
 8126SOL    HW135840   3.459   0.957   8.977 -1.1640 -1.4839 -0.6794
 8126SOL    HW235841   3.477   0.811   8.973 -0.1385  0.6693 -0.3141
 8127SOL     OW35842   0.565   2.991   2.215 -0.1771 -0.1218  0.3888
 8127SOL    HW135843   0.631   3.039   2.265  0.4384 -0.6200  0.0605
 8127SOL    HW235844   0.514   3.059   2.171 -1.9570 -1.0361  1.0589
 8128SOL     OW35845   3.821   1.326   8.638 -0.6619  0.2423 -0.0281
 8128SOL    HW135846   3.858   1.414   8.641  0.0048 -0.0987  2.0357
 8128SOL    HW235847   3.729   1.346   8.618 -0.5052 -1.2257 -2.2451
 8129SOL     OW35848   0.677   2.983  14.668 -0.1120  0.5470 -0.2243
 8129SOL    HW135849   0.582   2.978  14.678  0.1026 -3.0743  0.1296
 8129SOL    HW235850   0.706   2.892  14.667 -0.4779  0.4593 -2.7069
 8130SOL     OW35851   4.622   3.385   2.196  0.2286  0.3948  1.1883
 8130SOL    HW135852   4.692   3.450   2.200 -0.1099  0.8063  0.4463
 8130SOL    HW235853   4.582   3.396   2.282 -0.6028 -2.0159  1.1170
 8131SOL     OW35854   3.978   3.964   8.218  0.2569 -0.0776  0.8135
 8131SOL    HW135855   3.916   4.011   8.163 -1.1262 -3.0866 -0.1620
 8131SOL    HW235856   4.062   3.995   8.184  0.2117 -1.5653 -0.6700
 8132SOL     OW35857   2.362   3.771   2.750 -0.3820 -0.3520  0.0428
 8132SOL    HW135858   2.330   3.681   2.762  1.7398 -1.0738  0.2958
 8132SOL    HW235859   2.442   3.745   2.704  0.7321  1.3753  1.0068
 8133SOL     OW35860   4.451   1.177   8.149  0.2452 -0.4486 -0.1787
 8133SOL    HW135861   4.492   1.264   8.151  1.0189 -0.8647  1.6143
 8133SOL    HW235862   4.509   1.137   8.214  0.1635 -0.6775 -0.2469
 8134SOL     OW35863   2.034   3.579  13.074  0.2617 -0.6209  0.0189
 8134SOL    HW135864   1.966   3.632  13.032 -0.5673 -2.1474 -0.5698
 8134SOL    HW235865   1.983   3.499  13.080 -1.4116  0.4914  0.6768
 8135SOL     OW35866   3.211   2.793   1.163 -0.3455 -0.0340  0.0442
 8135SOL    HW135867   3.136   2.774   1.107  0.7867  0.4445 -1.6307
 8135SOL    HW235868   3.171   2.820   1.246 -0.4903  1.2141 -0.4273
 8136SOL     OW35869   2.725   3.283  15.206  0.0718  0.6662  0.6446
 8136SOL    HW135870   2.709   3.194  15.173  1.7302  0.4342  0.4700
 8136SOL    HW235871   2.723   3.284  15.302 -0.2923 -1.2212  0.6648
 8137SOL     OW35872   2.322   1.463   7.517  0.0379  0.5171  0.6480
 8137SOL    HW135873   2.360   1.427   7.597 -0.6910 -0.2307  0.6600
 8137SOL    HW235874   2.336   1.554   7.543 -0.2961  0.6374  0.4191
 8138SOL     OW35875   1.176   3.982   3.101  0.0644 -0.1273 -0.3340
 8138SOL    HW135876   1.214   4.065   3.073 -0.9532  0.4147 -0.0728
 8138SOL    HW235877   1.251   3.930   3.131 -1.7285 -2.5640 -0.0967
 8139SOL     OW35878   2.211   2.241  12.887 -0.3499  0.5300  0.6748
 8139SOL    HW135879   2.118   2.246  12.865 -0.2878  0.9212  0.4980
 8139SOL    HW235880   2.217   2.336  12.885  2.5676  0.3583  1.3273
 8140SOL     OW35881   0.030   1.999   0.928  0.2275  0.4888 -0.3702
 8140SOL    HW135882   0.118   1.991   0.965  0.6910  3.5172 -0.7808
 8140SOL    HW235883   0.042   2.091   0.905  0.6093 -0.0481 -2.3266
 8141SOL     OW35884   2.100   4.127   7.284  0.1197 -0.0998  0.3178
 8141SOL    HW135885   2.141   4.069   7.219  0.2938 -0.2951  0.6058
 8141SOL    HW235886   2.123   4.075   7.361 -0.2139 -0.5070  0.1389
 8142SOL     OW35887   4.525   1.599   6.688  0.2055 -0.0898 -0.2599
 8142SOL    HW135888   4.575   1.678   6.711  0.5182 -0.3963  0.1134
 8142SOL    HW235889   4.570   1.565   6.611  1.6266  0.8649  0.1449
 8143SOL     OW35890   3.214   1.012   7.314  0.5239 -0.0737  0.3029
 8143SOL    HW135891   3.261   1.093   7.297  1.3482 -1.2044 -2.7669
 8143SOL    HW235892   3.235   1.004   7.407  2.1389  0.0213 -0.0504
 8144SOL     OW35893   4.590   1.006   4.077 -0.2628  0.2375 -0.6497
 8144SOL    HW135894   4.498   1.033   4.083  0.2409  1.1172  2.7813
 8144SOL    HW235895   4.605   1.039   3.988 -0.7583  0.2244 -0.7433
 8145SOL     OW35896   2.404   0.605  10.795 -0.8728 -0.1809  0.5886
 8145SOL    HW135897   2.442   0.687  10.766 -2.1631 -0.0920 -0.8334
 8145SOL    HW235898   2.397   0.626  10.888 -1.4234  1.2694  0.2120
 8146SOL     OW35899   3.897   0.136   5.372  0.1942  0.6855 -0.1507
 8146SOL    HW135900   3.925   0.227   5.382  1.2717  0.5867 -2.2644
 8146SOL    HW235901   3.975   0.102   5.416 -0.5960  1.1733  1.6170
 8147SOL     OW35902   1.454   0.836   4.033 -0.0133  0.0422  0.8329
 8147SOL    HW135903   1.504   0.765   3.992 -0.2614 -1.3787  2.9534
 8147SOL    HW235904   1.505   0.857   4.111  1.8966  0.0893 -0.4418
 8148SOL     OW35905   2.618   1.773   6.489  0.4776 -0.3391 -0.1112
 8148SOL    HW135906   2.689   1.713   6.466 -1.3486 -1.9393 -1.6057
 8148SOL    HW235907   2.559   1.750   6.418  1.0995 -2.4955  0.0592
 8149SOL     OW35908   1.525   3.399  16.137 -0.1314 -0.1228 -0.0797
 8149SOL    HW135909   1.528   3.446  16.220  3.4120  1.8992 -1.3386
 8149SOL    HW235910   1.456   3.341  16.169  0.6002  0.3955  2.4879
 8150SOL     OW35911   0.797   3.721  16.426  0.3304  0.2504 -0.1283
 8150SOL    HW135912   0.761   3.650  16.479 -0.5489  1.2097  0.5565
 8150SOL    HW235913   0.837   3.783  16.487 -1.8048  1.2619  0.2386
 8151SOL     OW35914   3.054   4.092   4.196 -0.0001 -0.0374 -0.3273
 8151SOL    HW135915   2.983   4.043   4.236 -0.1648 -0.9492 -1.7381
 8151SOL    HW235916   3.019   4.178   4.221  1.7943  1.3841 -2.6711
 8152SOL     OW35917   2.067   2.577  15.145  0.3100 -0.2977 -0.3756
 8152SOL    HW135918   2.067   2.662  15.101  2.0144 -0.6173 -0.9813
 8152SOL    HW235919   2.005   2.534  15.086 -0.7966  0.0110  0.5642
 8153SOL     OW35920   1.709   0.563   6.694 -0.1243 -0.4182  0.2043
 8153SOL    HW135921   1.721   0.567   6.789  1.9803  0.6884 -0.0910
 8153SOL    HW235922   1.730   0.653   6.666  0.5749 -0.2633  1.2463
 8154SOL     OW35923   4.003   0.806   9.270 -0.4831 -0.3088  0.0873
 8154SOL    HW135924   3.940   0.805   9.341 -0.1815  1.1310  0.3669
 8154SOL    HW235925   4.025   0.899   9.270  0.4138 -0.5112 -0.5176
 8155SOL     OW35926   4.575   0.269   5.387  0.1131 -0.3276 -0.2626
 8155SOL    HW135927   4.539   0.284   5.299  2.5034 -0.3003 -1.2326
 8155SOL    HW235928   4.499   0.237   5.436 -0.0013  0.6900  0.2280
 8156SOL     OW35929   0.323   4.161   7.887 -0.2553  0.0244 -0.4915
 8156SOL    HW135930   0.298   4.152   7.979  0.9597 -2.4602 -0.3979
 8156SOL    HW235931   0.270   4.098   7.838 -0.1224 -0.6108  0.1769
 8157SOL     OW35932   3.252   1.111   3.498 -0.4399  0.3773 -0.4688
 8157SOL    HW135933   3.209   1.031   3.530 -1.2456  0.8599 -0.3283
 8157SOL    HW235934   3.281   1.144   3.583 -1.2621  1.9171 -0.7931
 8158SOL     OW35935   4.555   2.389   9.138  0.2374 -0.1084  0.2610
 8158SOL    HW135936   4.555   2.464   9.079 -2.4995 -0.4836 -0.1803
 8158SOL    HW235937   4.645   2.356   9.132  0.0824 -0.5264  0.2450
 8159SOL     OW35938   0.913   1.778   8.851 -0.7638 -0.1439  0.0987
 8159SOL    HW135939   0.993   1.791   8.902 -0.3402 -1.7727 -0.1470
 8159SOL    HW235940   0.959   1.747   8.772  0.8452  2.8068 -0.1000
 8160SOL     OW35941   4.381   3.943   7.254 -0.8420 -0.2676 -0.0364
 8160SOL    HW135942   4.319   3.963   7.325  2.5166 -0.0257  2.8247
 8160SOL    HW235943   4.458   3.988   7.288  0.7114 -2.0478 -1.2827
 8161SOL     OW35944   3.177   0.958  12.889 -0.1125  0.7626  0.4688
 8161SOL    HW135945   3.131   1.025  12.838 -1.7554 -0.7777 -0.0639
 8161SOL    HW235946   3.198   0.898  12.818 -0.0998  1.1415  0.1485
 8162SOL     OW35947   0.565   4.275   7.316  0.0214 -0.1158 -0.0969
 8162SOL    HW135948   0.659   4.266   7.298  0.1857 -1.7285  1.5597
 8162SOL    HW235949   0.550   4.206   7.381  2.5178 -0.6548 -0.0707
 8163SOL     OW35950   1.779   3.325   7.655 -0.8262 -0.4680  0.1163
 8163SOL    HW135951   1.776   3.240   7.699  0.1931 -2.1297 -3.1074
 8163SOL    HW235952   1.693   3.364   7.673 -0.8964 -0.4703 -0.2174
 8164SOL     OW35953   1.611   0.967   5.433 -0.0294  0.1205  0.6076
 8164SOL    HW135954   1.672   1.036   5.408 -0.7981  0.5588 -0.0526
 8164SOL    HW235955   1.536   1.027   5.441 -0.9929 -1.0539  0.3459
 8165SOL     OW35956   3.939   1.496  10.950 -0.2867 -0.3592 -0.1525
 8165SOL    HW135957   3.845   1.481  10.940  0.0663 -0.4683 -3.5363
 8165SOL    HW235958   3.947   1.591  10.945 -0.6135 -0.2760  0.9767
 8166SOL     OW35959   4.633   3.394   1.911  0.5798  0.5691  0.2108
 8166SOL    HW135960   0.006   3.383   1.886  0.0947  0.0886 -1.3414
 8166SOL    HW235961   4.641   3.349   1.995 -1.9588 -1.1754 -0.4842
 8167SOL     OW35962   0.884   3.741  10.730 -0.3660  0.6343 -0.3331
 8167SOL    HW135963   0.963   3.695  10.759 -0.0466 -0.5051 -3.0746
 8167SOL    HW235964   0.827   3.712  10.802 -1.0824  1.6054 -0.5067
 8168SOL     OW35965   2.829   3.877   3.880  0.2901 -0.5256 -0.8471
 8168SOL    HW135966   2.748   3.885   3.829  0.4988  0.4580 -1.0125
 8168SOL    HW235967   2.897   3.902   3.817  1.3035 -3.5756 -0.9745
 8169SOL     OW35968   0.835   4.151   2.534 -0.1817  0.1169 -0.0180
 8169SOL    HW135969   0.891   4.075   2.521  0.5013  0.8298 -1.2699
 8169SOL    HW235970   0.788   4.163   2.451 -1.1240  1.4552  0.7167
 8170SOL     OW35971   2.659   1.417  13.135 -0.3906 -0.2569  0.6667
 8170SOL    HW135972   2.583   1.435  13.191  0.3278  1.8135  0.9719
 8170SOL    HW235973   2.708   1.499  13.139 -1.8641  0.7080 -0.7824
 8171SOL     OW35974   0.713   2.031   3.964 -0.2673  0.0095 -0.2999
 8171SOL    HW135975   0.742   1.966   3.900  0.5553 -1.5104  1.6395
 8171SOL    HW235976   0.795   2.073   3.988  0.6557 -1.2705 -1.2240
 8172SOL     OW35977   3.821   2.852   6.622  0.0048 -0.3970 -0.1661
 8172SOL    HW135978   3.729   2.827   6.636 -0.1323  1.3927  2.0978
 8172SOL    HW235979   3.856   2.786   6.682 -3.5679 -1.7136  0.4767
 8173SOL     OW35980   4.244   2.390   3.095  0.1155  0.2575  0.1170
 8173SOL    HW135981   4.208   2.469   3.055 -1.4795 -1.0622 -1.0740
 8173SOL    HW235982   4.260   2.340   3.015  2.4006 -0.2316  0.8776
 8174SOL     OW35983   0.882   3.208  12.656 -0.3015 -0.1052 -0.4596
 8174SOL    HW135984   0.941   3.264  12.605 -0.4143 -1.1522 -1.7434
 8174SOL    HW235985   0.851   3.279  12.713 -0.0172  0.5461 -1.1151
 8175SOL     OW35986   0.281   2.379  17.391  0.3035 -0.1012  0.1282
 8175SOL    HW135987   0.330   2.456  17.419 -0.3373 -0.3601  1.9991
 8175SOL    HW235988   0.288   2.416  17.304  2.2293  3.0001  1.6108
 8176SOL     OW35989   1.687   3.565  15.682 -0.4000 -0.8269  0.3175
 8176SOL    HW135990   1.674   3.654  15.650  2.3370 -0.8873 -0.9462
 8176SOL    HW235991   1.640   3.583  15.763  0.7385 -0.5218  0.9056
 8177SOL     OW35992   0.932   1.213   5.827 -0.1387 -0.0914  0.5318
 8177SOL    HW135993   0.959   1.305   5.825  0.5164 -0.2903  0.3256
 8177SOL    HW235994   0.953   1.198   5.919  2.2632 -0.4660 -0.0944
 8178SOL     OW35995   0.981   1.575  16.355 -0.1490  0.5381  0.2868
 8178SOL    HW135996   1.028   1.524  16.288 -0.2646 -1.3546  1.6462
 8178SOL    HW235997   0.975   1.663  16.318  0.2971 -0.6966 -2.7253
 8179SOL     OW35998   2.709   0.807   1.666 -0.0063 -0.0237 -0.4624
 8179SOL    HW135999   2.758   0.887   1.650  1.2636 -0.8125 -0.4880
 8179SOL    HW236000   2.783   0.749   1.685  0.9611  1.2093 -0.5174
 8180SOL     OW36001   1.063   2.158   7.538 -0.3062 -0.3346  0.1717
 8180SOL    HW136002   1.128   2.228   7.530 -0.0740 -0.4195  1.2529
 8180SOL    HW236003   1.043   2.129   7.450 -2.7906 -1.5116  1.1208
 8181SOL     OW36004   3.736   3.322   8.904 -0.2558  0.6708  0.5014
 8181SOL    HW136005   3.821   3.327   8.949 -0.8251 -1.9300  1.8226
 8181SOL    HW236006   3.688   3.401   8.927 -0.4407  0.2200  1.6679
 8182SOL     OW36007   3.376   3.588   8.875  0.2610  0.1167 -0.2628
 8182SOL    HW136008   3.291   3.550   8.856 -0.2546 -0.1378  2.5264
 8182SOL    HW236009   3.346   3.658   8.932 -2.8158 -0.4725 -1.1913
 8183SOL     OW36010   1.707   2.008   6.272 -0.7130  0.2091  0.2083
 8183SOL    HW136011   1.699   1.988   6.179 -1.8207  0.0480  0.3388
 8183SOL    HW236012   1.718   2.103   6.280 -0.6442  0.4715 -3.0793
 8184SOL     OW36013   1.110   0.399   7.406  0.4427  0.3935 -0.1961
 8184SOL    HW136014   1.077   0.444   7.328 -0.4100  0.5966  0.2844
 8184SOL    HW236015   1.204   0.407   7.389  0.2239 -1.0343 -2.1592
 8185SOL     OW36016   3.921   3.191  10.839  0.0683 -0.1262  0.0299
 8185SOL    HW136017   3.957   3.212  10.926  0.0607  2.3922 -0.5667
 8185SOL    HW236018   3.990   3.230  10.786  0.5548  0.4455  1.0719
 8186SOL     OW36019   3.033   3.899   3.658  0.1695 -0.5379  0.4440
 8186SOL    HW136020   3.006   3.877   3.569 -1.7643  1.6310  0.5208
 8186SOL    HW236021   3.118   3.930   3.626 -0.5548  0.0447 -0.8732
 8187SOL     OW36022   0.702   1.242  16.722 -0.1025  0.1286 -0.3254
 8187SOL    HW136023   0.772   1.285  16.674  0.4546  0.1219  0.4854
 8187SOL    HW236024   0.750   1.165  16.752 -1.2086 -0.4075  0.0896
 8188SOL     OW36025   3.318   0.568   2.358 -0.3549  0.2438  0.5942
 8188SOL    HW136026   3.349   0.632   2.422  2.3436 -2.3976  1.9547
 8188SOL    HW236027   3.268   0.504   2.409 -0.0923  0.9193  1.6975
 8189SOL     OW36028   3.599   4.595  15.392 -0.2228  0.1602  0.5407
 8189SOL    HW136029   3.558   4.585  15.478 -0.6883  1.3537  0.4504
 8189SOL    HW236030   3.688   4.566  15.412 -0.3452 -1.4833 -1.3255
 8190SOL     OW36031   4.606   0.627   8.260 -0.1478  0.7247 -0.0226
 8190SOL    HW136032   4.571   0.609   8.347 -2.3687  0.3713 -1.0018
 8190SOL    HW236033   4.697   0.606   8.281  0.3084  0.4540 -2.2748
 8191SOL     OW36034   1.247   0.680   3.601 -0.2620  0.3691 -1.0005
 8191SOL    HW136035   1.213   0.758   3.557 -1.6098 -0.2804 -1.1212
 8191SOL    HW236036   1.204   0.690   3.686  0.4187  0.5314 -0.6715
 8192SOL     OW36037   1.145   3.692  12.629 -0.0169 -0.0091  1.2138
 8192SOL    HW136038   1.052   3.699  12.607  0.5913 -0.0162 -1.3333
 8192SOL    HW236039   1.180   3.777  12.602  0.0119 -0.4863 -0.2525
 8193SOL     OW36040   1.798   0.158   6.021  0.5137 -0.4395  0.0599
 8193SOL    HW136041   1.790   0.065   5.998 -1.4420 -0.2116 -0.2155
 8193SOL    HW236042   1.763   0.161   6.110 -0.2332 -0.7002 -0.2229
 8194SOL     OW36043   0.747   0.845  14.227  0.1004  0.5341  0.1891
 8194SOL    HW136044   0.678   0.785  14.198  0.0267 -0.0757  1.6612
 8194SOL    HW236045   0.797   0.858  14.146  0.1975  2.3282  0.5489
 8195SOL     OW36046   1.201   2.269   8.226  0.0706  0.6383 -0.2346
 8195SOL    HW136047   1.292   2.240   8.218 -0.2382 -0.5084  0.3880
 8195SOL    HW236048   1.158   2.203   8.281  1.5955  0.0678  0.3067
 8196SOL     OW36049   2.085   0.153   7.801 -0.0432 -0.2669  0.0760
 8196SOL    HW136050   2.117   0.107   7.723  1.5417  1.3724 -0.2675
 8196SOL    HW236051   2.054   0.077   7.849  1.5078 -0.4668  0.7569
 8197SOL     OW36052   3.668   3.071  16.599  0.1821  0.3887 -0.5195
 8197SOL    HW136053   3.717   3.114  16.528 -1.1841  0.0213 -1.6764
 8197SOL    HW236054   3.625   2.997  16.555 -0.8120  0.4114  0.4125
 8198SOL     OW36055   3.485   1.078  10.454  0.4823  0.1675 -0.0902
 8198SOL    HW136056   3.560   1.062  10.397 -0.6236 -0.1680 -1.4460
 8198SOL    HW236057   3.415   1.040  10.402 -0.7471  0.4565  1.3466
 8199SOL     OW36058   3.405   1.682   3.550 -0.7790 -0.2342  0.1198
 8199SOL    HW136059   3.385   1.605   3.604 -0.0509 -0.8073 -0.4268
 8199SOL    HW236060   3.349   1.683   3.473 -0.6614  0.4218  0.0459
 8200SOL     OW36061   2.192   2.607   3.300 -0.2690 -0.9167 -0.6288
 8200SOL    HW136062   2.286   2.620   3.304 -0.2059 -1.4728 -0.3542
 8200SOL    HW236063   2.182   2.586   3.207 -2.5587  0.3687 -0.6811
 8201SOL     OW36064   2.444   1.039   9.315  0.3546  0.8534  1.0869
 8201SOL    HW136065   2.452   1.127   9.353  1.1914  0.7973  1.0417
 8201SOL    HW236066   2.360   1.040   9.270 -0.3026 -0.4868  2.3255
 8202SOL     OW36067   1.624   1.005  12.355  0.2667 -0.3993  0.2754
 8202SOL    HW136068   1.682   0.932  12.333  1.5429  0.1275  1.8911
 8202SOL    HW236069   1.561   1.002  12.284  1.3492  2.3847 -0.7873
 8203SOL     OW36070   4.652   0.727   9.186  0.5607  0.0472  0.6358
 8203SOL    HW136071   4.573   0.683   9.218 -0.4064  1.3127 -0.0290
 8203SOL    HW236072   0.010   0.688   9.230 -1.2018 -2.5975  1.3177
 8204SOL     OW36073   2.890   2.426  16.886 -0.1619  0.3925  0.3439
 8204SOL    HW136074   2.937   2.437  16.803  0.8627  1.4852  1.0562
 8204SOL    HW236075   2.811   2.479  16.872  0.4452  1.0995 -0.4263
 8205SOL     OW36076   1.569   1.957  11.434  0.2771  0.6769 -0.4810
 8205SOL    HW136077   1.575   2.006  11.352  0.9477 -0.3629 -1.0492
 8205SOL    HW236078   1.495   1.999  11.477 -0.0049 -0.5407  0.2319
 8206SOL     OW36079   0.697   0.372   4.672  0.1024  0.5471 -0.5045
 8206SOL    HW136080   0.670   0.455   4.711 -1.3607 -1.2125  2.2379
 8206SOL    HW236081   0.668   0.374   4.580  0.4159  2.5407 -0.5694
 8207SOL     OW36082   3.003   0.322   4.535  0.1148 -0.2250  0.2300
 8207SOL    HW136083   3.082   0.335   4.587  0.3742  1.1657 -0.5224
 8207SOL    HW236084   3.014   0.386   4.465  0.7623 -0.8385 -0.2300
 8208SOL     OW36085   2.065   1.129  14.439  0.0354  0.3509  0.4854
 8208SOL    HW136086   2.048   1.079  14.519 -0.6990 -1.0390 -0.5444
 8208SOL    HW236087   1.982   1.162  14.404  0.0829  1.9428  1.8658
 8209SOL     OW36088   1.046   1.802  11.827 -0.3612  0.2231 -0.0116
 8209SOL    HW136089   1.130   1.846  11.813 -0.9576  1.5854  0.7407
 8209SOL    HW236090   1.045   1.779  11.919  1.3270  0.9754  0.1891
 8210SOL     OW36091   4.688   2.346   7.506 -0.4423  0.3982 -0.1170
 8210SOL    HW136092   0.023   2.320   7.431  0.7018 -2.3015  1.6753
 8210SOL    HW236093   4.601   2.344   7.466 -1.9130 -1.8988  3.1976
 8211SOL     OW36094   4.455   0.328   8.738  0.3961  0.3242 -0.0652
 8211SOL    HW136095   4.403   0.387   8.793  0.3360  0.3284 -0.1272
 8211SOL    HW236096   4.460   0.251   8.795 -1.5976 -0.9056 -1.5725
 8212SOL     OW36097   4.019   2.262   3.205  0.1464  0.0560  0.1425
 8212SOL    HW136098   4.087   2.318   3.166  1.8586 -1.1320  1.3827
 8212SOL    HW236099   3.964   2.330   3.245  0.1244  0.9160 -1.3305
 8213SOL     OW36100   0.463   2.045  16.499  0.0496  0.6748  0.0671
 8213SOL    HW136101   0.532   2.077  16.557 -1.3304  0.2388  1.9571
 8213SOL    HW236102   0.502   2.031  16.412 -2.1754  2.6380 -1.2630
 8214SOL     OW36103   4.230   2.288   7.835 -0.6915  0.2571  0.1569
 8214SOL    HW136104   4.264   2.286   7.924  0.5608 -0.3246 -0.3332
 8214SOL    HW236105   4.314   2.288   7.788 -0.5350  1.0530  0.4357
 8215SOL     OW36106   1.708   0.927  17.205 -0.8693 -0.5637 -0.4002
 8215SOL    HW136107   1.798   0.911  17.231  0.5855  2.1637 -3.6813
 8215SOL    HW236108   1.697   1.023  17.206 -1.4318 -0.6472  1.8135
 8216SOL     OW36109   4.583   0.002   9.154  0.0582  0.0704  0.2231
 8216SOL    HW136110   4.527   0.028   9.228  0.5972 -0.7502  0.9136
 8216SOL    HW236111   4.540   4.636   9.135 -2.0886  1.1792  0.1720
 8217SOL     OW36112   3.379   2.986   3.126 -0.0138  0.5613  0.2608
 8217SOL    HW136113   3.357   2.897   3.154  0.2312  0.9500  1.6740
 8217SOL    HW236114   3.473   3.000   3.138  0.0508  0.1604  0.2032
 8218SOL     OW36115   2.290   3.537   8.982 -0.1004 -0.0393 -0.0598
 8218SOL    HW136116   2.359   3.479   8.951 -1.3925 -1.6969  0.1772
 8218SOL    HW236117   2.217   3.491   8.942 -0.6138  1.1804 -0.5345
 8219SOL     OW36118   2.294   4.287   8.064  0.4926  0.5114  0.5603
 8219SOL    HW136119   2.292   4.275   8.158  0.3661 -0.1044  0.4782
 8219SOL    HW236120   2.379   4.247   8.042 -0.7253 -1.9431  0.2994
 8220SOL     OW36121   3.127   0.840   1.773  0.0301  0.1293 -0.5797
 8220SOL    HW136122   3.209   0.888   1.779 -0.1901  0.4811 -0.3908
 8220SOL    HW236123   3.057   0.906   1.774  2.2988  2.5160 -0.0647
 8221SOL     OW36124   4.275   1.321  10.471  0.2293 -0.3936  0.5473
 8221SOL    HW136125   4.326   1.373  10.533  2.7113 -3.8130  1.3721
 8221SOL    HW236126   4.257   1.246  10.527 -0.6580 -0.2896  0.4139
 8222SOL     OW36127   1.323   1.449   3.596 -0.3127 -0.2516 -0.3645
 8222SOL    HW136128   1.336   1.544   3.590  0.6270 -0.2961  1.0042
 8222SOL    HW236129   1.269   1.426   3.521 -0.0905 -0.9881 -0.2948
 8223SOL     OW36130   4.665   2.547   1.890  0.0823  0.1576 -0.2433
 8223SOL    HW136131   4.673   2.538   1.796 -0.1467  1.4341 -0.3808
 8223SOL    HW236132   4.657   2.459   1.929  1.5029  0.9215  1.7560
 8224SOL     OW36133   1.290   4.330   8.049  0.0228  0.4096 -0.1073
 8224SOL    HW136134   1.338   4.342   7.967  1.0352 -2.5442  0.0483
 8224SOL    HW236135   1.220   4.270   8.025  2.4477 -0.9861 -3.5930
 8225SOL     OW36136   3.001   4.123   8.116  0.0901  0.5151  0.3893
 8225SOL    HW136137   2.991   4.048   8.057 -0.5564 -0.2591  1.4939
 8225SOL    HW236138   3.095   4.118   8.135  0.4557 -1.6678 -1.9913
 8226SOL     OW36139   0.535   0.490   9.580 -0.7066 -0.2288  0.0596
 8226SOL    HW136140   0.479   0.414   9.565  1.1139 -1.0975 -2.5560
 8226SOL    HW236141   0.488   0.554   9.527 -3.0979 -1.6569  0.4606
 8227SOL     OW36142   0.032   2.710  13.256  0.4937  0.1439 -0.2954
 8227SOL    HW136143   0.032   2.692  13.350  0.9561 -3.3154 -0.9781
 8227SOL    HW236144   0.075   2.630  13.227 -0.6869 -0.9073  0.8362
 8228SOL     OW36145   0.020   3.961   4.530 -0.2679 -0.4548 -0.1487
 8228SOL    HW136146   0.110   3.993   4.525 -0.0307 -0.7630  2.2055
 8228SOL    HW236147   0.034   3.913   4.612 -0.5553 -0.0796  0.1184
 8229SOL     OW36148   1.648   0.514   1.030  0.2730  0.2938 -0.1981
 8229SOL    HW136149   1.631   0.593   1.080 -0.9438  0.3155 -0.6546
 8229SOL    HW236150   1.568   0.463   1.042  2.3612 -2.0793  3.7424
 8230SOL     OW36151   2.447   4.322   3.226 -0.3929 -0.4364 -0.1810
 8230SOL    HW136152   2.533   4.339   3.187 -0.8530  1.2461 -0.4556
 8230SOL    HW236153   2.431   4.231   3.200 -0.9755 -0.8366  1.6145
 8231SOL     OW36154   2.846   3.480  10.030  0.6361 -0.2255  0.4520
 8231SOL    HW136155   2.940   3.477  10.048  0.9533  3.5844 -0.5186
 8231SOL    HW236156   2.810   3.449  10.112  0.3928 -0.5418  0.2270
 8232SOL     OW36157   2.840   1.502   8.422  0.2431  0.7503  0.5761
 8232SOL    HW136158   2.755   1.485   8.462 -1.2757  1.4366 -2.3654
 8232SOL    HW236159   2.898   1.441   8.468 -1.0616 -0.3055  0.8027
 8233SOL     OW36160   0.314   0.262   7.310 -0.4837  0.5166  0.2999
 8233SOL    HW136161   0.400   0.303   7.317 -0.2399 -0.3684  2.4489
 8233SOL    HW236162   0.329   0.183   7.363  0.7071  0.3902 -0.2244
 8234SOL     OW36163   1.624   0.036   6.895 -0.5448 -0.5851 -0.0338
 8234SOL    HW136164   1.563   0.092   6.944 -0.9950 -1.2358  0.1480
 8234SOL    HW236165   1.713   0.058   6.922 -0.3948 -0.0615 -0.9624
 8235SOL     OW36166   2.757   4.321   6.788 -0.2629  0.1558 -0.0988
 8235SOL    HW136167   2.674   4.285   6.756  0.2507 -0.6121 -0.5678
 8235SOL    HW236168   2.811   4.271   6.726 -0.9567 -0.8612  0.1070
 8236SOL     OW36169   2.343   0.476   6.271 -0.1109  0.0435 -0.4231
 8236SOL    HW136170   2.414   0.476   6.207  0.2722 -3.5324  0.0100
 8236SOL    HW236171   2.354   0.387   6.304  2.7696  1.1578  1.6562
 8237SOL     OW36172   0.435   3.746  12.076  0.0822  0.1310 -0.7173
 8237SOL    HW136173   0.517   3.730  12.029  2.2503  1.1772  2.7499
 8237SOL    HW236174   0.424   3.662  12.121 -1.7804  0.0526 -1.3431
 8238SOL     OW36175   3.041   0.110  16.167  0.7668 -0.5316  0.2712
 8238SOL    HW136176   3.039   0.201  16.137 -0.9245 -1.1235 -1.3976
 8238SOL    HW236177   3.041   0.071  16.080 -1.9706  3.6440 -1.6408
 8239SOL     OW36178   1.186   1.004  16.593 -0.3154 -0.2695 -0.2349
 8239SOL    HW136179   1.202   1.049  16.510 -1.9195  1.7022  0.5230
 8239SOL    HW236180   1.090   0.998  16.590 -0.2620 -1.1906 -0.1006
 8240SOL     OW36181   4.477   3.361   7.927  0.2830 -0.1500 -0.5195
 8240SOL    HW136182   4.419   3.435   7.910 -1.0824 -0.3086  3.2492
 8240SOL    HW236183   4.557   3.391   7.885 -0.0601  0.6550 -0.5917
 8241SOL     OW36184   3.813   3.691  16.662  0.2183  0.5842  0.5454
 8241SOL    HW136185   3.805   3.603  16.699  1.0393  0.7538  1.1373
 8241SOL    HW236186   3.733   3.694  16.610  0.3125 -0.8992  0.3090
 8242SOL     OW36187   0.350   3.016   7.792 -0.1081 -0.2506  0.4069
 8242SOL    HW136188   0.265   2.979   7.815 -1.4345  3.4711  1.5155
 8242SOL    HW236189   0.331   3.110   7.787 -1.6024 -0.5178  1.1429
 8243SOL     OW36190   3.208   2.600   5.558  0.0158  0.1133  0.1085
 8243SOL    HW136191   3.125   2.642   5.535 -1.1326 -0.1252  3.9257
 8243SOL    HW236192   3.211   2.527   5.496 -0.2337 -0.5341  0.8631
 8244SOL     OW36193   1.258   3.581   1.777  0.5330  0.0152  0.2624
 8244SOL    HW136194   1.350   3.577   1.751  0.4705 -0.8786  0.1687
 8244SOL    HW236195   1.243   3.487   1.787 -0.1683 -0.0629 -1.4816
 8245SOL     OW36196   2.900   3.084   7.526 -0.0338 -0.6857  0.1748
 8245SOL    HW136197   2.877   3.015   7.588  0.1843  1.0616  2.1636
 8245SOL    HW236198   2.989   3.106   7.554 -0.3564 -0.9748  1.4255
 8246SOL     OW36199   2.690   4.143   7.494 -0.0951 -0.0424 -0.9186
 8246SOL    HW136200   2.745   4.085   7.440 -1.5345 -3.2859  1.1315
 8246SOL    HW236201   2.748   4.218   7.508  0.9173 -1.1132  0.5605
 8247SOL     OW36202   0.385   1.659  17.391 -0.3103  0.1661  0.2257
 8247SOL    HW136203   0.375   1.752  17.374 -0.5063 -0.0146 -0.6091
 8247SOL    HW236204   0.467   1.665  17.442 -0.7527  0.2274  0.9366
 8248SOL     OW36205   3.303   4.129  16.350 -0.2238  1.1803  0.2038
 8248SOL    HW136206   3.219   4.096  16.381 -0.0666  0.8665  0.2968
 8248SOL    HW236207   3.357   4.146  16.427 -0.2875 -1.1758  0.7628
 8249SOL     OW36208   3.492   4.622   5.366 -0.1275 -0.3636 -0.0780
 8249SOL    HW136209   3.418   4.653   5.419 -0.0945 -0.0251 -0.2331
 8249SOL    HW236210   3.452   4.606   5.281  1.7427 -0.8780 -0.8477
 8250SOL     OW36211   3.932   0.838   4.819  0.1898  0.3577 -0.4050
 8250SOL    HW136212   3.985   0.867   4.744  0.5691 -1.8132 -0.9653
 8250SOL    HW236213   3.994   0.850   4.891 -1.2820  1.2693  0.7127
 8251SOL     OW36214   3.512   1.544   2.298 -0.0642  0.0933  0.1985
 8251SOL    HW136215   3.502   1.458   2.337 -0.1243  0.4196  0.8876
 8251SOL    HW236216   3.495   1.532   2.204 -1.5386 -1.3555  0.6589
 8252SOL     OW36217   2.779   4.432   2.765 -0.0549  0.4567  0.2690
 8252SOL    HW136218   2.760   4.526   2.761 -0.9824  0.1165 -3.7959
 8252SOL    HW236219   2.711   4.407   2.702 -1.7626  0.2061  2.1825
 8253SOL     OW36220   2.226   3.052   6.855 -0.5941  0.4614  0.4383
 8253SOL    HW136221   2.136   3.027   6.879 -1.5135  1.0072 -2.4678
 8253SOL    HW236222   2.276   2.999   6.918 -1.7959 -4.7940 -3.0078
 8254SOL     OW36223   3.133   0.351   5.607 -0.2909  0.2430 -0.2601
 8254SOL    HW136224   3.100   0.273   5.653  2.6241 -1.8225 -1.6734
 8254SOL    HW236225   3.053   0.404   5.599 -0.1941  0.2896 -0.9022
 8255SOL     OW36226   1.574   0.886   7.282  0.2441  0.2976 -0.3722
 8255SOL    HW136227   1.651   0.921   7.328 -0.4253  0.7958  0.3615
 8255SOL    HW236228   1.530   0.965   7.253 -0.3243  1.3054  3.2973
 8256SOL     OW36229   4.136   1.794   7.518 -0.1745  0.6234  0.5200
 8256SOL    HW136230   4.124   1.878   7.563  0.9721  0.0003  1.9776
 8256SOL    HW236231   4.219   1.808   7.472 -0.3341 -0.7574 -0.1824
 8257SOL     OW36232   4.518   1.975  12.036 -0.1507 -0.4473 -0.4487
 8257SOL    HW136233   4.517   1.971  11.940  0.0461 -1.2655 -0.4154
 8257SOL    HW236234   4.436   2.022  12.053  0.0780  0.0913 -0.8147
 8258SOL     OW36235   3.538   3.639   7.132 -0.5587  0.4255 -0.3914
 8258SOL    HW136236   3.495   3.568   7.180  1.9223 -0.1930  0.9143
 8258SOL    HW236237   3.565   3.592   7.053 -1.0659  0.9719 -0.8945
 8259SOL     OW36238   0.173   3.021  11.743 -0.8095 -0.8833 -0.4316
 8259SOL    HW136239   0.190   3.088  11.810  0.2018 -0.7344 -0.8310
 8259SOL    HW236240   0.081   3.043  11.727 -0.2761  1.2007 -0.6243
 8260SOL     OW36241   4.607   2.177   4.768 -0.0308  0.4162  0.7277
 8260SOL    HW136242   4.525   2.223   4.753  1.1835  2.4401  0.2861
 8260SOL    HW236243   4.606   2.171   4.863  0.3667  1.2714  0.7840
 8261SOL     OW36244   4.217   2.049  11.527 -0.1038 -0.2124 -0.2392
 8261SOL    HW136245   4.129   2.022  11.501 -0.0119 -0.9665  0.2242
 8261SOL    HW236246   4.207   2.144  11.535 -2.9304 -0.6376  1.3240
 8262SOL     OW36247   2.607   1.164   9.605  0.2238 -0.4764 -0.2921
 8262SOL    HW136248   2.527   1.119   9.635 -0.4436 -1.0787 -3.0226
 8262SOL    HW236249   2.620   1.218   9.683 -3.1477 -0.4567  0.2555
 8263SOL     OW36250   0.229   1.032   9.339 -0.7264  0.0034 -0.2651
 8263SOL    HW136251   0.138   1.018   9.365 -0.8479 -0.3299 -0.8727
 8263SOL    HW236252   0.219   1.061   9.249 -0.6524  0.0521 -0.2575
 8264SOL     OW36253   2.342   3.480   3.454  0.2546 -0.1525 -0.3214
 8264SOL    HW136254   2.336   3.406   3.514 -2.4790  0.2341 -0.1231
 8264SOL    HW236255   2.259   3.525   3.466  1.6960  2.2797  0.6189
 8265SOL     OW36256   1.562   0.763   2.476 -0.8057  0.1196  0.1520
 8265SOL    HW136257   1.512   0.681   2.474  0.8965 -0.9240  0.7081
 8265SOL    HW236258   1.547   0.786   2.384 -2.9512 -2.5980 -0.2202
 8266SOL     OW36259   1.237   1.991  11.309 -0.1496  0.7044  0.0711
 8266SOL    HW136260   1.169   1.952  11.363 -0.2588 -0.2163 -0.7419
 8266SOL    HW236261   1.292   2.011  11.385 -1.0154 -1.2990  1.2197
 8267SOL     OW36262   2.891   0.843  10.291 -0.3563 -0.0917 -0.1869
 8267SOL    HW136263   2.912   0.934  10.273  2.5615 -0.4349  1.5386
 8267SOL    HW236264   2.887   0.806  10.202  1.5343 -0.1157 -0.2576
 8268SOL     OW36265   1.959   3.600   4.688 -0.1459 -0.2972 -0.3241
 8268SOL    HW136266   1.990   3.586   4.599  1.3485  0.3239  0.0913
 8268SOL    HW236267   1.878   3.549   4.693 -0.8257  0.9829  1.6569
 8269SOL     OW36268   3.057   2.175   6.022  0.2082  0.5325  0.4169
 8269SOL    HW136269   3.017   2.218   6.098 -1.1505 -0.8561  0.4907
 8269SOL    HW236270   3.001   2.219   5.958 -0.0448  0.0557  0.3120
 8270SOL     OW36271   1.692   1.684   0.812 -0.1428  0.2649 -0.1991
 8270SOL    HW136272   1.681   1.773   0.779  0.0983  1.7087  3.5669
 8270SOL    HW236273   1.635   1.644   0.746  0.3002 -0.5566 -0.0767
 8271SOL     OW36274   0.767   4.234   2.280  0.2419 -0.1051  0.3864
 8271SOL    HW136275   0.739   4.210   2.192  0.9087 -1.4793  0.5488
 8271SOL    HW236276   0.826   4.305   2.257  3.1572 -2.3482  0.8667
 8272SOL     OW36277   3.121   1.160   9.553  0.0879 -0.4496 -0.4645
 8272SOL    HW136278   3.049   1.128   9.608  1.5110  0.4452  1.9234
 8272SOL    HW236279   3.077   1.197   9.476 -0.5909  0.8618  0.5567
 8273SOL     OW36280   0.421   2.669   0.006  0.1254 -0.7857  0.1215
 8273SOL    HW136281   0.478   2.595  17.661 -0.2332 -0.8576 -0.6097
 8273SOL    HW236282   0.348   2.642  17.626  0.8685  1.4262 -1.9391
 8274SOL     OW36283   2.379   4.249   5.340  0.3702  0.1780 -0.1682
 8274SOL    HW136284   2.417   4.188   5.277 -0.2767  0.2306 -0.6139
 8274SOL    HW236285   2.452   4.294   5.382 -0.6958  0.3583  1.4738
 8275SOL     OW36286   1.836   3.589   5.752  0.1183  0.2599  0.3095
 8275SOL    HW136287   1.908   3.607   5.692 -1.2309  1.3043 -0.9734
 8275SOL    HW236288   1.778   3.534   5.700  0.5692  1.5066 -1.4811
 8276SOL     OW36289   0.643   1.131   4.601 -0.1426 -0.1750  0.0653
 8276SOL    HW136290   0.552   1.152   4.580  0.4919  1.9262 -0.5598
 8276SOL    HW236291   0.685   1.201   4.551  0.8608 -0.7153  0.1616
 8277SOL     OW36292   0.287   1.311   4.286  0.3637 -0.2227 -0.4573
 8277SOL    HW136293   0.196   1.283   4.299  1.4164 -3.1155  0.7052
 8277SOL    HW236294   0.327   1.235   4.328  1.4472  0.6389  0.0890
 8278SOL     OW36295   3.730   1.604   6.255  0.3829 -0.6363  0.0581
 8278SOL    HW136296   3.705   1.644   6.172 -1.7532 -3.3460 -0.5936
 8278SOL    HW236297   3.820   1.577   6.234  0.0246 -2.5523  1.0462
 8279SOL     OW36298   3.743   0.551  16.990  0.6605 -0.2273  0.0668
 8279SOL    HW136299   3.806   0.526  16.922  0.0379  0.3429 -0.7164
 8279SOL    HW236300   3.768   0.640  17.017  2.3038 -0.3496 -1.0329
 8280SOL     OW36301   1.920   2.763   8.916  0.0620  0.3517  0.3830
 8280SOL    HW136302   1.923   2.723   9.003 -0.8572 -0.3001  0.1102
 8280SOL    HW236303   2.006   2.736   8.883  0.4804  1.2917  0.7005
 8281SOL     OW36304   0.700   3.518  12.547  0.1392  0.1476 -0.5774
 8281SOL    HW136305   0.662   3.502  12.633  0.9240  0.4742 -0.1669
 8281SOL    HW236306   0.620   3.537  12.498  0.5692  3.1705 -0.0826
 8282SOL     OW36307   4.233   0.656   7.194  0.0826  0.2629  0.2963
 8282SOL    HW136308   4.144   0.644   7.161 -0.0800  3.6799 -0.4570
 8282SOL    HW236309   4.254   0.738   7.151  1.3921 -0.5505 -0.6115
 8283SOL     OW36310   3.918   4.596   7.752  0.0489  0.4219  0.7732
 8283SOL    HW136311   3.905   4.592   7.847  2.5951  2.0642  1.1857
 8283SOL    HW236312   4.009   4.619   7.735  0.9898 -3.1107  1.1596
 8284SOL     OW36313   1.692   3.911   4.375  0.5867  0.4081  0.6547
 8284SOL    HW136314   1.694   3.905   4.471  1.4288 -1.6464  0.5267
 8284SOL    HW236315   1.749   3.839   4.346 -0.5742  1.5607 -4.4610
 8285SOL     OW36316   1.872   0.024   4.698  0.2473  0.2587  0.6142
 8285SOL    HW136317   1.823   0.097   4.734 -2.7085 -0.9298 -0.9703
 8285SOL    HW236318   1.831   4.671   4.748  1.9997 -0.6961  0.6928
 8286SOL     OW36319   2.676   2.740   8.076 -0.3231 -0.3713 -0.1298
 8286SOL    HW136320   2.595   2.696   8.049 -1.7297  1.2784  1.4223
 8286SOL    HW236321   2.729   2.662   8.093 -0.2539 -0.5812 -1.3029
 8287SOL     OW36322   1.391   3.591   1.084 -0.1626 -0.5535 -0.3531
 8287SOL    HW136323   1.410   3.577   0.992 -0.6183  3.5476 -1.0648
 8287SOL    HW236324   1.295   3.595   1.079 -0.0255 -0.3645 -2.7816
 8288SOL     OW36325   1.550   3.415  14.762  0.4054  0.3210 -0.2096
 8288SOL    HW136326   1.488   3.355  14.804 -0.0675  0.3901 -0.8051
 8288SOL    HW236327   1.524   3.499  14.798 -0.1182  0.3534 -0.6622
 8289SOL     OW36328   0.307   2.472   4.872 -0.1549  0.1574  0.0636
 8289SOL    HW136329   0.400   2.465   4.892  0.4747  0.3607 -2.9004
 8289SOL    HW236330   0.314   2.472   4.777  1.1277  1.2911  0.1671
 8290SOL     OW36331   0.222   2.635  14.799 -0.3218 -0.2955  0.3015
 8290SOL    HW136332   0.150   2.650  14.737 -1.9822 -0.6418  2.1518
 8290SOL    HW236333   0.263   2.558  14.761  0.3733  0.6470 -0.8566
 8291SOL     OW36334   2.919   1.194   2.411  0.0240  0.5509  0.3584
 8291SOL    HW136335   2.828   1.167   2.403  0.6076 -1.3689  0.2962
 8291SOL    HW236336   2.965   1.159   2.335  2.8728  0.9075  1.8818
 8292SOL     OW36337   3.531   4.148   5.764  1.0387  0.5480  0.2536
 8292SOL    HW136338   3.510   4.168   5.672 -1.2257  1.4512  0.9730
 8292SOL    HW236339   3.625   4.156   5.753  0.9355  0.6501 -0.6012
 8293SOL     OW36340   0.913   2.401   5.084  0.2113  0.6439 -0.3775
 8293SOL    HW136341   0.867   2.330   5.128  2.2174 -0.7627 -0.5240
 8293SOL    HW236342   0.869   2.412   4.999 -1.3602 -1.5939  0.1386
 8294SOL     OW36343   1.553   2.134  11.210 -0.9410  0.2990 -0.4384
 8294SOL    HW136344   1.515   2.216  11.242  0.6799  1.0375 -0.4002
 8294SOL    HW236345   1.586   2.158  11.123 -1.1847 -2.1494 -1.2142
 8295SOL     OW36346   3.553   0.745   5.092 -0.4995 -0.3938  0.2102
 8295SOL    HW136347   3.517   0.667   5.137  0.7829 -1.8573 -1.3113
 8295SOL    HW236348   3.645   0.743   5.116 -0.8577  2.1847  1.8091
 8296SOL     OW36349   2.410   2.090   9.073  0.7491 -0.2920 -0.5695
 8296SOL    HW136350   2.488   2.076   9.127  0.8827  1.6298 -0.2368
 8296SOL    HW236351   2.415   2.185   9.056 -1.5375 -0.0439  0.1796
 8297SOL     OW36352   2.006   4.625   6.164 -0.2463 -0.1774 -0.9109
 8297SOL    HW136353   2.006   4.652   6.072  0.2064  1.1309 -0.5341
 8297SOL    HW236354   2.010   4.530   6.153 -1.2927 -0.3586  0.2868
 8298SOL     OW36355   1.070   1.426   4.496  0.4008  0.3819  0.0879
 8298SOL    HW136356   1.092   1.432   4.589  0.4188 -0.1523  0.1173
 8298SOL    HW236357   1.028   1.511   4.486 -2.7104 -1.1473  0.0482
 8299SOL     OW36358   2.980   2.117   5.330 -0.6702 -0.1111  0.2322
 8299SOL    HW136359   3.060   2.120   5.382 -0.8808  1.3607  0.4510
 8299SOL    HW236360   2.945   2.202   5.355  1.1231  1.2842 -2.0636
 8300SOL     OW36361   4.667   3.044  16.408  0.3455 -0.3529  0.5960
 8300SOL    HW136362   4.702   2.959  16.380 -0.0825 -0.0124 -0.9715
 8300SOL    HW236363   4.642   3.088  16.327  2.7146 -0.4236 -0.1545
 8301SOL     OW36364   2.578   4.029   9.540  0.1376 -0.2043 -0.0290
 8301SOL    HW136365   2.645   4.022   9.608 -1.1634  0.5144  1.3359
 8301SOL    HW236366   2.642   4.012   9.471  1.7471  0.8748  1.1838
 8302SOL     OW36367   2.104   1.038   4.452  0.1139  0.0458 -0.4510
 8302SOL    HW136368   2.140   1.077   4.373  1.1880  2.9036  1.4282
 8302SOL    HW236369   2.162   1.062   4.525 -1.4096  1.8124  0.1902
 8303SOL     OW36370   1.312   3.248  14.849  0.2847  0.2272  1.0833
 8303SOL    HW136371   1.269   3.170  14.884  1.1207  0.0211  1.6419
 8303SOL    HW236372   1.369   3.277  14.920 -0.5108 -1.5374  2.4357
 8304SOL     OW36373   3.539   2.324   8.793 -0.1007 -0.3851 -0.8116
 8304SOL    HW136374   3.528   2.409   8.750  0.9304 -0.6453 -1.6058
 8304SOL    HW236375   3.487   2.321   8.873 -0.7848 -1.0573 -1.2917
 8305SOL     OW36376   2.198   1.158   3.279 -0.7182  0.2594 -0.5290
 8305SOL    HW136377   2.278   1.136   3.326 -1.6537  0.5893  1.1988
 8305SOL    HW236378   2.226   1.197   3.196 -1.3884  1.3462 -0.2561
 8306SOL     OW36379   4.605   0.301  11.025 -0.2895 -0.0514  0.0697
 8306SOL    HW136380   4.694   0.268  11.011 -0.4996  0.9843 -3.5184
 8306SOL    HW236381   4.624   0.394  11.033 -1.2328  0.2401 -1.3025
 8307SOL     OW36382   0.826   4.624   6.407 -0.1770  0.1486 -0.3438
 8307SOL    HW136383   0.921   4.634   6.402 -0.1309  0.6470  1.4450
 8307SOL    HW236384   0.809   4.552   6.346 -0.1965 -0.2183  0.1031
 8308SOL     OW36385   1.887   4.351   7.794  0.3339  0.4347 -0.1718
 8308SOL    HW136386   1.963   4.389   7.749  1.7166 -1.5238  0.5104
 8308SOL    HW236387   1.926   4.294   7.860 -0.9432 -0.5600 -0.2790
 8309SOL     OW36388   0.820   4.201  12.066 -0.2611 -0.3525  0.4665
 8309SOL    HW136389   0.786   4.282  12.028  0.5954 -0.3769 -0.3356
 8309SOL    HW236390   0.801   4.229  12.155  0.1011  0.8110  0.1816
 8310SOL     OW36391   1.650   4.629  13.832 -0.1657  0.3726 -0.4142
 8310SOL    HW136392   1.693   4.552  13.795  0.5701  0.5772  0.0059
 8310SOL    HW236393   1.721   4.663  13.887 -1.0469 -0.7577  1.4498
 8311SOL     OW36394   4.359   1.645  13.125 -0.2568 -0.3335 -0.0502
 8311SOL    HW136395   4.450   1.625  13.146 -0.0752  2.6024  1.8913
 8311SOL    HW236396   4.317   1.616  13.206 -1.3889  1.5594  0.0403
 8312SOL     OW36397   0.800   3.618   9.670  0.0520 -0.5889  0.0851
 8312SOL    HW136398   0.859   3.641   9.598 -0.2806 -0.4954 -0.1563
 8312SOL    HW236399   0.867   3.603   9.737 -0.2307  2.4961  1.0690
 8313SOL     OW36400   3.886   0.171   3.302  0.2772 -0.0739  0.7204
 8313SOL    HW136401   3.928   0.140   3.383 -0.0853 -0.7805  0.6359
 8313SOL    HW236402   3.957   0.233   3.285 -1.9263  2.1832 -0.2310
 8314SOL     OW36403   3.023   1.218  13.037  0.1548  0.4894 -0.2263
 8314SOL    HW136404   3.007   1.312  13.044 -1.3221  0.2959 -1.1459
 8314SOL    HW236405   3.021   1.203  12.942 -1.8199  2.1409 -0.4290
 8315SOL     OW36406   2.789   3.830   8.439 -0.0172  0.0990 -0.1348
 8315SOL    HW136407   2.833   3.745   8.436 -0.8994 -0.4013  1.0549
 8315SOL    HW236408   2.809   3.872   8.356  0.2654  0.6340  0.2038
 8316SOL     OW36409   3.173   0.756   6.399  0.5346 -0.4905 -0.1156
 8316SOL    HW136410   3.145   0.813   6.471  1.9067 -1.5721  1.2941
 8316SOL    HW236411   3.239   0.815   6.361 -0.5488  0.3630 -0.6466
 8317SOL     OW36412   3.603   1.142   9.674 -0.7016  0.0734 -0.0769
 8317SOL    HW136413   3.515   1.124   9.708 -1.2485  0.1996 -1.4397
 8317SOL    HW236414   3.575   1.210   9.613  1.7590  1.8762  0.7983
 8318SOL     OW36415   1.894   1.949   6.959 -0.4841 -1.0271  0.3936
 8318SOL    HW136416   1.820   1.891   6.980 -0.4985 -0.7842  1.0120
 8318SOL    HW236417   1.961   1.885   6.984 -1.0664 -1.4253  0.9396
 8319SOL     OW36418   2.673   3.521   2.726  0.6940  0.1066  0.5009
 8319SOL    HW136419   2.705   3.440   2.686 -1.0354  0.7661 -2.2609
 8319SOL    HW236420   2.693   3.499   2.817 -0.7830 -0.8707  0.5983
 8320SOL     OW36421   0.458   2.772  17.067 -0.1600 -0.2313 -0.2652
 8320SOL    HW136422   0.505   2.856  17.070  2.0648 -1.4354 -1.4079
 8320SOL    HW236423   0.481   2.736  16.981  1.3394  2.9411 -1.2068
 8321SOL     OW36424   4.240   0.494   5.438 -0.3532  0.2038  0.5570
 8321SOL    HW136425   4.244   0.532   5.350  0.0041 -0.4939  0.2723
 8321SOL    HW236426   4.314   0.433   5.435 -1.3309 -0.9031 -1.3890
 8322SOL     OW36427   0.550   1.848   3.359 -0.0681  0.2739 -0.4822
 8322SOL    HW136428   0.558   1.771   3.415 -0.3788 -0.6217 -1.6738
 8322SOL    HW236429   0.530   1.815   3.271 -3.2020 -0.6848  0.5709
 8323SOL     OW36430   3.107   2.178   2.561  0.1008 -0.3682 -0.0048
 8323SOL    HW136431   3.097   2.093   2.605 -1.8492 -1.2700 -2.2027
 8323SOL    HW236432   3.033   2.160   2.503 -0.6579  0.6764  0.6449
 8324SOL     OW36433   0.355   2.027   2.575 -0.1413  0.1466 -0.1385
 8324SOL    HW136434   0.398   2.109   2.598 -2.3449  1.1230  0.4772
 8324SOL    HW236435   0.414   1.984   2.513  1.3359 -1.1167  2.1780
 8325SOL     OW36436   4.021   3.764   8.963 -0.1536 -0.6035  0.1559
 8325SOL    HW136437   4.081   3.809   9.022 -1.8482  3.2502 -1.0652
 8325SOL    HW236438   3.938   3.797   8.998  0.1851  0.7925 -0.3682
 8326SOL     OW36439   3.151   3.331   4.890 -0.0293  0.1497  0.3957
 8326SOL    HW136440   3.153   3.411   4.839 -3.4655 -1.0897 -1.6777
 8326SOL    HW236441   3.137   3.273   4.816  0.1383 -0.6143  0.9540
 8327SOL     OW36442   2.559   3.895   4.835  0.4145 -0.5290  0.2526
 8327SOL    HW136443   2.485   3.899   4.895 -0.0031 -0.9081 -0.2326
 8327SOL    HW236444   2.518   3.855   4.758  2.5238 -1.3288 -0.4445
 8328SOL     OW36445   2.885   4.711   9.852 -0.3410 -0.0167 -0.3285
 8328SOL    HW136446   2.852   4.637   9.802 -0.5105 -1.2928  1.6789
 8328SOL    HW236447   2.814   0.001   9.916  0.4378 -3.5175  0.9712
 8329SOL     OW36448   3.186   0.885   5.491 -0.4700  0.3218 -0.2264
 8329SOL    HW136449   3.106   0.873   5.543  1.3553  0.3066  2.5501
 8329SOL    HW236450   3.152   0.955   5.435 -1.1616  0.9062  0.9212
 8330SOL     OW36451   3.472   0.534  17.658  0.4866  0.4739 -0.4843
 8330SOL    HW136452   3.490   0.549  17.565 -2.3584  2.6391 -0.6733
 8330SOL    HW236453   3.533   0.597   0.020 -2.9199  2.1097  2.2230
 8331SOL     OW36454   2.073   1.544   4.839 -0.2193 -0.8036  0.3896
 8331SOL    HW136455   1.990   1.525   4.884 -1.0102 -2.3845 -1.7494
 8331SOL    HW236456   2.127   1.467   4.857  1.2863 -0.3864 -2.3567
 8332SOL     OW36457   1.323   1.660   7.484 -0.6105 -0.2906  0.6072
 8332SOL    HW136458   1.415   1.659   7.456 -1.1215  2.0076 -1.2027
 8332SOL    HW236459   1.290   1.736   7.435 -2.7224 -0.0480  2.4407
 8333SOL     OW36460   2.072   1.685   1.507 -0.5892 -0.1971 -0.1751
 8333SOL    HW136461   2.054   1.748   1.437  1.2634  0.2218 -0.2709
 8333SOL    HW236462   1.989   1.649   1.539  0.4019 -0.8903  1.6028
 8334SOL     OW36463   0.959   0.201  11.905 -0.4477 -0.2536 -0.1989
 8334SOL    HW136464   0.990   0.158  11.825  0.7268 -1.2660  0.7968
 8334SOL    HW236465   1.010   0.282  11.904 -0.1652 -0.4677 -1.8060
 8335SOL     OW36466   0.167   3.072   0.086  0.0063 -0.0959 -0.6923
 8335SOL    HW136467   0.179   3.167   0.092 -0.8997 -0.1689  2.2077
 8335SOL    HW236468   0.240   3.042   0.031  1.4216  1.2573  0.4473
 8336SOL     OW36469   2.080   0.417   8.302  0.2225 -0.0616 -0.4350
 8336SOL    HW136470   2.046   0.381   8.384 -1.7862 -1.6929 -1.9890
 8336SOL    HW236471   2.097   0.340   8.248  1.7536  0.9777 -1.4603
 8337SOL     OW36472   0.683   0.292  14.796 -0.5446 -0.3176  0.1996
 8337SOL    HW136473   0.608   0.278  14.738 -0.8846 -0.9631  0.7793
 8337SOL    HW236474   0.759   0.271  14.742 -1.3913 -1.2396 -0.6370
 8338SOL     OW36475   4.490   0.957   3.273  0.2657 -0.5227 -0.0703
 8338SOL    HW136476   4.564   0.971   3.332  0.3316 -1.3848  0.0575
 8338SOL    HW236477   4.443   1.040   3.267  3.1177  0.8367 -3.6569
 8339SOL     OW36478   2.066   0.575   9.403  0.5802  0.1624  0.2449
 8339SOL    HW136479   2.131   0.548   9.467  2.8835 -0.5913 -2.4013
 8339SOL    HW236480   2.074   0.670   9.392 -2.4985  0.2700 -1.1941
 8340SOL     OW36481   2.606   2.050   9.252 -0.3210  0.5418  0.7003
 8340SOL    HW136482   2.595   2.095   9.336 -0.3003  3.3067 -0.7869
 8340SOL    HW236483   2.679   2.102   9.217 -0.0270 -0.7235 -0.5463
 8341SOL     OW36484   4.706   1.031  13.299 -0.1485 -0.3546  0.6747
 8341SOL    HW136485   4.625   1.062  13.258  0.1551  0.2597  0.5399
 8341SOL    HW236486   0.045   1.046  13.224 -1.5939  2.0326  0.0339
 8342SOL     OW36487   3.315   4.211  12.873  0.2485  0.3537  0.0058
 8342SOL    HW136488   3.347   4.262  12.798 -1.1552  1.4073  0.1308
 8342SOL    HW236489   3.385   4.146  12.872  0.2993  0.3935  1.3719
 8343SOL     OW36490   4.425   3.236  14.991 -0.0731 -0.0291 -0.5226
 8343SOL    HW136491   4.417   3.281  14.907 -0.0412  1.7054  0.3936
 8343SOL    HW236492   4.399   3.152  14.954  1.6758 -0.1807 -1.3824
 8344SOL     OW36493   0.808   3.055   4.937  0.3548  0.2842 -0.1482
 8344SOL    HW136494   0.723   3.067   4.979  0.8761  0.1945  0.9479
 8344SOL    HW236495   0.836   3.147   4.929 -0.4667  0.5989  0.6352
 8345SOL     OW36496   3.617   0.557   4.769  0.1113 -0.1851 -0.1607
 8345SOL    HW136497   3.665   0.474   4.769  1.3776  0.5775  2.3521
 8345SOL    HW236498   3.537   0.540   4.820  0.8384  1.6598  1.5432
 8346SOL     OW36499   2.811   1.988   2.939 -0.4244 -0.2042  0.3470
 8346SOL    HW136500   2.791   1.895   2.934  2.4621 -0.7424 -0.7844
 8346SOL    HW236501   2.847   1.998   3.027 -0.5984  0.8927  0.2913
 8347SOL     OW36502   4.299   0.980   7.723 -1.1552  0.0324 -0.0703
 8347SOL    HW136503   4.344   0.995   7.640 -0.5211 -1.0146  0.0768
 8347SOL    HW236504   4.324   1.060   7.770  2.4100 -0.4049 -1.2111
 8348SOL     OW36505   3.689   4.335   7.372 -0.0978 -0.2062  0.0413
 8348SOL    HW136506   3.749   4.357   7.443  0.0299  0.7896 -0.3636
 8348SOL    HW236507   3.665   4.248   7.404 -0.5500 -1.0382 -2.5623
 8349SOL     OW36508   0.125   3.209   5.182  0.3174  0.1433 -0.2187
 8349SOL    HW136509   0.106   3.134   5.125 -1.0574  1.9042 -2.0835
 8349SOL    HW236510   0.095   3.176   5.267 -0.2768  0.5291 -0.2756
 8350SOL     OW36511   4.459   4.428   8.139  0.2471 -0.2016  0.7186
 8350SOL    HW136512   4.512   4.490   8.189 -0.9588  1.1550  0.3154
 8350SOL    HW236513   4.468   4.464   8.051 -1.7642 -0.1664  0.5270
 8351SOL     OW36514   2.175   4.497   3.514 -0.2305  1.1499  0.1419
 8351SOL    HW136515   2.091   4.474   3.472 -1.1931  0.9314  2.1843
 8351SOL    HW236516   2.137   4.518   3.599 -1.8979 -0.0065 -0.3034
 8352SOL     OW36517   1.072   0.308   5.257 -0.6561 -0.2344  0.3549
 8352SOL    HW136518   1.066   0.237   5.193 -0.3895  0.9762 -1.0016
 8352SOL    HW236519   1.053   0.264   5.340 -1.0801 -0.2816  0.2312
 8353SOL     OW36520   2.213   1.192   4.249  0.0595 -0.3813 -0.1253
 8353SOL    HW136521   2.228   1.167   4.158  0.1125 -0.3380 -0.1284
 8353SOL    HW236522   2.258   1.277   4.253  0.1713 -0.5894  3.1639
 8354SOL     OW36523   1.533   4.277  13.430 -0.0896  0.2746  0.1517
 8354SOL    HW136524   1.512   4.197  13.382  0.2902  0.9580 -1.1542
 8354SOL    HW236525   1.513   4.256  13.521  0.1425  1.5102  0.4822
 8355SOL     OW36526   4.558   0.988   6.882 -0.5430 -0.7982  0.2089
 8355SOL    HW136527   4.566   0.971   6.788  1.4433  0.7813  0.0767
 8355SOL    HW236528   4.595   0.906   6.916  1.1308  0.5491  1.6258
 8356SOL     OW36529   4.263   3.768   1.877 -0.3058  0.4537 -0.1720
 8356SOL    HW136530   4.303   3.713   1.810 -0.5561 -1.2872  1.1201
 8356SOL    HW236531   4.328   3.761   1.947 -0.4250  0.3450 -0.0739
 8357SOL     OW36532   0.277   3.987   6.885 -0.1196  0.1502 -0.3524
 8357SOL    HW136533   0.344   3.923   6.863  0.7833  0.5640  1.1439
 8357SOL    HW236534   0.332   4.064   6.903 -1.2281  0.9691 -0.4739
 8358SOL     OW36535   1.401   2.114  15.817  0.2200 -0.1340  0.6716
 8358SOL    HW136536   1.471   2.051  15.830  0.8635  0.3654 -0.3822
 8358SOL    HW236537   1.325   2.055  15.819 -0.5339  0.8248  0.3454
 8359SOL     OW36538   2.432   1.532  10.587 -0.0884 -0.0606 -0.3275
 8359SOL    HW136539   2.418   1.536  10.493 -0.7611 -0.2384 -0.2360
 8359SOL    HW236540   2.427   1.623  10.616 -0.1378  0.6188 -2.5063
 8360SOL     OW36541   1.943   3.745   1.198 -0.1728 -0.3928  0.0384
 8360SOL    HW136542   1.939   3.658   1.237 -0.2886 -0.8899 -1.0764
 8360SOL    HW236543   1.852   3.769   1.216 -0.7993 -1.7742 -1.2529
 8361SOL     OW36544   2.707   0.338   7.949 -0.6100  0.2764  0.5633
 8361SOL    HW136545   2.626   0.289   7.937 -0.3376  0.2879 -1.1927
 8361SOL    HW236546   2.758   0.287   7.886  0.6117  0.4502  1.3875
 8362SOL     OW36547   0.738   1.415   6.193  0.2077  0.1121 -0.1239
 8362SOL    HW136548   0.729   1.510   6.205 -0.6041  0.1409 -1.0279
 8362SOL    HW236549   0.796   1.392   6.266  2.7902  1.2197 -1.8020
 8363SOL     OW36550   3.551   1.991  12.476 -0.4287  0.3016 -0.3911
 8363SOL    HW136551   3.545   1.931  12.550  0.1568  1.0264  0.2458
 8363SOL    HW236552   3.464   1.979  12.439 -0.5781 -2.2898  0.7915
 8364SOL     OW36553   1.873   4.433  12.101  0.0375 -0.1169  0.6678
 8364SOL    HW136554   1.885   4.398  12.189  1.6673  0.6620  0.7622
 8364SOL    HW236555   1.962   4.433  12.064 -0.3035  1.1083 -0.1536
 8365SOL     OW36556   4.069   0.640   0.810 -0.0233 -0.4104 -0.6324
 8365SOL    HW136557   4.099   0.663   0.722 -1.0476  0.2230 -0.8072
 8365SOL    HW236558   4.028   0.720   0.840 -0.9133 -0.7272 -1.0085
 8366SOL     OW36559   4.353   4.224   1.949  0.3395 -0.5466 -0.5769
 8366SOL    HW136560   4.338   4.154   1.886 -2.0322 -0.8392  0.2949
 8366SOL    HW236561   4.276   4.278   1.935  0.2350 -0.3173  0.8036
 8367SOL     OW36562   0.822   1.926  15.983  0.0694 -0.3443 -0.6959
 8367SOL    HW136563   0.795   2.018  15.982 -1.8337 -0.9061 -0.7273
 8367SOL    HW236564   0.836   1.921  15.888 -0.8304  0.2182 -0.8578
 8368SOL     OW36565   3.322   0.783  12.395  0.2675 -0.1002  0.4426
 8368SOL    HW136566   3.383   0.849  12.427  0.2594  1.2046 -2.2293
 8368SOL    HW236567   3.247   0.808  12.451 -0.2859 -1.0730  0.1373
 8369SOL     OW36568   0.497   3.883  17.528 -0.1909 -0.4558  0.4777
 8369SOL    HW136569   0.592   3.897  17.521 -0.8011  2.9641 -0.8718
 8369SOL    HW236570   0.493   3.808  17.468  1.0355  0.9729 -1.3898
 8370SOL     OW36571   0.950   3.264   6.478  0.3062  0.7991 -0.2699
 8370SOL    HW136572   0.978   3.343   6.432  1.3216 -0.0180 -1.0659
 8370SOL    HW236573   0.929   3.284   6.569  1.1939 -0.0416  0.1240
 8371SOL     OW36574   3.194   3.523   8.174  0.2620 -0.5176 -0.0632
 8371SOL    HW136575   3.284   3.500   8.195  0.4876 -0.5758 -1.1051
 8371SOL    HW236576   3.141   3.447   8.200 -0.8730  0.4013  0.3534
 8372SOL     OW36577   4.152   2.819   5.517  0.4695 -0.7414 -0.0590
 8372SOL    HW136578   4.139   2.823   5.612 -1.2659 -0.9268 -0.2955
 8372SOL    HW236579   4.105   2.898   5.491  1.8238  0.1692  0.2363
 8373SOL     OW36580   4.562   2.359   3.505 -0.2121 -0.1159 -0.1638
 8373SOL    HW136581   4.527   2.338   3.419 -1.3532 -0.6640  0.4393
 8373SOL    HW236582   4.501   2.427   3.535  1.0134  1.2117 -0.6716
 8374SOL     OW36583   4.117   4.182  16.317 -0.1873 -0.1335  0.0944
 8374SOL    HW136584   4.135   4.090  16.336 -0.1114  0.4619  2.9093
 8374SOL    HW236585   4.056   4.180  16.243  0.9768  0.6747 -0.8882
 8375SOL     OW36586   1.529   0.174  11.597 -0.0918 -0.2358 -0.3313
 8375SOL    HW136587   1.561   0.185  11.686 -0.0600 -1.3896 -0.1970
 8375SOL    HW236588   1.529   0.267  11.576 -0.8214  0.2120  1.6811
 8376SOL     OW36589   2.198   2.324  14.510  0.1953  0.0170 -0.2287
 8376SOL    HW136590   2.119   2.269  14.506 -0.4747  1.0743 -1.7958
 8376SOL    HW236591   2.246   2.290  14.434  0.4861  0.1714 -0.1128
 8377SOL     OW36592   1.369   0.435   7.335  0.0621 -0.5142  0.0005
 8377SOL    HW136593   1.384   0.343   7.314 -0.2749 -0.8463  1.2208
 8377SOL    HW236594   1.397   0.482   7.256 -1.8463 -2.3927 -1.8274
 8378SOL     OW36595   0.941   0.818  15.848  0.4628 -0.2480  0.4124
 8378SOL    HW136596   0.858   0.771  15.852 -0.1063  0.7681  0.3657
 8378SOL    HW236597   0.999   0.744  15.829 -0.1001 -0.1532 -1.6898
 8379SOL     OW36598   0.854   4.337  15.866  0.8004  0.3989  0.0641
 8379SOL    HW136599   0.813   4.329  15.780  0.8298  1.9806 -0.0923
 8379SOL    HW236600   0.918   4.408  15.862  0.6376  0.7820  4.3351
 8380SOL     OW36601   3.017   0.762   2.627  0.5952  0.2052  0.1761
 8380SOL    HW136602   2.972   0.821   2.567  0.2327  1.1473  1.3777
 8380SOL    HW236603   3.020   0.680   2.577 -1.1653  0.3085 -0.0873
 8381SOL     OW36604   3.556   2.877   8.716  0.4051  0.3297 -0.6979
 8381SOL    HW136605   3.627   2.887   8.653  1.3449 -0.6833  0.1998
 8381SOL    HW236606   3.597   2.895   8.801 -0.9086 -1.1466  0.2464
 8382SOL     OW36607   2.501   2.461  17.005  0.0222 -0.5489  0.2900
 8382SOL    HW136608   2.592   2.489  17.003  0.6361 -2.6566 -1.5366
 8382SOL    HW236609   2.519   2.374  16.969  0.9836 -0.3959  0.4230
 8383SOL     OW36610   2.922   3.113  10.300 -0.1205 -0.0093  0.1898
 8383SOL    HW136611   2.841   3.089  10.344  0.9139  0.8641  2.5673
 8383SOL    HW236612   2.913   3.208  10.306  0.5021 -0.0357  1.5165
 8384SOL     OW36613   0.765   3.054   5.804  0.6667  0.0316  0.0832
 8384SOL    HW136614   0.723   3.023   5.884  0.5941 -0.4100 -0.1315
 8384SOL    HW236615   0.692   3.063   5.743  0.6346 -0.8402  0.0060
 8385SOL     OW36616   2.105   0.717   7.302 -0.2454 -0.2812 -0.0085
 8385SOL    HW136617   2.061   0.690   7.383 -0.2810 -0.3857 -0.0632
 8385SOL    HW236618   2.183   0.754   7.343 -1.0297  0.0258  1.2057
 8386SOL     OW36619   1.147   3.766   9.266  0.1291  0.1718 -0.3469
 8386SOL    HW136620   1.130   3.781   9.359 -3.0063  0.1558 -0.9345
 8386SOL    HW236621   1.058   3.779   9.233 -1.0003 -0.3922  2.4405
 8387SOL     OW36622   0.597   1.421   8.897 -0.0962  0.0701 -0.4711
 8387SOL    HW136623   0.665   1.438   8.833 -0.1067 -2.1299 -1.0720
 8387SOL    HW236624   0.597   1.326   8.888  0.5422 -0.1096  1.3563
 8388SOL     OW36625   4.372   4.577  11.755 -0.1160  0.1056  0.6481
 8388SOL    HW136626   4.307   4.554  11.821 -0.1139 -1.2587  0.1792
 8388SOL    HW236627   4.348   4.516  11.685  2.9379 -0.9768  0.5539
 8389SOL     OW36628   3.424   2.191  13.294  0.0739  0.2128  0.0924
 8389SOL    HW136629   3.449   2.104  13.265 -0.1242  0.5976 -1.2556
 8389SOL    HW236630   3.477   2.187  13.373 -0.1959 -0.9876  0.2102
 8390SOL     OW36631   0.725   1.149   9.250  0.4534 -0.2701  0.4419
 8390SOL    HW136632   0.660   1.128   9.317 -2.7153  1.3144 -2.1684
 8390SOL    HW236633   0.805   1.147   9.303  0.7493  2.8333  0.1308
 8391SOL     OW36634   1.928   4.340  13.948 -0.3805  0.1903 -0.1591
 8391SOL    HW136635   1.878   4.330  13.867  1.1667  0.2069 -1.1141
 8391SOL    HW236636   1.923   4.250  13.982  1.1382  0.4132  0.6415
 8392SOL     OW36637   3.725   0.004   4.604  0.3294  0.1144 -0.3692
 8392SOL    HW136638   3.684   4.691   4.685 -0.6593  1.4990 -0.3402
 8392SOL    HW236639   3.812   0.015   4.641 -1.2108 -1.2905  3.6663
 8393SOL     OW36640   1.256   1.132  15.074  0.3863  0.2022  0.3704
 8393SOL    HW136641   1.345   1.111  15.044 -0.0442  0.1232 -0.8313
 8393SOL    HW236642   1.204   1.058  15.043  0.9469  0.2767 -0.7554
 8394SOL     OW36643   2.297   2.694   9.126  0.4280  0.0278  0.0711
 8394SOL    HW136644   2.354   2.715   9.052  0.2810 -1.2000 -0.3894
 8394SOL    HW236645   2.279   2.782   9.160  0.2978  0.5315 -1.2913
 8395SOL     OW36646   3.271   4.220   3.373 -0.6818 -0.1779 -0.1074
 8395SOL    HW136647   3.238   4.276   3.444  1.2465  0.0302  0.6179
 8395SOL    HW236648   3.210   4.267   3.316 -0.1026  0.1652 -0.4450
 8396SOL     OW36649   4.200   0.804   6.825  0.7485 -0.3131 -0.4098
 8396SOL    HW136650   4.236   0.719   6.848 -0.7367 -0.4223  1.5041
 8396SOL    HW236651   4.244   0.821   6.741  3.5422  0.4619  1.2175
 8397SOL     OW36652   2.603   4.142  10.506 -0.1190  0.1259  0.6630
 8397SOL    HW136653   2.602   4.230  10.544 -0.7319 -0.4910  2.0883
 8397SOL    HW236654   2.525   4.101  10.544 -0.2286  0.7590  1.1153
 8398SOL     OW36655   2.976   2.250   2.932  0.5054  0.6008 -0.3586
 8398SOL    HW136656   2.881   2.235   2.935  0.7725 -0.7920  0.9535
 8398SOL    HW236657   3.012   2.225   3.017 -1.1304 -1.8370 -0.3510
 8399SOL     OW36658   4.561   3.153  16.130 -0.2397 -0.0226 -0.5483
 8399SOL    HW136659   4.578   3.100  16.052  2.4170  0.6411 -0.4112
 8399SOL    HW236660   4.619   3.227  16.112  0.3126 -0.0371  1.1108
 8400SOL     OW36661   3.930   1.354   7.524 -0.6463 -0.2581  0.0195
 8400SOL    HW136662   3.882   1.423   7.569  1.0650  0.7473  0.2793
 8400SOL    HW236663   4.003   1.354   7.586 -0.2274 -0.4053 -0.4811
 8401SOL     OW36664   2.058   2.501   1.954  0.7706  0.3339  0.0246
 8401SOL    HW136665   2.122   2.457   2.010  0.6550 -1.1257 -0.9971
 8401SOL    HW236666   2.051   2.583   2.003  1.2310 -0.2532  1.0601
 8402SOL     OW36667   0.929   2.851   2.582 -0.0720 -0.3820 -0.2027
 8402SOL    HW136668   0.884   2.858   2.498 -0.8560  1.7870  0.3935
 8402SOL    HW236669   0.925   2.943   2.610 -1.2753  0.2678 -2.5457
 8403SOL     OW36670   4.695   0.977   7.518  0.4990  0.0225  0.0789
 8403SOL    HW136671   4.678   0.977   7.423  1.0391 -1.3693 -0.0303
 8403SOL    HW236672   0.053   1.035   7.518  1.4527 -1.2546  2.2876
 8404SOL     OW36673   0.383   2.391   0.652 -0.4504 -0.3235 -0.0059
 8404SOL    HW136674   0.433   2.434   0.721 -0.4353 -1.1836  0.5141
 8404SOL    HW236675   0.367   2.304   0.686 -2.1676  0.3075  0.7886
 8405SOL     OW36676   1.971   4.626   5.612  0.7979 -0.1554  0.2279
 8405SOL    HW136677   1.974   4.648   5.519 -0.7381 -0.5236  0.1031
 8405SOL    HW236678   2.005   4.537   5.614  1.6736  0.1762  0.6453
 8406SOL     OW36679   0.566   1.355  14.929  0.7126 -0.4103 -0.3386
 8406SOL    HW136680   0.481   1.386  14.960  0.2150 -1.4911 -0.6289
 8406SOL    HW236681   0.554   1.366  14.835  0.1518  1.1968 -0.0707
 8407SOL     OW36682   3.099   2.420  14.345  0.2393 -0.8320  0.2261
 8407SOL    HW136683   3.056   2.390  14.265  0.0113 -0.6272  0.2713
 8407SOL    HW236684   3.113   2.508  14.311  0.4385 -1.3884 -1.1362
 8408SOL     OW36685   2.073   1.685   1.917  0.0781 -0.6401 -0.3306
 8408SOL    HW136686   1.994   1.638   1.889  0.5992 -1.4003 -0.5231
 8408SOL    HW236687   2.094   1.626   1.989 -0.5782  1.6378  1.7502
 8409SOL     OW36688   4.485   2.780   3.449 -0.2122 -0.0059  0.3257
 8409SOL    HW136689   4.566   2.766   3.497  0.1503  0.6557 -0.0870
 8409SOL    HW236690   4.498   2.865   3.406 -0.4844 -0.0516  0.1482
 8410SOL     OW36691   3.262   1.192   8.063 -0.3587  0.9419  0.4529
 8410SOL    HW136692   3.195   1.259   8.073 -2.3604 -0.6866 -2.1204
 8410SOL    HW236693   3.282   1.180   8.156 -0.8396  0.7621  0.5332
 8411SOL     OW36694   4.210   2.057   4.049 -0.1398 -0.5189  0.8060
 8411SOL    HW136695   4.287   2.008   4.076  1.6634  2.2727  0.6806
 8411SOL    HW236696   4.212   2.071   3.955 -0.4744 -2.0458  0.5671
 8412SOL     OW36697   3.394   3.854   0.276  0.1023 -0.4671 -0.1011
 8412SOL    HW136698   3.383   3.883   0.367  0.8227 -0.0219 -0.1578
 8412SOL    HW236699   3.487   3.877   0.271 -0.1442  0.7214  0.6195
 8413SOL     OW36700   0.059   3.425   4.434 -0.2236  0.7261 -0.0781
 8413SOL    HW136701   0.034   3.422   4.342  0.3183  0.3851 -0.2157
 8413SOL    HW236702   0.153   3.420   4.419 -0.4887 -0.2618 -1.4485
 8414SOL     OW36703   4.177   3.650   5.259  0.3709 -0.1034 -0.1258
 8414SOL    HW136704   4.197   3.726   5.204  0.6272 -0.1200 -0.0547
 8414SOL    HW236705   4.176   3.576   5.198 -0.9371 -0.2386  0.0745
 8415SOL     OW36706   3.662   1.463  10.996 -0.2141 -0.4357  0.0924
 8415SOL    HW136707   3.619   1.537  11.040  1.5270  0.3733  0.4298
 8415SOL    HW236708   3.610   1.398  11.041 -0.2557  0.9116  1.9854
 8416SOL     OW36709   4.509   3.002  10.843  0.0754  0.1962 -0.2149
 8416SOL    HW136710   4.437   3.022  10.902  1.4902  0.2390  1.5141
 8416SOL    HW236711   4.501   2.907  10.853  4.2949  0.2575  4.2589
 8417SOL     OW36712   1.113   4.408  11.437  0.1020 -0.3987 -0.1255
 8417SOL    HW136713   1.056   4.459  11.380 -0.6062 -1.5582 -0.4650
 8417SOL    HW236714   1.190   4.386  11.386  1.8094  1.0168  1.8548
 8418SOL     OW36715   3.417   1.382   7.575  0.9654  0.4941  0.1890
 8418SOL    HW136716   3.477   1.324   7.622  0.9186  0.9768  0.8605
 8418SOL    HW236717   3.393   1.445   7.643 -1.6791  0.4271 -0.6815
 8419SOL     OW36718   1.493   3.415   4.626 -0.2759  0.1920  0.1125
 8419SOL    HW136719   1.470   3.335   4.579 -0.7541 -0.6151  1.7281
 8419SOL    HW236720   1.499   3.481   4.556 -0.6421 -0.8170 -0.8628
 8420SOL     OW36721   3.576   3.800   4.143  0.0354 -0.3804  0.3375
 8420SOL    HW136722   3.560   3.754   4.226  2.2220 -1.8645 -0.0578
 8420SOL    HW236723   3.597   3.886   4.179  2.2184 -0.9241  0.3570
 8421SOL     OW36724   0.661   2.137   8.429  0.2055  0.7923 -0.1342
 8421SOL    HW136725   0.647   2.043   8.417 -0.3218  0.8234  0.2317
 8421SOL    HW236726   0.612   2.147   8.510 -0.3845  1.9161 -0.6424
 8422SOL     OW36727   0.966   0.651   2.318 -0.1256  0.0341  0.2629
 8422SOL    HW136728   1.059   0.671   2.314 -0.4231  0.7794 -2.6032
 8422SOL    HW236729   0.926   0.676   2.401 -0.2400 -1.0379  0.5320
 8423SOL     OW36730   2.035   2.508   2.341  0.0510  0.2155  0.1694
 8423SOL    HW136731   1.951   2.530   2.302 -0.4776  1.9236  2.2502
 8423SOL    HW236732   2.013   2.504   2.434  0.0884 -0.3842  0.1536
 8424SOL     OW36733   3.921   1.365   9.751  0.2627  0.0724  0.1731
 8424SOL    HW136734   3.976   1.428   9.797  2.3811 -0.1337 -2.0885
 8424SOL    HW236735   3.842   1.413   9.725  1.4624  1.4042 -1.0075
 8425SOL     OW36736   2.321   1.398   6.837  0.3267  0.3433  0.1721
 8425SOL    HW136737   2.364   1.316   6.813 -0.4371  0.1720 -0.6467
 8425SOL    HW236738   2.375   1.468   6.799 -1.8814  2.0917  0.2598
 8426SOL     OW36739   0.231   2.353  13.784  0.5646 -0.0507 -0.4515
 8426SOL    HW136740   0.250   2.314  13.869 -0.0696 -2.1645 -1.2889
 8426SOL    HW236741   0.137   2.369  13.785  0.3699 -1.1896 -0.4677
 8427SOL     OW36742   0.798   0.749   5.721  0.0824  0.2334 -0.4686
 8427SOL    HW136743   0.742   0.827   5.723  0.5468  0.5356  0.6263
 8427SOL    HW236744   0.795   0.732   5.627  0.1904 -0.1693 -0.3956
 8428SOL     OW36745   0.814   1.813  10.869 -0.1529 -0.1546  0.7209
 8428SOL    HW136746   0.883   1.873  10.896  0.3050  0.0252 -0.8882
 8428SOL    HW236747   0.792   1.781  10.957  2.4958  0.9404  1.7825
 8429SOL     OW36748   4.140   0.907   4.669  0.3329 -0.2437 -0.7487
 8429SOL    HW136749   4.217   0.951   4.705  0.0453  1.3989 -2.1593
 8429SOL    HW236750   4.182   0.832   4.627  1.2627 -0.5990  0.8136
 8430SOL     OW36751   0.610   4.540   3.187  0.0061  0.5710 -0.6925
 8430SOL    HW136752   0.701   4.569   3.196 -0.0620  0.2500  0.9582
 8430SOL    HW236753   0.629   4.449   3.166  0.3995  0.9544 -2.0161
 8431SOL     OW36754   0.433   0.001   3.079 -0.8267 -0.3013  0.2613
 8431SOL    HW136755   0.503   0.067   3.082  0.3485 -1.4322 -2.0768
 8431SOL    HW236756   0.492   4.645   3.095 -0.4400 -0.4551 -1.8244
 8432SOL     OW36757   1.514   1.640   8.031 -0.0430 -0.0044  0.6040
 8432SOL    HW136758   1.608   1.626   8.018 -0.1559 -0.8776  0.6791
 8432SOL    HW236759   1.493   1.653   7.939 -0.9255 -0.5580  0.7300
 8433SOL     OW36760   2.250   3.350   5.913 -0.2645  0.1840 -0.0460
 8433SOL    HW136761   2.247   3.443   5.887 -3.0481 -0.2763 -1.4475
 8433SOL    HW236762   2.303   3.353   5.993  2.2247  2.2387 -1.7573
 8434SOL     OW36763   3.795   4.314   5.804 -0.4118 -0.3843 -0.2278
 8434SOL    HW136764   3.787   4.342   5.895 -1.5867 -0.6252 -0.2603
 8434SOL    HW236765   3.755   4.381   5.750 -2.9073 -1.4544  0.2757
 8435SOL     OW36766   2.700   0.683   1.167 -0.1186  0.0328 -0.3368
 8435SOL    HW136767   2.605   0.698   1.168 -0.4319 -2.0496  0.1428
 8435SOL    HW236768   2.732   0.665   1.256 -0.4215  1.1791  0.0041
 8436SOL     OW36769   1.930   3.435  10.522  0.3244 -0.0543  0.2808
 8436SOL    HW136770   1.859   3.428  10.458 -0.3135  1.4000  0.8269
 8436SOL    HW236771   1.883   3.488  10.587  0.6722 -1.2936  1.5301
 8437SOL     OW36772   0.875   1.377   5.510  0.1112  0.1485 -0.2872
 8437SOL    HW136773   0.829   1.401   5.590  1.4119  0.3925  0.3828
 8437SOL    HW236774   0.895   1.284   5.525  1.6512  0.5363  0.0671
 8438SOL     OW36775   3.285   1.186   8.356  0.1464  0.4664 -0.2857
 8438SOL    HW136776   3.311   1.266   8.403  3.4713 -1.2276  0.6696
 8438SOL    HW236777   3.331   1.112   8.395 -1.5286  0.6353  2.0433
 8439SOL     OW36778   1.865   1.727   8.662  0.4423  0.4824  0.4410
 8439SOL    HW136779   1.773   1.740   8.686  0.2120 -1.0372  0.3615
 8439SOL    HW236780   1.905   1.738   8.748  0.0245 -0.0412  0.7013
 8440SOL     OW36781   0.407   1.723  10.664  0.0041  0.2445  0.2180
 8440SOL    HW136782   0.465   1.784  10.709 -1.2423  1.3493  0.3061
 8440SOL    HW236783   0.418   1.739  10.570  0.0041  0.0414  0.1816
 8441SOL     OW36784   1.426   3.148   5.547  0.1245  0.5632 -0.2228
 8441SOL    HW136785   1.448   3.070   5.495 -1.0513  0.2449 -0.2372
 8441SOL    HW236786   1.489   3.137   5.618 -0.7493  0.3631  0.5249
 8442SOL     OW36787   3.361   2.764   4.223  0.0724  0.2673 -0.0721
 8442SOL    HW136788   3.344   2.764   4.129  1.7217 -1.2386 -0.3581
 8442SOL    HW236789   3.394   2.676   4.239 -0.6217 -0.0093 -0.1391
 8443SOL     OW36790   1.977   0.836   6.714 -0.1468 -0.6565  0.2491
 8443SOL    HW136791   1.994   0.912   6.657 -0.1156  0.1950  1.4097
 8443SOL    HW236792   1.965   0.770   6.646 -0.0255  0.8839 -1.2910
 8444SOL     OW36793   0.365   0.579  15.481 -0.3113  0.3611  0.0575
 8444SOL    HW136794   0.371   0.498  15.431 -0.3650  1.1384 -1.2192
 8444SOL    HW236795   0.299   0.627  15.431 -0.3539  0.0824 -0.1558
 8445SOL     OW36796   2.779   3.976  11.284 -0.4884 -0.4682 -0.1348
 8445SOL    HW136797   2.773   3.907  11.219  0.1352  2.1186 -2.9514
 8445SOL    HW236798   2.777   4.052  11.225  0.6244  1.1210  1.8518
 8446SOL     OW36799   2.619   3.917   7.949 -0.2989 -0.0112 -0.1518
 8446SOL    HW136800   2.669   3.917   7.867  1.7684  0.7346  1.1020
 8446SOL    HW236801   2.550   3.853   7.936 -0.6318  0.3845 -0.3341
 8447SOL     OW36802   0.833   2.834   1.917  0.1502 -0.1848 -0.1867
 8447SOL    HW136803   0.907   2.880   1.878  0.1847 -0.6695 -0.6829
 8447SOL    HW236804   0.835   2.746   1.878  3.2261 -1.0279  1.9037
 8448SOL     OW36805   2.212   4.247   9.168 -0.1597  0.2681 -0.2645
 8448SOL    HW136806   2.233   4.164   9.210 -0.0894  1.7402  2.5995
 8448SOL    HW236807   2.221   4.217   9.077  0.0475 -0.2362 -0.0770
 8449SOL     OW36808   4.479   0.544  17.348  0.0043  0.1833 -0.2790
 8449SOL    HW136809   4.567   0.529  17.381  0.1087 -0.1169 -0.6938
 8449SOL    HW236810   4.434   0.461  17.366  0.0375  0.5058  1.3506
 8450SOL     OW36811   0.715   3.155   8.564  0.0552  0.5438  0.1996
 8450SOL    HW136812   0.718   3.116   8.477  0.8698 -0.4322  0.6749
 8450SOL    HW236813   0.620   3.153   8.573 -0.1537 -0.7555 -2.2846
 8451SOL     OW36814   2.531   3.406   1.802  0.0381 -0.3711 -0.0560
 8451SOL    HW136815   2.480   3.378   1.726 -1.4873  1.7910  0.1498
 8451SOL    HW236816   2.605   3.442   1.753 -0.1117  0.7017  0.5066
 8452SOL     OW36817   0.857   1.697   5.450  0.2045  0.5183 -0.0610
 8452SOL    HW136818   0.781   1.646   5.480 -0.1742  1.0294 -0.1444
 8452SOL    HW236819   0.913   1.627   5.418 -1.3822 -0.9563  0.3493
 8453SOL     OW36820   2.162   3.992   1.481  0.6005  0.1002 -0.2392
 8453SOL    HW136821   2.251   4.008   1.449  0.5740 -1.1954 -0.9992
 8453SOL    HW236822   2.145   3.913   1.430  0.2216  1.3642 -2.0542
 8454SOL     OW36823   1.351   2.726   2.470  0.1752  0.4031 -0.5126
 8454SOL    HW136824   1.314   2.663   2.409  3.7658 -2.0752 -0.1394
 8454SOL    HW236825   1.276   2.735   2.528  0.1157  0.8845 -0.6647
 8455SOL     OW36826   2.252   1.699   1.712 -0.4003  0.3147  0.1753
 8455SOL    HW136827   2.200   1.688   1.792 -0.6250  1.2536  0.1635
 8455SOL    HW236828   2.192   1.704   1.638  0.6084  0.0592 -0.6520
 8456SOL     OW36829   1.857   0.741   1.137  0.3369 -0.4057 -0.0003
 8456SOL    HW136830   1.762   0.753   1.132  0.4129  0.9138  1.8429
 8456SOL    HW236831   1.864   0.726   1.231  1.7255 -0.5606 -0.1323
 8457SOL     OW36832   0.683   0.759   7.394 -0.0374  0.0419 -0.1701
 8457SOL    HW136833   0.616   0.761   7.327 -0.8739 -1.0881  0.6299
 8457SOL    HW236834   0.699   0.853   7.401  1.6983 -0.2729  0.1426
 8458SOL     OW36835   1.749   2.722   8.728 -0.2605 -0.4080 -0.1372
 8458SOL    HW136836   1.794   2.773   8.661 -1.7011 -0.7765 -1.3943
 8458SOL    HW236837   1.817   2.720   8.795 -2.1134 -1.8576  1.6761
 8459SOL     OW36838   0.106   3.026   7.964 -0.1753 -0.1854 -0.0338
 8459SOL    HW136839   0.068   2.973   8.034  1.3385 -1.0236  0.1637
 8459SOL    HW236840   0.157   3.089   8.015 -1.9098  0.7924  0.4846
 8460SOL     OW36841   2.519   3.398   9.611  0.3332 -0.0948  0.8779
 8460SOL    HW136842   2.591   3.361   9.662  1.5596  0.7432 -0.2330
 8460SOL    HW236843   2.476   3.465   9.663 -0.6313  1.3328 -1.7495
 8461SOL     OW36844   4.485   3.656  17.186  0.0403 -0.1726 -0.7232
 8461SOL    HW136845   4.548   3.587  17.168 -0.3061 -0.3868 -1.1161
 8461SOL    HW236846   4.491   3.699  17.101  3.4005 -1.3265 -1.0454
 8462SOL     OW36847   2.023   3.647   5.529 -0.0951  0.3344 -0.2702
 8462SOL    HW136848   1.992   3.638   5.439 -1.4757  0.6505  0.1795
 8462SOL    HW236849   2.106   3.680   5.494  0.2969  0.7224  1.0222
 8463SOL     OW36850   4.044   1.657   5.276  0.2088 -0.1060  0.2510
 8463SOL    HW136851   4.087   1.628   5.195  0.1274  1.2241 -0.2600
 8463SOL    HW236852   4.094   1.600   5.335  0.6269  0.0390  0.0393
 8464SOL     OW36853   3.351   4.508   1.056  0.4989  0.1634  0.1045
 8464SOL    HW136854   3.384   4.420   1.077 -1.0028 -0.5468 -0.5176
 8464SOL    HW236855   3.256   4.501   1.069  0.3914  0.4422 -0.5284
 8465SOL     OW36856   3.125   0.693  10.298  0.1277 -0.7470 -0.6154
 8465SOL    HW136857   3.070   0.638  10.243  0.1634 -0.4964 -0.8989
 8465SOL    HW236858   3.050   0.733  10.343 -1.0858  0.2078 -3.4697
 8466SOL     OW36859   0.060   0.685  17.468  0.3521 -0.3260 -0.2334
 8466SOL    HW136860   4.716   0.659  17.537  0.6745  1.4609  0.7404
 8466SOL    HW236861   0.103   0.601  17.452  0.4446 -0.3293  0.0356
 8467SOL     OW36862   3.721   4.581   9.505 -0.0177  0.3805  0.1782
 8467SOL    HW136863   3.679   4.655   9.551 -0.8198 -0.0256  0.1059
 8467SOL    HW236864   3.814   4.589   9.525 -0.3173 -0.5144  1.9662
 8468SOL     OW36865   1.221   4.061   1.464 -0.0510  0.3068 -0.5405
 8468SOL    HW136866   1.162   4.039   1.391  1.2010 -0.3801 -1.3451
 8468SOL    HW236867   1.236   3.974   1.501  0.3116  0.7758  0.3959
 8469SOL     OW36868   0.409   3.377   1.719 -0.2186 -0.7754 -0.0220
 8469SOL    HW136869   0.392   3.345   1.630 -1.4457 -1.5759  0.5060
 8469SOL    HW236870   0.456   3.304   1.760  1.2536 -0.3924 -1.0328
 8470SOL     OW36871   0.484   2.504   1.993 -0.4155 -0.1631  0.8970
 8470SOL    HW136872   0.537   2.584   1.986  0.3486 -0.6893  0.5603
 8470SOL    HW236873   0.406   2.545   2.030 -0.3030  0.8750 -0.0098
 8471SOL     OW36874   0.269   0.439   9.546 -0.6122  0.3632 -0.6195
 8471SOL    HW136875   0.267   0.527   9.509 -0.2173 -0.6811 -3.0853
 8471SOL    HW236876   0.201   0.451   9.613  2.0483  1.9024  1.8075
 8472SOL     OW36877   1.874   3.890   7.869  0.6165 -0.4315  0.7791
 8472SOL    HW136878   1.800   3.950   7.878  0.7224 -0.1172 -0.4733
 8472SOL    HW236879   1.899   3.894   7.777 -0.6627  1.4414  0.5196
 8473SOL     OW36880   1.974   4.186   6.943  0.1471  0.2014  0.6782
 8473SOL    HW136881   1.997   4.094   6.958  0.9909  0.6788  2.3642
 8473SOL    HW236882   1.881   4.190   6.965  0.3269 -0.9531  1.6605
 8474SOL     OW36883   2.509   3.680   9.072 -0.5387 -0.2833 -0.3811
 8474SOL    HW136884   2.552   3.709   8.991  0.3440  0.0557  0.2165
 8474SOL    HW236885   2.421   3.660   9.039 -1.3097  1.2197  0.7815
 8475SOL     OW36886   0.302   2.050   8.981  0.4650  0.2574 -0.5114
 8475SOL    HW136887   0.390   2.034   9.016 -0.2395 -3.0520 -0.2539
 8475SOL    HW236888   0.313   2.132   8.934 -0.1502 -0.2822 -1.5897
 8476SOL     OW36889   2.105   3.195  14.266  0.1090 -0.0260  0.6142
 8476SOL    HW136890   2.199   3.201  14.251 -0.3322 -1.7227 -2.7333
 8476SOL    HW236891   2.085   3.183  14.359 -1.0344 -0.3561  0.3359
 8477SOL     OW36892   3.375   4.517   4.624 -0.1409  0.7911  0.0314
 8477SOL    HW136893   3.330   4.441   4.659  0.4346  0.3660 -0.1581
 8477SOL    HW236894   3.374   4.498   4.531  4.7283  0.6210  0.0043
 8478SOL     OW36895   0.726   3.162   1.821 -0.5285 -0.1950 -0.1383
 8478SOL    HW136896   0.731   3.069   1.842  0.2956  0.1758  1.2987
 8478SOL    HW236897   0.662   3.160   1.749  0.3651 -1.1371 -0.9100
 8479SOL     OW36898   3.790   2.933   0.271 -0.3495  0.1289 -0.0088
 8479SOL    HW136899   3.815   3.026   0.275  1.7063 -0.5188  1.9956
 8479SOL    HW236900   3.789   2.918   0.177  1.7516 -0.4237  0.0469
 8480SOL     OW36901   1.234   3.658   3.383 -0.2242 -0.3028 -0.0102
 8480SOL    HW136902   1.187   3.607   3.316 -1.8761  1.0960  0.0654
 8480SOL    HW236903   1.246   3.591   3.450  1.0006  0.0637  0.1345
 8481SOL     OW36904   4.243   1.469  10.884 -0.4311  1.0795  0.5385
 8481SOL    HW136905   4.160   1.431  10.854  0.3996  0.7268 -1.2933
 8481SOL    HW236906   4.293   1.483  10.804 -2.6124 -1.0933 -1.2030
 8482SOL     OW36907   1.709   1.181  10.641 -0.7792  0.1825 -0.3100
 8482SOL    HW136908   1.722   1.170  10.547 -1.0368 -1.7795 -0.1091
 8482SOL    HW236909   1.684   1.091  10.661  1.5099 -0.4034 -0.0553
 8483SOL     OW36910   4.252   2.360  10.779 -0.3215  0.2930 -0.0797
 8483SOL    HW136911   4.180   2.322  10.829 -0.0780 -0.7566 -0.5177
 8483SOL    HW236912   4.205   2.365  10.695 -1.1159 -3.9014  0.1089
 8484SOL     OW36913   4.058   4.062   8.523  0.0031 -0.3836 -0.0040
 8484SOL    HW136914   4.142   4.087   8.562 -0.4358 -0.5213  1.0305
 8484SOL    HW236915   4.041   3.984   8.575 -0.3844  0.4765  1.1780
 8485SOL     OW36916   2.576   0.697   5.168  0.5922 -0.1874  0.1222
 8485SOL    HW136917   2.524   0.735   5.097  0.8124 -2.9005 -1.4630
 8485SOL    HW236918   2.536   0.748   5.239 -0.0940  2.6433 -2.3146
 8486SOL     OW36919   4.532   3.844   6.665  0.2611 -0.2577 -0.4072
 8486SOL    HW136920   4.512   3.928   6.705  0.0172  0.0575 -1.1823
 8486SOL    HW236921   4.628   3.850   6.668  0.1332  2.2796 -1.5223
 8487SOL     OW36922   0.699   0.104   4.816 -0.3339 -0.0281 -0.5071
 8487SOL    HW136923   0.712   0.136   4.906  3.4898 -1.4787 -0.5699
 8487SOL    HW236924   0.683   0.183   4.764  1.0595  0.7447  0.2355
 8488SOL     OW36925   0.659   0.305   8.272 -0.4661  0.0120  0.6358
 8488SOL    HW136926   0.569   0.307   8.238 -0.1854  1.3549 -0.0661
 8488SOL    HW236927   0.658   0.218   8.310  3.5324 -1.0300 -1.6139
 8489SOL     OW36928   4.061   1.300   3.261 -0.0781  0.2882 -0.4568
 8489SOL    HW136929   4.117   1.239   3.212 -2.4631 -1.0459 -1.5019
 8489SOL    HW236930   3.977   1.283   3.219  0.5682  0.9432 -2.0374
 8490SOL     OW36931   4.231   4.208  15.517  0.1410 -0.3596  0.1930
 8490SOL    HW136932   4.164   4.193  15.450 -0.5187  0.9182  0.5621
 8490SOL    HW236933   4.292   4.275  15.485 -0.2770  0.6327  1.4849
 8491SOL     OW36934   2.623   0.225   3.456  0.1432  0.1820 -0.1171
 8491SOL    HW136935   2.594   0.184   3.537  2.2849 -1.9655 -0.4361
 8491SOL    HW236936   2.703   0.174   3.438  1.4875  2.0086  0.6467
 8492SOL     OW36937   3.228   0.358   3.081 -0.3929  0.0000 -0.3037
 8492SOL    HW136938   3.297   0.319   3.028 -0.1566 -0.7564  0.5432
 8492SOL    HW236939   3.156   0.335   3.022  1.2202  0.3469 -2.3998
 8493SOL     OW36940   3.686   0.457   9.462  0.4392 -0.1598 -0.3714
 8493SOL    HW136941   3.646   0.427   9.544  0.7172 -0.8479 -0.4863
 8493SOL    HW236942   3.607   0.497   9.426 -1.5761 -1.0292  3.0760
 8494SOL     OW36943   4.592   0.864  15.199 -0.2661 -0.4507 -0.2005
 8494SOL    HW136944   4.667   0.835  15.252 -0.7678 -1.4127 -0.0167
 8494SOL    HW236945   4.524   0.818  15.250  0.5115 -0.8609  0.4762
 8495SOL     OW36946   0.396   3.253   5.166 -0.1048 -0.1662 -0.4130
 8495SOL    HW136947   0.388   3.322   5.100  0.5551  2.0011  1.7481
 8495SOL    HW236948   0.303   3.247   5.188  0.0400 -0.0635  0.2194
 8496SOL     OW36949   1.297   0.865  13.034  0.6639  0.2728  0.6800
 8496SOL    HW136950   1.273   0.936  12.974 -0.9813 -0.8005  0.0654
 8496SOL    HW236951   1.392   0.871  13.020  0.3131 -0.3786 -2.0759
 8497SOL     OW36952   1.651   1.400   5.185  0.2564 -0.4204  0.4820
 8497SOL    HW136953   1.607   1.402   5.270  1.5652  2.4068  1.0918
 8497SOL    HW236954   1.743   1.412   5.208  0.0892  1.1149  0.3483
 8498SOL     OW36955   0.119   1.303   6.672 -0.1843  0.2915 -0.0449
 8498SOL    HW136956   0.100   1.258   6.754 -0.0841 -0.9176 -0.6902
 8498SOL    HW236957   0.037   1.350   6.655 -1.0509 -1.5402 -0.9790
 8499SOL     OW36958   1.084   2.371  11.027  0.3549 -0.5055 -0.7015
 8499SOL    HW136959   1.146   2.299  11.038 -0.7309 -0.8806  2.8783
 8499SOL    HW236960   1.035   2.358  10.946 -0.8687 -0.5185  0.0420
 8500SOL     OW36961   3.925   2.693   0.147  0.4276 -0.1002  0.0460
 8500SOL    HW136962   3.931   2.728   0.236 -0.2619  0.6717 -0.2111
 8500SOL    HW236963   3.853   2.630   0.143  1.6928 -1.6310  0.9285
 8501SOL     OW36964   4.155   1.149  10.651 -0.1325 -0.4606  0.6198
 8501SOL    HW136965   4.110   1.233  10.662 -1.4331 -0.9643 -0.8006
 8501SOL    HW236966   4.088   1.103  10.599 -0.0780 -0.0133  0.1536
 8502SOL     OW36967   4.520   0.566   4.578 -0.2345 -0.2411  0.4543
 8502SOL    HW136968   4.603   0.611   4.593 -1.2377  1.4584  0.9674
 8502SOL    HW236969   4.544   0.481   4.540  1.7086  0.2744  0.5135
 8503SOL     OW36970   4.572   4.377   1.918  0.1316  0.4070 -0.2059
 8503SOL    HW136971   4.483   4.348   1.938  0.5064 -1.4830 -1.3316
 8503SOL    HW236972   4.602   4.290   1.892  0.9249 -0.2255  2.7654
 8504SOL     OW36973   1.235   3.293   1.369 -0.1445  0.2120 -0.4062
 8504SOL    HW136974   1.228   3.330   1.281 -0.4480  0.5939 -0.2213
 8504SOL    HW236975   1.316   3.335   1.400  0.8929 -1.6525 -0.6249
 8505SOL     OW36976   1.932   3.168   8.842 -0.0823  0.4406  0.2184
 8505SOL    HW136977   1.937   3.161   8.746  2.4831 -1.8257  0.5249
 8505SOL    HW236978   1.844   3.199   8.861 -1.6416 -2.9952 -1.3916
 8506SOL     OW36979   3.394   0.563   6.857 -0.2797 -0.0625  0.1372
 8506SOL    HW136980   3.316   0.524   6.896 -2.3453  2.5294 -1.3620
 8506SOL    HW236981   3.456   0.492   6.872 -0.1348  0.0332 -0.0110
 8507SOL     OW36982   1.679   3.084   4.233 -0.2812 -0.5907  0.2493
 8507SOL    HW136983   1.697   2.992   4.211  2.0410 -0.2177  0.6019
 8507SOL    HW236984   1.590   3.089   4.200 -1.4891 -1.2035  3.4794
 8508SOL     OW36985   2.741   0.215   6.741  0.2108 -0.7116 -0.6095
 8508SOL    HW136986   2.654   0.251   6.755  0.4224 -0.5360  0.2063
 8508SOL    HW236987   2.720   0.139   6.685  0.8489 -1.3999  0.0766
 8509SOL     OW36988   2.356   1.330   9.920  0.0132  0.3525  0.1446
 8509SOL    HW136989   2.438   1.348   9.874 -0.3631  0.3348 -0.5469
 8509SOL    HW236990   2.290   1.330   9.849 -0.5860  3.0263  0.6759
 8510SOL     OW36991   2.367   0.098   3.180 -0.1063  0.1147  0.4783
 8510SOL    HW136992   2.344   0.012   3.145  2.6431 -0.7469  0.8064
 8510SOL    HW236993   2.282   0.134   3.208 -0.4523  0.0262 -0.4547
 8511SOL     OW36994   4.629   4.414  14.371  0.3135 -0.2016  0.5182
 8511SOL    HW136995   4.675   4.448  14.448 -1.1813  1.5660  0.6351
 8511SOL    HW236996   4.558   4.365  14.413  2.0657 -2.4950  0.7729
 8512SOL     OW36997   0.433   1.680   7.312  0.2541 -0.0258  1.0178
 8512SOL    HW136998   0.503   1.631   7.270  0.7106  0.9656  0.6280
 8512SOL    HW236999   0.365   1.645   7.254  1.5702  0.3040 -0.7081
 8513SOL     OW37000   1.554   1.890   4.008  0.2394  0.1488  0.7284
 8513SOL    HW137001   1.600   1.866   4.088  0.9721 -0.3226  0.1635
 8513SOL    HW237002   1.558   1.986   4.013 -2.1909  0.3044 -0.4505
 8514SOL     OW37003   2.900   3.150  14.541 -0.0927  0.1857  0.3601
 8514SOL    HW137004   2.938   3.190  14.620 -1.9644 -0.6927  1.7135
 8514SOL    HW237005   2.815   3.193  14.534 -0.3838 -0.7456 -1.5618
 8515SOL     OW37006   0.543   2.178   4.968 -0.1307 -0.5973 -0.4035
 8515SOL    HW137007   0.612   2.193   5.033 -1.7600  1.9621  0.7374
 8515SOL    HW237008   0.552   2.253   4.910 -1.3694 -0.8348 -0.8912
 8516SOL     OW37009   3.645   3.680   6.315  0.4867 -1.1206 -0.3085
 8516SOL    HW137010   3.670   3.641   6.399 -1.8302  1.4652  1.6013
 8516SOL    HW237011   3.652   3.607   6.253 -0.5098  0.1730 -1.9484
 8517SOL     OW37012   2.297   0.477   9.572 -0.5936  0.1841  0.4577
 8517SOL    HW137013   2.307   0.513   9.660 -0.4521 -1.1753  0.9866
 8517SOL    HW237014   2.389   0.489   9.547 -0.7676 -1.1790 -0.8098
 8518SOL     OW37015   2.064   4.317   6.434  0.4982  0.1685  0.2895
 8518SOL    HW137016   2.053   4.222   6.432  1.8675 -0.0146  1.2459
 8518SOL    HW237017   2.024   4.319   6.521  3.2365 -0.7033  1.5705
 8519SOL     OW37018   1.609   0.153  15.480  0.1079 -0.5127 -0.4124
 8519SOL    HW137019   1.519   0.166  15.509  0.4005  0.3854  0.0843
 8519SOL    HW237020   1.630   0.065  15.512 -1.9507  0.2198  2.9915
 8520SOL     OW37021   2.541   0.580   1.670  0.0766 -0.9247  0.5319
 8520SOL    HW137022   2.604   0.516   1.702  1.7740  0.9968  0.9858
 8520SOL    HW237023   2.592   0.659   1.685  1.8561 -1.9104 -0.4119
 8521SOL     OW37024   2.777   4.563   7.915  0.3393  0.2010 -0.4411
 8521SOL    HW137025   2.793   4.579   7.822 -1.1385 -0.8634 -0.8849
 8521SOL    HW237026   2.797   4.647   7.956  0.8408  0.7076 -1.7432
 8522SOL     OW37027   0.340   3.100   6.624  0.3912  0.0108 -0.1342
 8522SOL    HW137028   0.269   3.105   6.560 -0.4893  1.1531  0.9424
 8522SOL    HW237029   0.315   3.172   6.681  4.6158  1.3623 -0.0027
 8523SOL     OW37030   0.381   4.119   4.183 -0.5651  0.0722  0.7925
 8523SOL    HW137031   0.451   4.183   4.169  1.0273 -1.8406  0.0379
 8523SOL    HW237032   0.324   4.172   4.239 -2.2734 -0.4802 -0.4149
 8524SOL     OW37033   1.265   2.578   7.582  0.8557  0.0111  0.2950
 8524SOL    HW137034   1.304   2.638   7.519 -0.9195  1.4735  0.6000
 8524SOL    HW237035   1.173   2.598   7.567  0.9583 -0.7234 -1.2516
 8525SOL     OW37036   3.668   2.951   0.005 -1.1812  0.1164 -0.1341
 8525SOL    HW137037   3.607   3.007   0.053  0.5037  0.1393  1.9635
 8525SOL    HW237038   3.627   2.921  17.599 -0.1077 -1.4048 -0.1197
 8526SOL     OW37039   4.014   1.259   9.123 -0.3816  0.4816  0.5670
 8526SOL    HW137040   3.957   1.310   9.064  0.7346 -0.5166 -1.3580
 8526SOL    HW237041   4.011   1.176   9.076 -0.2015  1.0058 -0.3785
 8527SOL     OW37042   3.595   4.344   1.885 -0.0850  0.1427 -0.2120
 8527SOL    HW137043   3.614   4.327   1.793  2.1643 -0.4182  0.3647
 8527SOL    HW237044   3.686   4.340   1.915 -0.1134 -1.2635 -0.3260
 8528SOL     OW37045   0.692   1.935   7.539 -0.1370 -0.0993 -0.1262
 8528SOL    HW137046   0.637   2.012   7.530  0.3090 -0.1181 -2.8683
 8528SOL    HW237047   0.754   1.983   7.594  0.4310  0.2722 -1.1115
 8529SOL     OW37048   2.805   2.139   3.497  0.2222 -0.6199 -0.4647
 8529SOL    HW137049   2.889   2.116   3.537 -0.6002 -0.1411  1.5287
 8529SOL    HW237050   2.757   2.057   3.503 -1.1029  0.0613 -1.5848
 8530SOL     OW37051   0.662   3.022   5.370 -0.7869 -0.4080  0.1404
 8530SOL    HW137052   0.714   3.091   5.329 -1.8178  0.8705  0.9860
 8530SOL    HW237053   0.639   2.973   5.292 -2.7371  1.1371 -0.2725
 8531SOL     OW37054   3.094   1.915   2.944 -0.0915  0.1574 -0.0585
 8531SOL    HW137055   3.074   1.830   2.984 -0.3484  0.2625  0.0365
 8531SOL    HW237056   3.003   1.924   2.915 -0.1402 -0.5039 -0.1123
 8532SOL     OW37057   4.587   3.812   7.664  0.1280 -0.0188 -0.1383
 8532SOL    HW137058   4.506   3.807   7.613 -0.2782 -0.3206  0.5413
 8532SOL    HW237059   4.569   3.839   7.754 -1.3611  2.8773 -1.3005
 8533SOL     OW37060   2.928   0.302   3.912  0.0139  0.3625  0.1938
 8533SOL    HW137061   2.843   0.264   3.887  1.7765 -2.7319 -1.1135
 8533SOL    HW237062   2.910   0.361   3.985 -0.2878 -0.3083  0.6710
 8534SOL     OW37063   3.610   0.418   7.577  0.4267 -0.6256  0.2168
 8534SOL    HW137064   3.667   0.494   7.567 -0.5860  0.2739  1.1821
 8534SOL    HW237065   3.606   0.394   7.485  0.4719 -0.3398  0.1401
 8535SOL     OW37066   2.409   0.970   5.150  0.1527 -0.3837 -0.1530
 8535SOL    HW137067   2.318   0.981   5.180 -0.0374 -1.1175 -0.4640
 8535SOL    HW237068   2.444   1.048   5.193 -1.3981 -0.8666  2.0145
 8536SOL     OW37069   0.506   1.762   7.770 -0.3702  0.5884  0.3847
 8536SOL    HW137070   0.467   1.849   7.780 -1.1081  0.1415  1.3087
 8536SOL    HW237071   0.600   1.779   7.775 -0.5047  1.2650  0.5739
 8537SOL     OW37072   2.650   3.411   2.976 -0.1419 -0.4365 -0.4309
 8537SOL    HW137073   2.581   3.345   2.967 -0.5909  0.0387 -0.4177
 8537SOL    HW237074   2.629   3.444   3.063  0.0711 -3.0420  0.6226
 8538SOL     OW37075   4.270   1.673   1.973 -0.2418 -0.2681 -0.3214
 8538SOL    HW137076   4.191   1.698   2.021 -1.1929 -1.8971 -1.0132
 8538SOL    HW237077   4.248   1.690   1.881  0.0350  0.8537 -0.1796
 8539SOL     OW37078   1.041   0.705  13.498  0.2568 -0.4702 -0.0738
 8539SOL    HW137079   0.976   0.769  13.524  2.9412  1.8537  0.9296
 8539SOL    HW237080   1.122   0.756  13.488 -0.3331 -0.0710 -2.9054
 8540SOL     OW37081   2.538   4.212   8.943 -0.4332 -0.4000 -0.2791
 8540SOL    HW137082   2.581   4.140   8.988 -2.8363 -2.3318 -1.0570
 8540SOL    HW237083   2.449   4.176   8.935 -0.3382 -0.4946 -0.9026
 8541SOL     OW37084   0.865   0.730  12.695 -0.5717  0.4118 -0.0634
 8541SOL    HW137085   0.786   0.718  12.747  0.7114 -2.7858  1.1808
 8541SOL    HW237086   0.919   0.790  12.747 -1.8912 -0.0671  1.8320
 8542SOL     OW37087   0.398   2.239  13.607  0.5993  0.0241  0.0322
 8542SOL    HW137088   0.323   2.280  13.650  0.9624 -0.1373  0.8076
 8542SOL    HW237089   0.426   2.186  13.681 -0.0127 -0.3357  0.0111
 8543SOL     OW37090   2.476   0.186   1.801  0.4328  0.3067 -0.3814
 8543SOL    HW137091   2.449   0.094   1.797 -1.5460  0.9014 -0.4632
 8543SOL    HW237092   2.564   0.175   1.764 -0.0414 -2.1044 -0.7566
 8544SOL     OW37093   4.244   0.462  15.574 -0.2558 -0.2598 -0.1550
 8544SOL    HW137094   4.246   0.555  15.597  3.0191 -0.5210  0.5771
 8544SOL    HW237095   4.165   0.453  15.521  0.7795 -1.3842 -1.5262
 8545SOL     OW37096   4.382   2.616  13.546  0.3538 -0.2098 -0.8639
 8545SOL    HW137097   4.444   2.553  13.510 -2.3129 -1.5910 -3.0869
 8545SOL    HW237098   4.397   2.692  13.490  0.3638  0.3484 -0.1120
 8546SOL     OW37099   4.647   2.237   5.089  0.6370 -0.0502  0.3413
 8546SOL    HW137100   0.022   2.233   5.065  0.9799  0.0496  1.6828
 8546SOL    HW237101   4.659   2.201   5.177  1.7596  1.3729  0.7733
 8547SOL     OW37102   1.410   3.724   4.895  0.0786 -0.5154 -0.4976
 8547SOL    HW137103   1.485   3.718   4.955 -1.4898  0.4601  1.5140
 8547SOL    HW237104   1.345   3.735   4.963  0.2278  2.0941 -0.7853
 8548SOL     OW37105   1.157   0.752   8.867  0.6526 -0.2652 -0.5442
 8548SOL    HW137106   1.147   0.829   8.923  1.5840 -0.8459  0.4091
 8548SOL    HW237107   1.250   0.736   8.879  0.5177 -0.9381 -0.4250
 8549SOL     OW37108   1.750   1.519   2.952 -0.0688 -0.0702 -0.0114
 8549SOL    HW137109   1.831   1.554   2.989 -0.8187  0.3827  1.1885
 8549SOL    HW237110   1.775   1.474   2.871 -1.6555 -1.5009  0.2892
 8550SOL     OW37111   3.808   0.885  10.728 -0.3871 -0.4241 -0.2233
 8550SOL    HW137112   3.898   0.855  10.739  0.6913  2.9433  0.0128
 8550SOL    HW237113   3.772   0.804  10.692 -0.1783 -0.2461 -0.8238
 8551SOL     OW37114   3.435   1.280  11.685  0.2568  0.1008 -0.1907
 8551SOL    HW137115   3.499   1.281  11.757  2.6102  0.6335 -2.3075
 8551SOL    HW237116   3.449   1.199  11.636 -1.7557 -0.7835  0.6877
 8552SOL     OW37117   4.596   0.037   5.800 -0.2156  0.2728 -0.4533
 8552SOL    HW137118   4.681   0.044   5.844 -0.1201 -0.8612 -0.4463
 8552SOL    HW237119   4.563   0.126   5.809 -1.4261 -0.2447  0.2060
 8553SOL     OW37120   3.640   1.913   1.182  0.0029  0.0559 -0.8003
 8553SOL    HW137121   3.598   1.984   1.231 -1.3546 -1.0877 -0.3077
 8553SOL    HW237122   3.733   1.933   1.172  0.1756 -0.3679 -0.0436
 8554SOL     OW37123   3.630   0.877   4.277  0.0792 -0.2512  0.2942
 8554SOL    HW137124   3.662   0.821   4.206 -0.5783 -2.5064  1.7534
 8554SOL    HW237125   3.567   0.818   4.317 -1.8883 -0.0877 -2.5718
 8555SOL     OW37126   2.686   2.265   6.462  0.4095  0.4698 -0.2629
 8555SOL    HW137127   2.759   2.214   6.498  0.8488  1.0639 -0.3006
 8555SOL    HW237128   2.656   2.206   6.393  1.8578 -0.1559 -0.3648
 8556SOL     OW37129   4.012   2.347   2.577 -0.2746 -0.7192 -0.1727
 8556SOL    HW137130   3.961   2.275   2.540 -0.9567 -0.6663  0.6611
 8556SOL    HW237131   4.106   2.332   2.570 -0.2814 -1.6872  1.8418
 8557SOL     OW37132   3.497   1.312  14.455 -0.3374  0.1213  0.2163
 8557SOL    HW137133   3.543   1.318  14.371  2.2693 -0.2793  1.6432
 8557SOL    HW237134   3.470   1.221  14.457 -2.5142  0.7878  1.0479
 8558SOL     OW37135   3.570   1.291   7.267  0.0405  0.0016  0.1226
 8558SOL    HW137136   3.484   1.260   7.293  0.6477 -1.3998  0.4568
 8558SOL    HW237137   3.635   1.234   7.309  0.3167 -0.4840 -0.9479
 8559SOL     OW37138   1.319   1.470   5.583 -0.1174 -0.6281 -0.0619
 8559SOL    HW137139   1.288   1.393   5.630 -1.1863 -0.1099  0.0748
 8559SOL    HW237140   1.255   1.534   5.612 -0.4985  0.0144 -2.2691
 8560SOL     OW37141   1.445   2.871   1.123 -0.1967  0.2591  0.3273
 8560SOL    HW137142   1.511   2.862   1.054 -1.8666  1.3638 -1.3967
 8560SOL    HW237143   1.396   2.794   1.094  1.5706 -0.8920  0.3936
 8561SOL     OW37144   3.524   4.553   7.484  0.2197  0.0184 -0.5272
 8561SOL    HW137145   3.592   4.559   7.550 -0.0976 -1.2029 -0.0762
 8561SOL    HW237146   3.569   4.512   7.410 -0.0028 -1.3408  0.0769
 8562SOL     OW37147   1.992   0.947   5.843  0.1691  0.1273 -0.7738
 8562SOL    HW137148   1.955   1.031   5.816  1.9581  1.8147  2.0073
 8562SOL    HW237149   1.929   0.877   5.823 -0.0667 -0.4224  1.8604
 8563SOL     OW37150   2.793   1.980   2.562 -0.0308  0.5590 -0.0327
 8563SOL    HW137151   2.874   1.929   2.569  0.0612  0.8435  0.8883
 8563SOL    HW237152   2.819   2.051   2.504  0.1207 -0.0753 -0.7473
 8564SOL     OW37153   4.545   0.142   7.202  0.1698  0.0023  0.3208
 8564SOL    HW137154   4.556   0.158   7.108 -1.8562 -2.2685 -0.3107
 8564SOL    HW237155   4.631   0.104   7.218 -0.1881 -0.2559  1.5981
 8565SOL     OW37156   0.109   1.656  15.858  0.0855 -0.1275  0.3352
 8565SOL    HW137157   0.034   1.651  15.916  0.5404  0.9363  1.0106
 8565SOL    HW237158   0.176   1.597  15.892  0.0258  1.2511  2.8157
 8566SOL     OW37159   4.569   1.789   0.894  0.7292  0.1834  0.3135
 8566SOL    HW137160   4.624   1.868   0.892  1.0416 -0.0923 -1.7978
 8566SOL    HW237161   4.492   1.827   0.851 -0.2213 -1.5534  0.4842
 8567SOL     OW37162   1.162   2.951   8.467 -0.0135  0.2548  0.0799
 8567SOL    HW137163   1.095   2.897   8.424  0.2790  1.0063 -1.3122
 8567SOL    HW237164   1.225   2.883   8.490  0.6097  0.3294 -1.3975
 8568SOL     OW37165   3.682   1.633   4.154 -0.0621 -0.2463 -0.3054
 8568SOL    HW137166   3.751   1.586   4.202 -0.8915 -1.2623 -0.1141
 8568SOL    HW237167   3.660   1.693   4.225 -2.1985 -1.0109 -0.3251
 8569SOL     OW37168   3.739   1.835   2.778 -0.4384  0.7203  0.3013
 8569SOL    HW137169   3.800   1.806   2.711  0.4425  0.2228  1.3174
 8569SOL    HW237170   3.657   1.827   2.729  0.8409 -1.3109 -1.5107
 8570SOL     OW37171   4.143   2.901   2.410  0.2017 -0.3812 -0.1282
 8570SOL    HW137172   4.082   2.840   2.453 -0.2742  0.0621 -0.1668
 8570SOL    HW237173   4.195   2.924   2.487 -1.0381  0.9137  0.3187
 8571SOL     OW37174   2.383   3.893   8.435  0.1195 -0.3640  0.1429
 8571SOL    HW137175   2.376   3.969   8.493  1.9629 -0.2138  0.1755
 8571SOL    HW237176   2.371   3.833   8.508  0.0560  0.5938  0.9191
 8572SOL     OW37177   1.234   2.726   3.388  0.5916  0.2542  0.3577
 8572SOL    HW137178   1.203   2.766   3.469 -0.2286 -0.2283  0.2817
 8572SOL    HW237179   1.197   2.638   3.400  1.4024  0.2062  2.5293
 8573SOL     OW37180   3.078   3.976   5.306 -0.1470  0.1000 -0.5890
 8573SOL    HW137181   3.073   3.887   5.340  2.5072  0.8633  1.8304
 8573SOL    HW237182   3.173   3.985   5.312 -0.2250 -2.1654  3.8572
 8574SOL     OW37183   3.482   1.811   5.867  0.0033 -0.6154  0.3006
 8574SOL    HW137184   3.573   1.840   5.873 -0.3366  0.3513  0.7903
 8574SOL    HW237185   3.440   1.896   5.857 -0.2494 -1.0010 -1.8702
 8575SOL     OW37186   2.956   3.950  10.390 -0.3450 -0.0794  0.3870
 8575SOL    HW137187   2.994   3.994  10.313  0.4720 -0.3388  0.6534
 8575SOL    HW237188   2.987   3.996  10.468 -1.7201  0.4394  0.6424
 8576SOL     OW37189   1.859   4.602   3.825  0.3034  0.5817 -0.3140
 8576SOL    HW137190   1.946   4.616   3.787 -0.2080 -0.4464 -1.8279
 8576SOL    HW237191   1.860   4.649   3.909  1.9046 -0.4291  0.2432
 8577SOL     OW37192   1.629   2.782   8.168  0.3715 -0.2358  0.0145
 8577SOL    HW137193   1.537   2.806   8.177  0.0810 -0.5538 -2.0664
 8577SOL    HW237194   1.634   2.702   8.220  0.2074  0.6851  1.4539
 8578SOL     OW37195   0.472   1.342   7.425 -0.0088  0.1237 -0.1845
 8578SOL    HW137196   0.547   1.378   7.379 -0.8357  2.3358  0.2145
 8578SOL    HW237197   0.474   1.253   7.390 -1.3469  0.9549 -2.3109
 8579SOL     OW37198   3.057   4.550   7.534 -0.6961  0.0128  0.7043
 8579SOL    HW137199   3.141   4.584   7.566 -0.2438 -2.9115  2.5926
 8579SOL    HW237200   3.086   4.518   7.449 -0.7140  0.5038  0.5099
 8580SOL     OW37201   3.478   4.285   9.589 -0.3045  0.2726  0.1952
 8580SOL    HW137202   3.522   4.263   9.671 -1.1150  1.0700  0.8415
 8580SOL    HW237203   3.453   4.376   9.604  0.2051  0.5433 -0.5882
 8581SOL     OW37204   0.061   2.257   0.867 -0.2450 -0.1595  0.3668
 8581SOL    HW137205   0.001   2.317   0.822  0.7036 -0.9107 -1.8919
 8581SOL    HW237206   0.136   2.246   0.809 -0.9408 -0.5373 -0.4682
 8582SOL     OW37207   1.525   2.382   9.628 -0.6943  0.2248 -0.0727
 8582SOL    HW137208   1.502   2.354   9.716 -1.3874  1.2235  0.0681
 8582SOL    HW237209   1.619   2.392   9.639  0.2361 -2.3520 -5.8040
 8583SOL     OW37210   2.012   1.062   9.919  0.3142 -0.1857  0.0602
 8583SOL    HW137211   2.100   1.049   9.883 -0.0261  0.7507 -1.1001
 8583SOL    HW237212   1.955   1.046   9.845 -0.8416  4.2044  0.0373
 8584SOL     OW37213   2.627   1.015  12.513  0.0433 -0.2397  0.4587
 8584SOL    HW137214   2.593   1.085  12.458 -0.4552 -1.2047 -0.4558
 8584SOL    HW237215   2.624   1.056  12.600 -0.7459  2.0440 -0.6404
 8585SOL     OW37216   1.825   4.663   7.670  0.4593 -0.2988 -0.4109
 8585SOL    HW137217   1.871   0.017   7.629  0.8582 -0.7062 -0.6849
 8585SOL    HW237218   1.845   4.594   7.606  1.5150 -1.6470  1.3756
 8586SOL     OW37219   4.264   4.131   2.199  0.5936 -0.0538 -0.3595
 8586SOL    HW137220   4.313   4.185   2.137 -0.2291 -0.0691 -1.0183
 8586SOL    HW237221   4.258   4.198   2.267  1.3201 -3.1108  2.6949
 8587SOL     OW37222   1.101   0.825   5.280 -0.5797  0.2966  0.3527
 8587SOL    HW137223   1.118   0.813   5.374  0.0422 -0.5393  0.1289
 8587SOL    HW237224   1.066   0.740   5.253  0.3122  0.0316  0.0434
 8588SOL     OW37225   3.336   1.183   9.707  0.6978 -0.3408  0.7473
 8588SOL    HW137226   3.343   1.273   9.739 -4.1072  1.1879 -2.5813
 8588SOL    HW237227   3.254   1.196   9.660  1.5260 -0.1640 -0.6607
 8589SOL     OW37228   2.019   0.749  11.398 -0.1966 -0.3704 -0.0299
 8589SOL    HW137229   2.090   0.748  11.334  0.0331 -3.3159  0.2398
 8589SOL    HW237230   1.957   0.804  11.351  1.1088  0.5368 -0.6910
 8590SOL     OW37231   0.668   0.168   6.737  0.5945  0.7755  1.2326
 8590SOL    HW137232   0.652   0.078   6.707  0.4690  0.8757  1.0043
 8590SOL    HW237233   0.715   0.157   6.820  0.1962  2.0620  1.6317
 8591SOL     OW37234   4.607   3.787   5.337  0.3360  0.5052 -0.2526
 8591SOL    HW137235   4.533   3.841   5.364 -0.1353 -1.4227  2.2692
 8591SOL    HW237236   4.620   3.731   5.413 -1.6042  0.8846  0.3613
 8592SOL     OW37237   0.554   1.445  10.640 -0.0760  0.2612  0.4707
 8592SOL    HW137238   0.521   1.526  10.679  0.3905  1.0756 -0.8104
 8592SOL    HW237239   0.642   1.450  10.677  1.0411  1.7867 -2.3435
 8593SOL     OW37240   3.461   3.757  15.313 -0.6526 -0.3497  0.0567
 8593SOL    HW137241   3.523   3.809  15.365 -1.0116  0.1213  0.0216
 8593SOL    HW237242   3.440   3.811  15.237  1.2300  2.3156  1.4311
 8594SOL     OW37243   1.970   2.142  14.533  0.1446 -0.3943  0.0517
 8594SOL    HW137244   1.934   2.061  14.498  0.7798 -0.1908 -1.0711
 8594SOL    HW237245   1.901   2.171  14.593  0.2049 -0.9644  0.3913
 8595SOL     OW37246   0.012   2.781  11.622 -0.5025 -0.2042  0.0310
 8595SOL    HW137247   4.634   2.783  11.628 -0.4576 -0.7188  0.8986
 8595SOL    HW237248   0.013   2.753  11.530  0.6883  1.2652 -0.4108
 8596SOL     OW37249   1.461   0.781   8.150  0.4942  0.0913 -0.4227
 8596SOL    HW137250   1.501   0.762   8.065  1.7000 -2.5533  0.7436
 8596SOL    HW237251   1.496   0.702   8.191  0.8396  1.7347  2.5083
 8597SOL     OW37252   0.555   1.811   1.429  0.1125  0.7230 -0.2691
 8597SOL    HW137253   0.575   1.727   1.470 -2.2514  0.2812 -0.0282
 8597SOL    HW237254   0.526   1.862   1.504 -1.3584 -0.0739 -0.2955
 8598SOL     OW37255   4.453   1.147   7.074  0.6017  0.1708 -0.2628
 8598SOL    HW137256   4.476   1.132   6.982 -0.0279  1.3028 -0.5980
 8598SOL    HW237257   4.452   1.242   7.079  0.7690  0.2209 -1.0948
 8599SOL     OW37258   1.687   3.468   2.275  0.6755  0.7994  0.3835
 8599SOL    HW137259   1.624   3.502   2.338 -0.4556 -1.4766  0.4986
 8599SOL    HW237260   1.641   3.461   2.192 -3.2545  1.5876  2.4799
 8600SOL     OW37261   3.531   3.346   3.652  0.1852 -0.1941 -0.1327
 8600SOL    HW137262   3.485   3.274   3.609 -0.4798 -0.8079  1.6481
 8600SOL    HW237263   3.543   3.403   3.576 -0.8248  0.1749 -0.0149
 8601SOL     OW37264   3.086   1.026   7.037 -0.1599  0.4265  0.3959
 8601SOL    HW137265   3.052   0.959   6.979  0.7496 -1.2534  1.7923
 8601SOL    HW237266   3.082   0.985   7.124  0.4630 -0.1008  0.1780
 8602SOL     OW37267   1.076   0.100   4.752  0.2793  0.2343 -0.2775
 8602SOL    HW137268   1.154   0.122   4.804  0.8459  0.7492 -1.3465
 8602SOL    HW237269   1.027   0.181   4.764  0.4355  0.5709 -1.9550
 8603SOL     OW37270   0.621   3.431   4.642  0.1477  0.1885 -0.2047
 8603SOL    HW137271   0.648   3.451   4.732 -0.4846  1.1060 -0.2140
 8603SOL    HW237272   0.531   3.462   4.641 -0.2112 -0.7675  2.2837
 8604SOL     OW37273   3.588   1.677  16.110  0.3735  1.1732 -0.2633
 8604SOL    HW137274   3.672   1.712  16.139  0.6381 -0.9068  1.4816
 8604SOL    HW237275   3.582   1.730  16.030  0.6893  2.0527  0.2940
 8605SOL     OW37276   2.166   3.222  16.138  1.1502  0.1724  0.0575
 8605SOL    HW137277   2.106   3.279  16.187 -0.8890  0.5645 -2.8963
 8605SOL    HW237278   2.253   3.259  16.152  1.0813 -0.9476  3.6082
 8606SOL     OW37279   2.038   0.438   6.867 -0.3112 -0.5521 -0.3323
 8606SOL    HW137280   2.048   0.478   6.781  2.2768  3.2547  1.7517
 8606SOL    HW237281   2.089   0.496   6.923  2.8616 -2.0564 -1.6615
 8607SOL     OW37282   1.490   2.670   1.456  0.7089  0.3263 -0.0707
 8607SOL    HW137283   1.463   2.758   1.431 -3.0053 -1.0336 -0.8596
 8607SOL    HW237284   1.562   2.693   1.514  0.1351  0.3240  0.6339
 8608SOL     OW37285   1.857   1.847  17.339  0.1440 -0.3238 -0.4333
 8608SOL    HW137286   1.820   1.887  17.261 -1.8203 -1.5489 -0.1138
 8608SOL    HW237287   1.920   1.915  17.367 -0.6039 -0.0780  0.6530
 8609SOL     OW37288   3.697   4.591  13.325  0.0589 -0.0856  0.2416
 8609SOL    HW137289   3.746   4.592  13.407 -0.1407 -0.7486  0.3727
 8609SOL    HW237290   3.722   4.678  13.296  1.1737 -1.1704 -2.0760
 8610SOL     OW37291   1.304   1.061   7.597 -0.0472 -0.1284 -0.3191
 8610SOL    HW137292   1.336   0.993   7.656 -0.0648 -1.1512 -1.4787
 8610SOL    HW237293   1.251   1.005   7.539  0.6218 -1.0031 -0.0798
 8611SOL     OW37294   0.209   3.893   0.517  0.6703  0.2716 -0.1553
 8611SOL    HW137295   0.284   3.839   0.492  0.6429  0.6121 -0.9888
 8611SOL    HW237296   0.247   3.938   0.593 -1.1825  1.1834  0.2362
 8612SOL     OW37297   3.815   1.252   1.099  0.1010 -0.4728 -1.0068
 8612SOL    HW137298   3.855   1.329   1.060 -0.7608 -1.1872 -3.3071
 8612SOL    HW237299   3.765   1.286   1.173 -0.2301  0.9673 -1.8909
 8613SOL     OW37300   3.595   0.226   3.736  0.1059  0.0843 -0.5336
 8613SOL    HW137301   3.668   0.193   3.683 -0.3150 -1.2646 -0.2866
 8613SOL    HW237302   3.537   0.149   3.736  2.2871 -1.5857  2.4911
 8614SOL     OW37303   0.783   3.847  10.128  0.0062 -0.2535 -0.0216
 8614SOL    HW137304   0.730   3.821  10.203 -0.4237 -2.5765 -1.1341
 8614SOL    HW237305   0.727   3.919  10.098  0.1522 -1.1657 -2.4955
 8615SOL     OW37306   4.392   4.640   3.680 -0.3514 -0.1293 -0.1728
 8615SOL    HW137307   4.342   4.580   3.736 -0.9186 -1.7004 -2.3550
 8615SOL    HW237308   4.353   0.003   3.712 -0.2136 -0.3667  0.5924
 8616SOL     OW37309   0.185   2.536   5.933  0.2854 -0.2510 -0.3093
 8616SOL    HW137310   0.120   2.606   5.933  0.7071  0.1302 -1.9851
 8616SOL    HW237311   0.132   2.481   5.991  0.0124  1.1493  0.7719
 8617SOL     OW37312   0.672   3.321   8.808 -0.1210 -0.0701  0.4287
 8617SOL    HW137313   0.736   3.338   8.878  1.1631 -1.0646 -0.5017
 8617SOL    HW237314   0.721   3.266   8.748 -0.7477 -0.2816  0.1135
 8618SOL     OW37315   2.410   1.547   3.936  0.2019  0.8379  0.0916
 8618SOL    HW137316   2.317   1.534   3.919  0.1521 -0.5003  1.4275
 8618SOL    HW237317   2.444   1.466   3.897 -0.8014  0.0769  0.8049
 8619SOL     OW37318   4.475   4.273  11.835  0.0627 -0.6859 -0.2413
 8619SOL    HW137319   4.509   4.360  11.858 -1.8750  0.4362 -1.5235
 8619SOL    HW237320   4.555   4.222  11.824  0.3773 -0.3334  0.4527
 8620SOL     OW37321   3.314   1.259   7.352 -0.1436 -0.9795  0.4708
 8620SOL    HW137322   3.301   1.337   7.297 -1.2232 -2.0337 -0.7619
 8620SOL    HW237323   3.348   1.316   7.422 -0.5724 -0.0691 -0.0565
 8621SOL     OW37324   3.003   0.070   4.388  0.1701  0.2049  0.4421
 8621SOL    HW137325   2.968   0.158   4.403 -0.4595 -0.3342  2.1233
 8621SOL    HW237326   2.991   0.072   4.293  1.0043  0.1716  0.3374
 8622SOL     OW37327   2.192   0.129  12.045 -0.2460  0.4656 -0.0940
 8622SOL    HW137328   2.267   0.088  12.003 -0.2383  1.0724 -0.6631
 8622SOL    HW237329   2.199   0.104  12.137 -0.5100  1.2293  0.1372
 8623SOL     OW37330   2.526   2.223  11.518  0.5811 -0.6268 -0.6649
 8623SOL    HW137331   2.544   2.131  11.537  0.5320 -0.5473 -0.2200
 8623SOL    HW237332   2.519   2.260  11.606  2.1373  0.9039 -1.1819
 8624SOL     OW37333   4.278   1.501  13.665  0.2621  0.0803  0.5987
 8624SOL    HW137334   4.284   1.468  13.754  2.1113  0.6758  0.7053
 8624SOL    HW237335   4.366   1.539  13.659  0.5449 -0.4768  1.2848
 8625SOL     OW37336   0.802   0.111   6.964  0.0232 -0.3518 -0.5139
 8625SOL    HW137337   0.896   0.119   6.976 -0.3207  0.0726  1.8261
 8625SOL    HW237338   0.794   0.022   6.999  2.6368 -0.9909 -1.5400
 8626SOL     OW37339   2.441   0.096   9.007  0.4251  0.4896 -0.2646
 8626SOL    HW137340   2.516   0.152   8.986  1.3444 -0.6112  0.1086
 8626SOL    HW237341   2.470   0.063   9.092  0.3692 -0.5091 -0.6341
 8627SOL     OW37342   3.290   3.132  11.761  0.0260 -0.5425 -0.1082
 8627SOL    HW137343   3.376   3.134  11.718 -1.1453 -0.5028 -2.4675
 8627SOL    HW237344   3.235   3.111  11.686 -0.9614 -1.2299  0.8160
 8628SOL     OW37345   0.404   2.886   8.543  0.4600  0.5954 -0.2429
 8628SOL    HW137346   0.449   2.889   8.627  1.3666  0.8145 -0.7391
 8628SOL    HW237347   0.432   2.965   8.497 -0.5068 -0.3631 -2.4930
 8629SOL     OW37348   1.465   0.905   6.415  0.0671  0.6307 -0.0258
 8629SOL    HW137349   1.559   0.923   6.409  1.0822 -3.7364  2.7643
 8629SOL    HW237350   1.452   0.869   6.327 -1.0565 -0.7708  0.7183
 8630SOL     OW37351   1.438   0.531   8.244 -0.4439 -0.1014  0.4077
 8630SOL    HW137352   1.367   0.514   8.306  0.4671 -2.9445  0.6737
 8630SOL    HW237353   1.498   0.459   8.266 -1.6173 -1.1103  0.2780
 8631SOL     OW37354   0.328   0.640   4.377 -0.0769 -0.3029  0.1758
 8631SOL    HW137355   0.405   0.697   4.377 -1.5021  1.6309 -0.0311
 8631SOL    HW237356   0.253   0.698   4.389 -0.5645 -1.2301  1.6560
 8632SOL     OW37357   2.359   1.116   2.959 -0.1917  0.5717 -0.0955
 8632SOL    HW137358   2.423   1.071   3.015 -1.5031  0.6396  1.4532
 8632SOL    HW237359   2.290   1.051   2.945 -0.1219  0.3908  0.4208
 8633SOL     OW37360   2.415   2.630  11.147 -0.0592  0.2123 -0.8096
 8633SOL    HW137361   2.391   2.719  11.119  0.7257  0.8414  0.5072
 8633SOL    HW237362   2.330   2.613  11.189  0.0894 -0.2985 -0.7216
 8634SOL     OW37363   3.171   2.464  15.480 -0.1262 -0.1119 -0.1107
 8634SOL    HW137364   3.251   2.419  15.453 -0.1999  0.3161 -1.0538
 8634SOL    HW237365   3.182   2.473  15.575 -0.0232 -0.1041 -0.1245
 8635SOL     OW37366   2.456   2.414  14.891 -0.6119  0.1603 -0.5390
 8635SOL    HW137367   2.526   2.419  14.956 -0.0525 -1.9602 -1.0011
 8635SOL    HW237368   2.396   2.467  14.945  1.1546  1.6566 -0.0525
 8636SOL     OW37369   2.357   2.937   2.362 -0.3965  1.0330  0.1104
 8636SOL    HW137370   2.296   2.892   2.420 -0.0075  0.3458 -0.0147
 8636SOL    HW237371   2.348   2.889   2.279  2.0674 -1.1940  1.1426
 8637SOL     OW37372   3.995   2.834  16.496  1.0087 -0.4700  0.4113
 8637SOL    HW137373   3.927   2.814  16.560 -0.3046 -0.1498 -0.9022
 8637SOL    HW237374   4.080   2.840  16.541  0.1969  2.4410  1.5179
 8638SOL     OW37375   3.246   2.650  10.409 -0.1927  0.1285  0.3148
 8638SOL    HW137376   3.152   2.655  10.429 -0.3758 -2.1930  0.0142
 8638SOL    HW237377   3.246   2.590  10.334 -1.9184  0.6405 -0.1137
 8639SOL     OW37378   1.645   4.179   3.834  0.0097 -0.0967  0.0290
 8639SOL    HW137379   1.726   4.226   3.819 -1.2384  0.6914 -4.3331
 8639SOL    HW237380   1.574   4.235   3.802  1.7080  0.8475 -2.0318
 8640SOL     OW37381   0.014   4.116   6.029 -0.3008  0.8051 -0.4143
 8640SOL    HW137382   4.673   4.083   6.096 -0.2394  0.1478 -0.6866
 8640SOL    HW237383   4.683   4.092   5.951 -0.6168 -2.6422  0.8507
 8641SOL     OW37384   0.449   3.932  14.961 -0.2084 -0.2230  0.1811
 8641SOL    HW137385   0.380   3.894  15.015 -0.4323  0.0623  0.0944
 8641SOL    HW237386   0.529   3.926  15.013  0.4518 -0.9627 -0.9217
 8642SOL     OW37387   4.653   2.551   3.155 -0.0808  0.6006  0.4810
 8642SOL    HW137388   4.607   2.634   3.166  1.7967  1.6617  0.3157
 8642SOL    HW237389   0.012   2.568   3.209  1.6955  2.4904 -2.6484
 8643SOL     OW37390   4.081   4.508   3.178  0.0518 -0.4164 -0.3768
 8643SOL    HW137391   4.017   4.462   3.233  0.8159  1.7383  2.2918
 8643SOL    HW237392   4.028   4.538   3.103 -1.9924 -2.0889  0.3858
 8644SOL     OW37393   2.962   3.166   0.372  0.2039 -0.0430 -0.6143
 8644SOL    HW137394   2.932   3.235   0.432 -1.2332 -1.9139  0.8037
 8644SOL    HW237395   2.991   3.220   0.299  0.5839 -1.3275 -1.4077
 8645SOL     OW37396   0.223   3.358   5.778 -0.2214  0.3095 -0.2228
 8645SOL    HW137397   0.306   3.366   5.825  0.4915  1.8843 -1.7223
 8645SOL    HW237398   0.192   3.447   5.794 -0.0799  0.2328  0.4563
 8646SOL     OW37399   1.977   1.999   9.262 -0.4194 -0.1394 -0.0836
 8646SOL    HW137400   1.897   2.030   9.219 -0.6353  1.2310  1.2788
 8646SOL    HW237401   2.047   1.996   9.198 -0.9931 -0.5877 -0.6816
 8647SOL     OW37402   1.793   4.485   2.818 -0.5290 -0.4060  0.6305
 8647SOL    HW137403   1.784   4.395   2.787 -2.3825  0.0042 -0.0470
 8647SOL    HW237404   1.706   4.516   2.791 -0.5869 -0.4284  0.7960
 8648SOL     OW37405   0.250   3.396   7.671 -0.1694  0.4147 -0.1891
 8648SOL    HW137406   0.197   3.472   7.695 -3.0121 -2.0896  1.4026
 8648SOL    HW237407   0.306   3.420   7.745 -0.2239  0.6355 -0.2184
 8649SOL     OW37408   4.191   0.880   8.392  0.4870  0.4098  0.4140
 8649SOL    HW137409   4.219   0.885   8.301 -0.0768 -1.0241  0.1528
 8649SOL    HW237410   4.274   0.861   8.435  0.4756  1.4969  0.9164
 8650SOL     OW37411   1.203   2.110   8.643  0.0200 -0.7168  0.4143
 8650SOL    HW137412   1.180   2.201   8.627 -0.3537 -1.1643 -1.5733
 8650SOL    HW237413   1.239   2.084   8.558 -2.6542 -1.0752 -0.6351
 8651SOL     OW37414   3.821   2.655   8.718 -0.1623  0.1243  0.2170
 8651SOL    HW137415   3.862   2.724   8.770  0.7716 -0.5810  0.4229
 8651SOL    HW237416   3.840   2.583   8.777 -0.1384 -1.4211 -1.6962
 8652SOL     OW37417   3.120   1.211   4.606 -0.3104 -0.3486 -0.4531
 8652SOL    HW137418   3.098   1.285   4.548  1.3521  0.3823 -0.1465
 8652SOL    HW237419   3.199   1.243   4.650 -2.2278 -0.0253  2.7409
 8653SOL     OW37420   2.835   4.572   9.448 -0.3958 -0.0970  0.2750
 8653SOL    HW137421   2.845   4.550   9.541  0.9472 -1.5482 -0.2158
 8653SOL    HW237422   2.751   4.528   9.432  0.0815 -1.1502  0.6395
 8654SOL     OW37423   3.372   0.112   8.465  0.5490 -0.7601 -0.1381
 8654SOL    HW137424   3.306   0.144   8.403 -0.6181  1.2187  2.1336
 8654SOL    HW237425   3.309   0.081   8.530  1.3438 -1.2864  0.3777
 8655SOL     OW37426   4.624   1.443   6.450  0.0409  0.2293 -0.1416
 8655SOL    HW137427   4.670   1.504   6.393  1.4230  1.1658  1.9916
 8655SOL    HW237428   4.543   1.429   6.400  0.3078  0.9344 -0.7770
 8656SOL     OW37429   4.117   3.077   8.139  0.1074  0.7313  0.1876
 8656SOL    HW137430   4.191   3.094   8.080 -1.7182  2.0320 -1.7371
 8656SOL    HW237431   4.138   2.988   8.168 -2.7029  0.5155  1.5410
 8657SOL     OW37432   1.558   2.641   5.261 -0.5473  0.2369  0.9708
 8657SOL    HW137433   1.510   2.593   5.194 -0.8337  0.2246  1.1880
 8657SOL    HW237434   1.530   2.722   5.217 -0.0148  0.0551  0.2980
 8658SOL     OW37435   0.776   4.055   6.297  0.1103 -0.4129  0.4455
 8658SOL    HW137436   0.721   3.977   6.300 -0.1315 -0.2536  0.0534
 8658SOL    HW237437   0.730   4.114   6.238 -1.4150 -0.2515  1.7993
 8659SOL     OW37438   2.828   3.727  16.657  0.4078 -0.2914  0.8239
 8659SOL    HW137439   2.920   3.732  16.684  0.8377  0.4133 -0.7809
 8659SOL    HW237440   2.822   3.806  16.604 -0.2223 -2.0591 -1.7465
 8660SOL     OW37441   3.410   1.120   1.242 -0.5709  0.1166  0.4221
 8660SOL    HW137442   3.445   1.042   1.285  0.8276 -0.4538 -1.7257
 8660SOL    HW237443   3.326   1.085   1.215  0.6061 -0.3577 -2.6389
 8661SOL     OW37444   3.892   3.530   0.358  0.1855 -0.1702  0.1791
 8661SOL    HW137445   3.842   3.540   0.438 -2.2245 -2.7536 -1.0300
 8661SOL    HW237446   3.977   3.496   0.387 -0.6099  0.4674  3.2656
 8662SOL     OW37447   0.100   0.817   7.775  0.0620  0.7230 -0.4230
 8662SOL    HW137448   0.047   0.796   7.699 -0.7116 -1.0036  0.5798
 8662SOL    HW237449   0.044   0.787   7.847 -0.8380  1.1643 -0.9416
 8663SOL     OW37450   3.513   3.961   8.629  0.5519  0.0938 -0.0354
 8663SOL    HW137451   3.513   4.052   8.597 -0.7376  0.0136 -0.2620
 8663SOL    HW237452   3.485   3.973   8.720  0.5825 -0.1791  0.0086
 8664SOL     OW37453   4.047   4.418  13.575  0.0264  0.2255  0.1698
 8664SOL    HW137454   4.118   4.450  13.520 -1.7123 -0.5445 -2.5296
 8664SOL    HW237455   3.990   4.494  13.562 -0.3840 -0.0316  0.4461
 8665SOL     OW37456   3.007   1.531  13.438 -0.1869  0.0618  0.0074
 8665SOL    HW137457   3.099   1.555  13.447 -0.6597  1.7901  0.2436
 8665SOL    HW237458   3.015   1.438  13.418  0.1721 -0.2006  1.3489
 8666SOL     OW37459   2.587   1.603   3.589 -0.1359 -0.6119 -0.0834
 8666SOL    HW137460   2.556   1.526   3.541 -3.4327  2.1543 -2.2820
 8666SOL    HW237461   2.656   1.556   3.637  1.4055  0.8269 -0.8927
 8667SOL     OW37462   4.094   2.046   2.843  0.9220 -0.2370  0.0214
 8667SOL    HW137463   4.132   2.002   2.919  0.3444  0.9448  1.0094
 8667SOL    HW237464   4.011   2.077   2.879  1.2167  1.4755 -0.7700
 8668SOL     OW37465   2.517   1.653  17.003  0.0924 -0.4516  0.1126
 8668SOL    HW137466   2.500   1.568  17.042 -0.5554 -0.3171  0.1138
 8668SOL    HW237467   2.566   1.703  17.068 -0.1754 -0.1233  0.0577
 8669SOL     OW37468   1.615   3.777   9.065 -0.3417 -0.0016 -0.1566
 8669SOL    HW137469   1.637   3.856   9.016  0.1344 -0.5611 -0.8395
 8669SOL    HW237470   1.672   3.789   9.142 -1.3025  1.0710  0.3835
 8670SOL     OW37471   0.112   3.435   0.337  0.0725 -0.6018  0.6217
 8670SOL    HW137472   0.152   3.426   0.251 -1.7784 -0.1328 -0.2903
 8670SOL    HW237473   0.154   3.363   0.385 -0.9210 -0.2971  1.9596
 8671SOL     OW37474   4.074   0.495   3.374  0.1294 -0.2753  0.2597
 8671SOL    HW137475   4.120   0.413   3.392 -0.0910 -0.4901 -0.1460
 8671SOL    HW237476   4.131   0.571   3.384  0.2788 -0.5555  1.5447
 8672SOL     OW37477   3.871   2.709   9.488  0.7523 -0.7184 -0.2922
 8672SOL    HW137478   3.856   2.803   9.503  0.5964 -0.5162 -1.7362
 8672SOL    HW237479   3.813   2.670   9.553 -0.0863  0.9617 -0.0232
 8673SOL     OW37480   0.235   3.718  15.141 -1.0207  0.0109 -0.1316
 8673SOL    HW137481   0.248   3.639  15.192  0.6428 -0.4634 -1.3162
 8673SOL    HW237482   0.274   3.786  15.196  2.9460 -2.6305  0.2718
 8674SOL     OW37483   3.961   0.775   4.321 -0.2049 -0.1963  0.0187
 8674SOL    HW137484   3.918   0.759   4.405  1.7168 -1.2651  0.7929
 8674SOL    HW237485   3.909   0.722   4.260  0.5838  0.3459 -1.1119
 8675SOL     OW37486   1.039   1.197   4.884  0.2041 -0.5675 -0.0139
 8675SOL    HW137487   0.982   1.240   4.821  1.0457  2.3547  1.2105
 8675SOL    HW237488   1.053   1.281   4.927 -2.5047  0.7133 -1.6896
 8676SOL     OW37489   3.894   1.343   3.900  0.3642 -0.1457  0.2116
 8676SOL    HW137490   3.925   1.277   3.962  1.3884  0.2994  0.1718
 8676SOL    HW237491   3.830   1.294   3.848 -0.2545 -0.6172  1.4363
 8677SOL     OW37492   4.602   4.159   8.621 -0.1847 -0.1564 -0.1982
 8677SOL    HW137493   4.609   4.177   8.715  0.1496 -2.1390  0.1468
 8677SOL    HW237494   4.668   4.222   8.592  0.3328  0.0070  1.3373
 8678SOL     OW37495   3.118   1.373   5.020  0.9291  0.0111 -0.2180
 8678SOL    HW137496   3.125   1.398   4.928 -0.2890 -0.7034 -0.5162
 8678SOL    HW237497   3.118   1.277   5.015 -1.7823  0.0452 -0.8458
 8679SOL     OW37498   0.606   1.809   5.198 -0.0013 -0.2174  0.5658
 8679SOL    HW137499   0.621   1.724   5.156 -0.7843  0.1227 -0.4083
 8679SOL    HW237500   0.694   1.845   5.213  0.2270 -1.1410  1.4335
 8680SOL     OW37501   1.179   2.455  11.313 -0.2677  0.0504  0.3189
 8680SOL    HW137502   1.170   2.549  11.332  3.8181  0.5526 -0.2948
 8680SOL    HW237503   1.113   2.452  11.244 -1.0445  2.3235  0.9451
 8681SOL     OW37504   0.702   2.870   2.816  0.5280  0.4173  0.0544
 8681SOL    HW137505   0.728   2.783   2.785 -0.7591 -0.4713  1.5003
 8681SOL    HW237506   0.778   2.897   2.868 -0.1238  2.0613  0.1705
 8682SOL     OW37507   0.561   3.249   8.101 -0.6392 -0.4001 -0.0583
 8682SOL    HW137508   0.647   3.290   8.094  0.4065 -2.3229  1.6220
 8682SOL    HW237509   0.539   3.290   8.185 -0.9685  3.6302 -2.1060
 8683SOL     OW37510   4.186   3.881   2.627  0.2668  0.9743  0.0669
 8683SOL    HW137511   4.095   3.861   2.608 -0.0421  1.0227  1.4928
 8683SOL    HW237512   4.175   3.976   2.624 -0.3782  0.8853 -0.3477
 8684SOL     OW37513   0.518   2.115   7.881 -0.4698 -0.4108 -0.1226
 8684SOL    HW137514   0.543   2.078   7.965 -0.3678  2.1365  0.9932
 8684SOL    HW237515   0.579   2.185   7.857  0.7503 -0.7545  1.9878
 8685SOL     OW37516   1.538   1.401   5.440  0.0842 -0.3631  0.2489
 8685SOL    HW137517   1.455   1.409   5.487 -0.3005  1.2047 -0.7102
 8685SOL    HW237518   1.578   1.341   5.503  0.5061  0.6340  0.9262
 8686SOL     OW37519   3.946   3.262   3.561  0.9364 -0.5602 -0.3197
 8686SOL    HW137520   4.019   3.265   3.500  1.0179  1.5332 -0.1141
 8686SOL    HW237521   3.907   3.181   3.528 -1.2774  0.0660  0.7132
 8687SOL     OW37522   3.247   0.708   7.600  0.3809 -0.3887  0.4098
 8687SOL    HW137523   3.267   0.639   7.664 -1.3899 -2.8492 -1.6719
 8687SOL    HW237524   3.279   0.656   7.525 -0.7241 -0.4902  0.0080
 8688SOL     OW37525   2.269   3.703  13.820  0.0946 -0.1437  0.0700
 8688SOL    HW137526   2.342   3.765  13.816  0.2538 -0.2173  1.8067
 8688SOL    HW237527   2.277   3.689  13.915 -0.4960  2.6499  0.5330
 8689SOL     OW37528   3.537   2.526   4.643  0.2232  0.2338 -0.0002
 8689SOL    HW137529   3.611   2.469   4.664 -1.2123 -1.0675  1.5850
 8689SOL    HW237530   3.535   2.588   4.716 -0.3157  1.4696 -1.0611
 8690SOL     OW37531   1.552   2.087   5.738  0.3362  0.3520  0.3789
 8690SOL    HW137532   1.530   1.997   5.714 -0.2884  0.5141  0.3474
 8690SOL    HW237533   1.580   2.119   5.652  1.0180 -2.8236 -0.5807
 8691SOL     OW37534   4.653   0.146   6.414  0.4436  0.4953 -0.4161
 8691SOL    HW137535   4.628   0.234   6.384  1.8162  1.2845  0.7725
 8691SOL    HW237536   4.566   0.106   6.423  1.0436 -0.5641  0.6243
 8692SOL     OW37537   0.612   1.678   8.611  0.1380 -0.0342 -0.1108
 8692SOL    HW137538   0.564   1.595   8.611 -1.3165  0.7948  1.8654
 8692SOL    HW237539   0.679   1.655   8.547  1.8177  1.8386  0.9713
 8693SOL     OW37540   1.626   4.694   1.557  0.4733  0.0910  0.2365
 8693SOL    HW137541   1.568   4.630   1.517  0.7106 -0.8426  1.3743
 8693SOL    HW237542   1.571   0.052   1.542 -1.9139 -1.6941 -0.0569
 8694SOL     OW37543   0.931   3.698   9.994  0.6217  0.2686  0.1355
 8694SOL    HW137544   0.869   3.762  10.028 -1.1238 -3.0606  3.2833
 8694SOL    HW237545   1.009   3.751   9.975 -0.1996  1.2215 -0.5600
 8695SOL     OW37546   0.817   1.871   6.423 -0.0431  0.5872 -0.2111
 8695SOL    HW137547   0.817   1.831   6.510 -1.5569  0.2696 -0.3552
 8695SOL    HW237548   0.757   1.814   6.374 -2.1092  2.8964 -0.3443
 8696SOL     OW37549   0.897   3.025   8.743  0.2384  0.0543 -0.5430
 8696SOL    HW137550   0.842   2.949   8.729  1.6828 -0.9651 -0.6303
 8696SOL    HW237551   0.850   3.090   8.691  1.2286  0.5415 -0.8385
 8697SOL     OW37552   3.489   3.106   7.181  0.1652 -0.4871 -0.4913
 8697SOL    HW137553   3.491   3.095   7.086 -2.2028  2.4393 -0.8841
 8697SOL    HW237554   3.433   3.183   7.177  0.8927  0.0941  0.5325
 8698SOL     OW37555   3.005   1.768  13.585 -0.2366  0.0528 -0.3167
 8698SOL    HW137556   2.981   1.687  13.539  1.2298 -1.3978  1.4607
 8698SOL    HW237557   3.004   1.825  13.508 -0.0873  1.2844  0.5813
 8699SOL     OW37558   0.580   3.003   2.531 -0.1590  0.6017 -0.2076
 8699SOL    HW137559   0.607   2.935   2.592 -1.1514  1.2189  0.8996
 8699SOL    HW237560   0.485   3.000   2.543 -0.2836  2.3926 -0.7291
 8700SOL     OW37561   3.025   3.887   7.950  0.0631  0.1540  0.4054
 8700SOL    HW137562   3.111   3.895   7.910  0.0769  0.4430  0.4937
 8700SOL    HW237563   3.007   3.794   7.964  0.8716  0.0358  0.6495
 8701SOL     OW37564   4.422   3.679   1.201  0.6291  0.1186 -0.3554
 8701SOL    HW137565   4.489   3.748   1.200  1.1188 -0.3902 -2.5616
 8701SOL    HW237566   4.474   3.599   1.211  3.1854  1.4577 -2.6458
 8702SOL     OW37567   0.847   3.582  11.554 -0.3249 -0.1192 -0.0207
 8702SOL    HW137568   0.790   3.533  11.495 -0.6985 -0.4763  0.6390
 8702SOL    HW237569   0.810   3.555  11.638  1.7150  1.6027  1.4234
 8703SOL     OW37570   2.537   0.092   3.677 -0.1859 -0.2683  0.3971
 8703SOL    HW137571   2.480   0.070   3.750 -0.0346  2.2958  1.2801
 8703SOL    HW237572   2.534   0.009   3.629  1.6265 -1.3037  2.0463
 8704SOL     OW37573   2.076   3.427   8.812 -0.2384 -0.4094 -0.1572
 8704SOL    HW137574   2.042   3.338   8.818  0.0869 -0.3755  2.0613
 8704SOL    HW237575   2.004   3.485   8.837  3.1111  3.4175  0.7200
 8705SOL     OW37576   2.052   0.109   8.150  0.2403 -0.1343  0.1441
 8705SOL    HW137577   2.105   0.052   8.206  1.4942  0.0770 -0.8113
 8705SOL    HW237578   2.011   0.042   8.096  2.0195 -0.9981 -0.1530
 8706SOL     OW37579   3.980   1.616   6.553  0.5476  0.9883  0.1710
 8706SOL    HW137580   4.013   1.706   6.548 -1.1370  1.5152 -1.5192
 8706SOL    HW237581   4.053   1.564   6.585  0.8768  1.6555  0.5100
 8707SOL     OW37582   4.316   1.146   2.454  0.1345  0.2955  0.5770
 8707SOL    HW137583   4.280   1.096   2.381  2.8559 -0.3874 -0.2938
 8707SOL    HW237584   4.387   1.202   2.421 -0.7610  1.7213  1.0644
 8708SOL     OW37585   1.555   1.190   4.875  0.3545 -0.3529 -0.3165
 8708SOL    HW137586   1.622   1.228   4.932 -0.0272 -1.5188  0.9369
 8708SOL    HW237587   1.478   1.198   4.932  0.1327  2.4048 -1.0335
 8709SOL     OW37588   2.468   1.405   5.631 -0.1200 -0.2865 -0.2749
 8709SOL    HW137589   2.510   1.340   5.688 -1.2007 -1.1068 -0.4190
 8709SOL    HW237590   2.387   1.432   5.676 -0.7886  0.5597 -2.0068
 8710SOL     OW37591   0.624   2.510   8.057  0.4831 -0.0181  0.3864
 8710SOL    HW137592   0.719   2.507   8.043  0.4976  0.5533  0.3417
 8710SOL    HW237593   0.602   2.604   8.055 -0.6889 -0.3085 -0.6135
 8711SOL     OW37594   1.466   1.975  12.702  0.3964 -0.4714  0.1049
 8711SOL    HW137595   1.420   1.947  12.623 -1.3170  1.0058  0.5741
 8711SOL    HW237596   1.402   1.944  12.766  1.2509 -0.6810  0.8574
 8712SOL     OW37597   3.671   0.168   9.238 -0.6791  0.8948 -0.1266
 8712SOL    HW137598   3.613   0.092   9.240  1.6782 -0.8848  0.6148
 8712SOL    HW237599   3.606   0.237   9.222 -1.5133  0.1382  0.0242
 8713SOL     OW37600   2.492   0.330   2.029  0.4828 -0.1104  0.6953
 8713SOL    HW137601   2.494   0.282   1.946  1.7155 -3.3719  2.6137
 8713SOL    HW237602   2.454   0.269   2.092  0.1742 -1.5999 -0.9184
 8714SOL     OW37603   3.869   0.938   2.412 -0.0060 -0.3177 -0.5856
 8714SOL    HW137604   3.796   0.968   2.357 -0.6772 -0.4183  0.2457
 8714SOL    HW237605   3.837   0.851   2.437 -0.6595  0.4586  1.2754
 8715SOL     OW37606   1.573   3.791   0.753  0.3748 -0.1164 -0.8751
 8715SOL    HW137607   1.603   3.709   0.714  2.8727 -0.0733  0.9801
 8715SOL    HW237608   1.641   3.814   0.816  0.8953 -1.0944 -1.0900
 8716SOL     OW37609   2.920   1.894  16.849  0.4897  0.5314 -0.1514
 8716SOL    HW137610   2.845   1.929  16.897 -0.1446 -0.8147 -0.1590
 8716SOL    HW237611   2.913   1.946  16.769  0.0479  2.0896  0.8984
 8717SOL     OW37612   1.895   2.408   4.463 -0.0362  0.4167  0.1581
 8717SOL    HW137613   1.952   2.347   4.417 -0.7376  0.7994 -1.2164
 8717SOL    HW237614   1.893   2.484   4.405  3.3705 -0.1618 -0.7121
 8718SOL     OW37615   0.566   2.510  15.760  0.2948  0.2562  0.5074
 8718SOL    HW137616   0.640   2.522  15.702 -1.4936  0.3406 -1.7580
 8718SOL    HW237617   0.538   2.600  15.777  1.6225  0.7482 -0.0053
 8719SOL     OW37618   0.472   0.577  13.410  0.0448 -0.6034  0.0326
 8719SOL    HW137619   0.543   0.631  13.443  1.1452 -0.9992 -1.6953
 8719SOL    HW237620   0.511   0.530  13.336  0.9367 -1.1617  0.8579
 8720SOL     OW37621   1.542   0.482  16.831 -0.5149  0.2994  0.1328
 8720SOL    HW137622   1.564   0.562  16.880  2.2903 -1.2723  1.3955
 8720SOL    HW237623   1.619   0.462  16.778  2.1854  3.4195  2.8535
 8721SOL     OW37624   1.860   4.281  14.666 -0.5145 -0.4307  0.1777
 8721SOL    HW137625   1.939   4.330  14.644 -1.0436  0.3006 -0.0930
 8721SOL    HW237626   1.804   4.338  14.613  0.2850  0.0791 -0.1351
 8722SOL     OW37627   2.142   2.296   1.070  0.6375  0.5800  0.5681
 8722SOL    HW137628   2.174   2.385   1.076  0.7556  0.6172 -0.6373
 8722SOL    HW237629   2.049   2.309   1.090  0.3799  0.7955 -0.7239
 8723SOL     OW37630   2.404   3.705  10.996 -0.2526  0.0076 -0.1582
 8723SOL    HW137631   2.398   3.761  11.073  2.5722  0.9355 -0.6061
 8723SOL    HW237632   2.312   3.697  10.971 -0.3545  0.1176  0.1781
 8724SOL     OW37633   2.622   1.701   4.376 -0.2280 -0.5369 -0.0316
 8724SOL    HW137634   2.644   1.654   4.296 -1.1277 -0.3020 -0.4194
 8724SOL    HW237635   2.603   1.789   4.343  1.1760  0.8819  2.9604
 8725SOL     OW37636   4.573   4.582  17.407 -0.3388 -0.2985  0.1426
 8725SOL    HW137637   4.585   4.652  17.470  0.8644  1.4873 -2.0748
 8725SOL    HW237638   4.558   4.627  17.324 -2.8286 -0.5613  0.4494
 8726SOL     OW37639   0.390   0.122   8.036 -0.2120  0.2643  0.0228
 8726SOL    HW137640   0.351   0.071   8.107 -0.0241  0.4078  0.2296
 8726SOL    HW237641   0.407   0.208   8.075  1.9489 -0.1034 -0.1025
 8727SOL     OW37642   3.920   0.650   5.627  0.2000 -0.4937  0.2614
 8727SOL    HW137643   3.921   0.607   5.712  1.7887  1.1218  1.0651
 8727SOL    HW237644   3.875   0.585   5.573 -2.2491 -0.3665  2.1796
 8728SOL     OW37645   0.301   0.216   2.865  0.1245  0.2964 -0.1724
 8728SOL    HW137646   0.230   0.264   2.823 -0.2334 -0.8916 -0.9216
 8728SOL    HW237647   0.377   0.270   2.847 -0.1131  0.4406 -0.7263
 8729SOL     OW37648   0.340   0.789   5.650  0.2584  0.2291 -0.0878
 8729SOL    HW137649   0.271   0.849   5.622  1.0616  0.6447 -1.1798
 8729SOL    HW237650   0.306   0.771   5.737  0.1192 -0.7889 -0.3483
 8730SOL     OW37651   2.347   0.091   5.665 -0.4342 -0.2658  0.2187
 8730SOL    HW137652   2.401   0.066   5.590 -1.0152 -1.7424  0.2882
 8730SOL    HW237653   2.343   0.186   5.655 -0.0386 -0.3903 -1.0306
 8731SOL     OW37654   2.088   4.052   8.611  0.0460 -0.2311 -0.1736
 8731SOL    HW137655   2.080   3.971   8.560  1.4858  0.1664 -1.0132
 8731SOL    HW237656   2.182   4.046   8.624 -0.0120 -0.1179  0.3197
 8732SOL     OW37657   4.682   3.093  14.792 -0.0887  0.2499 -0.6249
 8732SOL    HW137658   4.601   3.083  14.741 -0.4884 -1.2866  0.3286
 8732SOL    HW237659   4.633   3.064  14.869 -2.0008  0.5617 -1.7139
 8733SOL     OW37660   2.073   3.492   3.674 -0.5926  0.5760  0.3487
 8733SOL    HW137661   2.020   3.412   3.680  1.6371 -1.1814 -3.5833
 8733SOL    HW237662   2.019   3.552   3.622 -1.3086 -0.4139 -0.0399
 8734SOL     OW37663   3.092   2.583   1.730 -0.1484 -0.7641 -0.4332
 8734SOL    HW137664   2.999   2.597   1.718  0.1669 -1.5771 -3.7462
 8734SOL    HW237665   3.097   2.616   1.820  0.6018  0.1527 -0.8157
 8735SOL     OW37666   4.325   3.093   7.628 -0.1395 -0.3544  0.3829
 8735SOL    HW137667   4.383   3.134   7.563 -0.4237 -2.4496 -1.1897
 8735SOL    HW237668   4.312   3.009   7.583 -3.3993 -0.5881  1.8019
 8736SOL     OW37669   3.348   4.504  16.409 -0.1262  0.0139  0.1660
 8736SOL    HW137670   3.374   4.483  16.319 -2.9753 -3.4194  0.1614
 8736SOL    HW237671   3.288   4.576  16.389  0.4962  0.1659 -1.1587
 8737SOL     OW37672   0.933   3.523  15.150 -0.0179 -0.3272  0.3648
 8737SOL    HW137673   0.858   3.566  15.191  0.9988 -0.2551  2.1369
 8737SOL    HW237674   1.012   3.567  15.183  1.5732 -2.0550 -1.1246
 8738SOL     OW37675   1.865   4.094   4.297 -0.1416 -0.4254  0.3546
 8738SOL    HW137676   1.929   4.027   4.274  0.3259 -0.2686  1.1949
 8738SOL    HW237677   1.789   4.039   4.315 -0.4683 -0.0279  0.2075
 8739SOL     OW37678   3.709   1.400   0.798 -0.3726  0.0315 -0.0288
 8739SOL    HW137679   3.790   1.394   0.747 -0.9966 -0.5986 -0.9549
 8739SOL    HW237680   3.741   1.369   0.882 -4.0914 -3.0163  0.2181
 8740SOL     OW37681   1.859   4.663   1.421  0.1157 -0.3470  0.5028
 8740SOL    HW137682   1.906   0.023   1.451 -1.2552  1.0779 -1.0968
 8740SOL    HW237683   1.777   4.662   1.470 -2.1902 -0.1272 -3.3781
 8741SOL     OW37684   2.388   3.068   2.051 -0.2107 -0.3166 -0.3068
 8741SOL    HW137685   2.404   3.096   2.141  0.8653  1.5801 -1.0852
 8741SOL    HW237686   2.478   3.075   2.020 -0.2598 -1.3185 -0.6517
 8742SOL     OW37687   4.615   0.691  16.375  0.0950  0.8203  0.6181
 8742SOL    HW137688   4.548   0.631  16.342 -1.2488  2.4296  0.4649
 8742SOL    HW237689   4.637   0.642  16.455  2.0787  1.0379  0.2019
 8743SOL     OW37690   3.343   2.052   3.174 -0.5864  0.2555  0.1989
 8743SOL    HW137691   3.427   2.006   3.173 -0.2343  0.9100 -0.3139
 8743SOL    HW237692   3.346   2.097   3.258  2.7121 -1.7337  1.1590
 8744SOL     OW37693   4.242   3.381   4.618  0.4978  1.0675  0.4171
 8744SOL    HW137694   4.178   3.431   4.568  0.4022 -1.7317 -2.2145
 8744SOL    HW237695   4.308   3.347   4.558  0.7296  3.0124 -0.4436
 8745SOL     OW37696   4.625   1.491  13.781 -0.5909  0.3258 -0.1849
 8745SOL    HW137697   4.595   1.523  13.696  0.9618 -0.9985 -1.2394
 8745SOL    HW237698   4.558   1.430  13.811 -0.3730  0.2003  0.0510
 8746SOL     OW37699   0.534   3.023  15.885 -0.1869  0.4101  0.7006
 8746SOL    HW137700   0.577   3.095  15.932 -0.6962  0.2611  1.3879
 8746SOL    HW237701   0.499   3.076  15.813  1.1433 -0.5473 -0.6623
 8747SOL     OW37702   4.063   3.394  11.416 -0.3443 -0.1411  0.2034
 8747SOL    HW137703   4.109   3.469  11.379 -1.2972  1.2085  1.7750
 8747SOL    HW237704   3.988   3.378  11.359 -0.9045 -1.2737  1.2362
 8748SOL     OW37705   4.058   2.477   4.806 -0.2614 -0.0478 -0.1998
 8748SOL    HW137706   3.984   2.422   4.780 -2.9306  3.6325 -0.2531
 8748SOL    HW237707   4.071   2.534   4.730  4.8834 -0.6830  0.1603
 8749SOL     OW37708   3.538   1.126   7.986 -0.0623 -0.1379  0.0033
 8749SOL    HW137709   3.458   1.175   8.007  0.9094  0.7181  1.6643
 8749SOL    HW237710   3.613   1.166   8.030 -0.1672 -2.5552  2.3679
 8750SOL     OW37711   1.046   3.663   2.735 -0.3558 -0.0659 -0.4857
 8750SOL    HW137712   1.032   3.584   2.787 -0.8629 -0.1860 -0.8034
 8750SOL    HW237713   1.101   3.714   2.794 -1.1051 -1.3824  1.3179
 8751SOL     OW37714   1.048   1.327  10.598  0.5924  0.3431 -0.9302
 8751SOL    HW137715   1.018   1.317  10.688  2.4521 -2.9482 -0.6851
 8751SOL    HW237716   1.002   1.256  10.554  0.7410 -0.0903 -0.3711
 8752SOL     OW37717   3.638   2.113   2.709 -0.0833  0.0683  0.4660
 8752SOL    HW137718   3.549   2.078   2.711 -0.0506  0.0041  0.7323
 8752SOL    HW237719   3.696   2.041   2.730 -2.4701 -1.6906  1.0641
 8753SOL     OW37720   0.085   1.423   2.707 -0.0448  0.0245 -0.2373
 8753SOL    HW137721   0.116   1.374   2.783  0.6026  1.6337  0.5246
 8753SOL    HW237722   0.047   1.351   2.656 -1.5143 -0.3182  1.3451
 8754SOL     OW37723   0.389   0.081  11.460  0.3812  0.0829  0.1562
 8754SOL    HW137724   0.424   0.144  11.397 -0.5788 -0.7528 -1.1904
 8754SOL    HW237725   0.347   0.148  11.515 -3.6067 -0.7176 -1.9077
 8755SOL     OW37726   1.408   0.014  12.681 -0.1858 -0.2015 -0.5017
 8755SOL    HW137727   1.406   0.091  12.624 -3.4107 -0.8645 -1.3046
 8755SOL    HW237728   1.362   4.671  12.623  0.0577 -1.0266  0.1774
 8756SOL     OW37729   1.508   3.085   5.025 -0.5175 -0.0662 -0.6632
 8756SOL    HW137730   1.443   3.120   5.086  0.8180  0.6713  0.3545
 8756SOL    HW237731   1.581   3.144   5.045  0.5025 -2.0508  1.4828
 8757SOL     OW37732   2.578   2.257   7.771  0.4254  0.0269 -0.0034
 8757SOL    HW137733   2.630   2.248   7.692 -0.9097 -0.4275 -0.8295
 8757SOL    HW237734   2.625   2.193   7.825 -2.2540  0.2376  2.6192
 8758SOL     OW37735   4.160   1.546   4.724  0.1448 -0.5043  0.9289
 8758SOL    HW137736   4.161   1.632   4.682  1.6008 -0.4663  1.0278
 8758SOL    HW237737   4.163   1.487   4.649  1.2133 -0.6812  1.1144
 8759SOL     OW37738   2.685   2.280   9.680  0.8773 -0.5992 -0.4923
 8759SOL    HW137739   2.673   2.283   9.585 -1.3788  1.2853 -0.1643
 8759SOL    HW237740   2.760   2.337   9.694  1.8999 -1.8316 -1.0009
 8760SOL     OW37741   3.744   1.165   9.338 -0.1955 -1.0320  0.3849
 8760SOL    HW137742   3.689   1.090   9.360 -1.4975 -0.4098 -0.7197
 8760SOL    HW237743   3.724   1.173   9.244  0.2792  1.9569  0.5228
 8761SOL     OW37744   0.462   3.303   7.175 -0.3681 -0.3324 -0.3286
 8761SOL    HW137745   0.417   3.307   7.260 -0.8281 -0.1537 -0.5829
 8761SOL    HW237746   0.385   3.303   7.119 -1.1806 -1.1520  0.7814
 8762SOL     OW37747   2.125   2.811   8.460  0.0220  0.6054 -0.5669
 8762SOL    HW137748   2.140   2.849   8.373  1.4763 -1.1979 -1.1114
 8762SOL    HW237749   2.204   2.835   8.507 -0.7264  0.5348  0.7209
 8763SOL     OW37750   0.527   1.281   0.727  0.3314 -0.6257 -0.1819
 8763SOL    HW137751   0.491   1.246   0.645  1.7161 -2.7539  0.1343
 8763SOL    HW237752   0.600   1.219   0.726  0.6010 -0.3085  0.0023
 8764SOL     OW37753   1.887   0.983   8.826  0.4207  0.4808 -0.2184
 8764SOL    HW137754   1.909   0.891   8.841 -0.9992  0.0319 -0.8437
 8764SOL    HW237755   1.835   0.969   8.747  2.7351  1.2681 -1.8909
 8765SOL     OW37756   3.818   1.066  17.327  1.2042 -0.4544 -0.0822
 8765SOL    HW137757   3.791   0.976  17.345  0.3306  0.0119  0.9415
 8765SOL    HW237758   3.755   1.116  17.379  1.8823 -0.7824  1.0554
 8766SOL     OW37759   4.485   2.313  12.477  0.0859 -0.7023 -0.0339
 8766SOL    HW137760   4.425   2.283  12.408  0.0639 -3.2317  1.0871
 8766SOL    HW237761   4.502   2.230  12.521 -1.5432 -2.5647 -2.9497
 8767SOL     OW37762   2.033   2.353   3.698 -0.0947  0.0907 -0.2669
 8767SOL    HW137763   1.957   2.404   3.727 -0.4733 -0.9390  0.5603
 8767SOL    HW237764   2.051   2.400   3.617  1.7140  1.4600  0.9357
 8768SOL     OW37765   3.080   3.963  11.254  0.0520  0.2637 -0.7137
 8768SOL    HW137766   2.986   3.944  11.243 -0.1794 -0.3495  2.4491
 8768SOL    HW237767   3.091   3.912  11.334 -3.9502 -0.3377 -0.5090
 8769SOL     OW37768   3.029   2.796   6.299  0.0832 -0.0153 -0.2651
 8769SOL    HW137769   3.076   2.801   6.216  0.9760  1.0081  0.3028
 8769SOL    HW237770   3.054   2.706   6.323  3.1274  0.7221 -0.6543
 8770SOL     OW37771   0.157   2.585   4.196  0.2604  0.0279  0.0903
 8770SOL    HW137772   0.168   2.513   4.134 -0.0173  1.8462 -2.0946
 8770SOL    HW237773   0.075   2.616   4.158  0.9563  0.9466 -0.6670
 8771SOL     OW37774   0.268   1.679  10.193  0.5818 -0.5318  0.8936
 8771SOL    HW137775   0.276   1.590  10.226 -0.0074 -0.3738  1.4490
 8771SOL    HW237776   0.172   1.686  10.197  0.5327  0.6674 -1.9119
 8772SOL     OW37777   1.067   2.740   5.247  0.7678 -0.1036  0.1497
 8772SOL    HW137778   0.991   2.762   5.301 -0.7227 -0.9666 -1.6224
 8772SOL    HW237779   1.031   2.781   5.168 -0.3658 -0.8088  0.3041
 8773SOL     OW37780   1.229   1.831   6.147  0.6001 -0.2123  0.4390
 8773SOL    HW137781   1.254   1.747   6.184  0.3654  0.6659  2.5744
 8773SOL    HW237782   1.196   1.882   6.220  1.5412  2.4008 -0.9317
 8774SOL     OW37783   4.311   1.515   8.545 -0.0690  0.3254  0.5973
 8774SOL    HW137784   4.309   1.591   8.488 -0.4898 -0.2006 -0.0907
 8774SOL    HW237785   4.379   1.531   8.610  0.2459  0.7525  0.1559
 8775SOL     OW37786   1.089   1.886  10.211 -0.5012  0.4107 -0.3337
 8775SOL    HW137787   1.102   1.915  10.121 -0.2478 -3.4377 -1.5436
 8775SOL    HW237788   1.160   1.933  10.255  0.8798 -2.5117  0.5350
 8776SOL     OW37789   2.451   1.922  17.017 -0.2995 -0.0714  0.1690
 8776SOL    HW137790   2.501   1.872  17.082 -1.7528 -1.7581 -0.0152
 8776SOL    HW237791   2.405   1.851  16.973  0.0865 -0.9703  1.1883
 8777SOL     OW37792   0.073   3.905   4.882 -0.1171 -0.1113  0.5971
 8777SOL    HW137793   0.112   3.993   4.888  0.9008 -0.5195 -0.0488
 8777SOL    HW237794   0.025   3.903   4.965 -3.2700 -1.6117 -1.2629
 8778SOL     OW37795   3.534   2.487  11.629  0.4180  0.2627 -0.4103
 8778SOL    HW137796   3.533   2.582  11.627  1.4876  0.2617 -1.0879
 8778SOL    HW237797   3.624   2.454  11.628 -0.4543 -2.2011  0.5276
 8779SOL     OW37798   1.676   3.366   8.522  0.4382  0.1169  0.3118
 8779SOL    HW137799   1.653   3.444   8.572  0.9945  1.2278 -1.1641
 8779SOL    HW237800   1.748   3.401   8.470 -0.7204  0.7367 -0.9059
 8780SOL     OW37801   2.305   0.079   0.283  0.1756 -0.0263  0.0200
 8780SOL    HW137802   2.320   0.021   0.357  2.7699  2.3042  1.3183
 8780SOL    HW237803   2.391   0.080   0.241 -0.8633 -2.1029 -2.1142
 8781SOL     OW37804   4.492   1.251  14.371 -0.3633  0.0444  0.2916
 8781SOL    HW137805   4.466   1.174  14.321 -2.5169 -0.2736  1.9073
 8781SOL    HW237806   4.518   1.209  14.453  0.3158 -0.1245 -0.0066
 8782SOL     OW37807   1.894   0.901   1.599 -0.5598 -0.2087  0.2029
 8782SOL    HW137808   1.952   0.895   1.675 -0.5185 -2.1129  0.0265
 8782SOL    HW237809   1.940   0.957   1.538  0.7663  0.1202  1.5218
 8783SOL     OW37810   0.425   2.855  16.071 -0.1135  0.1673  0.0923
 8783SOL    HW137811   0.355   2.914  16.044 -0.1329 -0.8812 -2.1407
 8783SOL    HW237812   0.490   2.879  16.006  1.0417 -4.1121 -0.3827
 8784SOL     OW37813   0.658   2.386  13.077  0.0168 -0.8809  0.1103
 8784SOL    HW137814   0.673   2.475  13.047 -0.4922 -0.0040  2.4369
 8784SOL    HW237815   0.701   2.366  13.160  0.2682 -0.6099  0.0408
 8785SOL     OW37816   1.679   0.183  17.449  0.0591  0.6348 -0.0302
 8785SOL    HW137817   1.672   0.096  17.410 -0.0377 -0.5203  2.5959
 8785SOL    HW237818   1.589   0.214  17.450  0.1793  1.0893 -1.7086
 8786SOL     OW37819   1.206   0.280   7.635 -0.1419  0.5049 -0.4437
 8786SOL    HW137820   1.168   0.318   7.556  1.7617  3.2103 -0.0302
 8786SOL    HW237821   1.155   0.325   7.702  1.8481  2.1910 -0.0642
 8787SOL     OW37822   4.429   0.054  16.823  0.2302 -0.3343  0.3194
 8787SOL    HW137823   4.425   0.037  16.729 -1.5346  4.0476 -0.3794
 8787SOL    HW237824   4.421   4.688  16.868  1.3474  0.9303  2.8705
 8788SOL     OW37825   4.634   2.439  13.330 -0.6182  0.3641  0.0002
 8788SOL    HW137826   4.557   2.403  13.374 -1.6144  1.4391 -0.8558
 8788SOL    HW237827   4.588   2.435  13.246  0.8844  1.0466 -0.8508
 8789SOL     OW37828   2.076   2.771   5.168 -0.0578 -0.1428 -0.3069
 8789SOL    HW137829   1.999   2.717   5.152  0.4621 -1.2472  0.9018
 8789SOL    HW237830   2.098   2.737   5.254  1.4660 -0.3550 -0.7722
 8790SOL     OW37831   3.556   2.767   6.669  0.0866 -0.1639 -0.3553
 8790SOL    HW137832   3.577   2.771   6.763  1.9182 -0.6858 -0.7565
 8790SOL    HW237833   3.540   2.675   6.648 -0.1403 -0.0014 -0.8886
 8791SOL     OW37834   3.953   3.481   4.159  0.7099  0.5670 -0.3360
 8791SOL    HW137835   3.984   3.505   4.072 -0.1791 -3.3502 -1.7414
 8791SOL    HW237836   3.873   3.435   4.135  0.1245  1.4530 -0.0622
 8792SOL     OW37837   0.115   4.245  11.545 -0.2520 -0.4560  0.4705
 8792SOL    HW137838   0.138   4.168  11.492 -1.7086 -0.4512 -0.1740
 8792SOL    HW237839   0.201   4.279  11.569  0.2376  0.3696 -2.4457
 8793SOL     OW37840   1.550   0.299   6.390  0.2261  0.6397 -0.3449
 8793SOL    HW137841   1.598   0.381   6.399 -0.8678  1.5450 -2.7332
 8793SOL    HW237842   1.462   0.337   6.391  0.6269  1.5871 -2.1409
 8794SOL     OW37843   0.584   4.533   3.556 -0.5306  0.0573  0.1582
 8794SOL    HW137844   0.636   4.468   3.508 -0.1005  1.7439 -1.6615
 8794SOL    HW237845   0.631   4.545   3.639 -0.2882  0.0435  0.0228
 8795SOL     OW37846   0.218   1.479   3.367 -0.1372  0.2259 -0.2194
 8795SOL    HW137847   0.311   1.472   3.345 -0.2390 -1.0889 -0.2124
 8795SOL    HW237848   0.210   1.574   3.359 -2.8853 -0.0369 -0.5361
 8796SOL     OW37849   1.048   3.470   4.871  0.2842  0.5693 -0.0202
 8796SOL    HW137850   1.140   3.456   4.851 -0.0825 -0.3904 -1.0339
 8796SOL    HW237851   1.033   3.559   4.841  0.2669  0.1900 -1.1319
 8797SOL     OW37852   3.463   4.065   8.892 -0.0316 -0.1696 -0.4888
 8797SOL    HW137853   3.531   4.044   8.956 -2.4062  0.0089  2.1368
 8797SOL    HW237854   3.414   4.140   8.925  0.1552 -1.1578  2.1201
 8798SOL     OW37855   4.184   3.334   7.237 -0.3094 -0.2328 -0.5714
 8798SOL    HW137856   4.265   3.378   7.261 -0.3801 -0.6719  0.5022
 8798SOL    HW237857   4.147   3.327   7.325 -1.7467 -0.8540 -1.2254
 8799SOL     OW37858   2.972   2.840   1.510  0.6458  0.1469 -0.3947
 8799SOL    HW137859   2.958   2.919   1.562  0.0890  0.2799 -0.7426
 8799SOL    HW237860   3.066   2.847   1.495  0.4049  1.3187 -1.3101
 8800SOL     OW37861   1.754   1.256   9.253 -0.4950 -0.2681 -0.6084
 8800SOL    HW137862   1.746   1.213   9.168 -0.0328 -2.1801  0.2999
 8800SOL    HW237863   1.847   1.281   9.254 -0.1730 -1.4432 -1.6298
 8801SOL     OW37864   3.222   3.971   6.479 -0.0196  0.6375 -0.5186
 8801SOL    HW137865   3.219   3.944   6.387 -1.3172 -1.0651  0.0425
 8801SOL    HW237866   3.242   3.886   6.519 -0.3305  0.4234 -0.8229
 8802SOL     OW37867   2.929   2.610   5.886 -0.2890 -0.7005  0.1522
 8802SOL    HW137868   3.022   2.604   5.909 -0.5540 -1.4255  1.0081
 8802SOL    HW237869   2.924   2.669   5.811  1.2206 -0.1425  0.4778
 8803SOL     OW37870   2.232   4.606   1.360  0.6554 -0.3662  0.0143
 8803SOL    HW137871   2.206   4.667   1.291 -1.7524  1.5191  2.5759
 8803SOL    HW237872   2.326   4.616   1.374  0.8913 -1.7538 -0.5648
 8804SOL     OW37873   4.088   3.145   8.931 -0.1756  0.6711 -0.0173
 8804SOL    HW137874   4.028   3.150   8.857  0.2698  3.3161 -0.1975
 8804SOL    HW237875   4.031   3.191   8.992 -0.0014  0.6074  0.1928
 8805SOL     OW37876   2.278   2.750   5.819 -0.0612  0.8143  0.0999
 8805SOL    HW137877   2.349   2.691   5.796  0.5081  0.9662  1.4612
 8805SOL    HW237878   2.314   2.806   5.887  1.1944  1.1570 -0.8605
 8806SOL     OW37879   0.903   3.724   4.829  0.1337  0.3070  0.3592
 8806SOL    HW137880   0.993   3.756   4.821  0.6084 -1.1831 -0.1914
 8806SOL    HW237881   0.861   3.794   4.779 -2.1489 -1.6388 -0.4695
 8807SOL     OW37882   1.433   1.469  16.087 -0.3500 -0.5657 -0.2951
 8807SOL    HW137883   1.412   1.538  16.024  0.9278  1.6067  1.6789
 8807SOL    HW237884   1.367   1.406  16.059 -1.1932 -0.3104  1.0911
 8808SOL     OW37885   4.440   1.825   2.247  0.0145  0.1560  0.1860
 8808SOL    HW137886   4.493   1.805   2.324 -0.1099 -1.9752 -0.2786
 8808SOL    HW237887   4.436   1.736   2.212 -0.5004  0.3261 -0.1752
 8809SOL     OW37888   0.968   1.772   3.127 -0.5360 -0.4453  0.3452
 8809SOL    HW137889   0.892   1.827   3.107  0.4448  0.2206 -1.5923
 8809SOL    HW237890   0.956   1.753   3.220 -0.7839  0.3595  0.4845
 8810SOL     OW37891   4.031   2.285   5.352 -0.3378 -0.3660 -0.7011
 8810SOL    HW137892   4.038   2.242   5.437  1.6860  0.6865 -0.3227
 8810SOL    HW237893   4.043   2.213   5.289 -0.5279 -0.3121 -0.7965
 8811SOL     OW37894   3.936   0.935   8.470  0.1683  0.0676  0.0745
 8811SOL    HW137895   3.977   0.989   8.538  3.1127 -1.7743 -0.2446
 8811SOL    HW237896   4.016   0.908   8.424  0.2568  1.7347 -0.7320
 8812SOL     OW37897   0.495   2.962   3.125 -0.1387  0.7543  0.0487
 8812SOL    HW137898   0.578   2.998   3.155  0.0471 -0.0307  0.4928
 8812SOL    HW237899   0.443   2.983   3.203  0.1654  1.4777  0.0537
 8813SOL     OW37900   4.475   0.982  10.967  0.5623 -0.3437  0.0999
 8813SOL    HW137901   4.485   1.014  11.056  0.3490 -0.4847  0.1764
 8813SOL    HW237902   4.390   0.938  10.974  0.3395  0.5122  2.6631
 8814SOL     OW37903   3.885   3.153   8.749 -0.7774  0.1773 -0.2280
 8814SOL    HW137904   3.821   3.224   8.750 -0.1822  0.7288 -1.1369
 8814SOL    HW237905   3.852   3.087   8.689  0.6658 -0.4440 -0.3543
 8815SOL     OW37906   3.245   3.083   9.075 -0.0177  0.5348 -0.6108
 8815SOL    HW137907   3.255   3.172   9.040 -0.3866  1.2841  1.1725
 8815SOL    HW237908   3.281   3.089   9.164 -0.8506 -2.6917 -0.0550
 8816SOL     OW37909   3.936   4.029  12.502  0.2996  0.7154  0.2152
 8816SOL    HW137910   3.946   3.997  12.592  2.3851  3.1684  0.8485
 8816SOL    HW237911   3.950   4.123  12.514  1.6906  0.6399 -0.8116
 8817SOL     OW37912   3.627   1.472   2.675 -0.1925 -0.4534 -0.3256
 8817SOL    HW137913   3.715   1.461   2.712 -0.0852  0.7712 -0.2194
 8817SOL    HW237914   3.654   1.489   2.584 -0.3888  1.1383 -0.0760
 8818SOL     OW37915   2.389   0.204   6.274  0.1024  0.3173  0.3216
 8818SOL    HW137916   2.451   0.203   6.201  0.5340  2.0982  0.6457
 8818SOL    HW237917   2.333   0.129   6.258 -0.4864  0.3651  2.1068
 8819SOL     OW37918   2.011   2.472   3.456 -0.2828  0.2236  0.0071
 8819SOL    HW137919   1.925   2.478   3.413 -1.2903  0.7269  2.1090
 8819SOL    HW237920   2.079   2.494   3.393  0.4401 -0.5903  0.5080
 8820SOL     OW37921   4.618   4.676   1.956  0.3645  0.2603 -0.0228
 8820SOL    HW137922   4.626   4.695   2.050 -1.8900 -0.5451  0.3201
 8820SOL    HW237923   4.648   4.585   1.958  1.1169  0.4214 -3.9855
 8821SOL     OW37924   3.408   1.298   2.735  0.0134  0.3099  0.1075
 8821SOL    HW137925   3.484   1.350   2.707 -1.0054  1.0786 -1.1948
 8821SOL    HW237926   3.336   1.359   2.721 -0.4512 -0.6144 -1.4242
 8822SOL     OW37927   1.323   4.381  11.265 -0.0355  0.0539  0.0660
 8822SOL    HW137928   1.358   4.314  11.206  1.1955  1.3944 -0.7353
 8822SOL    HW237929   1.331   4.462  11.214  0.9351  0.5572  1.0297
 8823SOL     OW37930   1.315   3.229  10.190 -0.5866 -0.0312 -0.2348
 8823SOL    HW137931   1.256   3.291  10.147 -2.0397 -0.7332  0.7541
 8823SOL    HW237932   1.373   3.286  10.240 -1.0998 -0.3745  0.7560
 8824SOL     OW37933   2.476   1.096   3.391  0.1013  0.2936  0.0739
 8824SOL    HW137934   2.508   1.087   3.301  2.3273  4.2551  0.4573
 8824SOL    HW237935   2.533   1.038   3.441 -0.0796  0.7969  0.8557
 8825SOL     OW37936   3.962   0.706   9.721  0.0190 -0.1819 -0.6065
 8825SOL    HW137937   3.869   0.724   9.734 -0.1538 -1.3724 -0.1934
 8825SOL    HW237938   3.956   0.653   9.641  0.6843  0.8056 -1.3159
 8826SOL     OW37939   2.111   2.778   3.813 -0.1772  0.4259 -0.1068
 8826SOL    HW137940   2.018   2.773   3.794 -0.0522  2.2435 -1.1809
 8826SOL    HW237941   2.154   2.753   3.731  0.4957 -0.3189  0.4607
 8827SOL     OW37942   0.384   2.878   9.566 -0.2312  0.0661  0.1870
 8827SOL    HW137943   0.385   2.833   9.650 -0.2177  1.3100  0.8593
 8827SOL    HW237944   0.338   2.957   9.596 -0.2274 -0.8765  2.6476
 8828SOL     OW37945   4.512   2.701   7.485  0.6607 -0.1250 -0.2741
 8828SOL    HW137946   4.470   2.615   7.474  1.2292 -0.1129 -2.5689
 8828SOL    HW237947   4.531   2.734   7.397 -0.1785 -0.6413 -0.6546
 8829SOL     OW37948   1.344   3.844   6.698 -0.5132  0.0662  0.3908
 8829SOL    HW137949   1.350   3.917   6.637 -2.7469  0.2097  0.3131
 8829SOL    HW237950   1.248   3.847   6.709 -0.5861 -1.8654  0.3589
 8830SOL     OW37951   2.051   2.142   5.134  0.1922 -0.6145 -0.0946
 8830SOL    HW137952   2.046   2.200   5.209  0.9109  0.0959 -0.5946
 8830SOL    HW237953   2.109   2.182   5.070  1.6127 -0.3407  1.3688
 8831SOL     OW37954   0.411   2.564  16.251  0.0966 -0.2382  0.5929
 8831SOL    HW137955   0.472   2.633  16.279  0.6122  0.5709 -2.5182
 8831SOL    HW237956   0.331   2.605  16.283  0.3206  1.7047 -1.3431
 8832SOL     OW37957   0.003   4.681  10.552  0.2184 -0.2866 -0.3026
 8832SOL    HW137958   4.694   0.050  10.582  0.5012 -0.2380 -0.1926
 8832SOL    HW237959   0.097   4.695  10.556 -0.2512  2.7320  0.1390
 8833SOL     OW37960   4.427   1.739  13.841 -0.1858  0.8544 -0.3002
 8833SOL    HW137961   4.389   1.825  13.824  2.0325  1.8278 -0.3445
 8833SOL    HW237962   4.381   1.714  13.921 -0.1999 -2.6500 -1.4170
 8834SOL     OW37963   3.883   4.657   6.315 -0.4328 -0.4813 -0.9240
 8834SOL    HW137964   3.820   4.699   6.374 -0.0081 -1.1403  0.0060
 8834SOL    HW237965   3.908   4.583   6.370 -2.5987 -0.4050  0.1864
 8835SOL     OW37966   1.306   0.475   6.370  0.1645  0.2503  0.2167
 8835SOL    HW137967   1.232   0.535   6.383  1.4817  1.8518  0.2857
 8835SOL    HW237968   1.368   0.518   6.429 -0.4180  1.2899  0.0869
 8836SOL     OW37969   1.472   0.094   6.663 -0.4372  0.2773 -0.4109
 8836SOL    HW137970   1.545   0.099   6.725 -0.9375  1.7240  0.0577
 8836SOL    HW237971   1.525   0.075   6.586  1.5497  0.6064  0.8728
 8837SOL     OW37972   4.051   3.590   4.537  0.4678  0.0843  0.2326
 8837SOL    HW137973   4.078   3.665   4.590  1.0114  0.6437 -0.8225
 8837SOL    HW237974   4.017   3.622   4.453 -2.2669 -0.9608  0.9628
 8838SOL     OW37975   4.129   1.833   6.645 -0.0328 -0.0692  0.1853
 8838SOL    HW137976   4.203   1.894   6.645  1.1692 -1.5151 -1.6759
 8838SOL    HW237977   4.177   1.762   6.687 -0.7545 -1.3000 -1.0742
 8839SOL     OW37978   2.242   3.118   7.728 -0.3119  0.2479 -0.4082
 8839SOL    HW137979   2.235   3.137   7.822 -3.6565  1.8193 -0.9635
 8839SOL    HW237980   2.182   3.184   7.692 -0.7925 -0.0486 -0.1565
 8840SOL     OW37981   0.759   1.027  10.902  0.0049 -0.6725 -0.0340
 8840SOL    HW137982   0.728   0.951  10.852 -0.7052  2.5390 -4.3751
 8840SOL    HW237983   0.687   1.086  10.881  0.1220 -0.3441  0.4926
 8841SOL     OW37984   4.107   3.939   4.065  0.4751 -0.4664  0.2345
 8841SOL    HW137985   4.140   3.895   4.143  2.8176 -0.0700 -0.5271
 8841SOL    HW237986   4.179   3.929   4.002 -0.1567  0.4855 -0.6433
 8842SOL     OW37987   3.975   4.507  10.929 -0.9507  0.2473 -0.0157
 8842SOL    HW137988   3.933   4.440  10.983 -2.6039 -1.9691 -4.0199
 8842SOL    HW237989   3.953   4.586  10.978  0.9018  0.9572 -0.3571
 8843SOL     OW37990   2.802   3.911   7.357  0.3303 -0.9357  0.6182
 8843SOL    HW137991   2.819   3.842   7.292 -0.4429 -0.6987  0.1589
 8843SOL    HW237992   2.753   3.857   7.420 -0.2346  0.6303  1.5058
 8844SOL     OW37993   2.405   1.612  13.548  0.3697 -0.2012 -0.7938
 8844SOL    HW137994   2.370   1.554  13.617 -0.4200 -0.3373 -1.3065
 8844SOL    HW237995   2.325   1.663  13.534  0.5080  0.2719  0.1703
 8845SOL     OW37996   0.816   2.287   3.230 -0.2998 -0.0443 -0.2057
 8845SOL    HW137997   0.809   2.328   3.316 -1.1069  2.0443 -1.2665
 8845SOL    HW237998   0.806   2.194   3.249  0.5308  0.1885  1.3556
 8846SOL     OW37999   2.178   2.597   4.214 -0.3936  0.4168  0.0313
 8846SOL    HW138000   2.250   2.615   4.154 -0.2448  0.1682  0.1358
 8846SOL    HW238001   2.159   2.504   4.205  1.9884  0.1309 -1.7955
 8847SOL     OW38002   3.445   3.452  10.829  0.3850 -0.6356  0.1700
 8847SOL    HW138003   3.529   3.408  10.835  1.2940  1.2387  1.4132
 8847SOL    HW238004   3.389   3.382  10.797  0.3944  0.3652 -1.9968
 8848SOL     OW38005   4.208   1.358  11.851  0.4947 -0.5310 -0.0233
 8848SOL    HW138006   4.257   1.287  11.892 -0.7363  0.5908  3.4818
 8848SOL    HW238007   4.144   1.386  11.917  0.1121 -0.6607 -0.3437
 8849SOL     OW38008   3.956   1.361   7.823  0.4611  0.6638  0.0054
 8849SOL    HW138009   4.015   1.349   7.897 -1.4667  2.3092  1.8369
 8849SOL    HW238010   3.919   1.273   7.824  0.2253  0.7711  1.3206
 8850SOL     OW38011   2.629   2.287   7.234  0.4106 -0.2818 -0.1008
 8850SOL    HW138012   2.562   2.347   7.265 -1.6164 -2.7260  0.2534
 8850SOL    HW238013   2.640   2.233   7.312  0.0144  2.4373  1.8111
 8851SOL     OW38014   4.504   2.109  10.235 -0.4032 -0.5400 -0.0856
 8851SOL    HW138015   4.471   2.031  10.190 -0.6545 -0.8711  0.6750
 8851SOL    HW238016   4.596   2.088  10.219 -0.2927 -0.1977  0.1023
 8852SOL     OW38017   1.617   2.762  16.361  0.2470 -0.5287 -0.0992
 8852SOL    HW138018   1.648   2.768  16.452  2.9454 -2.8041 -0.8668
 8852SOL    HW238019   1.601   2.855  16.343  1.5265 -0.3464 -0.2586
 8853SOL     OW38020   4.222   0.753   2.802 -0.4882  0.5756 -0.3748
 8853SOL    HW138021   4.147   0.803   2.834  0.1419  1.3422 -0.1068
 8853SOL    HW238022   4.271   0.826   2.765 -0.9171  1.1429  0.1757
 8854SOL     OW38023   3.990   3.813  17.590  0.3783 -0.2855 -0.2020
 8854SOL    HW138024   3.990   3.769  17.675 -1.4710 -0.9891 -0.5652
 8854SOL    HW238025   3.896   3.829  17.595  0.4610  0.8078 -1.9979
 8855SOL     OW38026   1.772   2.257   2.528  0.2863 -0.0144  0.1746
 8855SOL    HW138027   1.830   2.330   2.546 -0.6100  0.4546  1.1705
 8855SOL    HW238028   1.724   2.292   2.453  0.3029  0.3065  0.3133
 8856SOL     OW38029   3.949   4.676   1.715  0.9280 -0.1391  0.2149
 8856SOL    HW138030   4.014   4.633   1.772  0.8428  0.4613  0.7616
 8856SOL    HW238031   3.884   4.687   1.785  0.4755 -0.2004 -0.1906
 8857SOL     OW38032   1.611   1.879   6.980 -0.2033  0.0864 -0.0351
 8857SOL    HW138033   1.626   1.785   6.983 -0.4410  0.0191 -1.1852
 8857SOL    HW238034   1.622   1.907   7.071  0.1298 -0.5042  0.1065
 8858SOL     OW38035   4.042   1.282  17.413  0.1839 -0.1480 -0.5501
 8858SOL    HW138036   4.128   1.248  17.438  1.2217  1.5992 -1.7119
 8858SOL    HW238037   4.006   1.197  17.390  0.4634 -0.5739  0.5957
 8859SOL     OW38038   1.618   2.537   8.276 -0.2626 -0.8254  0.5319
 8859SOL    HW138039   1.606   2.443   8.265 -0.6059 -0.4421 -2.5452
 8859SOL    HW238040   1.549   2.545   8.342 -1.3706 -1.2037 -0.5642
 8860SOL     OW38041   4.471   3.341   4.065  0.1410  0.1832  0.4489
 8860SOL    HW138042   4.405   3.400   4.102  1.1132  0.9804  0.8981
 8860SOL    HW238043   4.501   3.394   3.992 -0.0381  0.4972  0.6030
 8861SOL     OW38044   3.518   1.299   3.959  0.2551 -0.2227  0.0229
 8861SOL    HW138045   3.572   1.276   4.035 -0.9950  0.1433  1.0299
 8861SOL    HW238046   3.589   1.299   3.895  0.9173  2.2195  0.7608
 8862SOL     OW38047   1.279   1.056   6.843 -0.2679 -0.8228 -0.1757
 8862SOL    HW138048   1.321   1.105   6.913  2.1756 -3.6449  0.3249
 8862SOL    HW238049   1.317   1.096   6.764 -0.3047  0.2283  0.3446
 8863SOL     OW38050   4.433   1.615  15.138 -0.0777 -0.3437 -0.0290
 8863SOL    HW138051   4.411   1.668  15.061  1.6446  1.7701  0.9294
 8863SOL    HW238052   4.506   1.570  15.096 -0.2281 -2.0121  1.5111
 8864SOL     OW38053   2.978   3.845   3.165  0.0139 -0.0890 -0.0251
 8864SOL    HW138054   2.992   3.935   3.134 -0.9856  0.0191 -0.1646
 8864SOL    HW238055   2.926   3.804   3.096 -2.1389 -0.7601  2.0042
 8865SOL     OW38056   3.969   4.618  14.216  0.3701 -0.4503  0.7007
 8865SOL    HW138057   4.036   4.553  14.240  0.0802 -1.9452 -2.6004
 8865SOL    HW238058   4.027   4.690  14.191 -1.0056 -0.6204 -2.9882
 8866SOL     OW38059   3.003   4.517  10.037  0.3388  0.0139 -0.2554
 8866SOL    HW138060   2.981   4.521   9.944 -0.2233  0.4604 -0.1052
 8866SOL    HW238061   2.964   4.433  10.062 -0.3315  1.2718  2.9170
 8867SOL     OW38062   2.177   3.089  14.910  1.1618 -0.5296  0.2474
 8867SOL    HW138063   2.082   3.099  14.907  1.0400 -1.9885 -1.1061
 8867SOL    HW238064   2.197   3.144  14.985  0.4000 -0.2315  0.2342
 8868SOL     OW38065   3.017   3.446   3.221  0.0197  0.0722 -0.6612
 8868SOL    HW138066   2.990   3.374   3.165  2.6814  0.2083 -2.1280
 8868SOL    HW238067   2.963   3.431   3.298  1.2058 -2.4583 -0.3349
 8869SOL     OW38068   1.810   3.546   3.375 -0.7027  0.3953 -0.0385
 8869SOL    HW138069   1.717   3.565   3.360 -1.6447 -2.1234  2.6290
 8869SOL    HW238070   1.810   3.451   3.359 -1.2287  0.2844  0.6303
 8870SOL     OW38071   2.596   2.718   2.608 -0.1789 -0.0724 -0.3021
 8870SOL    HW138072   2.585   2.719   2.704  2.0161 -1.2121 -0.0423
 8870SOL    HW238073   2.536   2.786   2.578  1.0948  0.5957 -1.3203
 8871SOL     OW38074   0.309   0.073   1.567 -1.0749  0.0420 -0.3467
 8871SOL    HW138075   0.397   0.086   1.601 -1.9433 -0.2199  2.0155
 8871SOL    HW238076   0.279   4.707   1.603  1.4183 -0.5105  0.4145
 8872SOL     OW38077   2.477   1.920  11.051 -0.0234 -0.1705  0.7624
 8872SOL    HW138078   2.424   1.872  10.987  0.2820  0.5591 -0.0459
 8872SOL    HW238079   2.412   1.959  11.109  0.0145  2.0770 -0.6999
 8873SOL     OW38080   3.088   4.577   4.547  0.1616  0.2941  0.1116
 8873SOL    HW138081   3.144   4.642   4.589  0.7323 -0.4272  0.4804
 8873SOL    HW238082   3.018   4.641   4.535  0.8755  1.2743  1.1797
 8874SOL     OW38083   2.905   1.515   4.494 -0.0742 -0.0475  0.5221
 8874SOL    HW138084   2.920   1.603   4.461  1.8836  0.1151  1.8490
 8874SOL    HW238085   2.904   1.533   4.588  1.3071 -0.4964  0.6133
 8875SOL     OW38086   3.098   4.073   4.777  1.0334  0.5563  0.3205
 8875SOL    HW138087   3.021   4.049   4.828  1.1076  1.3404  0.8002
 8875SOL    HW238088   3.096   4.169   4.775 -1.3779  0.4826  0.2462
 8876SOL     OW38089   3.173   3.547   9.153  0.3532 -0.2384 -0.2530
 8876SOL    HW138090   3.212   3.634   9.141  1.0421 -0.5451 -0.2140
 8876SOL    HW238091   3.084   3.580   9.169 -0.0843 -0.1842 -2.7371
 8877SOL     OW38092   0.865   1.758   2.856  0.1640 -0.3023 -0.2017
 8877SOL    HW138093   0.866   1.765   2.951 -1.7409  0.8113 -0.2679
 8877SOL    HW238094   0.815   1.837   2.834 -1.4432 -1.0582  0.7364
 8878SOL     OW38095   3.704   1.244   3.703  0.0704  0.7491  0.0454
 8878SOL    HW138096   3.682   1.154   3.681  2.7921 -0.3274  1.8385
 8878SOL    HW238097   3.690   1.278   3.614  2.8827 -1.6752 -1.3406
 8879SOL     OW38098   4.377   3.516   4.296 -0.3058 -0.5725 -0.2445
 8879SOL    HW138099   4.446   3.456   4.324  1.1889  2.0203  1.6231
 8879SOL    HW238100   4.300   3.460   4.303 -1.3106  0.5222 -2.5098
 8880SOL     OW38101   0.289   1.004   2.848  0.4162  0.0642  0.4940
 8880SOL    HW138102   0.349   0.954   2.794 -0.5099 -0.2700 -0.2234
 8880SOL    HW238103   0.210   0.965   2.811  0.1084  2.0834 -0.9575
 8881SOL     OW38104   2.182   2.805   4.363 -0.0319  0.2303 -0.5129
 8881SOL    HW138105   2.211   2.733   4.307 -0.1308  1.1117 -1.7153
 8881SOL    HW238106   2.139   2.864   4.301 -1.2246 -0.3209 -0.2072
 8882SOL     OW38107   0.260   2.421  10.489 -0.4853 -0.0387 -0.2246
 8882SOL    HW138108   0.172   2.401  10.456 -1.1231 -0.4091  1.7500
 8882SOL    HW238109   0.251   2.490  10.553 -2.3198  0.3535 -0.9011
 8883SOL     OW38110   0.004   2.652  14.227  0.1730 -0.6153  0.2006
 8883SOL    HW138111   4.678   2.568  14.241  2.4788 -1.7848  0.5496
 8883SOL    HW238112   0.097   2.628  14.229  0.2383 -0.3890 -0.1484
 8884SOL     OW38113   1.237   2.690   6.694 -0.3962  0.4661 -0.2803
 8884SOL    HW138114   1.171   2.759   6.698  0.9853  1.7547  0.0752
 8884SOL    HW238115   1.317   2.735   6.667 -0.6202  1.0220 -0.0219
 8885SOL     OW38116   0.274   3.970  16.058  0.3686 -0.4499 -0.3000
 8885SOL    HW138117   0.206   4.034  16.037 -0.8156 -2.1080 -1.4595
 8885SOL    HW238118   0.287   3.981  16.152  0.3591 -3.1740 -0.0016
 8886SOL     OW38119   4.247   2.688   2.844  0.0056  0.2394  0.3376
 8886SOL    HW138120   4.189   2.624   2.885  1.5794 -0.8073  0.9145
 8886SOL    HW238121   4.302   2.711   2.919  1.7792 -0.1993 -0.8396
 8887SOL     OW38122   3.512   1.820   2.632  0.3171 -0.1337  0.3128
 8887SOL    HW138123   3.469   1.751   2.581 -1.5676  0.0031  1.7494
 8887SOL    HW238124   3.549   1.870   2.559  1.0631 -0.2427  0.6172
 8888SOL     OW38125   4.276   1.005   9.596  0.5078 -0.3278 -0.4793
 8888SOL    HW138126   4.226   0.932   9.559  0.9991 -0.5727 -0.6613
 8888SOL    HW238127   4.331   0.961   9.661  1.6583  1.2175 -0.4070
 8889SOL     OW38128   0.538   0.562   4.060  0.2316  0.0260  0.4800
 8889SOL    HW138129   0.593   0.611   4.120 -1.4700  0.2697  1.8555
 8889SOL    HW238130   0.582   0.477   4.058 -0.1614 -0.1745  0.3212
 8890SOL     OW38131   4.431   1.901   5.379 -0.2592 -0.2505 -0.9390
 8890SOL    HW138132   4.439   1.960   5.455  3.4471 -1.7916 -0.1100
 8890SOL    HW238133   4.337   1.890   5.372 -0.6478  0.6548  2.5599
 8891SOL     OW38134   2.186   1.228  12.034 -0.2430  0.2455 -0.0317
 8891SOL    HW138135   2.154   1.227  11.944 -1.7185 -1.8645  0.5047
 8891SOL    HW238136   2.280   1.238  12.022 -0.0726 -0.3273  0.7629
 8892SOL     OW38137   3.587   3.593  17.629 -0.3746 -0.1674  0.2108
 8892SOL    HW138138   3.498   3.624  17.644  0.0275  1.2680 -0.2926
 8892SOL    HW238139   3.642   3.651   0.006 -0.8724  0.2924  0.2305
 8893SOL     OW38140   3.875   4.061   4.037  0.2320  0.0703 -0.0943
 8893SOL    HW138141   3.876   4.142   4.088 -1.3297  0.3673 -0.5339
 8893SOL    HW238142   3.960   4.020   4.054  0.6700  1.4574  1.0495
 8894SOL     OW38143   0.531   0.077   9.563 -0.1893  0.3028  0.1591
 8894SOL    HW138144   0.537   0.119   9.648 -0.2194  0.0200  0.3007
 8894SOL    HW238145   0.463   0.124   9.515  0.5286  0.8156 -0.3610
 8895SOL     OW38146   1.785   0.325   8.239 -0.1144 -0.0066 -0.0577
 8895SOL    HW138147   1.782   0.335   8.144  1.7859  0.5141 -0.0593
 8895SOL    HW238148   1.777   0.230   8.243 -1.6306  0.2049  2.2501
 8896SOL     OW38149   0.292   0.135   5.470  0.0493  0.0095  0.3193
 8896SOL    HW138150   0.235   0.196   5.517 -0.0887 -0.7831  1.1820
 8896SOL    HW238151   0.305   0.070   5.538 -1.7305 -0.6742  0.0036
 8897SOL     OW38152   4.418   1.928   4.142  0.6398 -0.1054  0.2711
 8897SOL    HW138153   4.477   1.853   4.142 -0.2525 -0.8068  0.5527
 8897SOL    HW238154   4.471   1.988   4.195 -0.6975  1.6257 -0.3134
 8898SOL     OW38155   4.215   3.326   2.109  0.1685  0.7236 -0.2428
 8898SOL    HW138156   4.189   3.351   2.020  1.5002 -3.1789 -1.7347
 8898SOL    HW238157   4.212   3.413   2.148  0.9567  1.7841 -2.5683
 8899SOL     OW38158   2.104   4.333   7.127 -0.2818 -0.2251 -0.6525
 8899SOL    HW138159   2.142   4.268   7.186  0.3022  0.6004 -0.1283
 8899SOL    HW238160   2.059   4.272   7.068  1.2860 -1.5655 -0.4684
 8900SOL     OW38161   2.217   2.067  12.346  0.0431  0.2386 -0.0365
 8900SOL    HW138162   2.288   2.111  12.300 -1.2976  0.5321 -1.8164
 8900SOL    HW238163   2.149   2.135  12.338  1.6130  1.7773 -0.3176
 8901SOL     OW38164   3.841   4.479   6.519 -0.5162  0.1663 -0.5598
 8901SOL    HW138165   3.747   4.477   6.539 -0.0827 -0.9971  1.2977
 8901SOL    HW238166   3.870   4.391   6.541  0.2189  0.8538  1.2265
 8902SOL     OW38167   2.365   1.263  10.447  0.0178  0.3786 -0.4178
 8902SOL    HW138168   2.442   1.207  10.436  0.6124  1.4573 -1.8121
 8902SOL    HW238169   2.383   1.321  10.373  1.0588  0.3759 -0.1568
 8903SOL     OW38170   0.248   3.707  12.485 -0.0606 -0.1702 -0.7699
 8903SOL    HW138171   0.324   3.765  12.478  0.8398 -1.0635  1.8785
 8903SOL    HW238172   0.194   3.761  12.426  2.0821 -1.1619 -3.6598
 8904SOL     OW38173   1.756   2.474   6.566 -0.2180  0.4152 -0.6675
 8904SOL    HW138174   1.784   2.564   6.584  1.5718 -0.1522 -0.5523
 8904SOL    HW238175   1.664   2.488   6.546 -1.3034 -0.7538  3.6212
 8905SOL     OW38176   2.233   2.763  14.794 -0.3017 -0.0784 -0.3076
 8905SOL    HW138177   2.188   2.792  14.873  0.4863  0.7942 -0.1827
 8905SOL    HW238178   2.322   2.783  14.822 -0.4837 -1.2161  1.1055
 8906SOL     OW38179   3.700   1.292   2.080 -0.2481 -0.5222 -0.1050
 8906SOL    HW138180   3.758   1.275   2.006 -0.1012  3.4124 -0.8926
 8906SOL    HW238181   3.751   1.270   2.158 -0.3995  1.2102  0.4809
 8907SOL     OW38182   1.074   4.708  11.708  0.1120  0.1758 -0.7057
 8907SOL    HW138183   1.075   4.614  11.728 -1.9046  0.3656  0.3094
 8907SOL    HW238184   1.163   4.708  11.673  0.4251  0.0867  0.0999
 8908SOL     OW38185   4.515   3.212  11.273  0.7649  0.0028 -0.6648
 8908SOL    HW138186   4.510   3.154  11.197  0.3529  2.4444 -2.5145
 8908SOL    HW238187   4.460   3.289  11.257 -1.5481 -1.2922  0.9730
 8909SOL     OW38188   3.927   1.998   6.574  0.1862  0.0973 -0.1800
 8909SOL    HW138189   4.010   1.950   6.576 -0.4747 -1.0902 -0.7550
 8909SOL    HW238190   3.905   1.979   6.482  1.9558  1.7780 -0.9524
 8910SOL     OW38191   3.586   3.225   5.309  0.4006  0.1856  0.2607
 8910SOL    HW138192   3.600   3.305   5.257 -0.3196 -0.4679 -0.9277
 8910SOL    HW238193   3.502   3.233   5.354 -0.4782  1.5592 -1.6016
 8911SOL     OW38194   1.223   4.172   6.840 -0.7304  0.0249  0.2759
 8911SOL    HW138195   1.202   4.131   6.756  0.1932  0.6257 -0.2414
 8911SOL    HW238196   1.137   4.215   6.846 -0.5543  0.5178 -0.7182
 8912SOL     OW38197   2.526   3.596   3.956  0.1064  0.9248 -0.2785
 8912SOL    HW138198   2.596   3.644   3.911 -0.3335  0.9893 -0.8945
 8912SOL    HW238199   2.455   3.601   3.892 -0.0209 -0.7991 -0.2690
 8913SOL     OW38200   3.795   2.632  13.880 -0.6110 -0.4830  0.2843
 8913SOL    HW138201   3.833   2.603  13.963  0.3444  0.1158  0.0603
 8913SOL    HW238202   3.878   2.626  13.832 -1.4692  1.3559 -1.3906
 8914SOL     OW38203   4.569   2.498   7.787  0.1051  0.2794  0.2533
 8914SOL    HW138204   4.620   2.553   7.846 -0.1369 -0.8376  1.4836
 8914SOL    HW238205   4.484   2.543   7.789 -0.2628 -0.3805 -0.3862
 8915SOL     OW38206   1.518   3.676   5.897  0.0489 -0.2695 -0.2601
 8915SOL    HW138207   1.528   3.721   5.814  0.4673 -0.6716 -0.4256
 8915SOL    HW238208   1.586   3.608   5.891  1.1099  0.5590  2.3295
 8916SOL     OW38209   3.374   4.140   4.626  0.1302 -0.5057 -0.7813
 8916SOL    HW138210   3.290   4.101   4.602  0.7492 -2.7614  0.7564
 8916SOL    HW238211   3.420   4.153   4.543  0.1983 -0.5148 -0.7450
 8917SOL     OW38212   2.422   2.673   4.091  0.0942  0.2356 -0.1983
 8917SOL    HW138213   2.463   2.686   4.176 -1.3459 -0.0055  0.5275
 8917SOL    HW238214   2.458   2.746   4.039  1.0238 -0.2367 -0.2314
 8918SOL     OW38215   1.806   3.706   3.953  0.2559 -0.0160 -0.6799
 8918SOL    HW138216   1.767   3.626   3.920 -1.8310  0.7470 -0.0485
 8918SOL    HW238217   1.743   3.772   3.924 -1.6989 -1.4177  0.3854
 8919SOL     OW38218   3.911   4.203   5.147  0.1516  0.4949 -0.2860
 8919SOL    HW138219   3.876   4.289   5.125  0.8616  0.7666 -0.3444
 8919SOL    HW238220   3.894   4.154   5.066  1.3752 -1.0275  0.3900
 8920SOL     OW38221   2.659   1.954   5.556 -0.4113 -0.0943 -0.2604
 8920SOL    HW138222   2.732   2.009   5.585 -1.7526 -0.0973  3.1406
 8920SOL    HW238223   2.689   1.919   5.473  1.0600 -0.4520  0.4118
 8921SOL     OW38224   2.557   4.190  16.460 -0.0119  0.5644 -0.1838
 8921SOL    HW138225   2.534   4.098  16.469  0.9711  0.3450  0.0674
 8921SOL    HW238226   2.505   4.213  16.383  4.0604  0.9927 -2.7874
 8922SOL     OW38227   1.564   1.707   1.050 -0.1479  0.1129 -0.3532
 8922SOL    HW138228   1.522   1.624   1.074 -1.6159  0.9354 -0.1145
 8922SOL    HW238229   1.597   1.682   0.963 -0.4940  0.8425 -0.6954
 8923SOL     OW38230   2.601   0.615   6.393  0.2459  0.1618  0.0674
 8923SOL    HW138231   2.671   0.639   6.453 -0.4902  1.6177  0.3449
 8923SOL    HW238232   2.573   0.529   6.424  0.8573 -0.2634 -0.5618
 8924SOL     OW38233   2.259   0.839   0.007  0.4735 -0.1725 -0.2156
 8924SOL    HW138234   2.308   0.896   0.067 -0.3113 -0.6644  0.8925
 8924SOL    HW238235   2.307   0.856  17.601  0.2733 -1.8466 -0.6834
 8925SOL     OW38236   2.340   4.641   4.259 -0.0643 -0.1349  0.1190
 8925SOL    HW138237   2.305   4.572   4.316 -0.4400 -1.3136 -1.5505
 8925SOL    HW238238   2.279   4.629   4.187 -1.1247  0.9816  0.8224
 8926SOL     OW38239   0.962   2.846   5.016  0.3344 -0.1940  0.0094
 8926SOL    HW138240   1.017   2.875   4.943  1.4027 -0.8292  0.5660
 8926SOL    HW238241   0.910   2.925   5.024  1.0891  0.3132 -0.0972
 8927SOL     OW38242   4.609   0.112   7.495 -0.9856 -0.0681 -0.0343
 8927SOL    HW138243   4.660   0.100   7.415 -1.3367 -2.3296  0.0662
 8927SOL    HW238244   4.670   0.158   7.552 -1.1262 -3.0017  2.4782
 8928SOL     OW38245   0.039   1.711  12.342 -0.2683 -0.0066  0.2602
 8928SOL    HW138246   0.087   1.648  12.395  0.9839 -0.8633 -1.8575
 8928SOL    HW238247   4.671   1.669  12.345 -0.2005 -0.0701  1.1698
 8929SOL     OW38248   0.931   3.791  16.903  0.3933  0.0015 -0.1872
 8929SOL    HW138249   0.992   3.802  16.976 -1.9686  3.3217  1.2920
 8929SOL    HW238250   0.865   3.725  16.924  0.3022  0.2105  0.1949
 8930SOL     OW38251   2.835   3.413   3.900  0.2278  0.3772 -0.3754
 8930SOL    HW138252   2.800   3.384   3.984  0.8985 -0.7056 -0.4741
 8930SOL    HW238253   2.757   3.385   3.851  0.6338  1.1636 -1.4801
 8931SOL     OW38254   2.539   2.811   5.359 -0.1481  0.2144 -0.1945
 8931SOL    HW138255   2.604   2.851   5.301 -2.2446  1.3104 -1.8058
 8931SOL    HW238256   2.540   2.723   5.321 -1.0970 -0.1018  0.5124
 8932SOL     OW38257   2.531   2.041   6.601 -0.3610  0.3268 -0.5309
 8932SOL    HW138258   2.527   1.979   6.528  1.5339 -0.1959 -0.2026
 8932SOL    HW238259   2.570   2.119   6.562 -2.5100  0.2235 -2.9050
 8933SOL     OW38260   4.633   3.029   3.360 -0.4474  0.7198  0.0517
 8933SOL    HW138261   0.002   3.062   3.381 -0.4080  0.2215  0.6570
 8933SOL    HW238262   4.585   3.109   3.381 -5.9258 -2.8934  1.2738
 8934SOL     OW38263   1.269   3.559   7.729  0.7199  0.4476  0.3346
 8934SOL    HW138264   1.208   3.516   7.670 -2.2098  2.6458  1.7508
 8934SOL    HW238265   1.200   3.596   7.783  0.0207 -0.7236  0.2262
 8935SOL     OW38266   1.312   0.988   8.229  0.1857 -0.2558  0.3030
 8935SOL    HW138267   1.364   1.065   8.204  0.4060 -0.5967 -0.2756
 8935SOL    HW238268   1.369   0.926   8.184 -1.7201  0.4040 -2.9897
 8936SOL     OW38269   2.016   3.387  15.890  0.3625  0.9226 -0.1392
 8936SOL    HW138270   1.921   3.379  15.892  0.3266  1.2156 -0.6665
 8936SOL    HW238271   2.046   3.306  15.930 -0.9413  1.3212  1.6954
 8937SOL     OW38272   2.341   0.076  10.040 -0.4566  0.5957  0.4803
 8937SOL    HW138273   2.247   0.086  10.027 -0.5618 -0.9995 -0.0315
 8937SOL    HW238274   2.352   0.055  10.133 -0.1976 -1.4996 -0.0292
 8938SOL     OW38275   4.335   0.326  10.036 -0.0649  0.3755  0.1189
 8938SOL    HW138276   4.320   0.276   9.956 -0.0817  0.2404  0.2067
 8938SOL    HW238277   4.390   0.265  10.086 -0.4879  0.2679  0.4543
 8939SOL     OW38278   1.464   0.884   2.230  0.2196 -0.1527  0.0662
 8939SOL    HW138279   1.504   0.971   2.232 -1.2085  0.4953  0.6052
 8939SOL    HW238280   1.463   0.864   2.136 -0.6425  0.0208  0.0371
 8940SOL     OW38281   0.290   0.056   2.000  0.6432 -0.0791  0.5148
 8940SOL    HW138282   0.385   0.046   1.994  0.7153 -0.3080  2.2025
 8940SOL    HW238283   0.265   4.683   1.984  2.4307 -0.1702 -1.7465
 8941SOL     OW38284   1.946   0.365  16.743 -0.7119  0.2216 -0.3250
 8941SOL    HW138285   1.952   0.334  16.834 -1.0281  1.0835  0.0004
 8941SOL    HW238286   1.898   0.292  16.705 -0.5270  0.7087 -1.5018
 8942SOL     OW38287   3.524   3.312   9.272  0.0363 -0.1302 -0.0887
 8942SOL    HW138288   3.581   3.349   9.340  1.4953  0.4026 -1.6117
 8942SOL    HW238289   3.533   3.371   9.197 -0.3514  0.4371  0.3047
 8943SOL     OW38290   1.869   2.152   3.607 -0.3295 -0.5182 -0.2888
 8943SOL    HW138291   1.803   2.173   3.672  2.5563  0.9767  2.1511
 8943SOL    HW238292   1.942   2.207   3.633 -1.8081  1.1912  0.2040
 8944SOL     OW38293   0.037   0.270   0.146 -0.1093 -0.1538 -0.0530
 8944SOL    HW138294   4.716   0.330   0.082  0.2436  0.6696  0.4914
 8944SOL    HW238295   0.110   0.241   0.091  1.4661 -1.1595  2.5788
 8945SOL     OW38296   0.573   0.205   7.130  0.3475 -0.0848  0.2010
 8945SOL    HW138297   0.592   0.263   7.205 -3.1742 -1.7831  2.3975
 8945SOL    HW238298   0.656   0.212   7.083  0.3771 -0.6658  0.1683
 8946SOL     OW38299   1.378   2.268   2.905 -0.3545  1.1411 -0.2493
 8946SOL    HW138300   1.466   2.256   2.868 -0.2699 -3.2833  1.3212
 8946SOL    HW238301   1.344   2.327   2.838 -2.8757 -0.1808 -0.1422
 8947SOL     OW38302   4.703   3.374   9.522  0.4292 -1.0173 -0.2469
 8947SOL    HW138303   4.700   3.300   9.461  2.1817 -0.6226 -0.8302
 8947SOL    HW238304   0.071   3.369   9.563  0.6619  0.2145 -0.5779
 8948SOL     OW38305   4.261   3.045   5.881 -0.7216 -0.7190  0.9561
 8948SOL    HW138306   4.233   3.099   5.955 -0.9205  1.9851 -1.1043
 8948SOL    HW238307   4.178   3.005   5.856 -0.3477  0.1689 -1.7370
 8949SOL     OW38308   4.595   1.040  12.672  0.6166  0.8207  0.5245
 8949SOL    HW138309   4.600   1.131  12.702  0.5716  1.2508 -0.7362
 8949SOL    HW238310   4.585   1.005  12.760 -2.1069  1.3350  0.4172
 8950SOL     OW38311   0.142   2.631  15.788  0.3266 -0.1940  0.0254
 8950SOL    HW138312   0.191   2.608  15.867  0.8439  1.7361  0.2684
 8950SOL    HW238313   0.177   2.572  15.722  1.6360 -0.9493  1.4065
 8951SOL     OW38314   1.779   3.916  14.299 -0.4630 -0.0878 -0.3717
 8951SOL    HW138315   1.816   3.938  14.384 -0.0206 -2.5072  0.0469
 8951SOL    HW238316   1.850   3.859  14.271 -0.8758 -2.2669  3.0768
 8952SOL     OW38317   4.444   3.349   0.625  0.2022 -0.3163 -0.5456
 8952SOL    HW138318   4.443   3.257   0.652  0.3655 -0.4526 -1.0078
 8952SOL    HW238319   4.351   3.371   0.633  0.1180 -1.1910  0.9541
 8953SOL     OW38320   2.071   3.359   1.502 -0.0377 -0.3573 -0.4733
 8953SOL    HW138321   2.038   3.311   1.578  0.6390  0.0013  0.0448
 8953SOL    HW238322   2.120   3.287   1.461  0.0805  0.2815 -1.4622
 8954SOL     OW38323   2.517   1.068   4.145  1.0326  0.2443  0.6101
 8954SOL    HW138324   2.539   1.087   4.236  0.0742 -0.3724  0.9727
 8954SOL    HW238325   2.494   0.976   4.153 -0.0483  0.6778  2.4081
 8955SOL     OW38326   0.082   1.075  14.989  0.2225  0.1250 -0.1459
 8955SOL    HW138327   0.156   1.016  15.002  0.3754  0.7721  1.8293
 8955SOL    HW238328   0.124   1.141  14.934  1.5359  0.4607  1.2704
 8956SOL     OW38329   0.537   0.963   3.862  0.0726  0.2704  0.7426
 8956SOL    HW138330   0.459   0.911   3.880  0.5738 -1.8413 -3.2349
 8956SOL    HW238331   0.514   1.045   3.905  2.8243  0.6611  1.4872
 8957SOL     OW38332   1.488   2.515   6.507  0.1827  0.2516  0.3911
 8957SOL    HW138333   1.444   2.577   6.449  0.5146 -2.0048 -2.2792
 8957SOL    HW238334   1.443   2.432   6.488  0.6557  0.1712 -0.4005
 8958SOL     OW38335   3.099   2.439   4.872 -0.4932 -0.0206 -0.2253
 8958SOL    HW138336   3.070   2.461   4.784  0.1272 -0.6411 -0.5796
 8958SOL    HW238337   3.146   2.358   4.857  0.6963  1.1482 -2.7317
 8959SOL     OW38338   3.048   2.282  11.020 -0.1859  0.6161 -0.1846
 8959SOL    HW138339   3.121   2.220  11.024 -0.7038  0.0657  0.7989
 8959SOL    HW238340   3.091   2.366  11.033  1.9460 -0.5683  0.3905
 8960SOL     OW38341   0.090   1.814  17.340  0.0839 -0.3989 -0.3365
 8960SOL    HW138342   0.169   1.853  17.378 -0.1206 -0.0541 -0.2693
 8960SOL    HW238343   0.121   1.725  17.323  2.0262  0.2636 -0.2854
 8961SOL     OW38344   3.578   3.027   8.214 -0.5614 -0.0057  0.0570
 8961SOL    HW138345   3.528   2.991   8.287 -0.1204 -1.6141 -0.4451
 8961SOL    HW238346   3.666   2.998   8.235 -0.0214 -0.9372 -3.4349
 8962SOL     OW38347   2.686   3.766   9.260 -0.5405  0.4285 -0.2347
 8962SOL    HW138348   2.624   3.770   9.187 -1.6795 -0.7920  0.6708
 8962SOL    HW238349   2.651   3.688   9.303 -1.4412  0.4183 -0.9876
 8963SOL     OW38350   2.350   3.461   7.149 -0.3760 -0.4052  0.2162
 8963SOL    HW138351   2.301   3.410   7.084 -1.9473  1.5467 -0.1281
 8963SOL    HW238352   2.356   3.392   7.216  1.2940 -0.8073 -0.3645
 8964SOL     OW38353   2.298   4.365  13.100 -0.1698 -0.3472 -0.2494
 8964SOL    HW138354   2.375   4.353  13.155 -0.0432 -0.0921 -0.3705
 8964SOL    HW238355   2.240   4.418  13.155  1.0291 -1.2172  1.8498
 8965SOL     OW38356   2.017   0.787   9.775 -0.1219 -0.5767  0.1129
 8965SOL    HW138357   1.971   0.779   9.858  0.0478 -0.0704  0.2540
 8965SOL    HW238358   1.951   0.749   9.717  0.4667 -2.4570  0.6890
 8966SOL     OW38359   1.564   3.523   5.383  0.0001  0.5846 -0.3737
 8966SOL    HW138360   1.627   3.594   5.375 -0.4853  1.1761  0.9576
 8966SOL    HW238361   1.602   3.470   5.313 -1.4993 -0.0121 -0.7333
 8967SOL     OW38362   4.281   1.427  14.350  0.5777 -0.3630  0.3199
 8967SOL    HW138363   4.341   1.356  14.374  0.6056 -0.4036  0.1298
 8967SOL    HW238364   4.290   1.436  14.255  1.3075  1.2846  0.5490
 8968SOL     OW38365   3.232   1.640   1.558 -0.1530  0.2400  0.3704
 8968SOL    HW138366   3.205   1.722   1.516  1.9540  0.4799 -0.4952
 8968SOL    HW238367   3.149   1.608   1.593 -0.3026  2.7572  2.3107
 8969SOL     OW38368   1.755   0.753   5.544 -0.4780 -0.2855 -0.5468
 8969SOL    HW138369   1.805   0.783   5.469  2.0603  1.6854  1.9276
 8969SOL    HW238370   1.680   0.811   5.537 -0.6909 -0.6283 -1.0894
 8970SOL     OW38371   1.678   3.149   8.685  0.5794  0.6544  0.5976
 8970SOL    HW138372   1.664   3.228   8.634 -2.4198 -0.9621 -1.1238
 8970SOL    HW238373   1.756   3.121   8.637  0.5726  0.8387  0.4781
 8971SOL     OW38374   1.868   2.007   8.485 -0.2918  0.2116 -0.1788
 8971SOL    HW138375   1.834   2.035   8.570  1.3511 -0.3445  0.6498
 8971SOL    HW238376   1.951   2.054   8.476  1.0307 -2.1307 -0.1145
 8972SOL     OW38377   4.395   2.846   5.086  0.2767 -0.3147 -0.0343
 8972SOL    HW138378   4.403   2.913   5.154  0.6545 -1.1861  0.7953
 8972SOL    HW238379   4.384   2.768   5.141  3.4000 -0.8333 -0.1264
 8973SOL     OW38380   2.343   2.838   8.610 -0.6516 -0.6289  0.3177
 8973SOL    HW138381   2.360   2.752   8.573 -0.5219 -0.3281 -0.3130
 8973SOL    HW238382   2.431   2.876   8.605 -0.5228 -1.1061 -0.9140
 8974SOL     OW38383   3.365   2.797   4.682 -0.2371 -0.8958 -0.1941
 8974SOL    HW138384   3.394   2.884   4.709 -0.6480 -0.7130 -0.3284
 8974SOL    HW238385   3.313   2.770   4.758  0.4177 -2.3393 -0.2650
 8975SOL     OW38386   3.528   1.915   8.000 -0.2961  0.3367 -0.1847
 8975SOL    HW138387   3.525   1.962   8.084  0.6498 -1.3610  0.7963
 8975SOL    HW238388   3.618   1.933   7.974  0.0403 -1.3245 -0.1587
 8976SOL     OW38389   2.303   4.534   3.252 -0.9538 -0.4573  0.1411
 8976SOL    HW138390   2.354   4.453   3.241 -0.4146 -0.1847  0.6177
 8976SOL    HW238391   2.293   4.523   3.346 -2.4025  1.2355  0.1863
 8977SOL     OW38392   1.894   3.477  17.498  0.7100  0.1005  0.4629
 8977SOL    HW138393   1.973   3.505  17.544  1.0441  0.0304 -0.0680
 8977SOL    HW238394   1.817   3.515  17.540  0.3479 -1.0953  0.8588
 8978SOL     OW38395   1.715   0.632   8.233  0.1521 -0.0286 -0.2034
 8978SOL    HW138396   1.738   0.622   8.325 -0.9091 -1.1670 -0.0553
 8978SOL    HW238397   1.770   0.565   8.191  0.1338 -0.4582  0.4606
 8979SOL     OW38398   1.655   1.920   7.616  0.2374 -0.1654  0.2345
 8979SOL    HW138399   1.638   1.998   7.670  1.1819 -0.3541  0.8104
 8979SOL    HW238400   1.593   1.924   7.543  0.8886  0.2803 -0.2939
 8980SOL     OW38401   0.050   0.558   3.245 -0.2433 -0.1823 -0.1769
 8980SOL    HW138402   0.015   0.471   3.228 -2.5023  1.1093 -2.1416
 8980SOL    HW238403   4.683   0.602   3.252 -0.5533 -1.2518  2.7237
 8981SOL     OW38404   1.059   3.578   6.060  0.0702 -0.5350 -0.1594
 8981SOL    HW138405   1.139   3.531   6.035 -0.8023 -0.3606 -3.2837
 8981SOL    HW238406   1.013   3.546   5.982  0.9733  0.6229 -1.1715
 8982SOL     OW38407   0.856   4.575  15.655  0.2749 -0.0278  0.5896
 8982SOL    HW138408   0.867   4.611  15.568  0.6684  1.6065  1.3146
 8982SOL    HW238409   0.837   4.655  15.704  1.8673  0.3695  0.5261
 8983SOL     OW38410   1.259   1.641   1.039  0.6366  0.6368  0.0277
 8983SOL    HW138411   1.201   1.566   1.050 -0.5655  1.3157 -1.7233
 8983SOL    HW238412   1.331   1.600   0.993 -1.3568  0.3295 -2.8306
 8984SOL     OW38413   4.716   0.499   3.561  0.2165  0.0702 -0.5407
 8984SOL    HW138414   4.686   0.451   3.639 -1.0973  3.4128  0.9927
 8984SOL    HW238415   4.658   0.457   3.497  0.1943 -0.1665 -0.3669
 8985SOL     OW38416   0.050   1.224   5.926  0.0305 -0.0871 -0.6277
 8985SOL    HW138417   0.119   1.163   5.955  0.2783  0.1159 -0.7900
 8985SOL    HW238418   0.097   1.271   5.857 -1.0034 -1.1540 -2.0696
 8986SOL     OW38419   2.376   0.291   7.182 -0.3259  0.0672 -0.5234
 8986SOL    HW138420   2.414   0.235   7.249 -1.2446  1.1259  0.8951
 8986SOL    HW238421   2.453   0.347   7.166 -0.3407  0.2871  0.1817
 8987SOL     OW38422   2.526   3.506   4.775 -0.4656 -0.1214 -0.2035
 8987SOL    HW138423   2.486   3.586   4.741 -0.1106  1.5319  3.2711
 8987SOL    HW238424   2.456   3.445   4.796 -2.0215  0.7749 -2.8351
 8988SOL     OW38425   0.686   0.761  10.762 -0.5904 -0.0527 -0.3100
 8988SOL    HW138426   0.653   0.734  10.848 -1.9166 -0.9720 -1.1291
 8988SOL    HW238427   0.639   0.696  10.711 -0.3324 -2.4239  2.4386
 8989SOL     OW38428   2.076   4.024  10.841 -0.2664  0.2491  0.0942
 8989SOL    HW138429   2.036   3.980  10.766  0.4359  1.6710 -1.1324
 8989SOL    HW238430   2.134   3.951  10.864  1.6880  1.9637  0.5477
 8990SOL     OW38431   4.202   4.389  15.972  0.1454  0.3382  0.4029
 8990SOL    HW138432   4.244   4.465  16.013  0.1006  1.1278 -1.0336
 8990SOL    HW238433   4.183   4.417  15.883 -0.2017  1.0978  0.7177
 8991SOL     OW38434   1.830   1.675   2.477  0.2810 -0.1350 -0.3807
 8991SOL    HW138435   1.778   1.724   2.412 -1.1554 -0.3062  0.6477
 8991SOL    HW238436   1.759   1.644   2.532  0.8288  1.1143  1.0179
 8992SOL     OW38437   1.221   3.512   3.617 -0.3866  0.1261 -0.4363
 8992SOL    HW138438   1.210   3.569   3.692 -0.9715  2.1737 -2.0728
 8992SOL    HW238439   1.133   3.479   3.600 -0.0555 -1.2105  0.4385
 8993SOL     OW38440   0.810   3.969   4.702 -0.3564 -0.4157  0.2930
 8993SOL    HW138441   0.896   4.009   4.701 -1.1894  1.3247 -1.1364
 8993SOL    HW238442   0.803   3.956   4.608 -1.2581  1.3249  0.1183
 8994SOL     OW38443   2.526   1.722   7.350 -0.0427  0.2933  0.0165
 8994SOL    HW138444   2.609   1.761   7.379  0.6603 -1.0526 -0.1922
 8994SOL    HW238445   2.526   1.648   7.412  0.1559  0.6329  0.4236
 8995SOL     OW38446   2.749   1.880   7.376 -0.1586  0.3701 -0.2673
 8995SOL    HW138447   2.737   1.914   7.465  2.5024  0.4204  0.0666
 8995SOL    HW238448   2.714   1.954   7.326 -0.9203 -0.9599 -1.6961
 8996SOL     OW38449   1.726   2.336   7.143  0.6247  0.1470  0.2600
 8996SOL    HW138450   1.815   2.303   7.138 -0.0078 -1.5397  0.0666
 8996SOL    HW238451   1.715   2.349   7.049 -0.9908  1.5339  0.6328
 8997SOL     OW38452   2.115   3.980   6.701 -0.2937  0.8525 -0.0709
 8997SOL    HW138453   2.022   3.961   6.709 -0.3689  1.2420 -0.0240
 8997SOL    HW238454   2.132   3.995   6.794  0.1098  1.4634 -0.2398
 8998SOL     OW38455   1.431   2.854   6.553 -0.1844 -0.0682 -0.5763
 8998SOL    HW138456   1.506   2.864   6.494 -1.5351  0.4636 -2.1813
 8998SOL    HW238457   1.357   2.899   6.514 -1.2245 -0.7308  0.6453
 8999SOL     OW38458   1.419   1.744  10.081 -0.3624  0.0940 -0.0014
 8999SOL    HW138459   1.397   1.716  10.170 -0.1506  0.3850  0.1458
 8999SOL    HW238460   1.496   1.687  10.075 -0.1850  0.2978  0.3268
 9000SOL     OW38461   4.680   0.954   9.355 -0.2071  0.2758  0.3172
 9000SOL    HW138462   4.595   0.936   9.396  0.1889 -0.1564  0.9591
 9000SOL    HW238463   4.682   0.901   9.275  2.0570 -0.7546  1.0739
 9001SOL     OW38464   3.677   2.813   3.410  0.1331  0.5357  0.2016
 9001SOL    HW138465   3.743   2.753   3.444  1.9506  1.5850 -1.5577
 9001SOL    HW238466   3.607   2.795   3.474  1.1220 -0.5629  0.9651
 9002SOL     OW38467   4.526   2.003   2.932 -0.2355  0.5240  0.4202
 9002SOL    HW138468   4.473   2.073   2.895 -0.9454 -0.8438 -1.1760
 9002SOL    HW238469   4.492   1.929   2.882 -0.5893  1.8584 -1.3004
 9003SOL     OW38470   3.484   2.772   3.593 -0.1663  0.0188 -0.6795
 9003SOL    HW138471   3.474   2.687   3.636 -3.7628  2.1192  2.5971
 9003SOL    HW238472   3.391   2.788   3.582  0.3692  2.8842 -1.0525
 9004SOL     OW38473   2.571   3.560   3.546 -1.1002 -0.2927  0.3280
 9004SOL    HW138474   2.507   3.516   3.490 -1.1111 -0.2785  0.3295
 9004SOL    HW238475   2.515   3.601   3.612 -0.6324  1.0015 -0.0802
 9005SOL     OW38476   2.121   2.351   8.079 -0.1486  0.2304  0.0274
 9005SOL    HW138477   2.069   2.404   8.018 -1.2988  1.2319  1.8549
 9005SOL    HW238478   2.193   2.317   8.027  0.0526 -0.7939  0.9682
 9006SOL     OW38479   4.184   0.748   8.083  0.1535 -0.0704  0.0553
 9006SOL    HW138480   4.220   0.837   8.084 -0.0755  0.0315 -0.8409
 9006SOL    HW238481   4.253   0.692   8.049  0.0989 -0.0337 -0.1166
 9007SOL     OW38482   3.831   4.711   5.750  0.0838  0.3739 -0.9354
 9007SOL    HW138483   3.904   4.655   5.776 -0.5995  0.0664  0.3105
 9007SOL    HW238484   3.837   0.069   5.808  3.4168 -0.3727 -0.2941
 9008SOL     OW38485   1.203   3.009   7.984  0.3688 -0.3191  0.1075
 9008SOL    HW138486   1.155   3.090   8.004  0.1177 -0.0700 -1.5726
 9008SOL    HW238487   1.144   2.958   7.930 -0.0263  0.0697  0.1741
 9009SOL     OW38488   0.896   2.701   3.387  0.5440  0.0006 -0.2299
 9009SOL    HW138489   0.903   2.606   3.377 -1.4847 -0.2463  0.6537
 9009SOL    HW238490   0.820   2.704   3.445 -0.5185  1.0460 -1.6598
 9010SOL     OW38491   0.536   3.460  12.794  0.2583 -0.3595  0.1503
 9010SOL    HW138492   0.577   3.449  12.880  1.3518  2.0825 -0.0795
 9010SOL    HW238493   0.465   3.513  12.831 -1.0071 -0.7284 -1.7587
 9011SOL     OW38494   4.411   0.130   4.207  0.3015 -0.0236  0.4870
 9011SOL    HW138495   4.428   0.044   4.244  0.0296 -0.1079  0.4179
 9011SOL    HW238496   4.342   0.168   4.263 -1.1727  0.1416 -1.4488
 9012SOL     OW38497   1.242   1.857   5.075 -0.0128  0.3081  0.0523
 9012SOL    HW138498   1.205   1.790   5.133 -2.5380  1.4812 -0.2330
 9012SOL    HW238499   1.324   1.814   5.049 -0.6630 -2.3223  2.3320
 9013SOL     OW38500   0.328   4.123   7.203  0.3050 -0.7860 -0.1318
 9013SOL    HW138501   0.378   4.188   7.251 -1.2855 -0.2884  0.8747
 9013SOL    HW238502   0.302   4.166   7.121 -1.8005 -3.0698 -0.6941
 9014SOL     OW38503   3.155   1.198   6.200 -0.1313 -0.4788  0.3356
 9014SOL    HW138504   3.060   1.191   6.202 -0.0841 -1.2426  0.0657
 9014SOL    HW238505   3.165   1.227   6.110 -0.4959 -0.9101  0.1606
 9015SOL     OW38506   1.333   3.688   7.430  0.8373 -0.0851 -0.7817
 9015SOL    HW138507   1.243   3.695   7.462  0.1661  0.7695 -2.8849
 9015SOL    HW238508   1.368   3.680   7.518 -1.7789  2.0035  0.4325
 9016SOL     OW38509   2.443   1.516  15.455 -0.2461 -0.1531 -0.3576
 9016SOL    HW138510   2.415   1.501  15.365 -1.7522 -0.0851  0.0964
 9016SOL    HW238511   2.396   1.599  15.460 -0.0200 -0.2165  2.7692
 9017SOL     OW38512   2.262   3.144  15.629  0.1625  0.0989 -0.6564
 9017SOL    HW138513   2.249   3.130  15.723 -0.9774  0.6472 -0.7323
 9017SOL    HW238514   2.217   3.229  15.625 -0.2821 -0.0616  1.0678
 9018SOL     OW38515   2.910   0.252   5.298 -0.1854  0.1575  0.7583
 9018SOL    HW138516   2.850   0.260   5.224  0.7735  0.7423  0.0468
 9018SOL    HW238517   2.982   0.310   5.275  0.6954 -1.5966 -0.9736
 9019SOL     OW38518   4.413   1.710   4.651 -0.1031  0.3484  0.1858
 9019SOL    HW138519   4.445   1.682   4.737  1.6320 -0.0461 -0.6026
 9019SOL    HW238520   4.368   1.791   4.675 -2.6360 -1.2302  0.7862
 9020SOL     OW38521   0.876   3.779  10.443 -0.0538  0.3704  0.0339
 9020SOL    HW138522   0.863   3.746  10.532 -3.0286  0.6622 -0.2786
 9020SOL    HW238523   0.815   3.734  10.385 -1.3746 -0.6538  2.2013
 9021SOL     OW38524   3.405   1.043  14.475 -0.0015  0.0886 -0.0445
 9021SOL    HW138525   3.388   0.957  14.515  4.0944 -0.3760  0.7129
 9021SOL    HW238526   3.388   1.024  14.383 -0.5357 -2.4669  0.5821
 9022SOL     OW38527   1.424   4.161  11.077  0.3994  0.5387  0.2610
 9022SOL    HW138528   1.458   4.232  11.022 -0.9486  0.2239 -0.9629
 9022SOL    HW238529   1.477   4.086  11.052 -1.4002 -0.9017  0.7491
 9023SOL     OW38530   2.432   2.868   5.987  0.4867  0.1055 -0.3175
 9023SOL    HW138531   2.464   2.947   6.031  1.7535 -2.1552  2.7883
 9023SOL    HW238532   2.484   2.874   5.907  0.3982  0.9567 -0.3173
 9024SOL     OW38533   3.894   2.010  12.362 -0.1817 -0.0650  0.4216
 9024SOL    HW138534   3.905   2.101  12.333  2.2112 -0.1291  1.1222
 9024SOL    HW238535   3.876   2.027  12.454  0.1386  0.4168  0.3982
 9025SOL     OW38536   2.977   1.732   5.234 -0.2052 -0.0210  0.4464
 9025SOL    HW138537   2.954   1.659   5.292 -0.6685  0.0939  0.4037
 9025SOL    HW238538   3.071   1.747   5.249 -0.6205  1.0146  2.1038
 9026SOL     OW38539   4.202   2.329   4.950 -0.0160  0.2434  0.1865
 9026SOL    HW138540   4.155   2.401   4.907  0.0534  0.6304  0.7502
 9026SOL    HW238541   4.253   2.373   5.019  0.9049  1.1984 -1.1012
 9027SOL     OW38542   4.028   0.130  12.352 -0.1200 -0.6617  0.8066
 9027SOL    HW138543   4.031   0.135  12.256 -0.2547  1.5436  0.9007
 9027SOL    HW238544   4.103   0.182  12.380  0.3799  0.5913 -2.8685
 9028SOL     OW38545   0.638   3.904   2.198 -0.3983  0.6135  0.4638
 9028SOL    HW138546   0.655   3.964   2.125  0.9166 -0.8841 -0.4621
 9028SOL    HW238547   0.567   3.951   2.241  0.7223  1.1550  1.7382
 9029SOL     OW38548   2.366   4.492   9.076  0.3018 -0.2221  0.7093
 9029SOL    HW138549   2.322   4.409   9.093 -1.5546  0.6928  0.3001
 9029SOL    HW238550   2.311   4.548   9.130  2.1949  0.4848  1.9170
 9030SOL     OW38551   1.257   4.212   5.308 -0.0357  0.1772 -0.0540
 9030SOL    HW138552   1.182   4.184   5.361  1.0998  1.0316  2.0152
 9030SOL    HW238553   1.259   4.305   5.331 -0.4682  0.1671  0.0128
 9031SOL     OW38554   4.563   1.517  15.918 -0.1924  0.5627 -0.0237
 9031SOL    HW138555   4.600   1.540  16.003 -0.8634  0.5403  0.2750
 9031SOL    HW238556   4.490   1.576  15.898 -1.5065 -0.5707  1.3427
 9032SOL     OW38557   3.155   3.343  15.372  0.2872  0.1878  0.8558
 9032SOL    HW138558   3.165   3.329  15.466 -0.6607  3.2210  1.4142
 9032SOL    HW238559   3.128   3.434  15.360  0.7557  0.5154  2.2706
 9033SOL     OW38560   1.547   0.150   5.928  0.2941 -0.7128 -0.2681
 9033SOL    HW138561   1.634   0.183   5.949 -0.7371  0.6967  1.8019
 9033SOL    HW238562   1.569   0.118   5.840 -0.9954 -0.6052 -0.6407
 9034SOL     OW38563   1.564   0.531   8.994 -0.1252 -0.1739  0.1005
 9034SOL    HW138564   1.641   0.490   9.033  1.2549  2.2740 -0.0817
 9034SOL    HW238565   1.598   0.583   8.921 -1.1708  0.1163 -0.1818
 9035SOL     OW38566   1.525   3.164   7.139  0.2162 -0.1771  0.2934
 9035SOL    HW138567   1.449   3.115   7.107 -1.0309  2.4102 -0.7498
 9035SOL    HW238568   1.556   3.198   7.055 -0.4378  3.4569  1.5166
 9036SOL     OW38569   3.013   2.606  11.366  0.2199 -0.0174  0.3958
 9036SOL    HW138570   2.932   2.603  11.315 -0.1195 -0.5759  0.9641
 9036SOL    HW238571   2.982   2.620  11.455  0.1181 -0.6683  0.4664
 9037SOL     OW38572   4.430   3.913  15.200  0.3105 -0.0210  0.8764
 9037SOL    HW138573   4.522   3.886  15.206  0.2079 -1.3480 -3.4445
 9037SOL    HW238574   4.426   4.007  15.185  1.7866 -0.5234 -2.6910
 9038SOL     OW38575   2.969   2.077   8.391 -0.5190  0.4677 -1.0484
 9038SOL    HW138576   2.947   2.006   8.451 -2.1771 -0.4421 -2.7237
 9038SOL    HW238577   2.883   2.118   8.380 -1.6045 -1.5526 -0.0687
 9039SOL     OW38578   3.733   2.540   2.530 -0.5195  0.1326 -0.4974
 9039SOL    HW138579   3.653   2.498   2.563  0.0700  0.6971  1.6130
 9039SOL    HW238580   3.781   2.460   2.509 -1.1814 -0.7310  1.3295
 9040SOL     OW38581   0.239   0.976  17.465 -0.1586  0.2802  0.2894
 9040SOL    HW138582   0.262   1.066  17.442  1.5627 -0.1638  0.3139
 9040SOL    HW238583   0.169   0.957  17.402  0.8955 -0.1334 -0.7506
 9041SOL     OW38584   3.854   2.165   1.199 -0.1837 -0.9335  0.1335
 9041SOL    HW138585   3.940   2.205   1.189 -2.2502  3.5264  0.2879
 9041SOL    HW238586   3.870   2.110   1.276  1.2871  0.5788  0.9027
 9042SOL     OW38587   3.047   1.498  17.392  0.3001 -0.2608  0.1297
 9042SOL    HW138588   2.978   1.437  17.417 -0.7700  1.2368  0.8344
 9042SOL    HW238589   3.064   1.468  17.302 -0.6727  1.2329 -0.5516
 9043SOL     OW38590   3.576   2.531  17.565 -0.6749 -0.7567  0.4447
 9043SOL    HW138591   3.591   2.563  17.654  1.7575  1.0563 -0.6070
 9043SOL    HW238592   3.507   2.589  17.532 -1.1202 -1.8003 -0.4389
 9044SOL     OW38593   2.449   1.491   1.791  0.3086  0.5904 -0.1854
 9044SOL    HW138594   2.464   1.479   1.885  1.6461 -0.6289 -0.5432
 9044SOL    HW238595   2.408   1.577   1.782  0.7100  0.9524  1.4616
 9045SOL     OW38596   1.878   1.119  12.394 -0.5328 -0.1141  0.3565
 9045SOL    HW138597   1.785   1.097  12.389  0.0490 -2.2296 -0.8719
 9045SOL    HW238598   1.908   1.127  12.304  1.4704  1.8547  1.1731
 9046SOL     OW38599   3.541   4.692   8.944 -0.6204  0.2966  0.8532
 9046SOL    HW138600   3.472   4.658   9.000 -0.2345  0.1877  1.2637
 9046SOL    HW238601   3.618   4.664   8.993  0.9809 -0.2213 -1.9278
 9047SOL     OW38602   1.880   2.682   6.085  0.0043  0.6373  0.0232
 9047SOL    HW138603   1.922   2.758   6.125  0.3977  0.2769  0.3007
 9047SOL    HW238604   1.867   2.630   6.164 -1.9894  0.1029 -0.6679
 9048SOL     OW38605   4.566   0.210   8.535 -0.2366 -0.5610  0.0802
 9048SOL    HW138606   4.514   0.268   8.590  0.6846  1.1407 -0.8425
 9048SOL    HW238607   4.502   0.189   8.467  0.1304 -0.2054 -0.3741
 9049SOL     OW38608   1.738   0.386   7.277  0.2931  0.3223 -0.3272
 9049SOL    HW138609   1.779   0.370   7.192  1.3205  2.0188 -0.1417
 9049SOL    HW238610   1.750   0.480   7.287 -1.9247  0.4809  0.8161
 9050SOL     OW38611   1.361   2.706   4.502 -0.1797  0.1710 -0.2316
 9050SOL    HW138612   1.367   2.800   4.482 -0.8211  0.2817  0.0792
 9050SOL    HW238613   1.303   2.709   4.578  1.3673  1.8546  0.8691
 9051SOL     OW38614   3.941   1.793   8.099  0.4445 -0.3724  0.0040
 9051SOL    HW138615   3.971   1.868   8.151 -1.5111  1.0789 -0.9864
 9051SOL    HW238616   3.877   1.833   8.041 -0.2545 -3.6136 -1.4744
 9052SOL     OW38617   4.108   1.799   8.545  0.4818  0.2473  0.0588
 9052SOL    HW138618   4.120   1.799   8.450 -0.3114 -2.4442 -0.0479
 9052SOL    HW238619   4.017   1.826   8.558  0.1922  1.2725 -4.1036
 9053SOL     OW38620   3.477   0.608  11.643 -0.5717 -0.3855 -0.2054
 9053SOL    HW138621   3.401   0.564  11.682 -1.7007  1.4055 -0.3767
 9053SOL    HW238622   3.512   0.544  11.581  1.3283 -0.4560  0.9436
 9054SOL     OW38623   1.405   1.578   8.891  0.0427  0.2922  0.4037
 9054SOL    HW138624   1.450   1.544   8.969 -3.6497 -0.4360  2.1877
 9054SOL    HW238625   1.342   1.507   8.883  0.2372 -0.3159  3.8786
 9055SOL     OW38626   3.070   3.257   8.317  0.3114 -0.4893 -0.0844
 9055SOL    HW138627   3.158   3.240   8.351  0.8293 -1.0966 -1.7131
 9055SOL    HW238628   3.061   3.194   8.245 -0.7148  0.1955 -0.5531
 9056SOL     OW38629   0.678   4.345   8.421 -0.0833 -0.4320 -0.4439
 9056SOL    HW138630   0.693   4.251   8.435 -1.9041 -0.5370  0.8260
 9056SOL    HW238631   0.651   4.371   8.509 -3.5329  0.0103 -1.6303
 9057SOL     OW38632   2.456   0.835   6.319 -0.0436 -0.2887  0.5118
 9057SOL    HW138633   2.498   0.753   6.343 -1.3182 -1.1722 -0.3038
 9057SOL    HW238634   2.490   0.893   6.387  1.5100 -0.4511 -0.1390
 9058SOL     OW38635   3.372   0.476  11.262 -0.1377  0.1445  0.6546
 9058SOL    HW138636   3.316   0.513  11.330  0.2910  2.9826 -0.5106
 9058SOL    HW238637   3.456   0.475  11.307  0.2498  1.0282 -0.0389
 9059SOL     OW38638   3.356   3.120  16.610  0.1714  0.1994  0.2770
 9059SOL    HW138639   3.445   3.086  16.606  0.1981  0.1142  1.7945
 9059SOL    HW238640   3.326   3.092  16.523 -0.9434 -0.3233  0.8390
 9060SOL     OW38641   4.351   4.451   8.907  0.5404 -0.1658  0.1392
 9060SOL    HW138642   4.347   4.519   8.839 -0.6713 -0.7437 -0.3558
 9060SOL    HW238643   4.445   4.432   8.918  0.0898 -1.9290  0.9084
 9061SOL     OW38644   1.181   1.767  10.894 -0.3474  1.0661 -0.5747
 9061SOL    HW138645   1.125   1.845  10.896 -0.2218  1.0870  1.8481
 9061SOL    HW238646   1.241   1.786  10.967  1.6945 -2.9479 -1.2323
 9062SOL     OW38647   4.542   2.487  14.545 -0.3776  0.1450  0.1851
 9062SOL    HW138648   4.575   2.453  14.462  0.6452  0.3602  0.5076
 9062SOL    HW238649   4.448   2.474  14.532 -0.5982 -0.4233  2.3398
 9063SOL     OW38650   4.232   4.407   9.161 -0.3043 -0.1032  0.1532
 9063SOL    HW138651   4.276   4.417   9.077  0.2048 -0.6945  0.3561
 9063SOL    HW238652   4.148   4.453   9.153  1.0176  1.9546 -1.9167
 9064SOL     OW38653   0.048   3.329  16.091 -0.2859  0.6461  0.1658
 9064SOL    HW138654   0.108   3.276  16.143  0.0060 -0.7589 -1.5962
 9064SOL    HW238655   0.053   3.410  16.141  1.2343  0.0078  1.0397
 9065SOL     OW38656   3.606   0.523  11.424 -0.4739  0.0535  0.3018
 9065SOL    HW138657   3.641   0.434  11.419  0.6344  0.6489 -2.4084
 9065SOL    HW238658   3.683   0.572  11.452  0.1075  0.3104 -1.7708
 9066SOL     OW38659   1.938   2.177   5.571 -0.2324 -0.4885 -0.3863
 9066SOL    HW138660   1.973   2.232   5.501  0.8044 -0.2624  0.3108
 9066SOL    HW238661   1.982   2.209   5.649  0.7449  1.5079 -1.7744
 9067SOL     OW38662   4.418   4.123   4.104 -0.1466 -0.3640  0.0346
 9067SOL    HW138663   4.373   4.085   4.180  0.1676  0.3788  0.5809
 9067SOL    HW238664   4.396   4.062   4.033  0.2161 -0.8179  0.3147
 9068SOL     OW38665   4.562   2.516   8.613 -0.5297  0.2125 -0.2104
 9068SOL    HW138666   4.545   2.584   8.677 -1.6018  2.2367 -2.6675
 9068SOL    HW238667   4.658   2.519   8.607 -0.3299 -0.1080  2.6605
 9069SOL     OW38668   3.802   0.802   5.147 -0.0073  0.6279 -0.1115
 9069SOL    HW138669   3.832   0.891   5.126  1.8730  0.0235  0.0107
 9069SOL    HW238670   3.770   0.814   5.237  1.6165 -2.6838  0.8904
 9070SOL     OW38671   3.941   1.753   4.595 -0.1164 -0.4076  0.0163
 9070SOL    HW138672   3.891   1.815   4.648  2.2908  0.8292  0.8240
 9070SOL    HW238673   3.955   1.687   4.664 -0.2352 -0.9457 -0.4737
 9071SOL     OW38674   0.768   2.385   6.211 -0.0607 -0.1078 -0.6168
 9071SOL    HW138675   0.761   2.465   6.263 -0.7226 -0.9107  0.5226
 9071SOL    HW238676   0.820   2.328   6.268 -0.8754 -0.4246 -0.2059
 9072SOL     OW38677   1.445   0.201   8.198  0.6260 -0.7350 -0.3699
 9072SOL    HW138678   1.356   0.213   8.165  0.2710 -1.0882  0.4746
 9072SOL    HW238679   1.490   0.152   8.129 -2.9888 -1.0499 -2.4888
 9073SOL     OW38680   3.002   0.458   6.384  0.6281 -0.0919 -0.7270
 9073SOL    HW138681   3.065   0.525   6.406 -0.5721  0.6180  0.5050
 9073SOL    HW238682   2.927   0.508   6.417  1.7124  0.4549  0.8924
 9074SOL     OW38683   3.898   1.057   5.453 -0.2210 -0.0536  0.1124
 9074SOL    HW138684   3.817   1.010   5.436 -0.7811  1.3869 -1.1462
 9074SOL    HW238685   3.931   1.082   5.367 -0.7258 -1.4321 -0.4763
 9075SOL     OW38686   0.539   2.030  11.287  0.7680  0.6682  0.1619
 9075SOL    HW138687   0.457   2.021  11.238  0.7303  2.3011 -0.0767
 9075SOL    HW238688   0.525   2.112  11.335  4.4581  0.9596  0.7445
 9076SOL     OW38689   1.988   3.196  12.656  0.5802  0.0969 -0.5700
 9076SOL    HW138690   2.063   3.230  12.704 -0.8782 -0.8304  2.3925
 9076SOL    HW238691   1.930   3.174  12.729 -0.2531  0.4685 -1.1221
 9077SOL     OW38692   0.281   1.534   3.787  0.3323 -0.5405  0.1405
 9077SOL    HW138693   0.304   1.463   3.728  0.0105 -1.0058  0.5770
 9077SOL    HW238694   0.205   1.561   3.736  1.9113  0.7705 -1.5116
 9078SOL     OW38695   2.175   0.381  13.229  0.0522 -0.4653 -0.4836
 9078SOL    HW138696   2.084   0.410  13.230  0.0166 -0.4426 -4.5976
 9078SOL    HW238697   2.216   0.404  13.146  1.3943 -0.7684  0.0833
 9079SOL     OW38698   2.668   3.631  15.880  0.5509 -0.0112  0.1921
 9079SOL    HW138699   2.637   3.693  15.814  0.3973  0.9964  1.1968
 9079SOL    HW238700   2.746   3.605  15.832 -0.6632  0.1739 -1.8604
 9080SOL     OW38701   2.077   2.101  12.667  0.0839  0.3128 -0.6158
 9080SOL    HW138702   2.119   2.015  12.659  1.8617  1.1033  0.4780
 9080SOL    HW238703   1.987   2.092  12.634 -1.0443  1.4070  2.2070
 9081SOL     OW38704   2.517   0.577   4.005  0.6637  0.5273  0.8344
 9081SOL    HW138705   2.521   0.503   4.066 -2.5536 -1.1070 -0.9495
 9081SOL    HW238706   2.568   0.539   3.934  0.2697  0.0762  0.7951
 9082SOL     OW38707   3.675   4.139   1.275 -0.3143 -0.1005 -0.4488
 9082SOL    HW138708   3.754   4.180   1.310 -1.3518 -0.2223  2.0364
 9082SOL    HW238709   3.723   4.076   1.221 -0.8425 -1.6347  0.8646
 9083SOL     OW38710   2.850   3.362  10.513 -0.3697  0.1994  0.7779
 9083SOL    HW138711   2.876   3.291  10.572  2.5393 -0.4160 -1.2123
 9083SOL    HW238712   2.793   3.414  10.568 -1.5078 -2.3358  2.0019
 9084SOL     OW38713   4.187   1.284   9.482 -0.3174  0.3421  0.5150
 9084SOL    HW138714   4.150   1.371   9.463  1.1803  0.7715 -0.4341
 9084SOL    HW238715   4.113   1.240   9.524 -1.4892  2.1857  0.4015
 9085SOL     OW38716   3.475   1.741   1.659 -0.0590  0.0698 -0.4558
 9085SOL    HW138717   3.522   1.658   1.669 -0.6802 -0.2259 -0.0091
 9085SOL    HW238718   3.385   1.711   1.646 -0.0854 -0.4092  0.8375
 9086SOL     OW38719   0.772   1.841   9.487 -0.7956 -0.0919 -0.3478
 9086SOL    HW138720   0.855   1.839   9.440 -1.5684  0.0620 -1.7251
 9086SOL    HW238721   0.798   1.845   9.579  0.9951  0.0978 -0.8593
 9087SOL     OW38722   4.116   4.425   1.117 -0.2156 -0.0760 -0.5978
 9087SOL    HW138723   4.036   4.434   1.067 -0.7888  0.0837  0.3469
 9087SOL    HW238724   4.160   4.508   1.097  0.6557  0.2599  2.6956
 9088SOL     OW38725   3.321   1.043   1.788 -0.0526 -0.4661 -0.2542
 9088SOL    HW138726   3.341   1.130   1.755  2.4971 -1.1032 -0.3987
 9088SOL    HW238727   3.412   1.014   1.796  0.2745  0.9366  1.1422
 9089SOL     OW38728   0.245   0.435   5.720 -0.0473  0.0252  0.1653
 9089SOL    HW138729   0.185   0.379   5.672  1.5448 -1.0671 -0.5657
 9089SOL    HW238730   0.212   0.523   5.705 -0.6726 -0.7199 -2.7324
 9090SOL     OW38731   4.391   3.224   6.131 -0.3401 -0.4873  0.5345
 9090SOL    HW138732   4.305   3.185   6.113 -0.7496  0.3173  0.7540
 9090SOL    HW238733   4.374   3.318   6.132 -1.7649 -0.7298 -0.0174
 9091SOL     OW38734   2.995   2.952   3.589  0.2096 -0.4442  0.2622
 9091SOL    HW138735   2.924   2.972   3.649  0.7929  1.6754  0.2651
 9091SOL    HW238736   3.058   3.021   3.614 -2.2846  1.6440  0.7569
 9092SOL     OW38737   0.908   0.785   3.942  0.0821 -0.1503 -0.6366
 9092SOL    HW138738   0.889   0.849   3.873  4.3390  0.2022 -1.4517
 9092SOL    HW238739   0.891   0.700   3.901 -3.3503  0.0791  0.2498
 9093SOL     OW38740   0.698   4.647   0.383 -0.5214 -0.3142  0.4642
 9093SOL    HW138741   0.655   4.689   0.459 -0.4233 -1.3451  1.0857
 9093SOL    HW238742   0.618   4.631   0.333  0.5388 -3.2638 -0.2318
 9094SOL     OW38743   0.086   3.864  10.385 -0.0161 -0.5419 -0.7693
 9094SOL    HW138744   0.082   3.784  10.437  1.5891 -1.7962 -2.5833
 9094SOL    HW238745   0.014   3.915  10.422  0.2259 -0.0775 -0.9236
 9095SOL     OW38746   1.412   0.164   7.300  0.9542 -0.1751  0.4893
 9095SOL    HW138747   1.359   0.086   7.288 -0.3115  0.4724  1.8251
 9095SOL    HW238748   1.479   0.125   7.357  1.2325 -1.7493 -0.9289
 9096SOL     OW38749   4.705   2.276   4.195  0.1899 -0.1047  0.1990
 9096SOL    HW138750   4.697   2.337   4.268 -1.9247 -1.0241  0.7143
 9096SOL    HW238751   0.058   2.316   4.145 -0.2238  0.1073 -0.2090
 9097SOL     OW38752   3.638   2.800   2.542  0.1474 -0.5840 -0.4472
 9097SOL    HW138753   3.549   2.798   2.508 -0.9915 -0.5800  2.5234
 9097SOL    HW238754   3.673   2.721   2.502  0.5223  0.2009 -1.6710
 9098SOL     OW38755   0.078   1.184   5.213  0.0082 -0.1420  0.1169
 9098SOL    HW138756   0.086   1.172   5.308  0.5067  1.3433  0.2668
 9098SOL    HW238757   0.151   1.242   5.194 -0.2160  1.1008  3.0040
 9099SOL     OW38758   0.421   2.484   2.800 -0.2228  0.4466 -0.5880
 9099SOL    HW138759   0.397   2.567   2.842  0.6728 -0.2427  1.2614
 9099SOL    HW238760   0.516   2.486   2.807 -0.1111 -1.0644 -1.6544
 9100SOL     OW38761   0.009   3.396   2.517 -0.2166 -0.1930  0.0517
 9100SOL    HW138762   0.003   3.370   2.609 -1.3026 -1.2456 -0.3184
 9100SOL    HW238763   4.635   3.403   2.492  0.6567  1.6267 -2.6796
 9101SOL     OW38764   0.587   1.297   0.365  0.3855  0.3355 -0.0025
 9101SOL    HW138765   0.535   1.231   0.318  0.6527 -0.5867  0.9985
 9101SOL    HW238766   0.529   1.311   0.440 -1.3170  0.4634 -1.3365
 9102SOL     OW38767   2.616   0.799  17.076 -0.2839  0.0236 -0.5948
 9102SOL    HW138768   2.554   0.766  17.010  0.2552 -2.9444  0.3936
 9102SOL    HW238769   2.702   0.790  17.034  0.9458 -1.2582  2.1883
 9103SOL     OW38770   1.302   2.663   3.024 -0.3149 -0.3755 -0.0821
 9103SOL    HW138771   1.331   2.719   2.952  0.1050  1.4272  1.5047
 9103SOL    HW238772   1.212   2.637   3.004 -0.2517 -0.9437  0.3746
 9104SOL     OW38773   3.580   0.656   0.789 -1.6245 -0.0775  0.0674
 9104SOL    HW138774   3.508   0.718   0.776  0.3070  1.9088 -1.0997
 9104SOL    HW238775   3.660   0.689   0.748 -0.1370 -1.3002  1.9841
 9105SOL     OW38776   0.601   4.151   5.390  0.0828  0.1587 -0.0286
 9105SOL    HW138777   0.561   4.228   5.429 -1.8444 -0.7990 -0.1241
 9105SOL    HW238778   0.692   4.156   5.419  0.9931 -2.4358 -2.4428
 9106SOL     OW38779   1.822   0.904   5.111 -0.3383  0.3424 -0.2771
 9106SOL    HW138780   1.845   0.847   5.037  0.3995 -0.1949  0.3667
 9106SOL    HW238781   1.738   0.866   5.137 -0.2572 -1.0642 -2.0718
 9107SOL     OW38782   0.446   1.366   7.689 -0.5804 -0.5565  0.5579
 9107SOL    HW138783   0.473   1.357   7.598  2.3930 -0.7478  1.4618
 9107SOL    HW238784   0.394   1.445   7.675 -1.0542 -0.7684  1.1400
 9108SOL     OW38785   0.532   1.015   6.823 -0.4271 -0.5341  0.3014
 9108SOL    HW138786   0.609   1.040   6.874  0.6255 -0.9020 -1.0781
 9108SOL    HW238787   0.461   1.017   6.887 -0.4406  1.2326  0.2182
 9109SOL     OW38788   3.994   0.197   4.191  0.1988 -0.3891 -0.0775
 9109SOL    HW138789   4.067   0.197   4.130 -0.4655  0.0482 -0.8669
 9109SOL    HW238790   3.988   0.102   4.185 -1.3745 -0.2890  0.0330
 9110SOL     OW38791   0.324   3.698  13.789 -0.4758  0.3205  0.3508
 9110SOL    HW138792   0.355   3.617  13.831 -0.5118 -0.0239 -0.2972
 9110SOL    HW238793   0.267   3.737  13.856  1.9005  3.7561  0.3530
 9111SOL     OW38794   0.995   1.471   5.831 -0.2860  0.5944 -0.1835
 9111SOL    HW138795   0.958   1.547   5.876 -0.7869 -0.8389  1.8327
 9111SOL    HW238796   1.005   1.499   5.740 -0.9054  1.2750 -0.0375
 9112SOL     OW38797   2.636   0.587   8.927  0.1837  0.1140  0.4107
 9112SOL    HW138798   2.723   0.625   8.913  0.0722  0.8752  1.8810
 9112SOL    HW238799   2.596   0.650   8.986 -2.6875 -0.7383 -0.6369
 9113SOL     OW38800   0.422   3.009   8.140 -0.1848 -0.0069  0.2826
 9113SOL    HW138801   0.334   3.001   8.104 -0.3923 -0.3752  0.8731
 9113SOL    HW238802   0.461   3.087   8.101  2.2059 -0.5474  1.5667
 9114SOL     OW38803   1.056   2.813  15.434 -0.4270 -0.2011  0.4315
 9114SOL    HW138804   1.146   2.788  15.457  0.8588  1.3511 -2.8684
 9114SOL    HW238805   1.071   2.907  15.422  1.2189 -0.4093  0.8075
 9115SOL     OW38806   0.463   3.233   1.426 -0.0918 -0.3259 -0.4227
 9115SOL    HW138807   0.527   3.301   1.406 -1.3746  0.8298 -0.5779
 9115SOL    HW238808   0.422   3.216   1.341 -0.0123 -0.5179 -0.4223
 9116SOL     OW38809   4.317   4.357   7.062 -0.0505  0.3081 -0.5672
 9116SOL    HW138810   4.280   4.412   7.131  0.0926  0.0770 -0.3081
 9116SOL    HW238811   4.262   4.388   6.990 -0.2639 -0.2171 -0.6322
 9117SOL     OW38812   2.651   4.525   3.070 -0.4264  0.3630 -0.1232
 9117SOL    HW138813   2.621   4.563   3.153  0.0782 -1.4500  0.8836
 9117SOL    HW238814   2.570   4.497   3.027 -1.8822 -0.1158  2.9071
 9118SOL     OW38815   0.842   4.615  11.502  0.2162  0.1687  0.8602
 9118SOL    HW138816   0.931   4.633  11.531  0.1521  0.4219  0.9016
 9118SOL    HW238817   0.855   4.594  11.410 -4.3735 -1.7335  0.6484
 9119SOL     OW38818   0.402   3.234  15.722 -0.2856 -0.1870  0.2136
 9119SOL    HW138819   0.461   3.298  15.684 -0.2986 -0.7774 -0.7943
 9119SOL    HW238820   0.349   3.284  15.784 -0.2266  2.8260 -2.1997
 9120SOL     OW38821   2.698   0.768   3.068 -0.4336  0.1124 -0.4785
 9120SOL    HW138822   2.635   0.741   3.001 -1.4380 -2.7971  1.6199
 9120SOL    HW238823   2.768   0.805   3.015  0.3264 -0.0732  0.3936
 9121SOL     OW38824   1.034   4.546   1.214  0.3164 -0.4876 -0.3438
 9121SOL    HW138825   1.027   4.589   1.300 -0.6239  1.3781 -1.3547
 9121SOL    HW238826   1.098   4.476   1.229 -2.4254 -2.4410  2.2433
 9122SOL     OW38827   4.390   4.038   2.905 -0.3736 -0.7155 -0.4103
 9122SOL    HW138828   4.437   3.957   2.886  0.7166 -0.2259  0.1476
 9122SOL    HW238829   4.301   4.006   2.920 -0.6568 -0.9162 -2.4933
 9123SOL     OW38830   4.469   3.089   3.936  0.5557 -0.2041 -0.3851
 9123SOL    HW138831   4.519   3.033   3.995  2.0994  0.9882 -0.5535
 9123SOL    HW238832   4.484   3.179   3.967  0.4937 -0.5473  0.6682
 9124SOL     OW38833   0.348   1.915   7.123 -0.3722  0.0052  0.0706
 9124SOL    HW138834   0.266   1.936   7.169 -2.0174 -2.0107 -1.9604
 9124SOL    HW238835   0.371   1.993   7.073  0.4970  0.4101  1.0892
 9125SOL     OW38836   3.127   4.443   1.232 -0.2007 -0.4201 -0.0919
 9125SOL    HW138837   3.033   4.459   1.229  0.0168  0.7779 -0.2400
 9125SOL    HW238838   3.130   4.384   1.307 -2.0404 -0.5916 -0.1433
 9126SOL     OW38839   4.453   2.588   4.797 -0.4198  0.0172 -0.2447
 9126SOL    HW138840   4.505   2.624   4.725 -0.1020  1.2718  0.6189
 9126SOL    HW238841   4.518   2.561   4.862 -0.5256  0.4384  0.0327
 9127SOL     OW38842   2.318   3.007  12.423  0.0948  0.5359  0.2436
 9127SOL    HW138843   2.350   3.038  12.508  0.2327  3.9581 -1.0217
 9127SOL    HW238844   2.394   2.973  12.377  0.5167  1.6698  0.0866
 9128SOL     OW38845   1.411   4.597   5.995 -0.4182  0.4307 -0.0069
 9128SOL    HW138846   1.357   4.677   5.999  0.5849  1.0797  0.5198
 9128SOL    HW238847   1.439   4.578   6.085 -1.9969 -4.2246 -0.5127
 9129SOL     OW38848   2.836   3.120   3.340 -0.1281  0.4094  0.4373
 9129SOL    HW138849   2.802   3.152   3.257  2.8500  1.9202 -0.1930
 9129SOL    HW238850   2.892   3.050   3.307  0.9757  2.1071 -1.2463
 9130SOL     OW38851   2.908   4.458   3.050 -0.0034 -0.1601 -0.1890
 9130SOL    HW138852   2.819   4.474   3.081 -0.2888 -0.1358 -1.0086
 9130SOL    HW238853   2.888   4.426   2.962 -1.7997  1.0861 -0.2401
 9131SOL     OW38854   3.522   4.181   5.506  0.4134  0.5173  0.3857
 9131SOL    HW138855   3.600   4.141   5.468 -0.3508  0.8622 -1.5634
 9131SOL    HW238856   3.506   4.227   5.423  0.9748 -1.3956 -0.7767
 9132SOL     OW38857   2.107   1.195   3.635  0.4112 -0.0016  0.0806
 9132SOL    HW138858   2.125   1.104   3.609 -2.0495 -0.5133  0.0892
 9132SOL    HW238859   2.106   1.246   3.554 -1.6266  1.1256  0.8132
 9133SOL     OW38860   1.190   0.291   6.231 -0.1610 -0.6338 -0.3992
 9133SOL    HW138861   1.205   0.243   6.312 -1.3910  3.8203  2.4234
 9133SOL    HW238862   1.223   0.373   6.269 -0.4817  0.1641 -1.8457
 9134SOL     OW38863   1.564   3.755   3.575 -0.3290 -0.4191 -0.1940
 9134SOL    HW138864   1.485   3.749   3.629  0.5206 -2.7167  0.8194
 9134SOL    HW238865   1.573   3.850   3.568 -1.8652 -0.2675 -0.1420
 9135SOL     OW38866   1.868   2.535  15.792 -0.8124 -0.5866  0.5102
 9135SOL    HW138867   1.791   2.586  15.769  0.6920  1.8107  0.8602
 9135SOL    HW238868   1.831   2.447  15.796 -1.2574 -0.4967 -2.0178
 9136SOL     OW38869   3.333   3.868  16.287  0.3040  0.0510 -0.3565
 9136SOL    HW138870   3.364   3.818  16.362 -0.1408 -1.8197 -1.4371
 9136SOL    HW238871   3.330   3.957  16.323  0.4575  0.3830 -1.1618
 9137SOL     OW38872   3.559   1.599   7.761 -0.8551  0.0529  0.0567
 9137SOL    HW138873   3.464   1.589   7.754 -0.8646  0.4706 -0.4661
 9137SOL    HW238874   3.583   1.513   7.793  1.1048  0.2036 -0.9776
 9138SOL     OW38875   0.916   1.685  15.516 -0.0635  0.1076 -0.3880
 9138SOL    HW138876   0.900   1.739  15.439 -1.5331  0.8209  0.4329
 9138SOL    HW238877   0.874   1.604  15.486  2.2076 -1.4690  0.7132
 9139SOL     OW38878   1.333   1.619   4.167 -0.0919  0.0104 -0.0862
 9139SOL    HW138879   1.342   1.713   4.182 -0.9326  0.2886 -1.3580
 9139SOL    HW238880   1.415   1.589   4.206 -0.4684 -1.6036 -0.5240
 9140SOL     OW38881   3.732   4.204   3.694  0.0458  0.3437 -0.4241
 9140SOL    HW138882   3.792   4.267   3.655  0.4409 -0.5915 -1.3114
 9140SOL    HW238883   3.657   4.216   3.636 -0.4874  2.9499  0.7684
 9141SOL     OW38884   2.639   3.956   5.370 -0.1192 -0.1235 -0.4502
 9141SOL    HW138885   2.595   3.993   5.293  2.5144  0.7144 -1.5533
 9141SOL    HW238886   2.725   3.954   5.327  0.3914  2.0571  0.4600
 9142SOL     OW38887   1.716   3.074   1.495 -0.2959 -0.4828  0.0097
 9142SOL    HW138888   1.716   3.150   1.552 -0.0583 -0.9378  0.6123
 9142SOL    HW238889   1.629   3.043   1.521 -1.0148  0.3445 -1.4290
 9143SOL     OW38890   4.477   2.746  13.320  0.1770 -0.0101 -0.3001
 9143SOL    HW138891   4.416   2.783  13.256 -1.1718 -0.4209  0.7199
 9143SOL    HW238892   4.551   2.741  13.261  0.5135  2.0403 -0.0452
 9144SOL     OW38893   2.120   1.946   8.791  0.7531 -0.2751  0.8075
 9144SOL    HW138894   2.092   2.013   8.728  0.7969 -1.9338 -0.9913
 9144SOL    HW238895   2.156   2.008   8.855  1.4243  0.9394 -0.7435
 9145SOL     OW38896   3.581   4.648   8.663 -0.5621 -0.5858  0.6776
 9145SOL    HW138897   3.589   4.653   8.759 -2.2148  0.6607  0.7502
 9145SOL    HW238898   3.537   0.014   8.650  0.0547  0.0217  2.5518
 9146SOL     OW38899   3.795   2.251   8.706 -0.1063 -0.3182 -0.4095
 9146SOL    HW138900   3.710   2.274   8.742  0.3337  2.4248 -1.1307
 9146SOL    HW238901   3.793   2.158   8.728 -2.1988 -0.5098 -1.3946
 9147SOL     OW38902   2.604   1.318   2.628  0.5081 -0.3795  0.2629
 9147SOL    HW138903   2.665   1.345   2.558  0.5045  2.2567  1.2676
 9147SOL    HW238904   2.655   1.260   2.684 -0.3930 -1.6148 -0.2103
 9148SOL     OW38905   4.675   2.361  14.743 -0.0504  0.8564  0.1481
 9148SOL    HW138906   0.028   2.315  14.698  0.0869  1.5862 -0.3735
 9148SOL    HW238907   4.611   2.381  14.675 -0.7026  0.5452  0.6683
 9149SOL     OW38908   1.279   4.474   9.141 -0.0449  0.3827 -0.0157
 9149SOL    HW138909   1.238   4.515   9.217  0.0462 -0.4001  0.4580
 9149SOL    HW238910   1.338   4.412   9.183 -2.9056 -1.8105  0.8127
 9150SOL     OW38911   1.854   0.300   6.622  0.2517 -0.3489  0.2146
 9150SOL    HW138912   1.934   0.349   6.599 -1.6838  2.5266 -0.4050
 9150SOL    HW238913   1.803   0.368   6.666  2.9724  0.9625  1.3811
 9151SOL     OW38914   3.914   3.841  12.743  0.3398 -0.0632  0.0688
 9151SOL    HW138915   3.909   3.833  12.838 -0.2080  1.1938  0.1519
 9151SOL    HW238916   3.967   3.763  12.726 -1.4631 -1.6252  1.6449
 9152SOL     OW38917   2.237   1.446   0.572 -0.1437 -0.4701  0.3525
 9152SOL    HW138918   2.260   1.526   0.619  2.6884 -0.8640 -0.3887
 9152SOL    HW238919   2.157   1.468   0.524  2.2338  0.1409 -3.2370
 9153SOL     OW38920   3.602   2.223  10.048 -0.0529 -0.4060  0.2175
 9153SOL    HW138921   3.580   2.304  10.094  1.1459 -0.8835  1.6580
 9153SOL    HW238922   3.564   2.246   9.964  0.6411 -0.9503 -0.2376
 9154SOL     OW38923   1.402   2.556  17.418 -0.2809  0.1879  0.3977
 9154SOL    HW138924   1.381   2.541  17.326  3.9250  0.7916 -0.6717
 9154SOL    HW238925   1.414   2.466  17.447 -1.4796  0.1650  0.8193
 9155SOL     OW38926   2.387   0.228  13.018  0.0590  0.5057 -0.0660
 9155SOL    HW138927   2.471   0.256  13.054  0.2801  2.4917 -2.1867
 9155SOL    HW238928   2.359   0.316  12.995 -0.4097  0.9253  2.0461
 9156SOL     OW38929   1.868   3.499  15.494  0.0470  0.0626 -0.5257
 9156SOL    HW138930   1.928   3.573  15.499  0.4249 -0.2144 -0.8710
 9156SOL    HW238931   1.802   3.519  15.560  0.0145 -1.3385 -0.1289
 9157SOL     OW38932   3.838   3.918   1.836 -0.4096  0.1874  0.1734
 9157SOL    HW138933   3.781   3.986   1.872  0.9054  0.3126  1.9656
 9157SOL    HW238934   3.924   3.934   1.874  0.1362  0.7629 -1.2703
 9158SOL     OW38935   1.348   1.755   3.684  0.2199  0.1026 -0.1509
 9158SOL    HW138936   1.268   1.777   3.636  1.4840  1.2672 -1.7007
 9158SOL    HW238937   1.336   1.823   3.750  0.0360 -0.6610  0.6096
 9159SOL     OW38938   0.328   4.522   3.705  0.4573 -0.2304  0.3018
 9159SOL    HW138939   0.278   4.603   3.690 -1.1256 -1.5599 -1.5499
 9159SOL    HW238940   0.377   4.520   3.623  0.1256 -2.0423  0.1490
 9160SOL     OW38941   0.375   1.554  13.508 -0.2021  0.5647  0.2003
 9160SOL    HW138942   0.315   1.538  13.581  2.3436  1.4438  2.4708
 9160SOL    HW238943   0.446   1.600  13.551  1.1278  0.9384 -2.4175
 9161SOL     OW38944   0.381   3.864   8.070 -0.0867  0.3104 -0.1407
 9161SOL    HW138945   0.298   3.859   8.023 -1.2791  0.2030  1.9567
 9161SOL    HW238946   0.358   3.921   8.144  0.4621 -0.7118  0.8165
 9162SOL     OW38947   3.333   0.532   9.640  0.3031 -0.7210  0.1286
 9162SOL    HW138948   3.348   0.458   9.698  0.5135 -0.5156  0.3345
 9162SOL    HW238949   3.288   0.483   9.571  1.8168  0.8830 -2.0176
 9163SOL     OW38950   0.316   4.131  14.781 -0.0617 -0.0577 -0.0713
 9163SOL    HW138951   0.342   4.056  14.726  0.1969 -0.8520  1.1289
 9163SOL    HW238952   0.371   4.115  14.857 -0.8301 -0.0688  0.4725
 9164SOL     OW38953   3.246   0.947  16.961 -0.4071  0.2663 -0.2220
 9164SOL    HW138954   3.160   0.920  16.929 -0.2689  0.5065 -0.8011
 9164SOL    HW238955   3.223   0.996  17.040 -0.5931 -2.1474  1.2005
 9165SOL     OW38956   1.578   1.961   4.618 -0.5148 -0.0951 -0.5362
 9165SOL    HW138957   1.614   2.005   4.541 -0.5322  2.2668  0.8081
 9165SOL    HW238958   1.486   1.941   4.602 -0.4174 -2.7324  2.0322
 9166SOL     OW38959   0.107   3.742   2.857  0.4792 -0.4603 -1.0105
 9166SOL    HW138960   0.197   3.734   2.825  1.0853 -0.6327  0.7294
 9166SOL    HW238961   0.051   3.713   2.785 -1.7046  0.1827  0.4229
 9167SOL     OW38962   3.594   4.400   7.858  0.3106 -0.1071 -0.1275
 9167SOL    HW138963   3.621   4.491   7.850  1.9413 -0.7262 -1.4557
 9167SOL    HW238964   3.611   4.387   7.952  1.0920 -1.0557 -0.4005
 9168SOL     OW38965   2.539   2.414  11.323  0.4486 -0.3672  0.3203
 9168SOL    HW138966   2.501   2.456  11.400  1.9452  2.0879 -0.2729
 9168SOL    HW238967   2.560   2.331  11.365 -0.9343 -0.7411  0.2794
 9169SOL     OW38968   0.971   0.880   0.104 -0.3132 -0.2078  0.0150
 9169SOL    HW138969   1.006   0.832   0.029  0.6790 -0.0406  0.3599
 9169SOL    HW238970   1.005   0.963   0.070 -0.1203  0.4238  1.7485
 9170SOL     OW38971   2.452   0.918  14.870  0.1091 -0.3046  0.6629
 9170SOL    HW138972   2.436   0.934  14.963 -1.8863 -0.0779  0.2614
 9170SOL    HW238973   2.368   0.889  14.834 -0.9855  1.3247  1.9404
 9171SOL     OW38974   3.801   4.516   9.077  0.2548 -0.3198  0.7459
 9171SOL    HW138975   3.886   4.539   9.042  0.2949 -2.4526 -0.5365
 9171SOL    HW238976   3.822   4.512   9.171  0.8399 -0.6648  0.6000
 9172SOL     OW38977   1.931   0.174   1.536  0.0323 -0.1672 -0.1282
 9172SOL    HW138978   1.873   0.249   1.548 -0.0224  0.0029 -1.5029
 9172SOL    HW238979   2.000   0.214   1.484 -1.5820  0.4547 -1.7852
 9173SOL     OW38980   1.198   4.562   8.146  0.1002  0.5866 -0.0209
 9173SOL    HW138981   1.234   4.625   8.085 -2.9801  1.7141 -0.6659
 9173SOL    HW238982   1.245   4.483   8.119 -1.5573 -1.4689  3.0118
 9174SOL     OW38983   0.558   1.103  17.064  0.0257 -0.0818  0.5157
 9174SOL    HW138984   0.484   1.164  17.062 -1.1350 -1.5492 -0.8468
 9174SOL    HW238985   0.522   1.019  17.090  1.8777 -1.1321 -0.3369
 9175SOL     OW38986   0.101   2.880  13.954 -0.3105  0.6463 -0.0477
 9175SOL    HW138987   0.101   2.975  13.946  2.6707  0.7641  1.4191
 9175SOL    HW238988   0.191   2.861  13.926 -0.8069  2.8729 -3.1201
 9176SOL     OW38989   4.346   4.069   1.715  0.0050  0.2552  0.1904
 9176SOL    HW138990   4.348   3.996   1.653  0.0786 -0.3913  0.9507
 9176SOL    HW238991   4.266   4.117   1.694 -1.2072 -0.8916  2.2089
 9177SOL     OW38992   0.556   1.377  10.191  0.5575 -0.7108 -0.1834
 9177SOL    HW138993   0.606   1.395  10.271  0.8178 -1.6622 -0.1270
 9177SOL    HW238994   0.601   1.295  10.169 -0.0236 -0.7938 -1.0550
 9178SOL     OW38995   4.041   0.502   4.702 -0.1345 -0.1656  0.4793
 9178SOL    HW138996   4.124   0.481   4.746  0.2986 -1.6517 -1.0250
 9178SOL    HW238997   3.985   0.429   4.725  0.2685 -0.0333  1.8758
 9179SOL     OW38998   4.715   3.881   1.883  0.1812  0.4247  0.8964
 9179SOL    HW138999   4.692   3.818   1.951 -1.9987  0.5852  0.3102
 9179SOL    HW239000   0.006   3.820   1.810 -0.0977  2.0853 -0.5346
 9180SOL     OW39001   1.061   3.880   6.734 -0.6600 -0.1840 -0.3926
 9180SOL    HW139002   1.037   3.819   6.663  0.5118  0.6297 -1.4924
 9180SOL    HW239003   1.005   3.956   6.716  1.0687  1.4338  1.0561
 9181SOL     OW39004   0.545   3.480  14.372  0.0158 -0.3464  0.2572
 9181SOL    HW139005   0.521   3.509  14.284  1.6851 -1.1669 -0.4750
 9181SOL    HW239006   0.490   3.539  14.423 -0.8043 -0.1087 -0.9103
 9182SOL     OW39007   4.662   2.125   5.361  0.2412 -0.1158  0.0177
 9182SOL    HW139008   4.637   2.093   5.448 -0.8533 -0.2255 -0.3389
 9182SOL    HW239009   0.039   2.115   5.359  0.4962  2.4026  0.2252
 9183SOL     OW39010   2.579   3.478   8.422  0.2964  0.1027  0.0649
 9183SOL    HW139011   2.514   3.409   8.435 -1.0780  1.0718 -1.7553
 9183SOL    HW239012   2.540   3.530   8.352 -1.6595 -1.3190  0.0832
 9184SOL     OW39013   1.605   2.548   7.313 -0.3912 -0.0224 -1.0736
 9184SOL    HW139014   1.621   2.465   7.357 -0.5698  0.0044 -0.9551
 9184SOL    HW239015   1.621   2.609   7.385  1.3005 -0.5118 -1.0428
 9185SOL     OW39016   2.330   0.317  11.875 -0.1424 -0.1552  0.4818
 9185SOL    HW139017   2.279   0.261  11.934 -0.4614 -1.1938 -0.7675
 9185SOL    HW239018   2.412   0.271  11.861  0.4097  1.3116 -1.1487
 9186SOL     OW39019   0.475   4.549   2.768  0.0844 -0.3380 -0.1485
 9186SOL    HW139020   0.460   4.475   2.709  0.9655 -0.9283  0.3683
 9186SOL    HW239021   0.557   4.510   2.795  0.7118  0.3681 -1.0173
 9187SOL     OW39022   2.433   4.667   7.403  0.2417 -0.2930 -0.5962
 9187SOL    HW139023   2.414   4.670   7.497  0.9086 -0.5441 -0.4542
 9187SOL    HW239024   2.437   4.573   7.387 -1.6235  0.0108 -2.8277
 9188SOL     OW39025   2.947   1.069   9.734  0.2275 -0.6392 -0.0292
 9188SOL    HW139026   2.863   1.054   9.689  0.1558 -1.8140  0.4946
 9188SOL    HW239027   2.919   1.094   9.822  0.3710 -1.2663  0.1927
 9189SOL     OW39028   3.758   0.773   4.039  0.0971  0.2806  0.7598
 9189SOL    HW139029   3.820   0.835   4.001  1.7690 -1.2912  0.9072
 9189SOL    HW239030   3.711   0.749   3.959  2.2131 -1.7711  0.1373
 9190SOL     OW39031   3.851   0.136  13.700  0.5704 -0.1194  0.2326
 9190SOL    HW139032   3.916   0.186  13.749  0.4577  0.7552 -0.5130
 9190SOL    HW239033   3.814   0.077  13.766  0.1223  0.2886  0.3463
 9191SOL     OW39034   0.562   2.775   8.029  0.7300  0.2711 -0.4133
 9191SOL    HW139035   0.532   2.839   8.094  1.6494 -1.1011  1.3733
 9191SOL    HW239036   0.545   2.824   7.949 -0.5525 -2.2653 -1.6767
 9192SOL     OW39037   4.299   1.685   6.437  0.8491  0.7810  0.1970
 9192SOL    HW139038   4.334   1.609   6.484  0.5826  0.5446  0.0095
 9192SOL    HW239039   4.382   1.733   6.434  0.2331  1.7034 -1.6095
 9193SOL     OW39040   4.166   3.649   6.189 -0.6531  0.0253  0.4265
 9193SOL    HW139041   4.176   3.604   6.106 -0.7107  0.6189  0.1018
 9193SOL    HW239042   4.152   3.578   6.253 -4.7765  0.7343  0.3285
 9194SOL     OW39043   1.563   3.361   1.125  0.1990  0.4352  0.0625
 9194SOL    HW139044   1.504   3.287   1.114  2.2182 -0.9371 -1.5642
 9194SOL    HW239045   1.508   3.425   1.079 -1.7684 -1.2795  0.0505
 9195SOL     OW39046   3.738   3.106   5.799 -0.2606 -0.2536  0.1729
 9195SOL    HW139047   3.732   3.137   5.889  1.7402 -0.3971  0.3693
 9195SOL    HW239048   3.774   3.188   5.765 -0.2975 -0.7662 -1.1235
 9196SOL     OW39049   0.188   2.875  15.756  0.1849 -0.7160  0.0143
 9196SOL    HW139050   0.178   2.782  15.775  1.0768 -0.5458  1.3182
 9196SOL    HW239051   0.147   2.871  15.669 -2.3933 -0.0861  1.1899
 9197SOL     OW39052   1.314   2.437   7.834 -0.0107  0.2017 -0.1872
 9197SOL    HW139053   1.317   2.505   7.902 -3.5807  0.4102 -0.2591
 9197SOL    HW239054   1.309   2.488   7.754  3.5540  1.2740  0.2719
 9198SOL     OW39055   1.903   3.795   2.438  0.0670  0.4582 -0.1623
 9198SOL    HW139056   1.896   3.890   2.449  1.7908  0.6422 -0.7259
 9198SOL    HW239057   1.998   3.785   2.439 -0.0863 -0.9026  0.5406
 9199SOL     OW39058   2.564   0.488   9.494  0.2426 -0.3245  0.4556
 9199SOL    HW139059   2.585   0.409   9.443  1.1978 -0.4113  0.9915
 9199SOL    HW239060   2.651   0.526   9.509  0.4285  0.2570 -2.1040
 9200SOL     OW39061   1.634   3.199  15.326  0.3795  0.2684 -0.7134
 9200SOL    HW139062   1.663   3.160  15.408 -1.8511 -1.5681 -0.7721
 9200SOL    HW239063   1.719   3.220  15.288  1.0420  1.8068  1.6355
 9201SOL     OW39064   3.276   1.262   6.751 -0.1921  0.2903  0.1502
 9201SOL    HW139065   3.196   1.262   6.805  0.2590 -0.2108  0.8245
 9201SOL    HW239066   3.345   1.293   6.810 -0.1849 -2.6669  1.6995
 9202SOL     OW39067   1.480   2.966   1.615 -0.3104  0.3012 -0.1448
 9202SOL    HW139068   1.518   2.881   1.636 -1.8935 -0.6541 -1.1249
 9202SOL    HW239069   1.415   2.944   1.547 -1.4612  0.0045  1.0598
 9203SOL     OW39070   4.223   0.152  12.097 -0.0435  0.5571 -0.1645
 9203SOL    HW139071   4.215   0.205  12.017 -0.4357  1.7356  0.6533
 9203SOL    HW239072   4.260   0.070  12.064 -0.8951 -0.4152  1.2891
 9204SOL     OW39073   3.060   3.129   3.933  0.6384 -0.3070 -0.0048
 9204SOL    HW139074   2.969   3.155   3.919  0.5943 -1.6839 -2.3625
 9204SOL    HW239075   3.061   3.078   4.014  2.4588  0.0345  0.1708
 9205SOL     OW39076   0.888   3.882  13.976 -0.2047  0.9987 -0.3283
 9205SOL    HW139077   0.973   3.843  13.996 -0.6457  0.0317 -0.3451
 9205SOL    HW239078   0.889   3.963  14.027 -0.6996  1.1508 -0.5616
 9206SOL     OW39079   2.855   1.481   6.082 -0.5615 -0.2090 -0.8966
 9206SOL    HW139080   2.906   1.493   6.162 -1.9510  0.7840 -0.1687
 9206SOL    HW239081   2.868   1.568   6.046 -0.2422 -0.0679 -0.4411
 9207SOL     OW39082   2.845   1.931   8.638 -0.4408 -0.5927 -0.0574
 9207SOL    HW139083   2.920   1.919   8.696 -1.0233  0.3091  0.8699
 9207SOL    HW239084   2.855   1.863   8.570  0.8926 -2.1547  1.7089
 9208SOL     OW39085   2.650   0.324  13.086 -0.3962  0.6664 -0.5261
 9208SOL    HW139086   2.725   0.298  13.139  0.9753 -1.2138 -3.3544
 9208SOL    HW239087   2.689   0.395  13.034 -2.3893  0.1833 -2.7173
 9209SOL     OW39088   0.077   0.317   8.428  0.2257 -0.6623  0.0694
 9209SOL    HW139089   4.708   0.287   8.451  0.7219  0.7493  3.7476
 9209SOL    HW239090   0.115   0.317   8.516 -0.9637  0.7378  0.5891
 9210SOL     OW39091   2.635   1.436   5.926  0.0012 -0.6395  0.7561
 9210SOL    HW139092   2.703   1.450   5.992  1.6061 -2.6342 -0.5067
 9210SOL    HW239093   2.607   1.523   5.895 -1.3107 -1.1729  0.4659
 9211SOL     OW39094   4.498   2.048  11.507  0.2684  0.1195 -0.3317
 9211SOL    HW139095   4.507   2.141  11.489  1.1611 -0.1578 -1.3842
 9211SOL    HW239096   4.504   2.013  11.418 -1.9351 -0.6556 -0.1869
 9212SOL     OW39097   0.073   4.527  14.592 -0.0665  0.2395 -0.0411
 9212SOL    HW139098   0.137   4.472  14.637 -0.5507  0.0061  0.3741
 9212SOL    HW239099   4.716   4.515  14.651 -1.2596 -2.7014 -2.1652
 9213SOL     OW39100   2.123   0.149   3.513 -0.8669 -0.3508  0.0361
 9213SOL    HW139101   2.146   0.242   3.510 -3.1225  0.1887 -0.6039
 9213SOL    HW239102   2.171   0.117   3.437 -1.1783 -0.9677  0.1022
 9214SOL     OW39103   2.713   0.851  14.045  0.1816  0.4916  0.1722
 9214SOL    HW139104   2.655   0.892  14.109 -0.0968 -2.5866  1.8338
 9214SOL    HW239105   2.666   0.777  14.007  1.6756 -0.4883  0.2276
 9215SOL     OW39106   1.476   3.016   8.471  0.5404 -0.7173 -0.1417
 9215SOL    HW139107   1.448   2.929   8.501 -1.9119  0.4894  1.0980
 9215SOL    HW239108   1.541   3.044   8.535 -0.3615 -0.3998  0.6387
 9216SOL     OW39109   2.062   4.094   0.275 -0.4824  0.5497 -0.9889
 9216SOL    HW139110   2.051   4.040   0.354  0.5568 -3.7373 -3.7561
 9216SOL    HW239111   2.155   4.079   0.260 -0.6402 -1.6748  0.2291
 9217SOL     OW39112   1.631   4.625  12.799  0.2647 -0.3752  0.0557
 9217SOL    HW139113   1.547   4.656  12.765 -0.8226 -1.2154  1.9577
 9217SOL    HW239114   1.606   4.629  12.892  0.4612  0.4735  0.0685
 9218SOL     OW39115   4.372   2.933   1.469  0.3936 -0.5340 -0.2197
 9218SOL    HW139116   4.351   2.855   1.419  1.4317  0.5017 -2.2685
 9218SOL    HW239117   4.455   2.908   1.508 -0.4817 -1.3114  1.1558
 9219SOL     OW39118   2.305   1.167   3.987  0.1955  0.1035  0.3626
 9219SOL    HW139119   2.378   1.161   4.049  0.8814 -1.2862 -0.5829
 9219SOL    HW239120   2.348   1.207   3.912 -2.3198  0.6520 -0.7817
 9220SOL     OW39121   4.382   4.251   0.650 -0.5493 -0.3261  0.0125
 9220SOL    HW139122   4.456   4.297   0.691 -1.4928 -1.2380  2.7672
 9220SOL    HW239123   4.361   4.290   0.566 -1.0333 -1.4086 -0.3604
 9221SOL     OW39124   3.464   2.612   8.028  0.2989  0.3325  0.1977
 9221SOL    HW139125   3.537   2.604   8.089  1.1359  1.7453 -0.6234
 9221SOL    HW239126   3.475   2.540   7.967  0.1762  0.0828  0.4719
 9222SOL     OW39127   3.366   0.487   7.709  0.3320  0.1483  0.5376
 9222SOL    HW139128   3.459   0.468   7.694  0.1524 -1.1617  1.0863
 9222SOL    HW239129   3.332   0.409   7.666  1.1920 -0.1706  0.4368
 9223SOL     OW39130   2.683   1.507   8.949  0.0005  0.4719  0.9549
 9223SOL    HW139131   2.647   1.419   8.948 -1.3242  1.0169  0.7597
 9223SOL    HW239132   2.622   1.552   8.890  2.0817 -0.0865 -1.6470
 9224SOL     OW39133   4.228   1.884   4.756 -0.7319  0.0517 -0.0880
 9224SOL    HW139134   4.156   1.945   4.741 -1.7146 -0.4271  2.5156
 9224SOL    HW239135   4.245   1.893   4.850 -0.6902 -1.2538  0.0383
 9225SOL     OW39136   2.720   2.997   5.293 -0.3645  0.2814 -0.2458
 9225SOL    HW139137   2.671   2.978   5.373 -2.0731  2.5401 -0.7700
 9225SOL    HW239138   2.742   3.089   5.304  1.5662 -0.3579  1.3675
 9226SOL     OW39139   1.935   1.810   4.827 -0.3011 -0.0813  0.2162
 9226SOL    HW139140   2.005   1.839   4.769  0.1684 -0.4540  0.5965
 9226SOL    HW239141   1.928   1.876   4.896 -1.1983  1.2230 -1.1124
 9227SOL     OW39142   2.791   2.364   7.023 -1.2206 -0.2957  0.0027
 9227SOL    HW139143   2.876   2.357   7.068 -0.3476  0.5237 -1.5001
 9227SOL    HW239144   2.737   2.327   7.093  2.7970  0.6530  3.6573
 9228SOL     OW39145   1.432   3.326  12.873 -0.0328  0.0247 -0.1606
 9228SOL    HW139146   1.343   3.300  12.847 -1.2435  1.1520  2.8058
 9228SOL    HW239147   1.419   3.419  12.858 -1.8975 -0.6657 -2.6685
 9229SOL     OW39148   3.310   0.248  10.938 -0.3237  0.1854  0.5683
 9229SOL    HW139149   3.358   0.215  10.863 -0.0520  0.8254  0.4587
 9229SOL    HW239150   3.260   0.319  10.897  0.0881 -0.4418 -1.0081
 9230SOL     OW39151   0.142   0.797   8.541 -0.1021 -0.1174  0.3808
 9230SOL    HW139152   0.158   0.719   8.594  1.1098 -1.4097 -1.9230
 9230SOL    HW239153   0.062   0.825   8.586 -0.8881 -0.2318 -0.9687
 9231SOL     OW39154   1.862   1.514   1.898 -0.0169 -0.1491  0.0924
 9231SOL    HW139155   1.920   1.442   1.875 -0.0719  0.0212 -0.5788
 9231SOL    HW239156   1.775   1.485   1.870 -0.6474  1.4411  0.3839
 9232SOL     OW39157   4.272   2.689  14.260 -0.4326 -0.3658 -0.2631
 9232SOL    HW139158   4.272   2.594  14.275  0.8815 -0.5916 -1.7146
 9232SOL    HW239159   4.283   2.686  14.165  1.0777  0.0232 -0.0910
 9233SOL     OW39160   0.240   1.714   5.306 -0.4040 -0.3516 -0.3632
 9233SOL    HW139161   0.215   1.806   5.318 -0.9735 -0.4186 -1.0353
 9233SOL    HW239162   0.271   1.725   5.217  1.3943  0.8176  0.4247
 9234SOL     OW39163   3.735   3.374   3.117  0.1797 -0.1804  0.1725
 9234SOL    HW139164   3.680   3.321   3.059 -0.1423  0.1102  0.2137
 9234SOL    HW239165   3.701   3.463   3.114  2.0077  0.5596  1.3599
 9235SOL     OW39166   2.947   3.795   7.640  0.1718 -0.7863  0.3172
 9235SOL    HW139167   3.022   3.845   7.607 -0.4479  0.8872  1.4613
 9235SOL    HW239168   2.888   3.865   7.667 -0.1494 -0.5081 -1.1006
 9236SOL     OW39169   0.567   1.987   3.663 -0.6540  0.7962  0.4681
 9236SOL    HW139170   0.572   1.897   3.630  0.2674  0.3762  1.7253
 9236SOL    HW239171   0.476   2.002   3.689 -1.5387 -1.1771 -1.4430
 9237SOL     OW39172   0.071   0.340   5.517  0.2988 -0.0477 -0.3015
 9237SOL    HW139173   0.067   0.435   5.528 -2.2241 -0.4540  2.4057
 9237SOL    HW239174   0.003   0.308   5.458  0.0835  0.6433 -0.4281
 9238SOL     OW39175   0.939   3.459   3.687  0.2405 -0.8610  0.0718
 9238SOL    HW139176   0.852   3.484   3.654  0.0943 -0.9795  0.3734
 9238SOL    HW239177   0.967   3.392   3.624  1.2265  0.5389 -0.9870
 9239SOL     OW39178   4.701   4.182   1.414  0.1277  0.2356  0.3734
 9239SOL    HW139179   4.644   4.248   1.454 -1.0136  0.2024 -1.1490
 9239SOL    HW239180   4.629   4.124   1.389  0.6912 -0.1712 -0.2904
 9240SOL     OW39181   2.734   2.424   7.966  0.0281  0.1250  0.4919
 9240SOL    HW139182   2.666   2.405   7.902 -0.9153  0.4537  1.4036
 9240SOL    HW239183   2.820   2.399   7.931 -0.1079  1.3121 -0.6957
 9241SOL     OW39184   4.693   0.141   2.568  0.0650  0.1906  0.0384
 9241SOL    HW139185   4.600   0.143   2.591  0.0705  2.0632 -0.1004
 9241SOL    HW239186   4.706   0.053   2.533  1.1679  1.2758 -2.2918
 9242SOL     OW39187   2.080   1.435   6.949 -0.1911 -0.2070  0.3737
 9242SOL    HW139188   2.081   1.354   7.000  0.1406 -0.5436 -0.1705
 9242SOL    HW239189   2.162   1.414   6.904  0.2475  2.2313  0.0530
 9243SOL     OW39190   4.406   3.463   7.300 -0.2047 -0.0948 -0.0358
 9243SOL    HW139191   4.434   3.553   7.284  0.2198 -0.4636 -1.3658
 9243SOL    HW239192   4.477   3.431   7.355 -0.3490  1.0059  0.7722
 9244SOL     OW39193   2.354   3.418   8.050 -0.1023 -0.7194  0.1167
 9244SOL    HW139194   2.324   3.501   8.089 -0.0942  0.5761 -2.6751
 9244SOL    HW239195   2.327   3.430   7.960 -0.6268  1.2488  0.5312
 9245SOL     OW39196   4.320   1.732   8.379 -0.0378  0.1625 -0.1761
 9245SOL    HW139197   4.379   1.780   8.437  1.5388 -3.6997  1.4728
 9245SOL    HW239198   4.381   1.712   8.308  1.7574 -1.7025  1.8480
 9246SOL     OW39199   1.870   2.052   0.820  0.2461  0.6381  0.3299
 9246SOL    HW139200   1.783   2.069   0.856  0.3102  0.1881  0.7157
 9246SOL    HW239201   1.877   2.135   0.773 -0.7321  0.1039 -0.7611
 9247SOL     OW39202   0.814   4.649   2.865 -0.2192  0.6457  0.0987
 9247SOL    HW139203   0.822   4.619   2.955 -1.2856  3.1400  1.0195
 9247SOL    HW239204   0.770   4.572   2.830  0.6362  0.4401 -0.5283
 9248SOL     OW39205   3.712   3.532  10.214  0.7194  0.4939  0.1814
 9248SOL    HW139206   3.786   3.589  10.197  0.7077 -0.0017 -1.5586
 9248SOL    HW239207   3.710   3.522  10.309 -0.6170  0.0485  0.1131
 9249SOL     OW39208   2.075   2.747  17.276  0.3783  0.0932  0.3663
 9249SOL    HW139209   2.084   2.683  17.206 -1.9961  0.1020  0.0567
 9249SOL    HW239210   2.153   2.733  17.329  0.3097  0.7132  0.6296
 9250SOL     OW39211   1.378   1.904   0.925 -0.3786 -0.6284 -0.1374
 9250SOL    HW139212   1.291   1.930   0.954  0.1644  0.9446  0.0420
 9250SOL    HW239213   1.403   1.841   0.993  0.4903  0.7536  0.8100
 9251SOL     OW39214   3.003   2.815   8.390 -0.2381 -0.4755 -0.1028
 9251SOL    HW139215   2.983   2.795   8.298 -1.9735  1.3010 -0.1226
 9251SOL    HW239216   2.931   2.771   8.435 -0.5895 -1.1570 -1.3183
 9252SOL     OW39217   2.953   1.954   6.726  0.3677 -0.2196 -0.2366
 9252SOL    HW139218   3.030   1.902   6.701 -0.8115 -1.1012 -2.0245
 9252SOL    HW239219   2.990   1.994   6.804  0.7492 -0.1667 -0.4420
 9253SOL     OW39220   3.294   1.503   7.790 -0.1962  0.2953 -0.5647
 9253SOL    HW139221   3.200   1.502   7.771 -0.4167 -0.9588  0.6125
 9253SOL    HW239222   3.303   1.515   7.884  1.4264  0.4121 -0.7378
 9254SOL     OW39223   0.521   2.841   4.130 -0.4434 -0.3429  0.6528
 9254SOL    HW139224   0.504   2.800   4.215  0.5672 -1.3308  0.3832
 9254SOL    HW239225   0.615   2.855   4.139 -0.2675  0.7647 -2.7662
 9255SOL     OW39226   0.510   0.921   8.471 -0.6557  0.6418 -0.7538
 9255SOL    HW139227   0.597   0.885   8.482 -0.9348 -0.2580 -1.5587
 9255SOL    HW239228   0.468   0.887   8.550  1.4128  1.4322  0.6854
 9256SOL     OW39229   4.621   3.034  17.676  0.2707 -0.5773  0.0545
 9256SOL    HW139230   4.715   3.024   0.016  0.2638 -2.4986 -1.0183
 9256SOL    HW239231   4.582   3.000   0.081  0.0159  0.4641  0.3655
 9257SOL     OW39232   2.313   4.627   2.110 -0.5681  0.5145  0.2854
 9257SOL    HW139233   2.363   4.619   2.029 -0.0124  0.4438  0.6336
 9257SOL    HW239234   2.230   4.616   2.064 -1.4765  1.1960  1.7582
 9258SOL     OW39235   3.741   1.134   7.465 -0.4285 -0.0953 -0.8982
 9258SOL    HW139236   3.802   1.202   7.496 -0.6041 -0.4169  0.1519
 9258SOL    HW239237   3.688   1.132   7.544  0.5324 -2.2775 -0.3196
 9259SOL     OW39238   2.700   0.476   7.264 -0.4505  0.1530  0.2079
 9259SOL    HW139239   2.746   0.489   7.347  0.1648 -1.8913  0.2079
 9259SOL    HW239240   2.753   0.404   7.230 -0.7040  0.7083 -1.3842
 9260SOL     OW39241   0.782   1.377  10.356  0.5235  0.2277 -0.3003
 9260SOL    HW139242   0.740   1.362  10.440  1.3228 -1.7435 -0.2647
 9260SOL    HW239243   0.851   1.311  10.351  1.8455  1.8789 -4.1093
 9261SOL     OW39244   1.827   4.329   5.711 -0.1476 -0.5822  0.4789
 9261SOL    HW139245   1.838   4.258   5.774 -0.3712 -0.4210  0.6973
 9261SOL    HW239246   1.920   4.349   5.705 -0.2411 -0.3901 -0.3347
 9262SOL     OW39247   2.467   0.792   9.430  0.1787  0.5030  0.4641
 9262SOL    HW139248   2.397   0.771   9.492 -1.3479  0.4495 -1.2625
 9262SOL    HW239249   2.455   0.885   9.411 -0.1733  0.7946  2.1716
 9263SOL     OW39250   2.400   0.443  17.574 -0.2304 -0.6359 -0.4044
 9263SOL    HW139251   2.479   0.496  17.565  1.3477 -3.1507 -1.3629
 9263SOL    HW239252   2.342   0.475  17.504 -1.9662  0.1453  1.4030
 9264SOL     OW39253   1.259   3.986   7.188  0.1568  0.2787 -0.2248
 9264SOL    HW139254   1.207   4.061   7.157  2.4526  1.2314 -1.8054
 9264SOL    HW239255   1.350   4.016   7.198  0.0889 -0.1196  1.4876
 9265SOL     OW39256   0.322   4.375   4.784  0.6324 -0.5262  0.0521
 9265SOL    HW139257   0.302   4.440   4.716  0.7332 -1.5742 -0.9813
 9265SOL    HW239258   0.417   4.376   4.772  0.8059  0.5967  1.5263
 9266SOL     OW39259   3.736   2.072  13.958  0.2939 -0.0423  0.1123
 9266SOL    HW139260   3.757   1.990  13.913 -0.5086 -1.2402  1.9266
 9266SOL    HW239261   3.690   2.029  14.030  0.0669  0.0902  0.0456
 9267SOL     OW39262   2.665   3.212  14.435 -0.1214  0.3133  0.4787
 9267SOL    HW139263   2.577   3.204  14.473  0.3216 -2.2858  0.9117
 9267SOL    HW239264   2.647   3.227  14.342  1.2673  0.3142  0.2166
 9268SOL     OW39265   0.374   3.110  14.601  0.2395 -0.4536 -0.1062
 9268SOL    HW139266   0.375   3.063  14.684  0.8551  0.6760  0.5287
 9268SOL    HW239267   0.281   3.098  14.582  0.0005  1.6043 -0.2039
 9269SOL     OW39268   2.016   1.108   7.356  0.4399 -0.2487 -0.0390
 9269SOL    HW139269   2.004   1.184   7.413 -1.5731 -0.0189 -0.7670
 9269SOL    HW239270   2.095   1.070   7.394  2.3645 -0.0590 -3.9238
 9270SOL     OW39271   3.439   0.787   9.795 -0.2999 -0.1171 -0.1471
 9270SOL    HW139272   3.386   0.708   9.802  1.4992 -1.3969 -1.1322
 9270SOL    HW239273   3.373   0.850   9.824 -0.9836 -2.0668  2.5251
 9271SOL     OW39274   2.215   0.969  16.605  0.2672  0.0843  0.2740
 9271SOL    HW139275   2.129   1.004  16.627 -0.1564 -1.5529  1.2658
 9271SOL    HW239276   2.197   0.875  16.608  1.0354 -0.1001 -1.2660
 9272SOL     OW39277   3.901   4.548  11.984 -0.0423 -0.4309  0.1580
 9272SOL    HW139278   3.944   4.462  11.987 -0.1630 -0.4102  2.2704
 9272SOL    HW239279   3.847   4.537  11.906  0.6656 -3.9784  0.1778
 9273SOL     OW39280   4.105   2.029   3.430 -0.1107 -0.1041 -0.3796
 9273SOL    HW139281   4.180   2.062   3.381  1.5478 -0.8277  1.6832
 9273SOL    HW239282   4.052   2.109   3.435  0.0216 -0.1345  1.3483
 9274SOL     OW39283   4.430   4.390  11.536 -0.1944 -0.3468  0.3722
 9274SOL    HW139284   4.487   4.388  11.459 -3.2214  0.9843 -1.9029
 9274SOL    HW239285   4.456   4.311  11.583 -0.1231 -0.2138  0.5564
 9275SOL     OW39286   4.052   2.251   4.239 -0.0534  0.3222  0.2816
 9275SOL    HW139287   4.096   2.193   4.177  0.6409 -1.3020  2.2924
 9275SOL    HW239288   4.001   2.192   4.294 -1.2989  1.2469  0.1443
 9276SOL     OW39289   0.890   4.591  13.910 -0.3594  0.0754 -0.9959
 9276SOL    HW139290   0.906   4.509  13.863 -0.3643 -1.4926  1.7369
 9276SOL    HW239291   0.794   4.593  13.911 -0.3776 -0.9114 -0.2685
 9277SOL     OW39292   2.272   1.807   2.515  0.4542  0.0038  0.1797
 9277SOL    HW139293   2.349   1.785   2.568  0.8922  1.9205  0.3428
 9277SOL    HW239294   2.223   1.853   2.584 -0.7859  0.5141 -1.0326
 9278SOL     OW39295   4.220   2.316  12.316 -0.4231 -0.3114 -0.3023
 9278SOL    HW139296   4.138   2.271  12.337 -1.8354  1.1050 -2.7828
 9278SOL    HW239297   4.229   2.298  12.222 -1.3934  3.0751 -1.0160
 9279SOL     OW39298   2.723   4.488   8.177 -0.2067 -0.0677  0.0132
 9279SOL    HW139299   2.805   4.532   8.198 -0.7442  0.4976  0.9036
 9279SOL    HW239300   2.729   4.502   8.082 -0.3373  1.1100  0.1820
 9280SOL     OW39301   2.302   0.559   4.986 -0.1151 -0.0837 -0.4886
 9280SOL    HW139302   2.226   0.565   4.927 -0.6847  1.5957  0.3979
 9280SOL    HW239303   2.365   0.603   4.929 -1.4532  1.7376 -0.5734
 9281SOL     OW39304   4.395   0.178   1.634  0.2911 -0.2020  0.3029
 9281SOL    HW139305   4.374   0.087   1.612  2.6469 -0.1726 -2.0632
 9281SOL    HW239306   4.469   0.157   1.691  0.6523 -1.4388 -0.6046
 9282SOL     OW39307   3.422   0.694  11.106  0.5718  0.3321 -0.3054
 9282SOL    HW139308   3.473   0.654  11.035  0.0913 -1.7779  0.5286
 9282SOL    HW239309   3.372   0.617  11.133  0.8639  1.0052  2.1226
 9283SOL     OW39310   2.589   0.623   4.346 -0.2481  0.1880 -0.0718
 9283SOL    HW139311   2.509   0.654   4.388  0.5164  0.7977  0.9515
 9283SOL    HW239312   2.650   0.632   4.420  1.3555  1.6073 -1.5622
 9284SOL     OW39313   2.426   0.942  10.018 -0.0894  0.1725 -0.3091
 9284SOL    HW139314   2.353   0.916  10.074  0.2422 -1.0422 -0.4479
 9284SOL    HW239315   2.501   0.947  10.078 -0.2435  2.0838 -0.2724
 9285SOL     OW39316   4.324   0.423   3.642 -0.3229  0.4702  0.2409
 9285SOL    HW139317   4.321   0.364   3.718  1.0634 -0.9209 -0.7940
 9285SOL    HW239318   4.307   0.508   3.682 -2.2167 -0.8247  2.2152
 9286SOL     OW39319   3.853   0.020  12.527  1.0225 -0.0441 -0.2861
 9286SOL    HW139320   3.906   0.076  12.469 -0.8754  0.5693 -1.4177
 9286SOL    HW239321   3.827   0.075  12.601 -0.3401  1.2125 -1.6972
 9287SOL     OW39322   2.196   3.832  14.098 -0.2782  0.3343  0.1174
 9287SOL    HW139323   2.225   3.908  14.047 -0.7383  2.0584  2.4196
 9287SOL    HW239324   2.106   3.813  14.073 -1.0242 -0.7931  3.7121
 9288SOL     OW39325   0.952   2.153   4.097  0.4032 -0.2942  0.2190
 9288SOL    HW139326   1.032   2.199   4.123 -0.9308  0.6021  2.7364
 9288SOL    HW239327   0.886   2.179   4.161 -1.6715 -1.0845 -1.5818
 9289SOL     OW39328   3.460   0.858  16.796 -0.0162  0.4335 -0.4426
 9289SOL    HW139329   3.476   0.765  16.813 -1.6540  0.3575  0.6688
 9289SOL    HW239330   3.391   0.879  16.858  0.8687 -0.4785  0.8348
 9290SOL     OW39331   1.917   0.111   2.251 -0.3632 -0.0406 -0.5143
 9290SOL    HW139332   1.970   0.180   2.211  3.3224 -2.6202 -0.0454
 9290SOL    HW239333   1.969   0.030   2.255 -1.4163 -0.7117 -0.3970
 9291SOL     OW39334   0.415   0.484   4.598  0.2325  0.2995 -0.1690
 9291SOL    HW139335   0.385   0.531   4.675  1.1497 -2.1534  1.6619
 9291SOL    HW239336   0.374   0.542   4.533  0.7442  0.2464 -0.5440
 9292SOL     OW39337   1.966   3.750   2.998 -0.0040  0.2095 -0.0564
 9292SOL    HW139338   2.028   3.706   3.056  1.1386  0.5808 -0.9953
 9292SOL    HW239339   2.014   3.821   2.955 -0.8584 -1.1260 -3.1649
 9293SOL     OW39340   4.611   2.263   3.919 -0.8134  0.1682  0.2555
 9293SOL    HW139341   4.522   2.269   3.952 -1.2434 -0.6469 -0.7842
 9293SOL    HW239342   4.658   2.244   4.000  0.7779 -1.5257 -1.0601
 9294SOL     OW39343   2.472   2.653   3.327 -0.2300  0.6770 -0.0869
 9294SOL    HW139344   2.564   2.679   3.325 -0.0828  0.1263 -0.4551
 9294SOL    HW239345   2.475   2.608   3.412  0.2011 -0.2455 -0.5828
 9295SOL     OW39346   1.062   1.972   0.906 -0.3761 -0.9034  0.3149
 9295SOL    HW139347   1.074   2.059   0.944  1.0891 -0.3919 -1.3503
 9295SOL    HW239348   0.969   1.979   0.885 -0.4964  1.5059  1.6322
 9296SOL     OW39349   4.711   2.981  16.681 -0.2933  0.6267 -0.2926
 9296SOL    HW139350   4.626   3.017  16.706  1.0434  1.9122  2.3594
 9296SOL    HW239351   4.709   2.999  16.586 -1.4822  0.6914 -0.2529
 9297SOL     OW39352   1.129   2.547   3.947 -0.1723  0.6128  0.0600
 9297SOL    HW139353   1.196   2.561   3.881 -0.9152  0.3599 -0.7470
 9297SOL    HW239354   1.157   2.617   4.006 -1.2713  0.5460  0.6684
 9298SOL     OW39355   1.173   3.123   3.478  0.2468 -0.6120  0.6915
 9298SOL    HW139356   1.118   3.048   3.501 -0.6319 -0.1752  0.0180
 9298SOL    HW239357   1.225   3.138   3.556 -0.1535  1.5758  0.5422
 9299SOL     OW39358   0.503   4.364   4.105  0.4072  0.0067  0.1631
 9299SOL    HW139359   0.597   4.361   4.089  0.7203  0.6939  1.8675
 9299SOL    HW239360   0.486   4.458   4.108 -2.1892 -0.4364 -0.5989
 9300SOL     OW39361   4.463   2.876  13.746 -0.5735 -0.5588 -0.0631
 9300SOL    HW139362   4.501   2.790  13.762 -0.8153 -0.5212  0.7236
 9300SOL    HW239363   4.373   2.863  13.776 -0.9860 -2.3400 -2.1029
 9301SOL     OW39364   3.559   3.549   8.700  0.3620  0.1658 -0.1326
 9301SOL    HW139365   3.513   3.504   8.629 -1.3800  1.3539  0.2497
 9301SOL    HW239366   3.490   3.572   8.762 -1.3969 -1.3789 -1.4906
 9302SOL     OW39367   1.856   0.947  14.929 -0.7865  0.4144  0.6987
 9302SOL    HW139368   1.832   1.034  14.896  1.8044  0.5126 -0.9640
 9302SOL    HW239369   1.878   0.912  14.843  2.4822  1.9831  0.8626
 9303SOL     OW39370   1.956   2.186   3.341  0.3254 -0.5929 -0.3122
 9303SOL    HW139371   1.933   2.151   3.427  0.3743  0.0344 -0.0456
 9303SOL    HW239372   2.003   2.265   3.365  0.5843 -1.3167  1.6011
 9304SOL     OW39373   0.767   4.679   8.611 -0.2889  0.4927 -0.4999
 9304SOL    HW139374   0.747   4.665   8.704  0.1198  0.0227 -0.4834
 9304SOL    HW239375   0.855   4.642   8.609 -0.5875 -0.2338 -0.2211
 9305SOL     OW39376   2.976   1.539   1.620 -0.3721 -0.9453 -0.0674
 9305SOL    HW139377   3.000   1.447   1.633  0.7553 -0.6848 -0.2692
 9305SOL    HW239378   2.884   1.516   1.630 -0.4192 -0.5110  0.5162
 9306SOL     OW39379   1.794   2.753   0.419 -0.2953  0.3944 -0.3946
 9306SOL    HW139380   1.779   2.847   0.432 -0.1633  0.6298 -1.9238
 9306SOL    HW239381   1.775   2.752   0.326 -0.5226 -1.3783 -0.3169
 9307SOL     OW39382   1.258   4.160   7.744 -0.0783 -0.0688  0.5089
 9307SOL    HW139383   1.335   4.216   7.753  0.7698 -0.9082 -1.5005
 9307SOL    HW239384   1.290   4.074   7.715  0.8218  0.4261  0.0540
 9308SOL     OW39385   0.297   3.121   4.517  0.1727 -0.1381 -0.2195
 9308SOL    HW139386   0.291   3.210   4.482 -0.8519 -0.0092  0.2779
 9308SOL    HW239387   0.341   3.145   4.598 -0.2269  0.7003 -0.2503
 9309SOL     OW39388   3.228   4.480   6.189 -0.4090 -0.3042  0.1045
 9309SOL    HW139389   3.267   4.431   6.261  1.7021  0.2468 -0.6639
 9309SOL    HW239390   3.285   4.552   6.162  2.0414 -1.7188  1.4633
 9310SOL     OW39391   3.670   1.942  17.512  0.3843  0.0880  0.3577
 9310SOL    HW139392   3.626   1.980  17.437 -0.6665  0.0220  0.9406
 9310SOL    HW239393   3.599   1.932  17.576  1.5978 -0.1063  1.6820
 9311SOL     OW39394   2.446   2.771  14.061  0.8033  0.0427  0.0809
 9311SOL    HW139395   2.425   2.728  14.144  0.9253 -0.8889 -0.3680
 9311SOL    HW239396   2.419   2.706  13.995  1.8389 -0.8800  0.5738
 9312SOL     OW39397   3.696   0.700   7.246 -0.1238 -0.2294  0.2085
 9312SOL    HW139398   3.753   0.753   7.302 -2.1744  3.6270 -1.3055
 9312SOL    HW239399   3.699   0.759   7.170  0.4078 -0.1474  0.2957
 9313SOL     OW39400   0.781   0.469   3.169 -0.2212  0.3408 -0.0732
 9313SOL    HW139401   0.846   0.538   3.172 -0.5297  0.5834  1.0166
 9313SOL    HW239402   0.809   0.417   3.093 -0.1080  0.7437 -0.3077
 9314SOL     OW39403   2.662   3.120   3.551  0.0778 -0.1687 -0.6403
 9314SOL    HW139404   2.723   3.104   3.479  0.2494 -0.0763 -0.5157
 9314SOL    HW239405   2.576   3.113   3.510 -0.4393  2.3319  0.0309
 9315SOL     OW39406   3.531   2.608   3.912 -0.6849 -0.1391 -0.0996
 9315SOL    HW139407   3.567   2.642   3.994 -0.5682 -0.7852  0.1204
 9315SOL    HW239408   3.606   2.562   3.874  0.1264 -1.6682  3.3329
 9316SOL     OW39409   2.377   3.650   3.050 -0.3910 -0.2283  0.3591
 9316SOL    HW139410   2.386   3.684   2.961 -1.5194  0.6183  0.5726
 9316SOL    HW239411   2.453   3.687   3.095  0.3782 -0.1870 -0.9761
 9317SOL     OW39412   1.264   0.671  13.230  0.4119 -0.0790 -0.1612
 9317SOL    HW139413   1.282   0.725  13.307 -0.5645  0.7754 -0.5283
 9317SOL    HW239414   1.281   0.729  13.156 -0.7966 -0.6538 -0.8785
 9318SOL     OW39415   2.238   1.225  12.830 -0.1302 -0.1072 -0.3050
 9318SOL    HW139416   2.292   1.173  12.771 -2.4547 -0.5018 -2.0813
 9318SOL    HW239417   2.295   1.213  12.906 -1.2875 -0.3977  0.5193
 9319SOL     OW39418   2.767   1.545   3.171 -0.2064 -1.1410  0.1407
 9319SOL    HW139419   2.824   1.565   3.245  3.4582 -1.6191 -2.5981
 9319SOL    HW239420   2.684   1.580   3.205  1.6411  2.1977  1.2498
 9320SOL     OW39421   0.225   0.084  13.576 -0.7310  0.1065 -0.0352
 9320SOL    HW139422   0.272   0.093  13.493 -2.5648  0.0390 -1.0680
 9320SOL    HW239423   0.293   0.068  13.641 -1.9401 -0.9621  0.9720
 9321SOL     OW39424   1.721   3.836   3.105 -0.3833  0.3455 -0.0542
 9321SOL    HW139425   1.800   3.805   3.061 -0.9355 -0.1388 -0.7166
 9321SOL    HW239426   1.707   3.773   3.176  0.8930  0.5985  0.4143
 9322SOL     OW39427   2.400   0.452   8.032 -0.1436  0.2631  0.3731
 9322SOL    HW139428   2.335   0.382   8.028 -0.1462  0.2867  0.0611
 9322SOL    HW239429   2.388   0.506   7.954 -0.6523 -2.1238 -1.2022
 9323SOL     OW39430   4.370   1.025   2.920 -0.0690 -0.8378 -0.0381
 9323SOL    HW139431   4.419   1.107   2.923 -0.2146 -0.7718  0.4538
 9323SOL    HW239432   4.363   0.993   2.830 -1.5922  2.2883 -1.0316
 9324SOL     OW39433   1.207   0.135   2.786  0.3348 -0.0928  0.1159
 9324SOL    HW139434   1.114   0.144   2.765  0.3708 -0.6684 -0.2990
 9324SOL    HW239435   1.208   0.040   2.777  0.7208  0.0294 -1.1375
 9325SOL     OW39436   2.343   2.251   1.278  0.1361  0.0159 -0.1269
 9325SOL    HW139437   2.267   2.264   1.221  0.4614  1.4266 -0.2183
 9325SOL    HW239438   2.402   2.212   1.213  1.6613  1.8403  0.1638
 9326SOL     OW39439   0.207   2.360   5.738 -0.1832  0.1366 -0.3841
 9326SOL    HW139440   0.199   2.433   5.798  0.6946  1.2590 -1.6368
 9326SOL    HW239441   0.299   2.374   5.714 -0.0313 -2.8122 -1.5820
 9327SOL     OW39442   1.021   1.182   2.135  0.4880 -0.2988  0.2953
 9327SOL    HW139443   1.050   1.117   2.072  0.0637  1.3174 -1.5768
 9327SOL    HW239444   0.928   1.164   2.121 -0.5011  3.0648  2.3097
 9328SOL     OW39445   0.966   0.418   4.164 -0.3613  0.0785  0.0276
 9328SOL    HW139446   1.059   0.427   4.183 -0.2239 -3.6304  1.0204
 9328SOL    HW239447   0.940   0.351   4.227  1.0125 -0.2431  0.2569
 9329SOL     OW39448   4.147   3.290   3.360  0.5579 -0.4092  0.2752
 9329SOL    HW139449   4.161   3.371   3.312 -1.6140 -0.8824 -1.1802
 9329SOL    HW239450   4.103   3.238   3.293 -1.3478  1.1371  0.3254
 9330SOL     OW39451   1.195   0.139   4.027  0.0539  0.5393 -0.3093
 9330SOL    HW139452   1.215   0.045   4.036  0.5403  0.6987  0.3195
 9330SOL    HW239453   1.284   0.164   4.000  1.1892 -3.8616 -0.7499
 9331SOL     OW39454   0.550   4.343   9.031  0.6116 -0.0121  0.1153
 9331SOL    HW139455   0.639   4.310   9.023  0.7733  0.3172  0.6034
 9331SOL    HW239456   0.498   4.282   8.979 -1.7969  1.9251  0.2231
 9332SOL     OW39457   1.171   0.993  12.461 -0.9370 -0.2836 -0.4268
 9332SOL    HW139458   1.149   0.971  12.552  1.7490  0.2733  0.3462
 9332SOL    HW239459   1.242   1.057  12.467 -0.7607 -0.3631 -1.7438
 9333SOL     OW39460   0.401   3.638   8.831 -0.3954  0.0874  0.2193
 9333SOL    HW139461   0.420   3.586   8.910 -1.0281  0.9160  0.9240
 9333SOL    HW239462   0.472   3.611   8.774 -1.0618  2.5950 -1.7989
 9334SOL     OW39463   3.475   2.112   4.685 -0.1203  0.2436  0.4297
 9334SOL    HW139464   3.469   2.126   4.779 -3.0109  2.2156 -0.0316
 9334SOL    HW239465   3.382   2.098   4.665 -0.2787 -0.1681  1.4925
 9335SOL     OW39466   1.508   0.108  11.872 -0.0313 -0.1350 -0.2106
 9335SOL    HW139467   1.603   0.116  11.878 -0.0818 -0.6342  1.2633
 9335SOL    HW239468   1.479   0.145  11.956 -1.1272 -3.0969  0.7178
 9336SOL     OW39469   2.480   1.348   8.728 -0.3475 -0.0580  0.6910
 9336SOL    HW139470   2.428   1.394   8.794 -1.1950  2.2897 -1.6412
 9336SOL    HW239471   2.441   1.261   8.725 -3.2152  1.2769 -0.4971
 9337SOL     OW39472   1.734   3.535   9.453  0.4894  0.0290 -0.2424
 9337SOL    HW139473   1.787   3.570   9.381  0.9938  0.7293  0.4632
 9337SOL    HW239474   1.645   3.527   9.419  0.0939  2.0256  0.3400
 9338SOL     OW39475   3.162   1.268  13.290 -0.1986 -0.0304  0.5187
 9338SOL    HW139476   3.143   1.223  13.207 -3.3478  0.8167  0.7699
 9338SOL    HW239477   3.243   1.315  13.270 -0.2468  0.0267  0.4552
 9339SOL     OW39478   4.381   2.757   3.793  0.2904 -0.3733  0.2672
 9339SOL    HW139479   4.286   2.769   3.789  0.6151  1.7193 -1.4658
 9339SOL    HW239480   4.412   2.843   3.823 -0.3411 -0.8699  2.2833
 9340SOL     OW39481   2.451   3.984   3.965 -0.4651 -0.1224 -0.4482
 9340SOL    HW139482   2.437   3.936   4.046 -1.5430  0.4322 -0.2965
 9340SOL    HW239483   2.375   3.969   3.908  2.0199  0.3934 -3.8853
 9341SOL     OW39484   0.985   0.812   7.014 -0.0824 -0.4491 -0.6088
 9341SOL    HW139485   0.990   0.884   6.951  3.7736  1.8098  2.2936
 9341SOL    HW239486   0.923   0.845   7.079  1.3663 -0.2226  0.6763
 9342SOL     OW39487   2.452   0.821   4.476 -0.4106  0.4963 -0.3785
 9342SOL    HW139488   2.441   0.894   4.537 -0.0512 -1.6858  2.2638
 9342SOL    HW239489   2.462   0.865   4.391 -5.2178  1.4308 -0.4776
 9343SOL     OW39490   4.539   2.641   2.798  0.0244  0.0838  0.0898
 9343SOL    HW139491   4.457   2.688   2.781 -0.1605 -0.6584 -1.0781
 9343SOL    HW239492   4.546   2.629   2.893  0.3496 -1.5024 -0.1366
 9344SOL     OW39493   0.050   0.854   5.307 -0.0029 -0.4779 -0.6171
 9344SOL    HW139494   4.712   0.800   5.251 -2.9464 -1.9907  3.7873
 9344SOL    HW239495   0.133   0.833   5.264  1.0691  0.1247  1.1876
 9345SOL     OW39496   0.215   2.885  10.971  0.1785  0.1144 -0.1757
 9345SOL    HW139497   0.284   2.892  11.036 -0.4241  1.3497  0.3218
 9345SOL    HW239498   0.180   2.974  10.973  0.1766  0.0902  0.7972
 9346SOL     OW39499   0.148   4.559  15.369  0.4196  0.2973  0.4794
 9346SOL    HW139500   0.139   4.528  15.460 -0.2569  3.3545  1.4415
 9346SOL    HW239501   0.211   4.497  15.333  1.5211  1.2898  0.7065
 9347SOL     OW39502   1.995   3.285   1.755  0.6703 -0.9469 -0.4809
 9347SOL    HW139503   1.926   3.270   1.820 -0.5316 -2.3630 -2.0721
 9347SOL    HW239504   2.049   3.207   1.771  1.2626 -0.0771  1.7619
 9348SOL     OW39505   0.542   1.897   1.685  0.0526 -0.1553  0.4588
 9348SOL    HW139506   0.469   1.909   1.746 -0.5693 -2.8016  0.2470
 9348SOL    HW239507   0.611   1.897   1.752  1.8697 -0.9771 -1.3930
 9349SOL     OW39508   2.562   1.934  17.406  0.0658  0.4778 -0.1286
 9349SOL    HW139509   2.641   1.920  17.459  0.4051  0.2452 -0.6936
 9349SOL    HW239510   2.552   2.025  17.432  3.8311  0.8623  0.0554
 9350SOL     OW39511   1.922   4.714  14.280  0.3416 -0.9210  0.1976
 9350SOL    HW139512   2.013   4.695  14.256  1.0828  0.9963  1.4836
 9350SOL    HW239513   1.876   4.634  14.257 -0.6080 -1.2421  3.1592
 9351SOL     OW39514   2.193   4.175   7.618 -0.3971 -0.1349 -0.8261
 9351SOL    HW139515   2.195   4.083   7.643  1.0907  0.8473  2.6056
 9351SOL    HW239516   2.262   4.173   7.551  0.9486  1.5565  0.5214
 9352SOL     OW39517   0.758   2.590  15.586 -0.1220 -0.4820  0.5431
 9352SOL    HW139518   0.678   2.605  15.536  1.6141  0.2797 -2.0035
 9352SOL    HW239519   0.808   2.666  15.558 -0.4020 -0.8210 -0.8930
 9353SOL     OW39520   3.429   0.642  12.183 -0.0407 -0.4685 -0.0312
 9353SOL    HW139521   3.427   0.684  12.269 -3.1097 -0.1683 -0.2720
 9353SOL    HW239522   3.338   0.616  12.172 -0.1198  0.0597 -0.6089
 9354SOL     OW39523   1.070   4.324   2.940  0.0711 -0.4416  0.3408
 9354SOL    HW139524   1.087   4.402   2.887 -1.9179  0.9758  1.7620
 9354SOL    HW239525   1.003   4.290   2.881  0.1468 -0.5567  0.3222
 9355SOL     OW39526   0.689   2.797  12.621  0.9000  0.1160 -0.0126
 9355SOL    HW139527   0.670   2.824  12.532  2.9729 -1.9226 -1.0759
 9355SOL    HW239528   0.645   2.875  12.656  0.9943  1.0849 -2.0900
 9356SOL     OW39529   4.409   2.369   6.433 -0.7837  0.4157 -0.3804
 9356SOL    HW139530   4.324   2.340   6.468 -0.5934  0.2767 -0.0350
 9356SOL    HW239531   4.453   2.385   6.516 -0.9180  1.6884 -0.5655
 9357SOL     OW39532   0.452   4.621  15.045  0.1533  0.8900  0.2598
 9357SOL    HW139533   0.520   4.554  15.052  0.3984  1.0983 -0.1381
 9357SOL    HW239534   0.506   4.693  15.013  1.6405 -0.7219 -0.9062
 9358SOL     OW39535   4.566   0.162   3.996  0.0196  0.1980 -0.1605
 9358SOL    HW139536   4.570   0.254   4.022 -0.7664 -0.8812  3.7312
 9358SOL    HW239537   4.523   0.131   4.075  0.8322 -0.1452  0.1540
 9359SOL     OW39538   0.080   3.812  12.028 -0.2549 -0.5091 -0.2381
 9359SOL    HW139539   0.173   3.811  12.007  0.0021 -1.3648  0.9086
 9359SOL    HW239540   0.040   3.857  11.953  1.9757 -0.9105 -1.6554
 9360SOL     OW39541   3.543   3.026   9.566 -0.2243  0.6658  0.1290
 9360SOL    HW139542   3.478   2.985   9.623  0.3893  0.1223  0.4484
 9360SOL    HW239543   3.502   3.113   9.565  1.1410  1.3067 -0.2563
 9361SOL     OW39544   1.007   4.523  13.235 -0.1234 -0.4187 -0.4988
 9361SOL    HW139545   1.076   4.477  13.283 -0.3684 -0.7107 -0.4285
 9361SOL    HW239546   0.929   4.473  13.260 -0.0589 -0.2308  0.0785
 9362SOL     OW39547   3.875   1.114   3.118 -0.3120  0.4224 -0.0487
 9362SOL    HW139548   3.825   1.049   3.070 -0.5198 -0.1982  1.0096
 9362SOL    HW239549   3.887   1.066   3.200  0.2888  1.0984  0.2655
 9363SOL     OW39550   3.190   4.619   3.136  0.3631 -0.3649 -0.5539
 9363SOL    HW139551   3.152   4.547   3.086  1.6486 -1.4073 -0.0295
 9363SOL    HW239552   3.283   4.604   3.118  1.4320  2.1603  2.9116
 9364SOL     OW39553   4.451   1.483  10.008  0.0613  0.0018 -0.0262
 9364SOL    HW139554   4.503   1.561  10.030 -1.3917  0.4629  1.6994
 9364SOL    HW239555   4.467   1.436  10.090  2.5142  3.4911  1.5004
 9365SOL     OW39556   2.644   4.377  11.817 -0.0803  0.6143  0.0246
 9365SOL    HW139557   2.591   4.456  11.810 -1.5518 -0.3758  0.1996
 9365SOL    HW239558   2.717   4.386  11.755  0.8188 -1.2525  0.7914
 9366SOL     OW39559   2.480   1.713   2.039  0.1058  0.4947 -0.4628
 9366SOL    HW139560   2.559   1.672   2.072  0.4323  1.8858  0.5198
 9366SOL    HW239561   2.417   1.676   2.101  0.9983 -0.4596 -0.1366
 9367SOL     OW39562   1.679   3.847   2.205 -0.2294 -0.2555  0.2013
 9367SOL    HW139563   1.762   3.799   2.192 -0.7181 -0.6902 -1.2351
 9367SOL    HW239564   1.684   3.936   2.172 -0.1197 -0.4691 -0.3549
 9368SOL     OW39565   4.472   1.518   3.082  0.3078 -0.0351 -0.4547
 9368SOL    HW139566   4.545   1.487   3.027  2.6266  2.9760  0.9582
 9368SOL    HW239567   4.407   1.565   3.029  0.1983  1.2898  0.8611
 9369SOL     OW39568   1.117   4.400   4.863 -0.1672  0.5613  0.1100
 9369SOL    HW139569   1.154   4.340   4.798  0.1255 -1.2596  1.9818
 9369SOL    HW239570   1.191   4.409   4.923  1.2494  1.2339 -1.7118
 9370SOL     OW39571   1.871   1.407   2.391  0.8061  0.0174 -0.3666
 9370SOL    HW139572   1.865   1.496   2.425  3.9043 -0.2014  0.8180
 9370SOL    HW239573   1.783   1.400   2.354  0.4547  0.8176  0.3272
 9371SOL     OW39574   4.470   1.407   7.064 -0.3675  0.1153  0.3597
 9371SOL    HW139575   4.410   1.435   7.133 -0.0489  0.1380  0.6231
 9371SOL    HW239576   4.493   1.494   7.033 -4.6929  1.1598  0.0999
 9372SOL     OW39577   4.476   4.117   8.115  0.0321 -0.4840 -0.0389
 9372SOL    HW139578   4.507   4.098   8.203  1.5495 -1.8931 -0.8807
 9372SOL    HW239579   4.487   4.212   8.120  1.0913 -0.7087  1.7163
 9373SOL     OW39580   1.966   4.281   6.703 -0.0118 -0.5768  0.1125
 9373SOL    HW139581   2.005   4.361   6.739  0.9675 -0.6012 -0.8964
 9373SOL    HW239582   1.956   4.236   6.787 -1.7909 -0.1596  0.1162
 9374SOL     OW39583   1.216   1.418   8.057 -0.5914 -0.0414  0.1717
 9374SOL    HW139584   1.147   1.426   7.992 -1.7122 -0.9387  1.2523
 9374SOL    HW239585   1.288   1.423   7.994 -1.2342  1.1603 -0.4738
 9375SOL     OW39586   0.365   0.162   6.304  0.1186 -0.2558  0.3339
 9375SOL    HW139587   0.316   0.128   6.378 -1.1125 -0.3888 -0.5324
 9375SOL    HW239588   0.456   0.148   6.329  0.8619  0.5909 -1.8451
 9376SOL     OW39589   3.462   3.358   6.392  0.3413  0.3636 -0.1517
 9376SOL    HW139590   3.504   3.273   6.406  0.5623  0.3967 -0.6285
 9376SOL    HW239591   3.506   3.406   6.462  0.1306 -0.4075  0.5055
 9377SOL     OW39592   0.308   0.938   3.470 -0.6476  0.1670  0.3376
 9377SOL    HW139593   0.378   0.993   3.434 -0.3689  0.6487  1.6089
 9377SOL    HW239594   0.351   0.857   3.446 -0.8641  0.7175 -1.8900
 9378SOL     OW39595   2.081   0.857   9.390  0.1508  0.2345 -0.0180
 9378SOL    HW139596   2.114   0.915   9.458 -3.4826  2.5139 -0.1560
 9378SOL    HW239597   1.986   0.849   9.401  0.2368  0.1191  0.5830
 9379SOL     OW39598   0.342   4.568  10.536  0.7257  0.2601 -0.0989
 9379SOL    HW139599   0.410   4.546  10.473  1.3042  0.7482  0.3630
 9379SOL    HW239600   0.406   4.594  10.602  1.1392  0.4712 -0.5848
 9380SOL     OW39601   1.199   0.167  17.258 -0.3167 -0.3602 -0.2427
 9380SOL    HW139602   1.222   0.074  17.267  0.2222 -0.3272 -1.2778
 9380SOL    HW239603   1.270   0.196  17.201 -1.2349  0.7183 -0.8443
 9381SOL     OW39604   0.864   0.986  16.229  0.1595  0.1832  0.2271
 9381SOL    HW139605   0.770   0.967  16.240  0.5115 -1.4542  0.3887
 9381SOL    HW239606   0.905   0.906  16.262  2.6765  1.2180 -0.4228
 9382SOL     OW39607   4.230   0.848   4.034 -0.2304 -0.6646  0.6753
 9382SOL    HW139608   4.310   0.813   4.072  0.3322 -0.5930 -0.4567
 9382SOL    HW239609   4.185   0.872   4.115  0.6260  1.0750  0.6225
 9383SOL     OW39610   2.029   0.629  11.631 -0.2555 -0.0547 -0.3910
 9383SOL    HW139611   2.016   0.543  11.592  0.3186  0.4712 -1.7452
 9383SOL    HW239612   2.026   0.683  11.552  1.2767 -1.5784 -1.5032
 9384SOL     OW39613   3.771   0.807   9.920  0.2813  0.8838 -0.1846
 9384SOL    HW139614   3.708   0.845   9.981 -0.8523 -1.8566  0.3879
 9384SOL    HW239615   3.847   0.864   9.919  2.1285 -1.5616  1.4257
 9385SOL     OW39616   3.038   4.661   5.717  0.8796  0.1634  0.0235
 9385SOL    HW139617   3.048   4.608   5.796  1.6150  1.1621  0.5944
 9385SOL    HW239618   3.006   0.029   5.743 -0.9505 -0.4845 -0.0699
 9386SOL     OW39619   0.785   1.477  10.753 -0.4648 -0.1129  0.2338
 9386SOL    HW139620   0.876   1.505  10.743  0.0100 -1.5433  0.5524
 9386SOL    HW239621   0.802   1.389  10.787 -0.5868  0.7889  2.6428
 9387SOL     OW39622   1.572   2.319   7.759 -0.1254  0.5974 -0.3124
 9387SOL    HW139623   1.522   2.240   7.779 -1.7133  0.8893 -3.1793
 9387SOL    HW239624   1.514   2.386   7.795 -0.2227  0.9003 -1.0299
 9388SOL     OW39625   4.702   0.332   3.127  0.2592 -0.3434  0.4001
 9388SOL    HW139626   0.060   0.280   3.155  0.9736  0.2227 -0.4863
 9388SOL    HW239627   4.629   0.275   3.151 -1.0329  0.3159 -2.0261
 9389SOL     OW39628   3.868   0.961  15.011  0.0038 -0.2553  0.2607
 9389SOL    HW139629   3.880   0.889  14.949 -1.3873 -1.9611  1.9674
 9389SOL    HW239630   3.852   0.910  15.090 -0.6373 -0.6578 -0.1272
 9390SOL     OW39631   0.778   2.347   7.537  0.0111  0.3529  0.0523
 9390SOL    HW139632   0.868   2.374   7.557 -0.2865  0.9548  0.5636
 9390SOL    HW239633   0.767   2.284   7.608  0.3904  0.6279  0.3581
 9391SOL     OW39634   1.576   0.771  16.595 -0.4488 -0.2906  0.6295
 9391SOL    HW139635   1.654   0.823  16.615 -0.8137  0.3195  0.4883
 9391SOL    HW239636   1.537   0.767  16.682  0.3735  1.6794  1.1020
 9392SOL     OW39637   2.322   2.525   7.070  0.2501 -0.1594  0.1650
 9392SOL    HW139638   2.270   2.445   7.080 -0.7885  0.2912 -1.6043
 9392SOL    HW239639   2.263   2.593   7.101  2.0956  0.7320  1.7092
 9393SOL     OW39640   3.661   4.627  16.004 -0.2219 -0.2866 -0.2031
 9393SOL    HW139641   3.598   4.559  16.028 -2.1706  1.4978 -0.1906
 9393SOL    HW239642   3.689   4.604  15.916  0.7762  2.5266 -0.6053
 9394SOL     OW39643   1.179   3.306   5.640 -0.0176  0.1007 -0.1071
 9394SOL    HW139644   1.242   3.294   5.569  0.4225  1.8594 -0.0149
 9394SOL    HW239645   1.216   3.243   5.702  0.9900  0.5586 -0.2564
 9395SOL     OW39646   0.988   2.663  15.223 -0.3107  0.1523  0.3443
 9395SOL    HW139647   1.012   2.708  15.305  0.5038 -0.9352  0.6959
 9395SOL    HW239648   1.030   2.579  15.237 -1.6920 -1.1126 -3.2925
 9396SOL     OW39649   3.591   2.469  11.165  0.3246  0.6056 -0.2120
 9396SOL    HW139650   3.515   2.415  11.142  2.1161 -1.8993 -0.1926
 9396SOL    HW239651   3.576   2.480  11.259  0.9872 -0.3723  0.0064
 9397SOL     OW39652   0.485   3.846   1.218 -0.2530 -0.2483 -0.4051
 9397SOL    HW139653   0.517   3.759   1.242 -1.4616 -0.0826  1.7785
 9397SOL    HW239654   0.547   3.870   1.148 -0.8715 -0.0029 -0.8691
 9398SOL     OW39655   1.255   1.011  11.150  0.0701 -0.3999 -0.6108
 9398SOL    HW139656   1.189   1.063  11.104 -0.1823 -0.2168 -0.0350
 9398SOL    HW239657   1.257   0.936  11.090  0.2639 -0.5886 -0.3655
 9399SOL     OW39658   3.991   2.448   2.275  0.5855  0.1801 -0.0476
 9399SOL    HW139659   4.012   2.358   2.250 -1.3756  0.4112 -2.5636
 9399SOL    HW239660   3.960   2.447   2.366 -1.5452  1.3807 -0.7656
 9400SOL     OW39661   1.666   3.290   3.543  0.1360  0.3626  0.1034
 9400SOL    HW139662   1.601   3.242   3.492  0.6790  1.0149 -1.2203
 9400SOL    HW239663   1.607   3.342   3.597  1.5129  1.1007  0.9041
 9401SOL     OW39664   2.993   2.031   4.530 -1.0110 -0.0234  1.0426
 9401SOL    HW139665   2.930   1.960   4.542 -0.2596 -0.6416  1.3740
 9401SOL    HW239666   2.935   2.107   4.530 -0.9141  0.0661  2.4829
 9402SOL     OW39667   3.719   1.098   2.754  0.0228 -0.1498  0.3625
 9402SOL    HW139668   3.674   1.141   2.682 -1.0287 -1.5350  0.1808
 9402SOL    HW239669   3.808   1.133   2.757 -0.7069  1.7682 -0.4916
 9403SOL     OW39670   2.566   2.876   3.930  0.2349 -0.2804  0.0592
 9403SOL    HW139671   2.488   2.928   3.947  1.0758  0.9379  0.1735
 9403SOL    HW239672   2.632   2.944   3.923 -0.2556  0.3416  1.6196
 9404SOL     OW39673   1.580   2.986   5.695  0.2270 -0.4620  0.3123
 9404SOL    HW139674   1.675   2.985   5.680  0.1235  1.8740 -0.4801
 9404SOL    HW239675   1.582   2.920   5.764  2.4450 -0.9881 -0.2423
 9405SOL     OW39676   1.129   2.044   8.363 -0.0097  0.3845  0.3775
 9405SOL    HW139677   1.065   1.980   8.395  1.5431 -0.3974  1.8868
 9405SOL    HW239678   1.212   1.997   8.374  0.3360  1.1906  1.1957
 9406SOL     OW39679   4.458   1.011   8.730  0.1839 -0.3074  0.1102
 9406SOL    HW139680   4.366   1.001   8.758 -0.0396  0.2749 -0.4130
 9406SOL    HW239681   4.499   1.028   8.815  1.5177  1.6324 -0.9494
 9407SOL     OW39682   4.534   3.170  12.593  0.7652  0.4265 -0.2616
 9407SOL    HW139683   4.475   3.152  12.519  1.7570  0.4798 -1.0690
 9407SOL    HW239684   4.468   3.171  12.662 -2.0245  1.3106 -2.9695
 9408SOL     OW39685   3.342   4.649  10.546  0.1515 -0.6990 -0.3555
 9408SOL    HW139686   3.426   4.624  10.508  0.8957  0.9533  0.2043
 9408SOL    HW239687   3.291   4.669  10.467 -3.0624 -2.3485  1.3253
 9409SOL     OW39688   4.558   0.925  16.198  0.2649 -0.2386 -0.5204
 9409SOL    HW139689   4.621   0.962  16.135  0.8990  0.4175  0.5028
 9409SOL    HW239690   4.612   0.857  16.239  1.4298 -0.0346 -1.6936
 9410SOL     OW39691   3.716   2.659   8.172  0.6305 -0.1546  0.6233
 9410SOL    HW139692   3.791   2.604   8.193 -0.4060 -0.5526  3.2273
 9410SOL    HW239693   3.671   2.666   8.256  0.8290  0.0703  0.7139
 9411SOL     OW39694   0.718   0.841   9.555 -0.7994  0.2956 -0.1768
 9411SOL    HW139695   0.627   0.859   9.533 -0.8963 -1.1848 -0.9837
 9411SOL    HW239696   0.722   0.825   9.650  2.4054  1.1488 -0.1898
 9412SOL     OW39697   2.791   1.820   4.589  0.2361  0.3787  0.0050
 9412SOL    HW139698   2.730   1.836   4.662 -0.8829  0.8729 -1.0324
 9412SOL    HW239699   2.731   1.782   4.524 -0.5026 -2.0371  2.0705
 9413SOL     OW39700   3.110   3.424   3.894 -0.2356  0.2098  0.5029
 9413SOL    HW139701   3.020   3.402   3.869  0.1164 -1.8563  0.9980
 9413SOL    HW239702   3.153   3.439   3.809  2.5102 -3.1249  1.2944
 9414SOL     OW39703   2.090   1.401   3.379  0.2277  0.0377  0.6014
 9414SOL    HW139704   2.006   1.445   3.370 -0.4964 -1.4153  0.1830
 9414SOL    HW239705   2.085   1.335   3.309  0.7800 -0.6237  1.1891
 9415SOL     OW39706   0.966   2.375   7.727  0.4145  0.2750  0.0439
 9415SOL    HW139707   0.948   2.436   7.798 -1.1331  2.7785 -2.4815
 9415SOL    HW239708   1.036   2.326   7.769  0.0313 -0.6894 -0.4239
 9416SOL     OW39709   4.543   1.220   2.978 -0.1880  0.0152 -0.6728
 9416SOL    HW139710   4.602   1.282   3.022  0.8200 -1.0512 -0.5133
 9416SOL    HW239711   4.611   1.168   2.936  1.7487  0.9086  1.3200
 9417SOL     OW39712   1.592   1.541   4.264 -0.0464 -0.2533 -0.1795
 9417SOL    HW139713   1.646   1.515   4.190  2.3737  1.8125  0.8729
 9417SOL    HW239714   1.625   1.481   4.332  1.5060 -0.4085 -1.0671
 9418SOL     OW39715   0.862   1.986   0.482 -0.2845 -0.2964  0.6134
 9418SOL    HW139716   0.788   1.995   0.422 -2.0062 -0.9577  2.6548
 9418SOL    HW239717   0.855   1.892   0.494  0.6771 -0.2021  1.9066
 9419SOL     OW39718   0.045   2.273   7.825  0.1517 -0.4144 -0.2761
 9419SOL    HW139719   0.013   2.185   7.803  0.4734 -0.6734  0.2843
 9419SOL    HW239720   0.016   2.324   7.749 -1.9861 -1.7191 -0.3611
 9420SOL     OW39721   4.561   0.412  12.889 -0.5657 -0.0624  0.0741
 9420SOL    HW139722   4.551   0.454  12.975  1.2020  0.3386  0.0733
 9420SOL    HW239723   4.655   0.398  12.894 -0.9777 -2.8220 -0.0079
 9421SOL     OW39724   1.804   3.739   9.285 -0.1190  0.0568  0.4795
 9421SOL    HW139725   1.854   3.816   9.261  0.0393 -0.5412 -1.0739
 9421SOL    HW239726   1.754   3.779   9.357  2.1353  0.7250  1.6476
 9422SOL     OW39727   3.247   1.644   4.990 -0.2234 -0.7016  0.4441
 9422SOL    HW139728   3.194   1.565   4.998  0.0936 -0.8867  0.7041
 9422SOL    HW239729   3.275   1.652   5.081  1.5878  1.0758 -0.2684
 9423SOL     OW39730   2.611   4.702   5.194 -0.0476  0.7489 -0.2670
 9423SOL    HW139731   2.601   4.680   5.101  1.1087  0.6603 -0.3779
 9423SOL    HW239732   2.698   4.666   5.210 -0.6459 -0.6269 -0.1098
 9424SOL     OW39733   1.267   2.467   6.040 -0.3319 -0.3016  0.6300
 9424SOL    HW139734   1.205   2.453   5.968 -0.1500  2.0666  0.0185
 9424SOL    HW239735   1.345   2.465   5.984 -1.8918 -0.4456 -1.5378
 9425SOL     OW39736   2.484   0.039  14.362  0.0767 -0.0922 -0.6694
 9425SOL    HW139737   2.450   4.669  14.350 -0.1542 -0.1681  0.5767
 9425SOL    HW239738   2.566   0.035  14.412 -0.2902  0.6501 -0.0141
 9426SOL     OW39739   1.138   0.676   5.996  0.2138 -0.0343 -0.1325
 9426SOL    HW139740   1.192   0.598   6.006  0.3266  0.0052 -0.4121
 9426SOL    HW239741   1.056   0.637   5.966 -0.0891  0.1945  0.4101
 9427SOL     OW39742   0.949   1.527   2.606 -0.2040  0.1583  0.4796
 9427SOL    HW139743   0.930   1.441   2.567  0.3244 -0.0632  0.7224
 9427SOL    HW239744   0.975   1.575   2.528  0.6734  2.0919  1.9529
 9428SOL     OW39745   2.956   3.499  13.556 -0.1433 -0.2536  0.2654
 9428SOL    HW139746   2.992   3.422  13.513 -2.0081 -0.7938 -0.3256
 9428SOL    HW239747   3.021   3.560  13.520 -1.4392  0.2545 -1.2295
 9429SOL     OW39748   1.449   1.265   8.834  0.4474  0.1580 -0.3154
 9429SOL    HW139749   1.540   1.295   8.827 -0.0475  1.6201 -0.2577
 9429SOL    HW239750   1.462   1.175   8.865  1.5692  0.4491  0.0990
 9430SOL     OW39751   4.039   1.929   7.200  0.3571 -0.1538  0.1697
 9430SOL    HW139752   4.060   1.839   7.225  2.5678  0.5266  0.8353
 9430SOL    HW239753   4.004   1.952   7.286  0.0173  1.3161 -0.3622
 9431SOL     OW39754   3.697   1.779   4.398  0.6895  0.1179  0.1920
 9431SOL    HW139755   3.747   1.725   4.459  0.8853 -0.1945 -0.2460
 9431SOL    HW239756   3.648   1.833   4.461 -1.9219 -2.0915  0.0485
 9432SOL     OW39757   0.113   3.459  14.055 -0.4336 -0.3751  0.2675
 9432SOL    HW139758   0.111   3.436  13.962  1.0993 -1.8226  0.6092
 9432SOL    HW239759   0.079   3.549  14.057  0.1299 -0.1920  1.2682
 9433SOL     OW39760   1.033   3.553   5.286 -0.1140 -0.8403 -0.1491
 9433SOL    HW139761   0.989   3.633   5.258 -2.0229 -1.8061  0.0159
 9433SOL    HW239762   1.049   3.555   5.380 -0.4714  1.1672 -0.1297
 9434SOL     OW39763   0.910   2.540   8.289  0.4153  0.0127 -0.1845
 9434SOL    HW139764   0.845   2.584   8.344  0.8739  1.6816 -0.9810
 9434SOL    HW239765   0.919   2.457   8.336 -1.7538  0.7590  1.5429
 9435SOL     OW39766   3.357   2.878  10.521  0.4062  0.1956  0.1373
 9435SOL    HW139767   3.306   2.944  10.473  0.2794  1.2278  1.6851
 9435SOL    HW239768   3.355   2.796  10.472  5.0345 -0.3539  0.9081
 9436SOL     OW39769   1.808   3.904   2.775 -0.0015 -0.0578  0.3066
 9436SOL    HW139770   1.883   3.963   2.763 -0.3224  1.4090  5.3823
 9436SOL    HW239771   1.778   3.944   2.857 -0.8021  0.7015 -0.3512
 9437SOL     OW39772   1.319   2.682   8.033 -0.2714 -0.5856  0.4475
 9437SOL    HW139773   1.250   2.631   8.075 -1.7405  1.4978  0.5341
 9437SOL    HW239774   1.321   2.761   8.087  0.3378 -0.9219  0.9264
 9438SOL     OW39775   3.065   4.189   1.040 -0.1684 -0.4949 -0.0852
 9438SOL    HW139776   3.097   4.106   1.075 -0.3276 -1.1131 -1.4075
 9438SOL    HW239777   3.110   4.245   1.103 -0.1813 -1.9093  1.1754
 9439SOL     OW39778   4.075   1.962   0.599 -0.1482  0.1988 -0.2674
 9439SOL    HW139779   4.025   1.883   0.576  0.8286  0.0781 -1.9516
 9439SOL    HW239780   4.000   2.018   0.619  0.9919  0.9873  1.8348
 9440SOL     OW39781   0.936   0.452   8.334  0.4023  0.2705  0.4618
 9440SOL    HW139782   0.848   0.435   8.369  1.0188 -1.1388  1.3591
 9440SOL    HW239783   0.923   0.520   8.268  1.7955 -0.9961 -1.1249
 9441SOL     OW39784   2.105   3.396   7.391  0.3250 -0.5353 -0.4848
 9441SOL    HW139785   2.029   3.338   7.378 -0.8248  1.3329 -2.0685
 9441SOL    HW239786   2.178   3.340   7.367  0.0135 -0.4456 -1.6159
 9442SOL     OW39787   4.631   4.268   7.774 -0.4526  1.4013 -0.0467
 9442SOL    HW139788   0.001   4.286   7.808  0.4882 -0.9910 -1.2582
 9442SOL    HW239789   4.613   4.352   7.733 -2.3112  1.0066 -0.0560
 9443SOL     OW39790   0.358   2.360   7.503 -0.2192 -0.1431  0.0667
 9443SOL    HW139791   0.291   2.329   7.442  0.7590  1.8738 -2.0499
 9443SOL    HW239792   0.403   2.425   7.449 -0.9915 -1.0241 -1.6480
 9444SOL     OW39793   2.360   3.112  12.668 -0.6288  0.7735 -0.1693
 9444SOL    HW139794   2.449   3.077  12.670 -0.3784  1.4024 -0.1820
 9444SOL    HW239795   2.326   3.040  12.720  0.4047 -0.3719 -1.0857
 9445SOL     OW39796   4.414   3.804   2.438  0.7352  0.6138 -0.0520
 9445SOL    HW139797   4.338   3.834   2.489 -0.3480 -2.5480  0.2041
 9445SOL    HW239798   4.369   3.833   2.359 -0.0506  0.2179  0.2420
 9446SOL     OW39799   0.187   3.338   0.074 -0.3996  0.1384 -0.3750
 9446SOL    HW139800   0.261   3.392   0.046 -0.7021  0.5246 -0.4450
 9446SOL    HW239801   0.125   3.389   0.021 -0.6961 -0.7883 -0.9172
 9447SOL     OW39802   3.986   3.347   5.876 -0.1267  0.1841  0.3046
 9447SOL    HW139803   4.067   3.396   5.890 -0.6703  1.5611 -1.4473
 9447SOL    HW239804   3.993   3.276   5.940 -0.2727  0.5275  0.7087
 9448SOL     OW39805   2.718   2.897   5.011  0.0240  0.0574  0.2733
 9448SOL    HW139806   2.707   2.952   5.089  0.1895  0.0993  0.2653
 9448SOL    HW239807   2.632   2.856   4.996 -0.5460  1.6865 -0.8759
 9449SOL     OW39808   0.700   2.324   7.835 -0.4749 -0.2037 -0.5298
 9449SOL    HW139809   0.673   2.412   7.862 -1.3774 -0.6040 -0.1361
 9449SOL    HW239810   0.790   2.335   7.804 -0.6887  1.8010 -0.4391
 9450SOL     OW39811   3.980   2.741   2.546 -0.3216 -0.2133 -0.3655
 9450SOL    HW139812   4.044   2.671   2.542 -1.5726 -1.4548  1.2152
 9450SOL    HW239813   3.904   2.691   2.516 -1.5734  0.4256  1.7774
 9451SOL     OW39814   3.829   2.720   7.510 -0.4252  0.0584 -0.8024
 9451SOL    HW139815   3.817   2.637   7.556 -0.1837 -0.3279 -1.4376
 9451SOL    HW239816   3.787   2.780   7.572  0.0944  0.2902 -0.6812
 9452SOL     OW39817   1.337   0.932  15.376 -0.4265 -0.5878  0.8913
 9452SOL    HW139818   1.272   0.868  15.403  1.3286 -2.2382  1.1674
 9452SOL    HW239819   1.311   1.019  15.407 -1.1890 -0.0813 -1.1461
 9453SOL     OW39820   2.464   4.405   2.931 -0.5986  0.0896  0.0576
 9453SOL    HW139821   2.498   4.315   2.932  0.8884  0.6628  0.3789
 9453SOL    HW239822   2.404   4.405   2.856  1.1416 -1.4356 -1.3687
 9454SOL     OW39823   1.371   3.883   3.284 -0.2193 -0.4047  0.5680
 9454SOL    HW139824   1.310   3.811   3.298  0.6662 -1.7229 -2.4329
 9454SOL    HW239825   1.377   3.928   3.368  2.4412 -3.2722  1.9158
 9455SOL     OW39826   4.031   0.387   0.827  0.4198  0.3073 -0.1686
 9455SOL    HW139827   3.950   0.368   0.781 -1.1496  2.7910  1.5594
 9455SOL    HW239828   4.047   0.479   0.805 -0.4198  0.1612 -1.3923
 9456SOL     OW39829   1.714   3.900  13.210  0.3243 -1.0377 -0.1883
 9456SOL    HW139830   1.658   3.972  13.238  0.7794 -0.7455 -0.0166
 9456SOL    HW239831   1.728   3.927  13.119 -0.7740 -1.9009 -0.6046
 9457SOL     OW39832   0.790   3.901   8.026  0.0861 -0.5000  0.1290
 9457SOL    HW139833   0.774   3.987   7.987  0.5283  0.3838  1.8573
 9457SOL    HW239834   0.812   3.853   7.947 -0.4781 -0.1199 -0.2541
 9458SOL     OW39835   0.773   3.256   6.726  0.6325 -0.5858  0.4632
 9458SOL    HW139836   0.707   3.203   6.680 -0.3245  1.0480 -0.0344
 9458SOL    HW239837   0.769   3.206   6.807 -0.3961  0.6970  1.2012
 9459SOL     OW39838   3.755   3.016   7.188 -0.3735 -0.7911  0.2544
 9459SOL    HW139839   3.668   3.042   7.157  0.1623  0.2495 -0.3525
 9459SOL    HW239840   3.810   3.017   7.109 -0.3213 -1.6448  0.2809
 9460SOL     OW39841   1.264   3.868  17.500 -0.2563 -0.4473 -0.5734
 9460SOL    HW139842   1.341   3.900  17.452 -0.3576 -0.5613 -0.8078
 9460SOL    HW239843   1.272   3.920  17.580 -1.0212  0.0960 -0.8573
 9461SOL     OW39844   1.863   1.097   2.239  0.0681 -0.1617 -0.2046
 9461SOL    HW139845   1.917   1.023   2.209  2.3969  0.6141  1.9777
 9461SOL    HW239846   1.919   1.174   2.227 -0.3539  0.0939 -0.4945
 9462SOL     OW39847   1.471   3.693   0.009  0.2849  0.0172  0.5876
 9462SOL    HW139848   1.410   3.752   0.053 -1.2595 -1.2973  0.2228
 9462SOL    HW239849   1.412   3.621  17.662 -0.0441  0.2179  0.8073
 9463SOL     OW39850   2.156   3.659   3.190 -0.4336  1.1878 -0.3030
 9463SOL    HW139851   2.161   3.653   3.285  0.8103 -1.6054 -0.5173
 9463SOL    HW239852   2.248   3.666   3.162 -0.2679 -1.0197 -0.3229
 9464SOL     OW39853   2.443   2.640   8.452  0.0458  0.5078  0.8267
 9464SOL    HW139854   2.372   2.616   8.393  0.3075  0.2726  0.6106
 9464SOL    HW239855   2.489   2.559   8.472 -0.9961 -0.0535  0.9022
 9465SOL     OW39856   4.134   0.483  14.108 -0.6217  0.0403 -0.5073
 9465SOL    HW139857   4.079   0.477  14.186  0.0035 -1.0757 -0.1547
 9465SOL    HW239858   4.216   0.457  14.150  0.0985  1.4398 -1.0490
 9466SOL     OW39859   4.567   4.613   0.985  0.6968 -0.5318  0.4403
 9466SOL    HW139860   4.661   4.603   0.999  1.1696 -0.7004 -2.9263
 9466SOL    HW239861   4.563   4.704   0.955 -2.0052 -1.1723 -1.1792
 9467SOL     OW39862   3.794   0.050   5.006  0.1244  0.4079  0.7424
 9467SOL    HW139863   3.745   0.079   5.083 -1.8346  0.2988 -0.4624
 9467SOL    HW239864   3.723   0.019   4.950 -0.2421  1.8837  0.4050
 9468SOL     OW39865   1.479   3.836  12.561  0.0782 -0.5862  0.5854
 9468SOL    HW139866   1.400   3.875  12.524  1.0694 -0.2373 -1.1577
 9468SOL    HW239867   1.532   3.912  12.538 -0.9661  0.6369  2.2295
 9469SOL     OW39868   1.192   0.737   7.190 -0.5448 -0.0775 -0.0527
 9469SOL    HW139869   1.154   0.766   7.273 -1.0204 -4.3316  1.1959
 9469SOL    HW239870   1.140   0.788   7.126  1.0665  0.3663 -1.0069
 9470SOL     OW39871   0.636   4.205   2.957 -0.6314 -0.1081  0.1577
 9470SOL    HW139872   0.715   4.178   3.003 -0.5679  0.9117  0.6447
 9470SOL    HW239873   0.568   4.185   3.021 -1.6483 -0.9913 -1.1765
 9471SOL     OW39874   2.042   3.594   6.915 -0.4847  0.7075  0.1962
 9471SOL    HW139875   2.056   3.502   6.892  1.1613  0.6541  1.3413
 9471SOL    HW239876   1.961   3.616   6.870  0.4482  1.2240 -1.2102
 9472SOL     OW39877   0.775   2.141   8.964  0.4234 -0.1025 -0.4260
 9472SOL    HW139878   0.843   2.113   9.025  0.3748 -1.4573 -0.9853
 9472SOL    HW239879   0.741   2.221   9.004 -0.2261 -0.4564 -0.2757
 9473SOL     OW39880   0.128   2.949   6.381  0.2212 -0.4609 -0.6164
 9473SOL    HW139881   0.216   2.915   6.361  1.4406  2.0436  0.4487
 9473SOL    HW239882   0.078   2.884   6.332  1.7336 -0.8364 -1.6720
 9474SOL     OW39883   2.533   3.026   9.417 -0.7314 -0.2941 -0.1670
 9474SOL    HW139884   2.463   3.089   9.404  1.0293  1.6620 -0.0760
 9474SOL    HW239885   2.588   3.040   9.340 -1.1710  1.2583 -0.1998
 9475SOL     OW39886   2.278   2.497  12.859  0.3004  0.4107 -0.6213
 9475SOL    HW139887   2.210   2.531  12.800  0.7447  1.2436 -0.6512
 9475SOL    HW239888   2.355   2.527  12.812  1.6250 -1.1873  0.5549
 9476SOL     OW39889   1.262   2.913   6.327  0.3164  0.4265  0.2854
 9476SOL    HW139890   1.272   2.972   6.252  2.6375 -2.2399 -1.4875
 9476SOL    HW239891   1.177   2.876   6.305 -0.3170  1.3532  1.1818
 9477SOL     OW39892   1.811   0.307   8.867 -0.1479 -0.0272 -0.1591
 9477SOL    HW139893   1.860   0.341   8.792 -2.2937  1.4905 -0.8421
 9477SOL    HW239894   1.725   0.284   8.834  1.1798 -4.4363 -0.5796
 9478SOL     OW39895   0.966   4.248   6.761 -0.1208 -0.4989 -0.6867
 9478SOL    HW139896   0.939   4.180   6.699 -0.1402 -0.2573 -0.9430
 9478SOL    HW239897   0.884   4.250   6.812 -0.2768 -0.9581 -0.9191
 9479SOL     OW39898   4.708   2.957   2.194 -0.0923 -0.1901  0.0723
 9479SOL    HW139899   4.615   2.944   2.210 -0.1991 -0.1296 -0.5085
 9479SOL    HW239900   0.003   2.892   2.124 -2.6442 -0.4447 -0.1572
 9480SOL     OW39901   3.164   4.175  12.656  0.0500 -0.5908  0.3215
 9480SOL    HW139902   3.211   4.186  12.739 -0.0418 -1.3214  0.4659
 9480SOL    HW239903   3.084   4.210  12.695 -1.4265  0.4618 -3.6552
 9481SOL     OW39904   4.418   2.557  15.420  0.0163  0.5000 -0.4157
 9481SOL    HW139905   4.393   2.465  15.408  2.9896 -0.5307  1.1541
 9481SOL    HW239906   4.337   2.606  15.407  0.4318  1.5704  0.9763
 9482SOL     OW39907   2.692   1.912   6.823  0.1910 -0.4081  0.4597
 9482SOL    HW139908   2.657   1.984   6.876 -0.4758 -2.3025  2.6243
 9482SOL    HW239909   2.757   1.956   6.769  1.8273  0.1008  2.8445
 9483SOL     OW39910   2.479   2.147   5.640 -0.2328 -0.0359 -0.2878
 9483SOL    HW139911   2.464   2.174   5.550 -2.4251  0.0485  0.1098
 9483SOL    HW239912   2.536   2.074   5.615  2.1488  1.3401  1.0940
 9484SOL     OW39913   4.699   0.919  17.668  0.1324 -0.3352  0.2244
 9484SOL    HW139914   4.669   0.828  17.666  0.9722 -0.6100  0.0842
 9484SOL    HW239915   0.033   0.913  17.588 -2.1781  0.3452 -1.3235
 9485SOL     OW39916   0.205   4.190   2.453 -0.1770  0.0689  0.3698
 9485SOL    HW139917   0.226   4.113   2.505  1.7307  0.2887 -0.0623
 9485SOL    HW239918   0.115   4.172   2.425 -0.7605 -0.4990  2.6318
 9486SOL     OW39919   1.394   3.371   3.129 -0.5183 -0.2373 -0.4442
 9486SOL    HW139920   1.465   3.307   3.126 -0.5690 -0.2744 -1.0649
 9486SOL    HW239921   1.314   3.318   3.120 -1.9933  1.9271 -0.0667
 9487SOL     OW39922   3.844   1.120   7.774 -0.0226 -0.3626  0.2187
 9487SOL    HW139923   3.839   1.053   7.842 -0.3768  0.3012  0.8443
 9487SOL    HW239924   3.914   1.087   7.718  1.8009  2.2629  0.9523
 9488SOL     OW39925   1.535   4.046   5.732 -0.0307 -0.2121  1.1610
 9488SOL    HW139926   1.476   4.059   5.658  1.4066  0.9834  0.2322
 9488SOL    HW239927   1.543   4.135   5.766  0.6249  0.9213 -2.0362
 9489SOL     OW39928   2.412   4.625   7.128  0.6419 -0.3315 -0.1897
 9489SOL    HW139929   2.435   4.653   7.217  0.0921 -2.4804  0.6361
 9489SOL    HW239930   2.464   4.545   7.128 -1.5144 -1.7309  0.2716
 9490SOL     OW39931   0.434   2.712   3.005  0.5052 -0.6706  0.2775
 9490SOL    HW139932   0.423   2.797   3.048  0.5719 -0.0551 -0.9470
 9490SOL    HW239933   0.528   2.719   2.994  0.4927 -0.0046  0.6180
 9491SOL     OW39934   0.944   2.705  10.853 -0.0864 -0.3547  0.0947
 9491SOL    HW139935   0.934   2.685  10.946 -0.4968 -1.4115 -0.1704
 9491SOL    HW239936   0.961   2.799  10.856  2.3074 -0.8404  1.3344
 9492SOL     OW39937   3.096   4.051  10.657  0.7905 -0.8244  0.3288
 9492SOL    HW139938   3.109   4.145  10.671 -2.7200  0.0873 -2.5943
 9492SOL    HW239939   3.114   4.027  10.748  0.2342  2.0193  1.2058
 9493SOL     OW39940   2.154   0.763   4.488 -0.2648 -0.7246 -0.2460
 9493SOL    HW139941   2.245   0.790   4.475 -0.8386  0.8662 -0.8757
 9493SOL    HW239942   2.109   0.847   4.497  0.0423 -0.6958  1.0442
 9494SOL     OW39943   2.454   1.953   2.132  0.0873  0.8181 -0.3861
 9494SOL    HW139944   2.454   1.864   2.096  0.5907  0.1128  1.3780
 9494SOL    HW239945   2.490   1.941   2.219  1.2442 -0.2944 -1.0150
 9495SOL     OW39946   2.775   0.459  15.821  0.3339 -0.0532 -0.0244
 9495SOL    HW139947   2.848   0.513  15.849 -0.0023  0.9238 -0.9879
 9495SOL    HW239948   2.825   0.404  15.761 -1.2213  0.8051 -2.1366
 9496SOL     OW39949   3.411   0.202   5.154 -0.3098 -0.4628  0.5276
 9496SOL    HW139950   3.501   0.173   5.166 -0.0430 -0.7986 -2.2710
 9496SOL    HW239951   3.400   0.250   5.236 -1.8155 -0.8506  0.5519
 9497SOL     OW39952   1.810   3.533   0.989 -0.4194 -0.2028 -0.3342
 9497SOL    HW139953   1.769   3.548   1.074  2.1161  0.7195  0.7280
 9497SOL    HW239954   1.886   3.483   1.018 -0.8224 -0.3991  0.3764
 9498SOL     OW39955   3.398   3.158   3.482  0.1934  0.3083 -0.4088
 9498SOL    HW139956   3.325   3.124   3.534  2.6712 -0.4934  2.5379
 9498SOL    HW239957   3.348   3.223   3.432  1.4243  2.0880  0.6297
 9499SOL     OW39958   2.387   3.361   6.315 -0.2335  0.3409 -0.0631
 9499SOL    HW139959   2.464   3.385   6.367 -1.2887 -3.7965  3.3550
 9499SOL    HW239960   2.382   3.436   6.254  0.3078  0.2111 -0.2609
 9500SOL     OW39961   0.269   1.693   7.988  0.0149  0.1914 -0.1613
 9500SOL    HW139962   0.333   1.637   7.944  0.8244  1.0275 -0.0543
 9500SOL    HW239963   0.320   1.720   8.065  1.0249 -1.3414 -0.2871
 9501SOL     OW39964   3.929   0.713  11.136 -0.0515 -0.8437  0.1536
 9501SOL    HW139965   3.913   0.621  11.114 -1.8404 -0.3519 -0.6066
 9501SOL    HW239966   3.912   0.697  11.229  0.9494 -1.6749  0.1920
 9502SOL     OW39967   1.563   1.689   7.771 -0.2422  0.8459  0.3205
 9502SOL    HW139968   1.558   1.607   7.722 -0.5379  0.9947  0.1026
 9502SOL    HW239969   1.590   1.751   7.703 -1.6500 -0.3144 -1.2956
 9503SOL     OW39970   2.113   0.507   3.027 -0.0009  0.8029 -0.2938
 9503SOL    HW139971   2.036   0.543   2.984 -0.0116  1.0130 -0.0978
 9503SOL    HW239972   2.106   0.417   2.996  0.8537  0.4426  0.5188
 9504SOL     OW39973   1.839   0.432   1.219 -0.6785  0.8462 -0.2577
 9504SOL    HW139974   1.778   0.455   1.290  0.4749 -2.7377  1.8891
 9504SOL    HW239975   1.795   0.475   1.146 -0.7903  0.4719 -0.4068
 9505SOL     OW39976   4.213   4.067   8.006 -0.5144  0.0107  0.5168
 9505SOL    HW139977   4.199   4.150   7.961  0.4003  0.5791  1.2809
 9505SOL    HW239978   4.308   4.069   8.020 -0.2537 -2.7434 -0.7869
 9506SOL     OW39979   1.564   0.827   2.975  0.3513  0.7619 -0.3529
 9506SOL    HW139980   1.659   0.830   2.988  0.1201  0.3387  1.4881
 9506SOL    HW239981   1.560   0.847   2.882 -2.4192  0.1839 -0.3462
 9507SOL     OW39982   2.943   2.476   0.829  0.2651 -0.0731  0.0285
 9507SOL    HW139983   2.849   2.493   0.834  0.0780 -1.1414  0.0320
 9507SOL    HW239984   2.970   2.553   0.779 -0.1503 -0.1681 -0.3425
 9508SOL     OW39985   1.693   4.472   4.257 -0.3473  0.2715  0.0687
 9508SOL    HW139986   1.651   4.553   4.227  2.0749  0.9267 -1.5881
 9508SOL    HW239987   1.628   4.404   4.273 -1.5552  1.3093 -0.4343
 9509SOL     OW39988   0.526   0.134   1.722  0.3633  0.5926 -0.0074
 9509SOL    HW139989   0.518   0.097   1.810  1.1171  1.8774  0.6098
 9509SOL    HW239990   0.516   0.228   1.741 -0.8079  0.3442  0.5903
 9510SOL     OW39991   3.788   1.990   9.095 -0.1205 -0.2593 -0.2603
 9510SOL    HW139992   3.734   1.911   9.090 -0.8566  0.3484 -1.9874
 9510SOL    HW239993   3.715   2.047   9.118 -0.0482 -0.0460 -0.5497
 9511SOL     OW39994   4.670   2.656   4.661 -0.0119  0.3571  0.2979
 9511SOL    HW139995   4.684   2.714   4.586  3.2163  0.8775  1.3194
 9511SOL    HW239996   0.016   2.587   4.649 -0.8017 -0.4914  0.9560
 9512SOL     OW39997   2.345   4.672   3.834 -0.1620 -0.5020 -0.4445
 9512SOL    HW139998   2.389   4.703   3.913  1.8713 -0.0329 -1.7393
 9512SOL    HW239999   2.380   4.582   3.830  1.5253  0.2244 -1.9722
 9513SOL     OW40000   4.402   3.891   3.505  0.1558 -0.0098  0.6896
 9513SOL    HW140001   4.493   3.865   3.492 -0.0196 -1.0216  1.5031
 9513SOL    HW240002   4.359   3.865   3.423  1.8728 -1.1176  0.1283
 9514SOL     OW40003   0.253   4.388  14.725  0.0838  0.0288 -0.2473
 9514SOL    HW140004   0.278   4.296  14.729 -0.2977  0.0126  1.4742
 9514SOL    HW240005   0.328   4.431  14.767  0.7565 -1.1537 -0.2351
 9515SOL     OW40006   1.638   1.260  11.788  0.0478  0.8378  0.5585
 9515SOL    HW140007   1.716   1.268  11.843  0.5780 -3.3793  0.3780
 9515SOL    HW240008   1.663   1.316  11.714 -3.5392  0.3600 -0.9960
 9516SOL     OW40009   1.144   2.063   3.599 -0.7326 -0.3686  0.7189
 9516SOL    HW140010   1.239   2.058   3.588 -0.8733  2.2816 -1.6203
 9516SOL    HW240011   1.115   1.982   3.641 -0.0547  0.8764  3.6200
 9517SOL     OW40012   0.740   2.425  14.204  0.4621  0.6860 -0.0737
 9517SOL    HW140013   0.680   2.428  14.130 -0.6479  1.1615  0.8371
 9517SOL    HW240014   0.820   2.402  14.158  0.5072 -0.6045  0.6352
 9518SOL     OW40015   2.092   1.194   7.105 -0.1963 -0.1404 -0.2703
 9518SOL    HW140016   2.075   1.106   7.073 -0.2150 -0.2999  0.1910
 9518SOL    HW240017   2.053   1.192   7.192 -1.0045 -0.8156 -0.6396
 9519SOL     OW40018   2.905   2.337   5.865 -0.2217 -0.3242 -0.3502
 9519SOL    HW140019   2.895   2.432   5.875  0.8751 -0.1631 -0.7831
 9519SOL    HW240020   2.850   2.323   5.787 -0.5280 -0.4877 -0.1035
 9520SOL     OW40021   3.466   0.345  16.062  0.4540  0.4112  0.3061
 9520SOL    HW140022   3.449   0.400  16.138  0.6536  0.8584  0.0228
 9520SOL    HW240023   3.384   0.351  16.012 -0.1636 -1.3901  1.0868
 9521SOL     OW40024   0.388   4.242   3.652 -0.0156 -0.2421  0.2025
 9521SOL    HW140025   0.335   4.321   3.652  0.9147  0.3694 -1.9576
 9521SOL    HW240026   0.406   4.235   3.558  1.3135 -2.2780  0.5968
 9522SOL     OW40027   2.473   1.045   7.241  0.2536  0.2053  0.6574
 9522SOL    HW140028   2.453   1.128   7.285  0.4774  0.2205  0.7300
 9522SOL    HW240029   2.418   0.978   7.281  1.3395 -0.0968  1.6504
 9523SOL     OW40030   2.293   2.106  10.893  0.2524 -0.1403  0.2498
 9523SOL    HW140031   2.313   2.014  10.911  3.7744  0.9048  1.8757
 9523SOL    HW240032   2.363   2.127  10.831 -1.4849  1.8419 -1.0257
 9524SOL     OW40033   4.396   2.584   2.513  0.2605 -0.0788 -0.6395
 9524SOL    HW140034   4.475   2.614   2.559  0.6049 -0.9203 -0.6643
 9524SOL    HW240035   4.395   2.637   2.434 -1.2848  0.4713 -0.2448
 9525SOL     OW40036   1.941   0.631   4.320  0.0834 -0.4096 -0.7131
 9525SOL    HW140037   2.007   0.678   4.370 -0.2370 -0.5548 -0.1502
 9525SOL    HW240038   1.901   0.708   4.281  0.1073  0.4738  0.9975
 9526SOL     OW40039   4.616   4.120   1.811 -0.5327 -0.3459 -0.3097
 9526SOL    HW140040   4.652   4.036   1.837 -0.5080 -0.3758 -0.4402
 9526SOL    HW240041   4.538   4.091   1.763 -1.4670  2.1595 -0.3273
 9527SOL     OW40042   1.908   2.159   8.728  0.3000 -0.0423 -0.6097
 9527SOL    HW140043   1.815   2.176   8.739 -0.3526 -2.6491 -2.3467
 9527SOL    HW240044   1.928   2.200   8.644  2.0526 -0.6849 -0.5076
 9528SOL     OW40045   0.131   4.631   2.907 -0.4835  0.1919 -0.1859
 9528SOL    HW140046   0.098   4.645   2.996  0.8260  0.4358  0.2588
 9528SOL    HW240047   0.127   4.536   2.898  3.1637  0.1557 -1.4944
 9529SOL     OW40048   3.064   0.572  12.439  0.7588 -0.0340  1.1638
 9529SOL    HW140049   3.128   0.641  12.455 -0.1090  1.4665 -1.8287
 9529SOL    HW240050   3.002   0.628  12.393  0.4456 -0.0619  1.5587
 9530SOL     OW40051   4.008   2.219  10.877 -0.0918  0.1224  0.6938
 9530SOL    HW140052   4.005   2.254  10.966  1.3024 -0.6388  1.0396
 9530SOL    HW240053   3.972   2.293  10.827 -0.0957 -0.4541 -0.1498
 9531SOL     OW40054   1.093   0.622   6.856  0.1801 -0.3599  0.1796
 9531SOL    HW140055   1.033   0.625   6.781 -0.5843 -2.6293  0.6853
 9531SOL    HW240056   1.058   0.688   6.916  0.0415 -0.5503  0.3063
 9532SOL     OW40057   0.691   2.883   6.371  0.3961  0.5208  0.0513
 9532SOL    HW140058   0.758   2.850   6.310 -0.2059 -0.4882 -0.0607
 9532SOL    HW240059   0.718   2.975   6.367 -2.5065  1.2470 -2.2004
 9533SOL     OW40060   4.044   1.384  10.716 -0.0752 -0.0736  0.3284
 9533SOL    HW140061   3.992   1.453  10.675 -0.8611 -1.0927 -0.3890
 9533SOL    HW240062   3.982   1.349  10.781 -0.2224 -0.5542 -0.0723
 9534SOL     OW40063   2.368   2.474   1.416  0.4869  0.4405  0.2634
 9534SOL    HW140064   2.366   2.393   1.365 -0.6043  2.9983 -3.7178
 9534SOL    HW240065   2.390   2.442   1.504  0.4190 -0.4285 -0.0306
 9535SOL     OW40066   1.886   4.469  13.401  0.0934  0.4239  0.2340
 9535SOL    HW140067   1.966   4.489  13.448 -0.2046  1.1345  0.4290
 9535SOL    HW240068   1.925   4.406  13.339  0.6766  1.9918 -0.9841
 9536SOL     OW40069   0.056   4.046  14.739  0.3505 -0.0575  0.1390
 9536SOL    HW140070   0.059   3.952  14.725  1.1036 -0.2917  1.8701
 9536SOL    HW240071   0.145   4.064  14.771  0.4717  0.5350 -0.5441
 9537SOL     OW40072   2.655   0.641  10.009 -0.1707  0.5644 -0.0278
 9537SOL    HW140073   2.726   0.593  10.051 -0.9929  0.8427  1.6946
 9537SOL    HW240074   2.575   0.615  10.055 -0.0785 -0.5693 -0.5058
 9538SOL     OW40075   0.568   0.540   8.842  0.6507 -0.3984  0.2326
 9538SOL    HW140076   0.573   0.445   8.829  0.0057 -0.2396 -1.1149
 9538SOL    HW240077   0.513   0.540   8.920 -0.3280  0.1286 -0.4627
 9539SOL     OW40078   0.388   3.693  16.189  0.0775 -0.2449  0.2631
 9539SOL    HW140079   0.407   3.782  16.216  1.3147  0.0568 -1.5879
 9539SOL    HW240080   0.474   3.687  16.147  0.0222 -1.7168  0.3391
 9540SOL     OW40081   0.470   3.490  17.082  0.5481  0.3991  0.4022
 9540SOL    HW140082   0.485   3.438  17.161 -0.0660  0.7038  0.7181
 9540SOL    HW240083   0.386   3.531  17.104  0.6090  0.8681 -0.2169
 9541SOL     OW40084   4.405   2.768   6.566  0.2511 -0.0316 -0.0601
 9541SOL    HW140085   4.498   2.775   6.587  0.4130 -0.8262 -0.4881
 9541SOL    HW240086   4.378   2.858   6.550 -3.0758 -1.1504 -0.8401
 9542SOL     OW40087   3.708   1.870   4.965  0.2580  0.0482  0.6162
 9542SOL    HW140088   3.622   1.828   4.964  0.0843  0.3896  1.1168
 9542SOL    HW240089   3.761   1.806   5.013 -1.1989  0.1494  2.3820
 9543SOL     OW40090   1.995   0.629   3.707 -0.0656 -0.2130 -0.2049
 9543SOL    HW140091   1.984   0.599   3.797 -1.1107  2.5693  0.5921
 9543SOL    HW240092   1.927   0.586   3.654 -0.5146 -0.5605  0.6499
 9544SOL     OW40093   3.223   2.357  12.105 -0.6185  0.6091  0.1219
 9544SOL    HW140094   3.154   2.412  12.142 -0.5515 -0.1562  1.3762
 9544SOL    HW240095   3.212   2.282  12.163  1.9520  0.7812  0.8232
 9545SOL     OW40096   2.235   4.634   9.250  0.0296  0.0456  0.6841
 9545SOL    HW140097   2.156   4.684   9.274  0.7045  0.7769  1.3978
 9545SOL    HW240098   2.223   4.557   9.305  2.6580 -0.1094  1.0244
 9546SOL     OW40099   1.489   0.026  17.128 -0.3804 -0.5088  0.3478
 9546SOL    HW140100   1.440   4.667  17.097  0.8412 -0.8702 -0.7159
 9546SOL    HW240101   1.532   4.694  17.197 -0.2922  1.0246  1.3808
 9547SOL     OW40102   2.218   4.212  12.895  0.1811 -0.1470  0.2717
 9547SOL    HW140103   2.153   4.283  12.891 -0.6032 -0.8382  1.0231
 9547SOL    HW240104   2.273   4.248  12.965 -1.1401 -0.9710  1.7157
 9548SOL     OW40105   3.922   1.475  11.780  0.8817 -0.2442 -0.4943
 9548SOL    HW140106   3.979   1.497  11.854  2.1351 -0.0429 -1.5083
 9548SOL    HW240107   3.850   1.426  11.819 -1.6350  1.4510 -2.9751
 9549SOL     OW40108   2.207   3.995  12.695 -0.3067  0.5448 -0.2228
 9549SOL    HW140109   2.181   3.915  12.741 -0.0501  1.1854  1.0137
 9549SOL    HW240110   2.198   4.066  12.757  1.6496 -0.6861  1.4848
 9550SOL     OW40111   3.222   2.248   7.672  0.0388 -0.4410  1.0654
 9550SOL    HW140112   3.224   2.343   7.681  1.0951 -0.2664 -0.9701
 9550SOL    HW240113   3.315   2.227   7.687  0.1038  0.3664  1.7833
 9551SOL     OW40114   3.009   0.550   2.470  0.4593 -0.6267  0.0550
 9551SOL    HW140115   3.029   0.465   2.433 -0.6927 -0.4600 -0.9642
 9551SOL    HW240116   2.972   0.592   2.391 -0.3431 -1.3285  0.0609
 9552SOL     OW40117   1.657   4.332   6.303  0.0948  0.2968  0.0238
 9552SOL    HW140118   1.619   4.411   6.264  0.0043 -0.0629 -0.6231
 9552SOL    HW240119   1.610   4.260   6.262 -1.3987  0.8659  0.7549
 9553SOL     OW40120   2.103   1.612   6.140 -0.8342  0.3588  0.6042
 9553SOL    HW140121   2.063   1.699   6.138  0.4840  0.9280 -0.9422
 9553SOL    HW240122   2.061   1.587   6.058  1.7016  1.4410 -1.0165
 9554SOL     OW40123   1.268   3.723  15.009  0.4299  0.0288  0.1581
 9554SOL    HW140124   1.254   3.638  14.968 -1.2945  0.8576 -0.9325
 9554SOL    HW240125   1.196   3.719  15.072  0.5191  2.3665  0.4056
 9555SOL     OW40126   3.530   4.096   1.496 -0.3202  0.0977 -0.1191
 9555SOL    HW140127   3.583   4.149   1.555  0.5151 -0.1814 -0.6289
 9555SOL    HW240128   3.587   4.113   1.421  1.4712 -1.3190  0.9294
 9556SOL     OW40129   2.874   1.767   8.418 -0.0758  0.0189 -0.4800
 9556SOL    HW140130   2.942   1.781   8.352 -2.0450 -0.3776 -2.5705
 9556SOL    HW240131   2.877   1.672   8.412  0.8156  0.0103  0.0303
 9557SOL     OW40132   2.644   2.652   2.095 -0.1677 -0.4610  0.1216
 9557SOL    HW140133   2.680   2.564   2.090 -1.5835 -0.9234 -2.1660
 9557SOL    HW240134   2.650   2.657   2.190  0.5238  0.7195  0.0134
 9558SOL     OW40135   4.714   1.333  15.780  0.3347  0.3034  0.1986
 9558SOL    HW140136   4.658   1.390  15.833 -0.4228  0.1369 -0.4077
 9558SOL    HW240137   4.653   1.341  15.706  1.6446 -0.5558 -0.9513
 9559SOL     OW40138   4.233   3.566   4.825  0.5821  0.5934 -0.8089
 9559SOL    HW140139   4.251   3.507   4.751  0.1899 -0.5571  0.0208
 9559SOL    HW240140   4.200   3.649   4.793 -0.0672  0.4933 -0.3911
 9560SOL     OW40141   0.144   0.396  14.011  0.1959  0.2157 -0.4226
 9560SOL    HW140142   0.087   0.398  13.934 -0.3877  2.1605  0.0526
 9560SOL    HW240143   0.184   0.312  13.990 -1.2708 -0.8159  0.9028
 9561SOL     OW40144   2.837   3.496   2.337 -0.8117 -0.4417 -0.0820
 9561SOL    HW140145   2.810   3.467   2.424  0.2471  0.4742  0.5582
 9561SOL    HW240146   2.825   3.591   2.347  2.8564 -0.0444  0.7238
 9562SOL     OW40147   3.613   0.862  10.318 -0.3880  0.2651  0.4745
 9562SOL    HW140148   3.579   0.878  10.230  0.8251  0.5250  0.0400
 9562SOL    HW240149   3.542   0.821  10.366 -0.5094 -2.9718 -2.5238
 9563SOL     OW40150   2.508   0.826  16.478 -0.1023 -0.2304  0.5257
 9563SOL    HW140151   2.423   0.781  16.480 -0.0419 -0.4354 -2.5715
 9563SOL    HW240152   2.480   0.917  16.465  0.6337 -0.2278 -0.9538
 9564SOL     OW40153   2.031   3.557   4.442  0.0026  0.9307  0.2502
 9564SOL    HW140154   2.108   3.500   4.438 -0.2730  0.6671 -1.3486
 9564SOL    HW240155   2.002   3.533   4.354  0.8377 -1.3144  0.5695
 9565SOL     OW40156   2.907   3.707   0.945 -0.2961 -0.1123 -0.3193
 9565SOL    HW140157   2.971   3.732   0.879 -0.5263  0.6787 -0.2350
 9565SOL    HW240158   2.824   3.708   0.897 -0.4951 -0.2759  0.0131
 9566SOL     OW40159   1.245   1.991  11.769  0.3367  0.5795 -0.6518
 9566SOL    HW140160   1.179   2.057  11.748 -0.0539  0.6741  0.8926
 9566SOL    HW240161   1.308   2.030  11.830 -1.3001  1.7198  0.2996
 9567SOL     OW40162   2.926   1.484  13.021 -0.0839 -0.4324  0.1044
 9567SOL    HW140163   2.902   1.549  13.087  0.2794  0.4376 -0.6238
 9567SOL    HW240164   2.841   1.471  12.979 -0.4806  0.3925  0.6656
 9568SOL     OW40165   0.440   1.736   4.387  0.5429  0.4321 -0.2842
 9568SOL    HW140166   0.438   1.685   4.306 -1.0075  0.9591 -0.5602
 9568SOL    HW240167   0.348   1.754   4.404  1.1185  1.9971  1.2487
   4.71812   4.71812  17.67566
