Membrane in water
40167
    1TCq1    O1    1   0.360   4.637  11.542 -0.1092 -0.0829 -0.1978
    1TCq1    C1    2   0.308   4.512  11.509  0.0294 -0.4181 -0.8363
    1TCq1    O2    3   0.370   4.408  11.524  0.0834 -0.1095  0.3833
    1TCq1    C2    4   0.162   4.516  11.489  0.0778  0.0836 -0.3289
    1TCq1    C3    5   0.111   4.628  11.427 -0.2950  0.0667 -0.3151
    1TCq1    C4    6   4.708   4.625  11.389  0.0610  0.3421 -0.1098
    1TCq1    C5    7   4.632   4.518  11.418  0.4727 -0.0456 -0.8288
    1TCq1    C6    8   4.694   4.404  11.467 -0.2093  0.7457  0.3635
    1TCq1    C7    9   0.103   4.394  11.502 -0.1435 -0.3602 -0.3488
    1TCq1    C8   10   4.614   4.288  11.494 -0.4231  0.0514 -0.6559
    1TCq1    O4   11   4.502   4.305  11.544  0.2692  0.2492 -0.2798
    1TCq1    C9   12   4.640   0.012  11.335 -0.4449 -0.7600  0.7371
    1TCq1    O5   13   4.710   0.113  11.322 -0.0996 -0.6554  0.1786
    1TCq1    O6   14   4.524   4.718  11.297  0.6033 -0.3066  0.2608
    1TCq1    H1   15   0.294   4.707  11.563 -0.2441  0.1625 -1.4033
    1TCq1    H2   16   0.165   4.720  11.412 -0.5236  0.3186  0.4027
    1TCq1    H3   17   4.530   4.501  11.384 -0.3104 -0.1584  1.6104
    1TCq1    H4   18   0.151   4.308  11.547 -0.8726  0.1632  1.4124
    2MPD2     C   19   4.504   3.785  11.455 -0.2250  0.2208 -0.4958
    2MPD2    C1   20   4.440   3.884  11.528  0.3281 -0.4063 -0.7922
    2MPD2    C2   21   4.495   4.020  11.526  0.0515 -0.7173 -0.1964
    2MPD2    C3   22   4.613   4.046  11.459 -0.1043 -0.2057  0.1615
    2MPD2    C4   23   4.678   3.943  11.392  0.0731  0.0505 -0.1195
    2MPD2    C5   24   4.623   3.818  11.397  0.4207 -0.1748  0.5480
    2MPD2     H   25   4.440   4.090  11.588 -0.4993  0.4442 -1.9998
    2MPD2    H1   26   0.040   3.960  11.331  2.6329 -1.6036  3.0941
    2MPD2    H2   27   4.477   3.681  11.450 -0.4971  0.3048 -0.7750
    2MPD2    H3   28   4.669   3.738  11.340  2.8241  0.7286  1.1943
    2MPD2     N   29   4.674   4.175  11.452  0.1781  0.0183 -0.1281
    2MPD2    H5   30   0.034   4.180  11.399 -1.5651 -0.5742 -3.0132
    2MPD2    N1   31   4.321   3.855  11.603 -0.0757 -0.3434 -0.1553
    2MPD2    H7   32   4.291   3.927  11.669  0.4692  0.4355 -0.7559
    3TCq1    O1   33   2.634   1.910  10.359  0.5028 -0.1891 -0.1195
    3TCq1    C1   34   2.535   1.953  10.443  0.0752  0.0158  0.4436
    3TCq1    O2   35   2.474   2.062  10.432 -0.0919 -0.1373 -0.3969
    3TCq1    C2   36   2.520   1.852  10.541 -0.6548 -0.3853 -0.5216
    3TCq1    C3   37   2.396   1.820  10.590 -0.1807 -1.0485 -0.0142
    3TCq1    C4   38   2.395   1.716  10.676  0.0347  0.0047  0.1836
    3TCq1    C5   39   2.510   1.666  10.725 -0.6447  0.1007 -0.1131
    3TCq1    C6   40   2.633   1.701  10.684 -0.2794 -0.3262  0.0479
    3TCq1    C7   41   2.636   1.806  10.598 -0.0691 -0.0880 -0.0557
    3TCq1    C8   42   2.758   1.647  10.745 -0.4294  0.0967 -0.2380
    3TCq1    O4   43   2.864   1.682  10.691  0.5364 -0.9081 -0.0335
    3TCq1    C9   44   2.275   1.661  10.738 -0.1302  0.0929  0.5897
    3TCq1    O5   45   2.286   1.555  10.810 -0.7877 -0.4090  0.2181
    3TCq1    O6   46   2.167   1.731  10.713 -0.1716 -0.2487 -0.0219
    3TCq1    H1   47   2.676   1.822  10.369 -0.1702 -0.3462  1.3386
    3TCq1    H2   48   2.311   1.869  10.543  1.8163  1.3932 -1.0849
    3TCq1    H3   49   2.507   1.580  10.791  0.2294  0.8138  0.8569
    3TCq1    H4   50   2.727   1.864  10.586  0.4027 -0.4302  1.9253
    4MPD2     C   51   3.018   1.342  11.085  0.3146 -0.0520  0.0112
    4MPD2    C1   52   2.884   1.326  11.104  0.5061 -0.6774  0.3142
    4MPD2    C2   53   2.794   1.391  11.023  0.4478 -0.2340 -0.5869
    4MPD2    C3   54   2.829   1.490  10.929  0.2237  0.3878 -0.2276
    4MPD2    C4   55   2.959   1.499  10.912 -0.5330  0.2169  0.2757
    4MPD2    C5   56   3.051   1.433  10.990  0.6736  0.0011 -0.3926
    4MPD2     H   57   2.689   1.366  11.037  0.4479 -0.0792 -0.3218
    4MPD2    H1   58   2.996   1.562  10.832  0.4261 -0.2532  0.3564
    4MPD2    H2   59   3.093   1.289  11.142 -2.5876 -0.6695  3.1963
    4MPD2    H3   60   3.159   1.437  10.986  0.6251  1.8699  0.1694
    4MPD2     N   61   2.731   1.560  10.849 -0.1070 -0.2002  0.4522
    4MPD2    H5   62   2.635   1.557  10.881 -0.3697 -5.8920 -0.9764
    4MPD2    N1   63   2.830   1.240  11.206  0.0568  0.4936  0.2024
    4MPD2    H7   64   2.729   1.226  11.212  0.6103 -2.2524  2.7148
    5TCq1    O1   65   4.379   2.143  11.700 -0.3334 -0.2336  0.2148
    5TCq1    C1   66   4.309   2.250  11.659 -0.5372 -0.3915  0.0044
    5TCq1    O2   67   4.313   2.357  11.718 -0.8899  0.4623  0.0494
    5TCq1    C2   68   4.259   2.237  11.519 -0.0222  0.2291 -0.2657
    5TCq1    C3   69   4.263   2.351  11.438  0.1953 -0.4261  0.4885
    5TCq1    C4   70   4.199   2.342  11.315 -0.0355  0.3871 -0.3039
    5TCq1    C5   71   4.143   2.231  11.272  0.4672 -0.2617 -0.1547
    5TCq1    C6   72   4.143   2.116  11.351 -0.0429 -0.5110  0.4578
    5TCq1    C7   73   4.205   2.116  11.473 -0.2760  0.4282  0.1158
    5TCq1    C8   74   4.093   1.989  11.290 -0.3742 -0.2767 -0.5724
    5TCq1    O4   75   4.127   1.894  11.362 -0.1385 -0.3156 -0.9835
    5TCq1    C9   76   4.199   2.464  11.244 -0.3517  0.1751  0.3102
    5TCq1    O5   77   4.291   2.547  11.275  0.0662 -0.1633  0.2287
    5TCq1    O6   78   4.091   2.497  11.182 -0.1664  0.1813  0.2908
    5TCq1    H1   79   4.415   2.080  11.634 -1.3769 -0.8388  0.2279
    5TCq1    H2   80   4.311   2.444  11.466 -1.8244  0.3654  1.3605
    5TCq1    H3   81   4.097   2.238  11.174 -1.9602 -1.0972  0.9185
    5TCq1    H4   82   4.205   2.024  11.530 -0.4965  0.6851  0.5263
    6MPD2     C   83   3.921   1.941  10.971 -0.1157  0.3165 -0.0644
    6MPD2    C1   84   3.962   1.902  11.096  0.8087  0.1009 -0.3135
    6MPD2    C2   85   3.968   1.770  11.135  0.3531 -0.6008  0.0956
    6MPD2    C3   86   3.935   1.668  11.055 -0.1365  0.2507  0.2084
    6MPD2    C4   87   3.887   1.703  10.924 -0.0369  0.1457 -0.5681
    6MPD2    C5   88   3.885   1.836  10.880  0.1301  0.1365 -0.1403
    6MPD2     H   89   3.992   1.739  11.236 -1.3109 -0.9767  0.3756
    6MPD2    H1   90   3.862   1.625  10.854 -1.3094  0.6186 -0.6372
    6MPD2    H2   91   3.917   2.045  10.941 -0.8193  0.6829  1.2755
    6MPD2    H3   92   3.862   1.838  10.774 -0.2842 -0.9450 -0.0695
    6MPD2     N   93   3.952   1.541  11.104  0.8734 -0.2724  0.4923
    6MPD2    H5   94   4.018   1.528  11.180  1.8218  2.9486  0.2221
    6MPD2    N1   95   4.018   2.001  11.174  0.3423  0.0296  0.3493
    6MPD2    H7   96   3.994   2.096  11.147 -0.8305  0.0668  1.5233
    7TCq1    O1   97   0.681   0.684  13.245  0.6089  0.0171  0.1869
    7TCq1    C1   98   0.811   0.697  13.235  0.7231 -1.1177 -0.4823
    7TCq1    O2   99   0.906   0.668  13.310  0.0972 -0.2005  0.0220
    7TCq1    C2  100   0.829   0.801  13.139 -0.2768 -0.4254 -0.5042
    7TCq1    C3  101   0.730   0.903  13.119 -1.1699 -0.3787  0.0421
    7TCq1    C4  102   0.766   1.002  13.033 -0.0188  0.6089  0.2941
    7TCq1    C5  103   0.888   1.005  12.973  0.0893 -0.8957  0.3653
    7TCq1    C6  104   0.990   0.915  13.001 -0.6041  0.1063 -0.3731
    7TCq1    C7  105   0.957   0.815  13.090  0.5142  0.3522  0.0940
    7TCq1    C8  106   1.130   0.962  13.008  0.5853 -0.0382  0.2743
    7TCq1    O4  107   1.205   0.873  13.047 -0.5024 -0.0495  0.0922
    7TCq1    C9  108   0.672   1.107  13.019 -0.4491 -0.2322 -0.8381
    7TCq1    O5  109   0.707   1.201  12.944  0.4536 -0.0499 -0.2071
    7TCq1    O6  110   0.565   1.103  13.086  0.3230  0.5672  0.1420
    7TCq1    H1  111   0.643   0.725  13.165  1.5863  1.1354  0.2975
    7TCq1    H2  112   0.633   0.893  13.165 -0.6583  1.2838  1.4633
    7TCq1    H3  113   0.905   1.081  12.898  0.1303  0.0579  1.3404
    7TCq1    H4  114   1.033   0.742  13.112  0.1969  0.7248  2.4008
    8MPD2     C  115   1.451   1.332  13.142  0.4045  0.2445  0.2413
    8MPD2    C1  116   1.458   1.194  13.170  0.7495  0.1287  0.7317
    8MPD2    C2  117   1.361   1.118  13.112  0.2885  0.1909 -0.8284
    8MPD2    C3  118   1.262   1.170  13.031 -0.1566 -0.0143 -0.4675
    8MPD2    C4  119   1.262   1.302  13.002 -0.3911  0.2952  0.1686
    8MPD2    C5  120   1.352   1.384  13.062 -0.0137  0.5140 -0.5856
    8MPD2     H  121   1.367   1.010  13.116 -0.5587  0.2775  2.3178
    8MPD2    H1  122   1.189   1.350  12.937  1.5842  0.6421 -1.8095
    8MPD2    H2  123   1.518   1.407  13.181 -1.1454  0.6994  2.0038
    8MPD2    H3  124   1.347   1.490  13.043  1.1115  0.6299 -0.2715
    8MPD2     N  125   1.146   1.098  12.982 -0.8408 -0.0566 -0.6084
    8MPD2    H5  126   1.072   1.160  12.951 -2.0592 -1.0271  0.3628
    8MPD2    N1  127   1.536   1.156  13.287  0.1253 -0.0080 -0.0251
    8MPD2    H7  128   1.591   1.228  13.333 -0.9122  1.5903 -1.2516
    9TCq1    O1  129   3.858   4.287  10.929 -0.3363  0.2795 -0.0598
    9TCq1    C1  130   3.959   4.204  10.961  0.8373  0.7316 -0.4956
    9TCq1    O2  131   3.956   4.087  10.993 -0.2247  0.0510  1.0213
    9TCq1    C2  132   4.062   4.302  10.989 -0.4929 -0.9398 -0.2232
    9TCq1    C3  133   4.176   4.285  10.912 -0.1269 -0.1762 -1.0955
    9TCq1    C4  134   4.271   4.386  10.911  0.0218 -0.5625  0.0414
    9TCq1    C5  135   4.242   4.507  10.954  0.5338 -0.4819 -0.2034
    9TCq1    C6  136   4.130   4.521  11.030  0.0339  0.0155 -0.1671
    9TCq1    C7  137   4.032   4.423  11.038 -0.5174 -0.0231 -0.8618
    9TCq1    C8  138   4.091   4.655  11.056 -0.5099  0.2941  0.4239
    9TCq1    O4  139   4.148   0.027  11.010 -0.4891  0.6176  0.0140
    9TCq1    C9  140   4.388   4.367  10.825 -0.6608  0.1022  0.4037
    9TCq1    O5  141   4.401   4.257  10.771  0.5377 -0.2417 -0.4605
    9TCq1    O6  142   4.455   4.473  10.792 -1.0775  0.5766  0.2460
    9TCq1    H1  143   3.896   4.374  10.904  1.8955  0.2670  3.3041
    9TCq1    H2  144   4.190   4.192  10.858 -0.9404 -0.8449 -0.1448
    9TCq1    H3  145   4.313   4.588  10.948 -0.5555  0.2257 -3.9399
    9TCq1    H4  146   3.938   4.435  11.092 -0.2129 -2.1909  0.1375
   10MPD2     C  147   3.971   0.173  11.173 -0.1246 -0.1188 -0.3048
   10MPD2    C1  148   3.956   0.046  11.224 -0.0373  0.3828  0.8915
   10MPD2    C2  149   3.923   0.033  11.356 -0.0256 -0.3680  0.1896
   10MPD2    C3  150   3.891   0.140  11.435  0.0440 -0.4555 -0.4329
   10MPD2    C4  151   3.901   0.267  11.381 -0.4471  0.2730  0.1692
   10MPD2    C5  152   3.935   0.284  11.247 -0.0486 -0.2303 -0.3826
   10MPD2     H  153   3.927   4.658  11.396  1.6012 -0.2940  0.1793
   10MPD2    H1  154   3.878   0.356  11.438  0.5062  1.7911 -1.8606
   10MPD2    H2  155   4.006   0.191  11.072 -0.4793  1.3112 -0.1795
   10MPD2    H3  156   3.935   0.382  11.200 -1.0553 -0.2301 -0.3918
   10MPD2     N  157   3.859   0.120  11.571  0.5066 -0.1994  0.2284
   10MPD2    H5  158   3.854   0.207  11.624 -4.7219  0.2424 -1.0234
   10MPD2    N1  159   3.994   4.650  11.158 -1.0901  0.1102  0.2946
   10MPD2    H7  160   3.971   4.562  11.202  0.8400 -0.9907 -0.9500
   11TCq1    O1  161   0.291   4.626  14.210  0.2495  0.1141 -0.2720
   11TCq1    C1  162   0.228   4.535  14.285 -0.5299 -0.7572 -0.7043
   11TCq1    O2  163   0.174   4.432  14.244  0.0136 -0.1959 -0.9201
   11TCq1    C2  164   0.174   4.620  14.396 -0.0896 -0.2041 -0.3177
   11TCq1    C3  165   0.260   4.696  14.467  0.2294  0.2936  0.4338
   11TCq1    C4  166   0.214   0.031  14.577 -0.0328  0.0784 -0.1614
   11TCq1    C5  167   0.084   0.016  14.618 -0.4293 -0.0191 -0.2060
   11TCq1    C6  168   4.725   4.672  14.534  1.0344 -0.8369  0.4368
   11TCq1    C7  169   0.045   4.599  14.433  0.0545 -0.6229  0.0330
   11TCq1    C8  170   4.583   4.703  14.544 -0.3464  0.6162 -0.5125
   11TCq1    O4  171   4.536   0.023  14.644 -0.0493 -0.2100 -0.0620
   11TCq1    C9  172   0.308   0.117  14.652 -0.5866 -0.5193 -0.0399
   11TCq1    O5  173   0.419   0.137  14.593  0.0693  0.0024  0.1473
   11TCq1    O6  174   0.268   0.176  14.757 -0.6097 -0.0959 -0.1235
   11TCq1    H1  175   0.285   4.716  14.251 -1.9506 -0.6418  1.0412
   11TCq1    H2  176   0.365   4.702  14.441 -0.3956  1.7738 -1.7375
   11TCq1    H3  177   0.044   0.067  14.705 -1.4327  0.3967 -0.9082
   11TCq1    H4  178   4.715   4.518  14.387  1.5996 -2.7730  1.9388
   12MPD2     C  179   4.321   0.089  14.463  0.8677 -0.3696 -0.0990
   12MPD2    C1  180   4.381   4.714  14.403  0.9405  0.4027  0.1773
   12MPD2    C2  181   4.305   4.641  14.307 -0.1721 -0.1172  0.4312
   12MPD2    C3  182   4.178   4.686  14.273  0.0770  0.1725 -0.5644
   12MPD2    C4  183   4.116   0.064  14.337 -0.4344 -1.1058 -0.1578
   12MPD2    C5  184   4.196   0.131  14.430  0.5121 -0.7883  0.4844
   12MPD2     H  185   4.346   4.554  14.257  1.2674  0.9421 -0.2412
   12MPD2    H1  186   4.013   0.094  14.321  1.1643  3.4853 -1.8354
   12MPD2    H2  187   4.356   0.142  14.551  3.3091 -0.0702 -1.2358
   12MPD2    H3  188   4.169   0.223  14.481  1.1944 -0.4418  0.2225
   12MPD2     N  189   4.114   4.603  14.180  0.4587 -0.2503  0.1992
   12MPD2    H5  190   4.177   4.537  14.136 -0.2097  0.7306 -2.2595
   12MPD2    N1  191   4.513   4.669  14.431  0.1492  0.1199  0.3773
   12MPD2    H7  192   4.561   4.610  14.364 -0.7655  0.7010 -0.7902
   13TCq1    O1  193   4.439   4.341  11.187 -0.2435 -0.4910  0.3838
   13TCq1    C1  194   4.497   4.228  11.151  0.1345 -0.2735  0.3436
   13TCq1    O2  195   4.588   4.226  11.067  0.6706  0.3639  0.4043
   13TCq1    C2  196   4.394   4.116  11.140 -0.2570 -1.2214  0.0411
   13TCq1    C3  197   4.386   4.029  11.037 -0.4188  0.3855  0.1897
   13TCq1    C4  198   4.292   3.934  11.036 -0.2993 -0.2035 -0.3590
   13TCq1    C5  199   4.195   3.939  11.139 -0.0119 -0.9542 -0.0206
   13TCq1    C6  200   4.211   4.016  11.253  0.3984 -0.7334 -0.7772
   13TCq1    C7  201   4.308   4.116  11.252 -0.0018 -1.0411  0.6300
   13TCq1    C8  202   4.100   4.032  11.347 -0.2600 -0.1664  0.3801
   13TCq1    O4  203   4.096   4.134  11.411 -0.1475  0.0874 -0.0787
   13TCq1    C9  204   4.281   3.850  10.913  0.1917 -0.1155 -0.6267
   13TCq1    O5  205   4.197   3.753  10.923  0.5031  0.3623 -0.6468
   13TCq1    O6  206   4.343   3.885  10.808  0.7204  0.8855 -0.2057
   13TCq1    H1  207   4.351   4.327  11.227  0.0054  0.8772  1.4089
   13TCq1    H2  208   4.455   4.043  10.955 -0.2740 -1.1770  0.0418
   13TCq1    H3  209   4.111   3.871  11.132 -1.9286  1.4872 -0.8465
   13TCq1    H4  210   4.318   4.176  11.342 -0.5391  0.0103 -0.0144
   14MPD2     C  211   3.835   3.784  11.418 -0.4447 -0.9537  0.0202
   14MPD2    C1  212   3.902   3.902  11.434 -0.7677  0.3694 -0.4027
   14MPD2    C2  213   3.842   4.002  11.516  0.1455 -0.2900 -0.0533
   14MPD2    C3  214   3.716   3.987  11.573  0.9129  0.0966 -0.2177
   14MPD2    C4  215   3.654   3.869  11.546 -0.2169  0.1337 -0.8270
   14MPD2    C5  216   3.715   3.769  11.479  0.0572  0.0681 -0.2393
   14MPD2     H  217   3.889   4.099  11.527  0.6153 -0.5463  0.2090
   14MPD2    H1  218   3.551   3.860  11.581 -0.3407  0.2657 -1.1598
   14MPD2    H2  219   3.880   3.699  11.368  0.5918  0.9211 -2.2414
   14MPD2    H3  220   3.658   3.678  11.464 -1.3776  0.7540  1.0594
   14MPD2     N  221   3.659   4.093  11.650  0.2517 -0.0936  0.1359
   14MPD2    H5  222   3.711   4.180  11.657 -1.3880  0.7705  1.7609
   14MPD2    N1  223   4.026   3.920  11.360 -0.4328 -0.0007  0.5269
   14MPD2    H7  224   4.047   3.838  11.305 -0.9251 -0.1564  0.5671
   15TCq1    O1  225   0.593   3.944   1.657  0.0294 -0.3129  0.2765
   15TCq1    C1  226   0.619   3.820   1.613  0.3313  0.4683 -0.0156
   15TCq1    O2  227   0.652   3.724   1.684 -0.0122  0.5414  0.5428
   15TCq1    C2  228   0.625   3.826   1.465 -0.5737 -0.0303  1.0579
   15TCq1    C3  229   0.545   3.909   1.396  0.6338  0.0616  0.0703
   15TCq1    C4  230   0.532   3.892   1.257 -0.2134  0.3968 -0.3030
   15TCq1    C5  231   0.596   3.795   1.193  0.5412 -0.4395  0.2033
   15TCq1    C6  232   0.680   3.718   1.270 -0.0815  0.2045 -0.1142
   15TCq1    C7  233   0.697   3.724   1.405  0.3582 -0.0555  0.3445
   15TCq1    C8  234   0.730   3.598   1.223  0.0667 -0.6199 -0.0327
   15TCq1    O4  235   0.826   3.554   1.282  0.4722 -0.5447 -0.2111
   15TCq1    C9  236   0.442   3.986   1.189 -0.1226 -0.3401 -0.1776
   15TCq1    O5  237   0.465   3.999   1.066 -0.4763  0.4092  0.4593
   15TCq1    O6  238   0.374   4.064   1.264 -0.4501 -0.0346 -0.0891
   15TCq1    H1  239   0.587   4.015   1.590  0.2850 -0.1746  0.4017
   15TCq1    H2  240   0.480   3.976   1.452  0.2910  1.2420 -1.7422
   15TCq1    H3  241   0.589   3.794   1.085 -0.8980 -0.1918  0.2944
   15TCq1    H4  242   0.768   3.665   1.462 -1.0880 -1.4511  0.7240
   16MPD2     C  243   0.614   3.353   0.979  0.2257 -0.0059  0.1590
   16MPD2    C1  244   0.702   3.417   1.062 -0.5361 -0.5222 -0.6853
   16MPD2    C2  245   0.824   3.359   1.081  0.2431 -0.0772 -0.2950
   16MPD2    C3  246   0.857   3.250   1.007  0.5239  0.7181 -0.6897
   16MPD2    C4  247   0.772   3.199   0.914  0.2592  0.3351  0.7287
   16MPD2    C5  248   0.653   3.256   0.894 -0.2607  0.5474  0.7650
   16MPD2     H  249   0.905   3.399   1.140  0.9682 -1.6223 -0.2305
   16MPD2    H1  250   0.791   3.103   0.868 -2.6317 -0.0092  0.2568
   16MPD2    H2  251   0.516   3.393   0.958 -0.5822 -2.1591 -0.1008
   16MPD2    H3  252   0.573   3.223   0.828 -0.7440  1.0749  1.0810
   16MPD2     N  253   0.985   3.187   1.027  0.5215 -0.3378 -0.1380
   16MPD2    H5  254   1.040   3.226   1.103 -2.2862  3.9039 -0.2479
   16MPD2    N1  255   0.659   3.543   1.122 -0.0732 -0.1230 -0.5157
   16MPD2    H7  256   0.569   3.585   1.101 -0.1357  0.7383  1.4926
   17TCq1    O1  257   0.375   3.911  11.041 -0.1185 -0.3912  0.3439
   17TCq1    C1  258   0.269   3.924  11.120 -0.4038  0.5302 -0.8378
   17TCq1    O2  259   0.263   3.857  11.223 -0.0160  0.0709  0.1118
   17TCq1    C2  260   0.156   3.921  11.022 -0.0036  0.7414 -0.8606
   17TCq1    C3  261   0.152   4.002  10.910 -0.4703  0.1981  0.0781
   17TCq1    C4  262   0.046   3.987  10.827 -0.8447  0.4628  0.1372
   17TCq1    C5  263   4.686   3.884  10.831 -0.2995  0.0367  1.1052
   17TCq1    C6  264   4.689   3.811  10.942  0.0854 -0.6456  0.0657
   17TCq1    C7  265   0.056   3.825  11.038 -0.5591  0.4022  0.0911
   17TCq1    C8  266   4.610   3.693  10.959  0.6013 -0.1203 -0.5139
   17TCq1    O4  267   4.614   3.636  11.066  0.3224  0.0893  0.8559
   17TCq1    C9  268   0.016   4.092  10.737 -1.0148  0.2398  0.5701
   17TCq1    O5  269   4.632   4.085  10.677 -0.0654 -0.4155  0.6759
   17TCq1    O6  270   0.066   4.202  10.771  0.0213 -0.3057  0.0205
   17TCq1    H1  271   0.402   3.994  10.997 -1.1158 -1.7994 -2.9856
   17TCq1    H2  272   0.218   4.085  10.891 -1.9362  1.6993  1.4951
   17TCq1    H3  273   4.616   3.871  10.748  0.5488 -2.5472  0.7727
   17TCq1    H4  274   0.062   3.772  11.132  1.8051 -0.0811 -0.3238
   18MPD2     C  275   4.532   3.417  10.886 -0.6035 -0.3193  0.3455
   18MPD2    C1  276   4.534   3.524  10.796 -0.2393 -0.4111  0.1490
   18MPD2    C2  277   4.518   3.501  10.663 -0.4601 -0.3222  0.5832
   18MPD2    C3  278   4.499   3.371  10.612  0.1927  0.1090 -0.2895
   18MPD2    C4  279   4.490   3.266  10.701 -0.9451  0.6162  0.3018
   18MPD2    C5  280   4.489   3.297  10.833 -0.0058  0.2336 -0.0211
   18MPD2     H  281   4.524   3.590  10.601  1.3433 -0.7390  0.1514
   18MPD2    H1  282   4.463   3.165  10.670  1.9553 -0.1737  0.3497
   18MPD2    H2  283   4.564   3.412  10.990  1.2313 -1.1267 -0.2619
   18MPD2    H3  284   4.485   3.220  10.910  1.7838 -0.9712 -1.1310
   18MPD2     N  285   4.478   3.359  10.470  0.1587 -0.2143  0.3127
   18MPD2    H5  286   4.459   3.442  10.416 -0.8569  0.4142  1.6274
   18MPD2    N1  287   4.572   3.656  10.830 -0.2883 -0.2806 -0.1698
   18MPD2    H7  288   4.558   3.727  10.759 -1.7945 -0.8744 -0.4771
   19TMC2    C1  289   0.275   4.532  13.846 -0.3214 -0.5326  1.0106
   19TMC2    C2  290   0.193   4.527  13.737 -0.4285  0.1987 -0.4029
   19TMC2    C3  291   0.126   4.409  13.721 -0.1156  0.7149 -0.3988
   19TMC2    C4  292   0.284   4.427  13.940  0.2516 -0.3261  0.9014
   19TMC2    C5  293   0.197   4.319  13.924  0.4004  0.0850  0.1042
   19TMC2    C6  294   0.118   4.309  13.815 -0.4560  0.2782  0.0014
   19TMC2     C  295   0.385   4.626  13.835 -0.4671 -0.0197  0.0035
   19TMC2     O  296   0.411   4.675  13.732  0.4890 -0.5622 -0.4267
   19TMC2     H  297   0.190   4.606  13.662  1.1523 -1.2827 -2.0256
   19TMC2    H1  298   0.352   4.432  14.024 -0.1598  2.9795  1.0625
   19TMC2    H2  299   0.042   4.232  13.813 -0.1099 -0.0170 -2.2722
   19TMC2    C7  300   0.208   4.198  14.001 -0.7953  0.4775 -0.3574
   19TMC2    C8  301   0.009   4.393  13.634  0.4437 -0.0179 -0.1494
   19TMC2    O1  302   0.134   4.104  13.968 -0.3507  0.9331 -0.4479
   19TMC2    O2  303   4.698   4.288  13.593  0.0650 -0.3476  0.7012
   19TMC2    O5  304   4.651   4.473  13.701 -0.5253  0.0496 -0.0378
   19TMC2    H5  305   4.689   4.551  13.746  1.4552 -0.9580  0.0676
   20MPD2     C  306   0.660   0.019  13.885 -0.1210  0.1232 -0.7775
   20MPD2    C1  307   0.568   4.697  13.980  0.2548 -0.5797 -1.0303
   20MPD2    C2  308   0.616   4.686  14.102  0.4398  0.8838 -0.2118
   20MPD2    C3  309   0.748   4.711  14.137 -0.3530  0.2039  0.5338
   20MPD2    C4  310   0.834   0.045  14.041  0.4781 -0.3627 -0.1488
   20MPD2    C5  311   0.786   0.073  13.920  0.3576 -0.1694 -0.0581
   20MPD2     H  312   0.548   4.654  14.180  0.6413 -0.4405 -0.5825
   20MPD2    H1  313   0.938   0.072  14.055  0.6544 -1.0216 -0.1824
   20MPD2    H2  314   0.638   0.034  13.780  1.0288 -0.6999 -1.1335
   20MPD2    H3  315   0.847   0.112  13.839 -1.3095  0.2399 -1.1265
   20MPD2     N  316   0.805   4.679  14.263 -0.7471  0.4528  0.2844
   20MPD2    H5  317   0.902   4.701  14.285 -0.9159 -0.8836  2.3476
   20MPD2    N1  318   0.441   4.642  13.957  0.0078  0.3776  0.0464
   20MPD2    H7  319   0.393   4.609  14.041 -1.1519 -0.4210 -0.9328
   21MPD2     C  320   3.399   4.121  14.127  0.1296  0.1841  0.4053
   21MPD2    C1  321   3.427   4.176  14.251 -0.2459  0.1100  0.1739
   21MPD2    C2  322   3.333   4.237  14.326  0.5351  0.1064  0.3207
   21MPD2    C3  323   3.208   4.258  14.260 -0.4211  0.3616  0.0051
   21MPD2    C4  324   3.178   4.197  14.132 -0.7930 -0.0409 -0.6433
   21MPD2    C5  325   3.269   4.120  14.078  0.1964 -0.0095 -0.0842
   21MPD2     H  326   3.353   4.281  14.422 -0.1230  1.1174  0.0047
   21MPD2    H1  327   3.079   4.199  14.088 -1.5827  0.9671  1.2219
   21MPD2    H2  328   3.473   4.076  14.063  1.0879  2.1910  0.1065
   21MPD2    H3  329   3.247   4.066  13.986 -1.6162  0.7313 -0.0949
   21MPD2     N  330   3.107   4.338  14.307 -0.0600  0.5356  0.3250
   21MPD2    H5  331   3.030   4.361  14.244  1.5588  0.2976 -1.7283
   21MPD2    N1  332   3.564   4.178  14.300 -0.1929  0.3303  0.1284
   21MPD2    H7  333   3.577   4.218  14.393 -2.2140 -0.9872  0.9951
   22TCq2    C1  334   3.109   4.394  14.432  0.4912  0.5395  0.3758
   22TCq2    O2  335   3.185   4.394  14.525  0.0428 -0.0775  0.6672
   22TCq2    C2  336   2.989   4.481  14.443  0.5434 -0.2623 -0.2754
   22TCq2    C3  337   2.887   4.472  14.353  0.3360  0.4762 -0.0223
   22TCq2    C4  338   2.799   4.580  14.347 -0.0823 -0.1113 -0.1555
   22TCq2    C5  339   2.820   4.686  14.422  0.4790  0.9807  0.3333
   22TCq2    C6  340   2.928   4.697  14.510  0.3456  0.1305  0.0505
   22TCq2    C7  341   3.017   4.595  14.514  0.3950  0.4033 -0.1360
   22TCq2    C8  342   2.916   0.061  14.631  0.6021  0.3155 -0.0742
   22TCq2    O4  343   2.992   0.033  14.722 -0.6415 -0.5883 -0.3976
   22TCq2    C9  344   2.706   4.583  14.240  0.5450  0.1918 -0.2586
   22TCq2    O5  345   2.691   4.474  14.187  0.1875  0.1258  0.5630
   22TCq2    O6  346   2.644   4.691  14.207 -0.2453 -0.4538 -0.0572
   22TCq2    H2  347   2.855   4.385  14.297  2.0199  0.7296 -1.4104
   22TCq2    H3  348   2.752   0.043  14.405  0.3198  0.5898 -0.9947
   22TCq2    H4  349   3.096   4.592  14.588  3.4263  0.9281 -3.3161
   23MPD2     C  350   0.307   0.752  14.680 -0.2954  0.1252  0.1595
   23MPD2    C1  351   0.228   0.812  14.772 -0.3612  0.2741  0.0303
   23MPD2    C2  352   0.172   0.942  14.753 -0.0455  0.0496 -0.6179
   23MPD2    C3  353   0.179   0.989  14.622 -0.1125 -0.6781  0.1813
   23MPD2    C4  354   0.271   0.933  14.536 -0.2979 -0.1752  0.6529
   23MPD2    C5  355   0.330   0.815  14.565  0.3044 -0.0569  0.1217
   23MPD2     H  356   0.106   0.989  14.826  1.3561  0.2592  0.5061
   23MPD2    H1  357   0.298   0.968  14.437 -2.1581 -1.1764 -0.1995
   23MPD2    H2  358   0.378   0.673  14.699 -0.3681 -0.2533 -1.1524
   23MPD2    H3  359   0.392   0.763  14.492  0.7503  1.0523 -0.2981
   23MPD2     N  360   0.140   1.116  14.592 -0.5509 -0.5376 -0.3081
   23MPD2    H5  361   0.168   1.152  14.502 -0.1925 -0.7921 -0.2993
   23MPD2    N1  362   0.219   0.751  14.900 -0.4015 -0.5838 -0.1253
   23MPD2    H7  363   0.158   0.796  14.967  0.7187  0.3146  0.2816
   24TCq2    C1  364   0.062   1.197  14.673 -0.0354  0.5513  0.3384
   24TCq2    O2  365   4.706   1.166  14.761 -0.2227  0.0496  0.0196
   24TCq2    C2  366   0.047   1.331  14.621 -0.6548 -0.4637 -0.5631
   24TCq2    C3  367   0.157   1.404  14.586  0.1300 -0.3576 -0.3243
   24TCq2    C4  368   0.138   1.516  14.519 -0.0406  0.1941  0.5611
   24TCq2    C5  369   0.014   1.572  14.512  0.2261  0.4033 -0.3180
   24TCq2    C6  370   4.628   1.503  14.550  0.8223  0.5854  0.1118
   24TCq2    C7  371   4.639   1.375  14.604 -0.3312  0.6950  0.9563
   24TCq2    C8  372   4.505   1.543  14.482 -0.6973 -0.2897 -0.1149
   24TCq2    O4  373   4.521   1.610  14.382  0.1186  0.1506  0.1759
   24TCq2    C9  374   0.252   1.594  14.483  0.3153 -0.4352  0.5279
   24TCq2    O5  375   0.356   1.531  14.452 -0.0606 -0.3891 -0.2925
   24TCq2    O6  376   0.236   1.720  14.481  0.5216  0.4045 -0.0940
   24TCq2    H2  377   0.256   1.363  14.599 -0.3255 -1.5123 -0.5219
   24TCq2    H3  378   0.003   1.671  14.468 -1.5099 -0.1812 -1.1968
   24TCq2    H4  379   4.549   1.316  14.613 -0.0707  0.1764  0.2345
   25TMC2    C1  380   3.502   2.655  11.711  0.8293  0.6392 -0.5297
   25TMC2    C2  381   3.580   2.622  11.814  0.0323  0.7395 -0.2953
   25TMC2    C3  382   3.589   2.699  11.927  0.2429 -0.4228  0.3002
   25TMC2    C4  383   3.403   2.749  11.726  0.3401 -0.2872  0.7662
   25TMC2    C5  384   3.416   2.825  11.838 -0.1843 -0.3283  0.4760
   25TMC2    C6  385   3.501   2.803  11.942  0.1104  0.7192 -0.3028
   25TMC2     C  386   3.507   2.578  11.594 -0.0361  0.5139  0.2970
   25TMC2     O  387   3.600   2.500  11.587  0.0580 -0.3673 -0.7745
   25TMC2     H  388   3.642   2.533  11.805  1.0034  1.2705  1.1460
   25TMC2    H1  389   3.349   2.792  11.643  1.3167 -1.6844 -0.5870
   25TMC2    H2  390   3.525   2.871  12.023 -2.8535  3.5878 -1.8588
   25TMC2    C7  391   3.299   2.896  11.890 -0.2112 -0.2503 -0.0238
   25TMC2    C8  392   3.605   2.606  12.041 -0.0501 -0.6132 -0.0718
   25TMC2    O1  393   3.308   2.956  11.999 -0.1302  0.0544  0.0358
   25TMC2    O2  394   3.604   2.483  12.031 -0.0754  0.0278  0.4738
   25TMC2    O5  395   3.550   2.666  12.147  0.5379 -0.4072  0.1248
   25TMC2    H5  396   3.564   2.760  12.172  1.7386 -0.4313 -0.4474
   26MPD2     C  397   3.322   2.352  11.177 -0.4440  0.7015 -0.3446
   26MPD2    C1  398   3.215   2.404  11.244 -0.7123 -0.6488  0.6337
   26MPD2    C2  399   3.239   2.488  11.355  0.6538  0.0814  0.1304
   26MPD2    C3  400   3.371   2.508  11.400 -0.4597 -0.0010 -0.4503
   26MPD2    C4  401   3.479   2.451  11.328 -0.3592  0.1493  0.0675
   26MPD2    C5  402   3.450   2.378  11.213  0.2666  0.6235 -0.1548
   26MPD2     H  403   3.161   2.547  11.402  0.7083 -0.2395  0.6221
   26MPD2    H1  404   3.584   2.473  11.342 -0.4485  1.5983 -1.5127
   26MPD2    H2  405   3.312   2.276  11.100 -1.2012  0.3328  0.1251
   26MPD2    H3  406   3.534   2.341  11.155  0.0590  0.9315 -0.6456
   26MPD2     N  407   3.395   2.587  11.513  0.2241 -0.3684  0.0518
   26MPD2    H5  408   3.324   2.655  11.539  0.5427  0.2492 -0.7133
   26MPD2    N1  409   3.090   2.382  11.184 -0.5834  0.1861  0.1778
   26MPD2    H7  410   3.084   2.322  11.102  1.4703  0.2849 -0.0366
   27TMC2    C1  411   2.250   0.487  12.166 -0.4030 -0.2725 -0.0758
   27TMC2    C2  412   2.372   0.549  12.163 -0.0969  0.1649  0.7297
   27TMC2    C3  413   2.388   0.678  12.122  0.9479  0.9003 -0.6319
   27TMC2    C4  414   2.138   0.548  12.114 -0.0521  0.1305 -0.5337
   27TMC2    C5  415   2.149   0.681  12.087  0.2303  1.2453 -0.0928
   27TMC2    C6  416   2.271   0.748  12.089 -0.1088 -0.0129  0.4148
   27TMC2     C  417   2.227   0.406  12.283 -0.3042  0.0427 -0.0835
   27TMC2     O  418   2.308   0.321  12.319  0.2676 -0.8370  0.4298
   27TMC2     H  419   2.460   0.505  12.210 -0.1661  1.2105  1.8390
   27TMC2    H1  420   2.046   0.493  12.096  0.7895 -1.1501 -0.9031
   27TMC2    H2  421   2.277   0.855  12.069  1.7266 -0.1188  0.4120
   27TMC2    C7  422   2.054   0.757  12.168  0.0591  0.1739 -0.3169
   27TMC2    C8  423   2.509   0.712  12.054  0.1063  0.6473 -0.4460
   27TMC2    O1  424   1.975   0.689  12.232  1.0105 -0.4395  0.0499
   27TMC2    O2  425   2.519   0.830  12.014 -0.5572 -1.0474  0.4637
   27TMC2    O5  426   2.560   0.600  12.012 -0.2525 -0.1449 -0.7689
   27TMC2    H5  427   2.529   0.514  12.048  0.4423  0.0238  0.2628
   28MPD2     C  428   1.871   0.251  12.617 -0.0986 -0.3912 -0.0682
   28MPD2    C1  429   1.841   0.377  12.584  0.2510  0.1530  0.2730
   28MPD2    C2  430   1.916   0.437  12.490  0.6890  0.2941 -0.3487
   28MPD2    C3  431   2.026   0.381  12.442  0.3008 -0.1698 -0.1171
   28MPD2    C4  432   2.071   0.257  12.482 -0.3811  0.2472 -0.2174
   28MPD2    C5  433   1.985   0.196  12.574 -0.2327  0.5166  0.4977
   28MPD2     H  434   1.885   0.538  12.462  1.1618  1.0226  1.7557
   28MPD2    H1  435   2.158   0.198  12.455  0.1960  0.4285  1.2719
   28MPD2    H2  436   1.806   0.192  12.681 -1.9494  0.9358 -0.7011
   28MPD2    H3  437   2.025   0.098  12.597 -0.7015 -0.2250 -1.8013
   28MPD2     N  438   2.104   0.449  12.337 -0.1240 -0.6720  0.2198
   28MPD2    H5  439   2.063   0.532  12.297 -0.1560 -1.0703 -0.5750
   28MPD2    N1  440   1.723   0.428  12.640 -0.7764  0.0157  0.1183
   28MPD2    H7  441   1.676   0.363  12.702 -0.4203  0.8186  1.2316
   29MPD2     C  442   1.510   2.672  14.152 -0.4646  0.1344 -1.0168
   29MPD2    C1  443   1.645   2.682  14.184  0.1060  0.3174 -0.6140
   29MPD2    C2  444   1.682   2.772  14.288 -0.4848  0.6085  0.1642
   29MPD2    C3  445   1.595   2.860  14.344 -0.6235 -0.2115 -0.2667
   29MPD2    C4  446   1.462   2.854  14.309  0.0186  0.7858 -0.3919
   29MPD2    C5  447   1.423   2.758  14.220 -0.2860  0.1189  0.0343
   29MPD2     H  448   1.786   2.777  14.317 -0.3147  0.3454 -0.3960
   29MPD2    H1  449   1.388   2.918  14.354 -0.0354  0.1535  0.4186
   29MPD2    H2  450   1.482   2.611  14.067  0.4160  0.7914 -1.7704
   29MPD2    H3  451   1.320   2.769  14.187 -0.4988 -2.2524 -0.0930
   29MPD2     N  452   1.648   2.960  14.427  0.6163 -0.2960 -0.0835
   29MPD2    H5  453   1.748   2.965  14.444  0.8554  1.5586 -2.0340
   29MPD2    N1  454   1.746   2.592  14.140 -0.1135  0.3792 -0.1893
   29MPD2    H7  455   1.837   2.597  14.184 -0.5404  1.8613  0.5201
   30TCq2    C1  456   1.579   3.036  14.514 -0.7312  0.2027  0.0086
   30TCq2    O2  457   1.463   3.025  14.545 -0.1459 -0.2340 -0.4305
   30TCq2    C2  458   1.661   3.137  14.586 -0.2667  0.8194 -0.1141
   30TCq2    C3  459   1.626   3.188  14.713  0.3062 -0.9380 -0.1914
   30TCq2    C4  460   1.701   3.285  14.775 -0.3837 -0.6630  0.0921
   30TCq2    C5  461   1.819   3.331  14.721  0.0163  0.0400  0.8320
   30TCq2    C6  462   1.861   3.273  14.600 -0.2020  0.3055 -0.0138
   30TCq2    C7  463   1.779   3.182  14.532 -0.0750  0.1649  0.0701
   30TCq2    C8  464   1.953   3.340  14.514 -0.7248  0.1674  0.2153
   30TCq2    O4  465   1.989   3.302  14.403 -0.1205  0.0972  0.1081
   30TCq2    C9  466   1.655   3.333  14.904 -0.4626 -0.2995  0.0012
   30TCq2    O5  467   1.564   3.271  14.965 -0.6106  0.2893 -0.7226
   30TCq2    O6  468   1.690   3.452  14.937  0.0188  1.0659  0.1128
   30TCq2    H2  469   1.536   3.160  14.768  0.1412 -2.3512 -1.1898
   30TCq2    H3  470   1.883   3.400  14.774 -1.2186  1.6593  0.2254
   30TCq2    H4  471   1.808   3.163  14.430 -0.1614 -0.4631  0.1616
   31MPD2     C  472   3.981   1.834  14.604  0.6681 -1.0273 -0.3385
   31MPD2    C1  473   4.053   1.942  14.590  0.4204  0.1795 -0.0748
   31MPD2    C2  474   4.147   1.972  14.686  0.1353 -0.5017  0.4486
   31MPD2    C3  475   4.166   1.893  14.800 -0.2655 -0.0263  0.0279
   31MPD2    C4  476   4.082   1.785  14.812 -0.8588 -0.3119 -0.3263
   31MPD2    C5  477   3.996   1.751  14.713 -0.0873 -0.2672 -0.3733
   31MPD2     H  478   4.205   2.063  14.674  1.2201 -1.2420  0.0901
   31MPD2    H1  479   4.104   1.705  14.882 -0.2871  0.5011  0.4118
   31MPD2    H2  480   3.926   1.797  14.518  1.3450 -1.1203 -0.7403
   31MPD2    H3  481   3.935   1.662  14.721  1.1209 -0.8401  2.5744
   31MPD2     N  482   4.258   1.919  14.906 -0.4508 -0.1204  0.6757
   31MPD2    H5  483   4.262   1.841  14.970 -0.2576 -0.1996  0.5644
   31MPD2    N1  484   4.034   2.020  14.475 -0.3436  0.7507  0.1532
   31MPD2    H7  485   3.971   1.977  14.408  1.4128 -0.4330 -0.7354
   32TCq2    C1  486   4.338   2.019  14.931 -0.1030  0.2653 -0.1090
   32TCq2    O2  487   4.354   2.117  14.866  0.0023 -0.4720  0.3150
   32TCq2    C2  488   4.401   2.008  15.064 -0.0783 -0.0417 -0.7186
   32TCq2    C3  489   4.433   2.119  15.130  0.3025 -0.0987  0.5876
   32TCq2    C4  490   4.474   2.109  15.262  0.2553 -0.4058 -0.1596
   32TCq2    C5  491   4.453   1.993  15.335 -0.4391 -0.4777  0.8398
   32TCq2    C6  492   4.410   1.880  15.266 -0.7120 -0.0583  0.6255
   32TCq2    C7  493   4.401   1.885  15.129  0.3818 -0.7245  0.0346
   32TCq2    C8  494   4.438   1.749  15.318  0.5155  0.8884  0.1024
   32TCq2    O4  495   4.494   1.666  15.246  0.0999  0.5986 -0.6569
   32TCq2    C9  496   4.510   2.236  15.325  0.0596  0.3571 -0.6901
   32TCq2    O5  497   4.562   2.238  15.441 -0.2484  0.4859  0.1830
   32TCq2    O6  498   4.480   2.338  15.257 -0.0330  0.2027  0.0173
   32TCq2    H2  499   4.418   2.215  15.081  1.2518 -0.1115  0.2584
   32TCq2    H3  500   4.469   2.000  15.442  1.0356 -1.0804  0.6583
   32TCq2    H4  501   4.379   1.791  15.080  0.5390 -1.2962  1.0527
   33MPD2     C  502   3.970   3.646  10.316 -0.2774 -0.1225  0.1032
   33MPD2    C1  503   4.055   3.622  10.209 -0.0356  0.6267 -0.4963
   33MPD2    C2  504   4.040   3.710  10.101 -0.3881  0.8104 -0.6375
   33MPD2    C3  505   3.944   3.808  10.094 -0.0185 -0.3816  0.0104
   33MPD2    C4  506   3.861   3.822  10.200 -0.4895 -0.1781 -0.2017
   33MPD2    C5  507   3.882   3.750  10.313 -0.1713 -0.7485  0.0415
   33MPD2     H  508   4.111   3.696  10.020 -0.9003  3.3967 -1.5222
   33MPD2    H1  509   3.790   3.904  10.201  0.1445  0.3834 -1.3007
   33MPD2    H2  510   3.976   3.593  10.411  0.9133 -0.4669 -0.1602
   33MPD2    H3  511   3.824   3.781  10.399 -1.5581 -1.1056 -0.7694
   33MPD2     N  512   3.940   3.901   9.988 -1.0899 -0.0103 -0.0835
   33MPD2    H5  513   3.888   3.987  10.005 -0.8708  0.1170 -0.0691
   33MPD2    N1  514   4.156   3.520  10.213  0.4886 -0.5584  0.5885
   33MPD2    H7  515   4.185   3.489  10.305  1.4178 -1.0096  0.1469
   34TCq2    C1  516   4.043   3.917   9.894 -0.4512 -0.7671 -0.3612
   34TCq2    O2  517   4.135   3.842   9.866  0.3322  0.1238 -0.0929
   34TCq2    C2  518   4.030   4.043   9.825  0.0504  0.0380  0.4509
   34TCq2    C3  519   3.908   4.075   9.771  0.2978  0.3760  0.3370
   34TCq2    C4  520   3.913   4.174   9.674  0.5833  0.4563 -0.3607
   34TCq2    C5  521   4.030   4.228   9.626  0.0654  0.0020  0.0844
   34TCq2    C6  522   4.146   4.192   9.690 -0.2699  0.2164 -0.4714
   34TCq2    C7  523   4.148   4.097   9.788  0.0801  0.5714  0.2562
   34TCq2    C8  524   4.281   4.232   9.645 -0.0058 -0.2394 -0.1410
   34TCq2    O4  525   4.380   4.213   9.718  0.1784  0.3710  0.3673
   34TCq2    C9  526   3.797   4.239   9.630  0.6110 -0.1746  0.4427
   34TCq2    O5  527   3.800   4.350   9.570  0.2351  0.3868 -0.1711
   34TCq2    O6  528   3.688   4.195   9.670  0.1971  0.5265  0.0071
   34TCq2    H2  529   3.814   4.027   9.792 -0.5596  1.6041 -0.6760
   34TCq2    H3  530   4.033   4.317   9.564  0.5392  1.1514  1.7362
   34TCq2    H4  531   4.232   4.052   9.839  0.1480  1.7346  1.1683
   35MPD2     C  532   0.986   1.295  11.754  0.2164 -0.5657 -0.2353
   35MPD2    C1  533   0.985   1.157  11.766  0.0139 -0.4984 -0.0980
   35MPD2    C2  534   0.983   1.081  11.650 -0.2074  0.3878 -0.2088
   35MPD2    C3  535   0.968   1.139  11.526  0.0036  0.4827 -0.5209
   35MPD2    C4  536   0.953   1.283  11.520  0.2195  0.3105 -0.2755
   35MPD2    C5  537   0.967   1.361  11.637  0.2776  0.0481 -0.1372
   35MPD2     H  538   0.995   0.973  11.652 -0.3413  0.3590 -1.1718
   35MPD2    H1  539   0.938   1.344  11.432  2.3061 -1.5911 -1.9554
   35MPD2    H2  540   0.988   1.346  11.849  0.3603 -1.3264  0.1684
   35MPD2    H3  541   0.941   1.466  11.647 -0.0436  0.1726 -2.1342
   35MPD2     N  542   0.956   1.058  11.414  0.0243  0.1734  0.0970
   35MPD2    H5  543   0.955   0.958  11.435  0.4004  0.2750  0.5883
   35MPD2    N1  544   0.997   1.105  11.896 -0.5709 -0.2738 -0.1859
   35MPD2    H7  545   0.987   1.172  11.972 -0.9854 -0.5194 -0.0216
   36TCq2    C1  546   0.947   1.101  11.280  0.6270 -0.1954  0.5915
   36TCq2    O2  547   0.952   1.217  11.241  0.4749  0.2215  0.3291
   36TCq2    C2  548   0.916   1.000  11.183 -0.1487  0.2071  0.3411
   36TCq2    C3  549   0.927   1.040  11.059  0.2037 -0.0824 -0.6955
   36TCq2    C4  550   0.888   0.961  10.956  0.5863  0.1509 -0.5219
   36TCq2    C5  551   0.838   0.831  10.980 -0.1380  0.1381 -0.0795
   36TCq2    C6  552   0.815   0.803  11.114 -0.9756 -0.4087  0.9507
   36TCq2    C7  553   0.858   0.882  11.211  0.3924  0.7639  0.2535
   36TCq2    C8  554   0.762   0.673  11.150  0.7335  0.2845  0.9638
   36TCq2    O4  555   0.758   0.644  11.268 -1.4306  0.0254  0.2768
   36TCq2    C9  556   0.915   1.000  10.825  0.3661 -0.4132  0.2600
   36TCq2    O5  557   0.914   0.907  10.742  0.0852  0.3693 -0.3628
   36TCq2    O6  558   0.909   1.119  10.799 -0.3798  0.0538 -0.2701
   36TCq2    H2  559   0.976   1.133  11.034 -0.8271  0.2836 -1.3520
   36TCq2    H3  560   0.793   0.773  10.900  0.0836  2.2570 -1.7557
   36TCq2    H4  561   0.835   0.857  11.313  0.4208 -0.3205 -0.0048
   37TMC2    C1  562   3.198   1.072  10.887 -0.1931 -0.0790 -0.3783
   37TMC2    C2  563   3.196   1.179  10.809  0.7060  0.1646  0.0381
   37TMC2    C3  564   3.295   1.265  10.795 -0.5199  0.8640  0.2799
   37TMC2    C4  565   3.308   1.047  10.960  0.1733  0.0512  0.1556
   37TMC2    C5  566   3.417   1.125  10.937  0.0289 -0.0177 -0.1110
   37TMC2    C6  567   3.416   1.236  10.862  0.2623 -0.6324  0.3621
   37TMC2     C  568   3.069   1.006  10.921 -0.0841 -0.1212 -0.0498
   37TMC2     O  569   2.978   1.019  10.843 -0.6008  0.0486  0.1262
   37TMC2     H  570   3.105   1.202  10.755  1.4618  0.9450 -0.9195
   37TMC2    H1  571   3.310   0.952  11.011 -2.1240 -0.2096 -0.2619
   37TMC2    H2  572   3.504   1.300  10.853  0.5831 -1.5823 -3.3959
   37TMC2    C7  573   3.535   1.113  11.022 -0.0261  0.4719 -0.3522
   37TMC2    C8  574   3.267   1.377  10.712 -0.4433  0.9791 -1.0329
   37TMC2    O1  575   3.576   1.216  11.072  0.5909  0.6326 -0.0010
   37TMC2    O2  576   3.158   1.399  10.655 -0.2713 -0.1170 -0.4150
   37TMC2    O5  577   3.366   1.476  10.730 -1.0879  0.8402  0.0468
   37TMC2    H5  578   3.443   1.463  10.790 -0.6174 -0.5720 -0.8568
   38MPD2     C  579   2.770   0.742  11.261 -0.2608  0.1926  0.6454
   38MPD2    C1  580   2.902   0.761  11.308  0.2600  0.1720 -0.1866
   38MPD2    C2  581   3.001   0.824  11.227  0.4732 -0.4870  0.2037
   38MPD2    C3  582   2.968   0.880  11.112  0.3250 -0.6484  0.7735
   38MPD2    C4  583   2.842   0.857  11.061  0.7019 -1.1959  0.3165
   38MPD2    C5  584   2.757   0.775  11.129 -0.3731 -0.5689  0.3394
   38MPD2     H  585   3.102   0.835  11.267  0.2915 -0.2989  0.6064
   38MPD2    H1  586   2.821   0.882  10.957 -0.6523 -0.4749  0.7708
   38MPD2    H2  587   2.701   0.679  11.316  1.6563  0.1856  3.0631
   38MPD2    H3  588   2.665   0.749  11.078 -1.1502  1.1396  0.8520
   38MPD2     N  589   3.068   0.955  11.052 -0.3778  0.2187  0.4942
   38MPD2    H5  590   3.155   0.969  11.102  1.0943 -1.4780 -1.5340
   38MPD2    N1  591   2.947   0.719  11.435 -0.4655 -0.0453 -0.2084
   38MPD2    H7  592   3.048   0.729  11.440 -0.3166 -1.9499  0.7165
   39MPD2     C  593   1.806   2.525   1.359 -0.5373  0.1241  0.3990
   39MPD2    C1  594   1.706   2.520   1.455 -0.0926 -0.9105  0.0291
   39MPD2    C2  595   1.585   2.574   1.421  0.7023  0.1552 -0.7184
   39MPD2    C3  596   1.560   2.618   1.300  0.2979 -0.2594  0.1147
   39MPD2    C4  597   1.650   2.583   1.199  0.9338 -0.3118  0.0699
   39MPD2    C5  598   1.781   2.543   1.230 -0.4809 -0.7257  0.1518
   39MPD2     H  599   1.506   2.585   1.495  0.2206  0.0119 -1.2085
   39MPD2    H1  600   1.642   2.627   1.101  0.0929 -1.0754 -0.1998
   39MPD2    H2  601   1.903   2.493   1.395 -0.5364  0.8364  1.0130
   39MPD2    H3  602   1.867   2.561   1.167 -1.2436  0.9120 -0.4209
   39MPD2     N  603   1.434   2.671   1.255 -0.2447 -0.2676  0.0196
   39MPD2    H5  604   1.426   2.698   1.157 -1.5403  0.2200  0.2592
   39MPD2    N1  605   1.742   2.469   1.581 -0.8605  0.4688 -0.5370
   39MPD2    H7  606   1.842   2.457   1.596 -0.7300  1.7148 -0.4272
   40TCq2    C1  607   1.670   2.464   1.699 -0.3783  0.3618 -0.3465
   40TCq2    O2  608   1.550   2.474   1.710  0.1280  0.2707  0.1446
   40TCq2    C2  609   1.751   2.439   1.814  0.7583 -0.1283 -0.2377
   40TCq2    C3  610   1.690   2.405   1.930 -0.4606 -0.0144  0.9610
   40TCq2    C4  611   1.755   2.417   2.046  0.2225 -0.7565  0.5324
   40TCq2    C5  612   1.888   2.448   2.047  0.3893 -0.2060  0.1298
   40TCq2    C6  613   1.948   2.482   1.931  0.1971  0.2871 -0.2188
   40TCq2    C7  614   1.882   2.474   1.811 -0.8073  0.2588 -0.0205
   40TCq2    C8  615   2.093   2.494   1.919 -0.5212 -0.6661  0.1388
   40TCq2    O4  616   2.162   2.412   1.976 -0.3401  0.6205  0.0655
   40TCq2    C9  617   1.695   2.363   2.169  0.7742 -0.1645 -0.0490
   40TCq2    O5  618   1.765   2.381   2.269 -0.1401 -0.8332  0.0130
   40TCq2    O6  619   1.576   2.317   2.165 -0.4426  0.2040  0.1493
   40TCq2    H2  620   1.587   2.369   1.931 -0.8595  1.1287  1.7893
   40TCq2    H3  621   1.938   2.452   2.143  0.9168  1.3199 -0.2040
   40TCq2    H4  622   1.937   2.502   1.722  0.7936  0.5099  1.0599
   41TMC2    C1  623   0.176   0.799  13.652 -0.3460  0.0405 -0.3977
   41TMC2    C2  624   0.062   0.848  13.712 -0.0061  0.5851 -0.1236
   41TMC2    C3  625   4.672   0.815  13.646  0.8059  0.0515  0.0423
   41TMC2    C4  626   0.175   0.753  13.524 -0.0013  0.1764 -0.0288
   41TMC2    C5  627   0.060   0.749  13.453 -0.5134  0.5886  0.2873
   41TMC2    C6  628   4.663   0.766  13.518 -0.5870 -0.1845  0.1602
   41TMC2     C  629   0.294   0.880  13.682 -0.0202 -0.7710 -0.3925
   41TMC2     O  630   0.358   0.922  13.585 -0.0507  0.2376 -0.0823
   41TMC2     H  631   0.052   0.905  13.803  0.4299 -1.0091  0.9222
   41TMC2    H1  632   0.271   0.729  13.479 -0.5026 -1.7302 -0.0728
   41TMC2    H2  633   4.572   0.754  13.460 -0.8038  0.6928  0.3236
   41TMC2    C7  634   0.049   0.674  13.325 -0.8408 -0.5729  0.0757
   41TMC2    C8  635   4.554   0.811  13.734  0.1507  0.7288  0.0004
   41TMC2    O1  636   4.661   0.624  13.311  0.4849  0.1319  0.1163
   41TMC2    O2  637   4.541   0.885  13.829  0.1168  0.3718  0.1837
   41TMC2    O5  638   4.465   0.727  13.684 -0.0195 -0.4675  0.4384
   41TMC2    H5  639   4.491   0.673  13.606  1.6774  0.0420  0.6597
   42MPD2     C  640   0.467   1.081  13.804  0.6832 -0.4610  0.1278
   42MPD2    C1  641   0.399   0.986  13.879 -0.6602  0.2325  0.0628
   42MPD2    C2  642   0.425   0.990  14.020  0.0235  0.1023 -0.6692
   42MPD2    C3  643   0.515   1.075  14.079  0.0267  0.0736  0.3207
   42MPD2    C4  644   0.578   1.169  14.001 -0.2690 -0.6195 -0.9136
   42MPD2    C5  645   0.553   1.167  13.865  0.9145  0.1118  0.0122
   42MPD2     H  646   0.373   0.924  14.087 -1.6674  0.9468 -1.1594
   42MPD2    H1  647   0.646   1.241  14.044 -1.3052  1.0728 -2.0952
   42MPD2    H2  648   0.463   1.078  13.696  1.5118 -2.8593  0.1696
   42MPD2    H3  649   0.597   1.242  13.800 -2.9400  1.1839 -1.3858
   42MPD2     N  650   0.549   1.067  14.215 -0.2053 -0.0844 -0.3491
   42MPD2    H5  651   0.598   1.152  14.242 -2.9657  0.7649  2.0169
   42MPD2    N1  652   0.317   0.890  13.820 -0.6201  0.0195 -0.1614
   42MPD2    H7  653   0.274   0.822  13.883 -1.4379 -0.1915 -0.9499
   43MPD2     C  654   1.737   3.720   0.911  0.1742  0.8691  0.7426
   43MPD2    C1  655   1.855   3.748   0.980 -0.9994  0.5236 -0.2237
   43MPD2    C2  656   1.851   3.810   1.105 -0.0041  0.3323  0.0159
   43MPD2    C3  657   1.735   3.858   1.160 -0.2107 -0.5891  0.1881
   43MPD2    C4  658   1.619   3.843   1.089  0.4077 -0.7894  0.0001
   43MPD2    C5  659   1.622   3.782   0.963  0.2701  0.3169  0.0702
   43MPD2     H  660   1.947   3.812   1.157 -0.3102 -0.8293  0.6317
   43MPD2    H1  661   1.530   3.889   1.130 -0.2022 -2.1215  0.1712
   43MPD2    H2  662   1.737   3.669   0.816 -0.6388  0.4340  0.9784
   43MPD2    H3  663   1.527   3.774   0.911 -0.1164  0.6291  0.7340
   43MPD2     N  664   1.728   3.924   1.283 -0.8626  0.4931 -0.0169
   43MPD2    H5  665   1.641   3.975   1.296 -0.8452  0.7296 -0.8053
   43MPD2    N1  666   1.978   3.705   0.932  0.4432 -0.3992  0.2795
   43MPD2    H7  667   2.060   3.711   0.991  0.6323  2.1590 -0.2507
   44TCq2    C1  668   1.805   4.109   1.806  0.7470 -0.0483  1.0774
   44TCq2    O2  669   1.877   4.017   1.831  0.3050  0.3704  0.5560
   44TCq2    C2  670   1.762   4.127   1.670 -0.0598 -0.1629  0.6030
   44TCq2    C3  671   1.683   4.233   1.627  0.5062  0.4440 -0.6646
   44TCq2    C4  672   1.676   4.252   1.492 -0.0402 -0.1627  0.5505
   44TCq2    C5  673   1.729   4.158   1.406  0.1931 -0.5252  0.4019
   44TCq2    C6  674   1.806   4.061   1.450 -0.1323  0.3487 -0.0173
   44TCq2    C7  675   1.827   4.049   1.584 -0.2233 -0.5221  0.2448
   44TCq2    C8  676   1.826   3.943   1.373 -0.5589  0.4332  0.5564
   44TCq2    O4  677   1.925   3.870   1.398 -0.2816 -0.1557  0.6763
   44TCq2    C9  678   1.587   4.358   1.456 -0.5075 -0.6109 -0.0133
   44TCq2    O5  679   1.532   4.354   1.343  0.1991 -0.3230  0.0617
   44TCq2    O6  680   1.599   4.465   1.524  0.5187 -0.9734 -0.2469
   44TCq2    H2  681   1.630   4.302   1.692  0.1388  0.2620 -0.7714
   44TCq2    H3  682   1.698   4.162   1.302  0.3071 -0.0242  0.3881
   44TCq2    H4  683   1.858   3.954   1.626 -2.6703 -2.6750 -2.8317
   45TMC2    C1  684   3.144   1.230   9.507 -0.7353 -0.1517  0.1189
   45TMC2    C2  685   3.264   1.219   9.564 -0.4427  0.6396  1.3166
   45TMC2    C3  686   3.294   1.300   9.672  0.2991 -0.4919 -0.5453
   45TMC2    C4  687   3.058   1.336   9.528  0.1767 -0.1950 -0.1465
   45TMC2    C5  688   3.093   1.411   9.639 -0.3185  0.3265 -0.5792
   45TMC2    C6  689   3.203   1.392   9.716 -0.2051  0.4248 -0.7209
   45TMC2     C  690   3.088   1.102   9.471 -0.2562 -1.1595  0.1867
   45TMC2     O  691   3.163   1.004   9.463 -1.1761  0.1325  0.4990
   45TMC2     H  692   3.333   1.140   9.540 -1.2367  0.6489 -0.9291
   45TMC2    H1  693   2.972   1.350   9.464 -0.5490 -2.8494  0.2597
   45TMC2    H2  694   3.212   1.432   9.816 -1.5012 -0.2329 -0.3436
   45TMC2    C7  695   3.017   1.537   9.666 -0.2459 -0.5655 -0.6463
   45TMC2    C8  696   3.418   1.283   9.753  0.6279  0.4654 -0.2346
   45TMC2    O1  697   3.010   1.564   9.786  0.6930  0.0414 -0.3281
   45TMC2    O2  698   3.418   1.279   9.877 -0.1161  0.7467  0.1153
   45TMC2    O5  699   3.524   1.259   9.679  0.0081 -0.1171  0.4130
   45TMC2    H5  700   3.500   1.273   9.585  0.7471  2.2389  0.5670
   46MPD2     C  701   2.891   0.866   9.471 -0.2382 -0.5966 -0.1688
   46MPD2    C1  702   2.854   0.996   9.495 -0.1572  0.3487  0.0127
   46MPD2    C2  703   2.725   1.031   9.511 -0.1987  0.1063  0.6984
   46MPD2    C3  704   2.620   0.936   9.496 -0.1288 -0.0631  0.4700
   46MPD2    C4  705   2.659   0.804   9.470  0.2252 -0.3623 -0.1195
   46MPD2    C5  706   2.790   0.773   9.453  0.1743  0.7595 -0.4528
   46MPD2     H  707   2.699   1.134   9.534 -1.3699  0.1040 -0.6100
   46MPD2    H1  708   2.578   0.731   9.475  1.3249 -1.5840 -0.1122
   46MPD2    H2  709   2.995   0.837   9.458 -0.3067 -1.2383  0.7660
   46MPD2    H3  710   2.819   0.669   9.452  0.3635  0.8321 -1.8921
   46MPD2     N  711   2.485   0.973   9.529 -0.2357 -0.4112 -0.2864
   46MPD2    H5  712   2.473   1.063   9.576 -0.3332  1.3461 -3.6915
   46MPD2    N1  713   2.950   1.100   9.496 -0.5241  0.2309  0.6988
   46MPD2    H7  714   2.917   1.190   9.530  0.6048  0.7606  0.3717
   47TMC2    C1  715   4.084   1.603   9.281  0.1323  0.3531 -0.2019
   47TMC2    C2  716   4.154   1.542   9.178  0.2549  0.1015 -0.3781
   47TMC2    C3  717   4.118   1.572   9.056  0.4208 -0.1719  0.9390
   47TMC2    C4  718   3.970   1.674   9.257  0.0210  0.1155 -0.2866
   47TMC2    C5  719   3.927   1.700   9.131  0.6783 -0.1540  0.3931
   47TMC2    C6  720   4.011   1.651   9.027  1.9392  0.2590 -0.1812
   47TMC2     C  721   4.130   1.598   9.419 -0.7571 -0.3741 -0.5975
   47TMC2     O  722   4.078   1.680   9.497 -0.0424  0.0481 -0.3505
   47TMC2     H  723   4.252   1.497   9.189 -0.1441 -0.5993  0.3112
   47TMC2    H1  724   3.914   1.712   9.342  0.7840 -1.3161  0.8524
   47TMC2    H2  725   3.998   1.688   8.926  1.8255  0.1098 -0.2218
   47TMC2    C7  726   3.819   1.782   9.091 -0.1959 -0.0275  0.1236
   47TMC2    C8  727   4.164   1.489   8.951  0.1956  0.0165  0.1972
   47TMC2    O1  728   3.789   1.780   8.972  0.1527  0.1937 -0.3942
   47TMC2    O2  729   4.136   1.368   8.952  0.3718  0.2001 -0.3021
   47TMC2    O5  730   4.168   1.566   8.846  0.1068 -0.0762 -0.1113
   47TMC2    H5  731   4.176   1.659   8.876 -0.2692  0.4519 -1.6574
   48MPD2     C  732   4.294   1.568   9.675  0.1536 -0.3208 -0.2560
   48MPD2    C1  733   4.314   1.497   9.564  0.9999 -0.3617 -0.2698
   48MPD2    C2  734   4.428   1.414   9.561 -0.3112 -0.2182 -0.9132
   48MPD2    C3  735   4.513   1.406   9.669  0.2846  0.3832 -0.0499
   48MPD2    C4  736   4.472   1.473   9.786 -0.5209 -0.4794 -0.6817
   48MPD2    C5  737   4.364   1.555   9.788  0.3817 -0.5914  0.0001
   48MPD2     H  738   4.461   1.360   9.474  2.4239  2.2468 -1.3842
   48MPD2    H1  739   4.538   1.483   9.871 -2.5018 -0.9522  0.9225
   48MPD2    H2  740   4.209   1.634   9.686 -0.8129 -1.8964  1.7343
   48MPD2    H3  741   4.350   1.613   9.878  1.9064 -0.5032  0.1897
   48MPD2     N  742   4.624   1.328   9.648 -0.1950 -0.1205  0.1879
   48MPD2    H5  743   4.635   1.296   9.552 -0.5876 -1.4679  0.5866
   48MPD2    N1  744   4.233   1.514   9.442  0.2906 -0.0566  0.1553
   48MPD2    H7  745   4.260   1.461   9.359 -2.2362  0.1061 -0.7498
   49MPD2     C  746   3.563   3.769  10.530  0.4012 -0.1756 -0.4073
   49MPD2    C1  747   3.479   3.869  10.583  0.5104  1.0595  1.2015
   49MPD2    C2  748   3.428   3.865  10.710  0.1731 -0.3414  0.2696
   49MPD2    C3  749   3.473   3.762  10.797 -0.4746  0.3667  0.1882
   49MPD2    C4  750   3.571   3.672  10.747 -0.5004  1.1250 -0.0009
   49MPD2    C5  751   3.603   3.667  10.613 -0.0480 -0.2189 -0.0020
   49MPD2     H  752   3.360   3.946  10.734 -0.4317 -0.7761  0.0201
   49MPD2    H1  753   3.600   3.590  10.811 -0.2441  1.3250  0.1383
   49MPD2    H2  754   3.597   3.767  10.427  1.9229 -1.4386  0.1146
   49MPD2    H3  755   3.668   3.589  10.575  1.7696  2.1528 -1.7816
   49MPD2     N  756   3.429   3.744  10.935  0.5591  0.1587  0.0527
   49MPD2    H5  757   3.459   3.660  10.983 -1.4169 -0.6114 -0.0586
   49MPD2    N1  758   3.461   4.000  10.518 -0.4026 -1.0044 -0.1858
   49MPD2    H7  759   3.409   4.071  10.569  0.2239 -1.1849  0.7013
   50TCq2    C1  760   3.513   4.028  10.396 -0.5373  0.5041 -0.5615
   50TCq2    O2  761   3.590   3.971  10.322 -0.2788 -0.0918 -0.4232
   50TCq2    C2  762   3.490   4.171  10.360  0.3340  0.4545  0.5833
   50TCq2    C3  763   3.564   4.216  10.256 -0.6987  0.5206 -0.4125
   50TCq2    C4  764   3.535   4.336  10.193  0.1568  0.1158  0.0017
   50TCq2    C5  765   3.436   4.412  10.242 -0.0214  0.2825 -0.5770
   50TCq2    C6  766   3.375   4.373  10.352 -0.1446 -0.0994  0.0317
   50TCq2    C7  767   3.383   4.246  10.406  0.4478  0.3108 -0.5362
   50TCq2    C8  768   3.268   4.449  10.417  0.2277 -0.3039  0.5062
   50TCq2    O4  769   3.183   4.389  10.483 -0.3782  0.3586  0.1194
   50TCq2    C9  770   3.604   4.366  10.080  0.3743  0.4618 -0.0699
   50TCq2    O5  771   3.643   4.274  10.004  0.2831 -0.4867  0.1365
   50TCq2    O6  772   3.554   4.474  10.035 -0.0327 -0.0535 -0.2612
   50TCq2    H2  773   3.650   4.160  10.223 -1.9026 -1.6992  0.1929
   50TCq2    H3  774   3.415   4.508  10.195 -1.0088  0.9944  1.3342
   50TCq2    H4  775   3.317   4.210  10.484  1.7985 -0.0034  0.4487
   51MPD2     C  776   4.354   1.083   1.638 -0.1430  0.5594  0.8236
   51MPD2    C1  777   4.290   1.181   1.567 -0.3340  0.5068  0.5555
   51MPD2    C2  778   4.362   1.269   1.488 -0.2891 -0.4109 -0.5785
   51MPD2    C3  779   4.498   1.265   1.486 -0.3340 -0.0382 -0.6381
   51MPD2    C4  780   4.564   1.169   1.561 -0.1482 -0.1480  0.2846
   51MPD2    C5  781   4.492   1.076   1.636  0.0007 -0.2722  1.2807
   51MPD2     H  782   4.306   1.329   1.417  0.4023  1.1991  0.2520
   51MPD2    H1  783   4.672   1.158   1.570 -0.0688  0.0726 -0.4038
   51MPD2    H2  784   4.300   1.005   1.692  1.9179 -2.0114 -0.8087
   51MPD2    H3  785   4.541   0.994   1.689  1.1862 -0.1281  0.4299
   51MPD2     N  786   4.574   1.345   1.410  0.0969 -0.8487 -0.3841
   51MPD2    H5  787   4.666   1.378   1.437  0.3497 -0.6627 -1.4812
   51MPD2    N1  788   4.154   1.203   1.573  0.1883 -0.2357 -0.1013
   51MPD2    H7  789   4.110   1.280   1.523  0.3495 -1.3390 -1.9554
   52TCq2    C1  790   4.536   1.400   1.289 -0.0407  0.0757  0.7801
   52TCq2    O2  791   4.437   1.376   1.219  0.1366 -0.1899 -0.0168
   52TCq2    C2  792   4.630   1.496   1.233  0.0388 -0.8595 -1.3542
   52TCq2    C3  793   4.609   1.544   1.102 -0.5587  0.4403  0.6580
   52TCq2    C4  794   4.689   1.641   1.052  0.4883  0.4401  0.0279
   52TCq2    C5  795   0.068   1.691   1.125  0.0023 -0.2286  0.3421
   52TCq2    C6  796   0.082   1.648   1.253  0.0079 -0.3756  0.1305
   52TCq2    C7  797   0.004   1.553   1.313  0.5833 -0.0587  0.2954
   52TCq2    C8  798   0.162   1.742   1.331 -0.1237 -0.2069  0.2320
   52TCq2    O4  799   0.167   1.859   1.289 -0.6436  0.5716  0.2174
   52TCq2    C9  800   4.673   1.687   0.920 -0.1099  0.4471  0.0047
   52TCq2    O5  801   4.583   1.631   0.857  0.2418  0.1139 -0.0824
   52TCq2    O6  802   0.034   1.769   0.882  0.2452  0.3506  0.4965
   52TCq2    H2  803   4.532   1.501   1.040  0.7202 -0.8126 -0.0509
   52TCq2    H3  804   0.144   1.757   1.085 -1.6123  2.3714  1.5584
   52TCq2    H4  805   0.015   1.531   1.419 -2.5723  1.0414  0.8300
   53TMC2    C1  806   4.001   1.072  11.612 -0.2994 -0.1217 -0.2748
   53TMC2    C2  807   4.123   1.065  11.668  0.5056 -0.1364 -0.1115
   53TMC2    C3  808   4.143   1.145  11.781 -0.4827  0.1770  0.0287
   53TMC2    C4  809   3.902   1.149  11.662 -0.7790 -0.0869 -0.2283
   53TMC2    C5  810   3.920   1.204  11.787  0.2262  0.3295 -0.3503
   53TMC2    C6  811   4.041   1.208  11.846  0.1568  0.2845 -0.1408
   53TMC2     C  812   3.984   0.998  11.491 -0.4265  0.4854 -0.0333
   53TMC2     O  813   4.062   0.908  11.464  0.1800  0.6666  0.0341
   53TMC2     H  814   4.203   1.006  11.625  1.0539 -0.2033  0.9989
   53TMC2    H1  815   3.800   1.150  11.626 -0.0173 -1.4214 -2.3587
   53TMC2    H2  816   4.062   1.266  11.936 -1.2120  1.9672 -0.8970
   53TMC2    C7  817   3.808   1.262  11.859 -0.3259  0.4640 -0.1274
   53TMC2    C8  818   4.264   1.139  11.864 -0.3207 -0.1912  0.6067
   53TMC2    O1  819   3.715   1.302  11.797  0.1257  0.0307  0.1314
   53TMC2    O2  820   4.278   1.210  11.961 -0.2067  0.3134 -0.3810
   53TMC2    O5  821   4.310   1.012  11.870  0.0565  0.0909 -0.0696
   53TMC2    H5  822   4.280   0.951  11.800  0.5661  0.2061 -0.3864
   54MPD2     C  823   3.852   0.814  11.300  0.0810  0.5675 -0.1944
   54MPD2    C1  824   3.819   0.948  11.312 -1.0520  0.2048  0.1904
   54MPD2    C2  825   3.726   1.008  11.226 -0.5015 -0.2087 -0.5452
   54MPD2    C3  826   3.668   0.934  11.127  0.0932  0.3317  0.0409
   54MPD2    C4  827   3.700   0.796  11.121  0.6496 -0.0187  0.7733
   54MPD2    C5  828   3.802   0.736  11.198  0.4197  0.0267 -0.9558
   54MPD2     H  829   3.712   1.115  11.235  0.4371 -0.1629  0.3721
   54MPD2    H1  830   3.663   0.739  11.037 -0.8438  1.1252  0.6441
   54MPD2    H2  831   3.922   0.763  11.365 -0.6709  0.9753  0.9444
   54MPD2    H3  832   3.821   0.630  11.191 -1.4190 -0.3232 -0.5690
   54MPD2     N  833   3.575   0.981  11.038  0.4048  0.2389 -0.0610
   54MPD2    H5  834   3.529   0.915  10.977 -0.7398 -0.4325  1.5284
   54MPD2    N1  835   3.868   1.025  11.417  0.3440  0.7216 -0.2400
   54MPD2    H7  836   3.817   1.111  11.432 -2.8245 -1.0278 -0.8992
   55MPD2     C  837   0.300   3.235  17.272  0.0114  0.7419  0.5500
   55MPD2    C1  838   0.211   3.209  17.376  0.3838  0.2144  0.4493
   55MPD2    C2  839   0.108   3.301  17.394  0.1299 -0.3447 -0.1651
   55MPD2    C3  840   0.088   3.411  17.309 -0.3797 -0.3108  0.3011
   55MPD2    C4  841   0.172   3.434  17.201 -0.0499 -1.0456  0.5306
   55MPD2    C5  842   0.277   3.342  17.188 -0.1519  0.9193  0.7327
   55MPD2     H  843   0.024   3.285  17.460 -0.8285  0.0634 -1.2724
   55MPD2    H1  844   0.177   3.519  17.135 -0.0820 -1.4713 -0.0198
   55MPD2    H2  845   0.373   3.158  17.248  0.2969  0.9533  0.7325
   55MPD2    H3  846   0.345   3.348  17.104 -0.4168  2.0968  0.6094
   55MPD2     N  847   4.715   3.500  17.353  0.3838 -0.5397 -0.3152
   55MPD2    H5  848   4.669   3.484  17.443  0.7164 -1.7236 -0.3622
   55MPD2    N1  849   0.236   3.100  17.472 -0.0463 -0.8607 -0.3573
   55MPD2    H7  850   0.321   3.045  17.467 -0.6890 -1.6999 -2.2012
   56TCq2    C1  851   0.150   3.068  17.576  0.0076  0.7020 -0.3453
   56TCq2    O2  852   0.039   3.117  17.604  0.0738  0.1640 -0.2007
   56TCq2    C2  853   0.199   2.963  17.660  0.0130 -0.1662 -0.6819
   56TCq2    C3  854   0.290   2.868  17.620 -0.3367  0.1005  0.2934
   56TCq2    C4  855   0.364   2.801   0.014 -0.3373 -0.5262 -0.4172
   56TCq2    C5  856   0.330   2.811   0.142  0.8117 -0.7334 -0.2160
   56TCq2    C6  857   0.235   2.902   0.183  0.4071 -0.4496 -0.2541
   56TCq2    C7  858   0.173   2.987   0.092  0.8999  0.4374 -0.4410
   56TCq2    C8  859   0.184   2.902   0.320 -0.3576 -0.2976  0.7706
   56TCq2    O4  860   0.218   2.801   0.374 -0.2970  0.0890 -0.2811
   56TCq2    C9  861   0.467   2.701  17.681  0.2291  0.0498 -0.3753
   56TCq2    O5  862   0.518   2.636   0.072 -0.0414 -0.3120 -0.2958
   56TCq2    O6  863   0.495   2.692  17.559 -0.5044 -0.1194  0.6526
   56TCq2    H2  864   0.320   2.860  17.516 -2.9114 -1.6166 -0.2993
   56TCq2    H3  865   0.394   2.758   0.212 -1.1953 -2.1070  0.5927
   56TCq2    H4  866   0.095   3.060   0.112  0.9620  1.0555 -2.5109
   57TMC2    C1  867   3.542   0.036  13.703  0.9235 -0.8346 -0.1745
   57TMC2    C2  868   3.646   0.106  13.643  0.5167 -0.7291 -0.6149
   57TMC2    C3  869   3.694   0.048  13.534 -0.3923  0.5720  0.1128
   57TMC2    C4  870   3.495   4.640  13.652 -0.2862  0.2315 -0.4448
   57TMC2    C5  871   3.551   4.590  13.544  0.4068 -0.4240 -0.5121
   57TMC2    C6  872   3.654   4.653  13.479 -0.1255 -0.2819  0.0713
   57TMC2     C  873   3.474   0.101  13.811 -0.1728 -0.7400  0.0143
   57TMC2     O  874   3.481   0.223  13.831  0.0494 -0.1651  0.2725
   57TMC2     H  875   3.677   0.202  13.682 -0.4437 -0.2708 -0.9783
   57TMC2    H1  876   3.401   4.599  13.687  0.5600 -0.8721  0.5538
   57TMC2    H2  877   3.672   4.632  13.375 -0.8939 -2.0499  0.2940
   57TMC2    C7  878   3.478   4.484  13.471  0.4130  0.1640  0.0188
   57TMC2    C8  879   3.784   0.124  13.457 -0.3897  0.0549  0.2796
   57TMC2    O1  880   3.368   4.468  13.515 -0.1838 -0.4001 -0.2386
   57TMC2    O2  881   3.896   0.155  13.503  0.7781  0.3475 -0.3832
   57TMC2    O5  882   3.760   0.118  13.323 -0.1072  0.0004 -0.7075
   57TMC2    H5  883   3.664   0.105  13.305 -0.0841 -1.5753  0.3060
   58MPD2     C  884   3.198   0.075  14.246  0.5091 -0.5619  0.8082
   58MPD2    C1  885   3.204   0.177  14.159 -0.1994 -0.5484 -0.5078
   58MPD2    C2  886   3.284   0.157  14.047 -0.4828 -0.4725 -0.1964
   58MPD2    C3  887   3.350   0.036  14.018 -0.7042 -0.1958 -0.2898
   58MPD2    C4  888   3.336   4.662  14.112 -0.3076 -0.4307 -0.1463
   58MPD2    C5  889   3.259   4.687  14.220  0.2658 -0.7662 -0.6064
   58MPD2     H  890   3.277   0.225  13.963 -1.2206 -0.6981 -0.3227
   58MPD2    H1  891   3.388   4.569  14.093  3.0051  1.2566  0.6674
   58MPD2    H2  892   3.132   0.068  14.332  2.0057 -2.9231  1.7525
   58MPD2    H3  893   3.248   4.604  14.288  0.6881 -0.0465  0.3497
   58MPD2     N  894   3.426   0.008  13.901 -0.2868  0.1630 -0.1405
   58MPD2    H5  895   3.456   4.638  13.887  1.6313  1.0053 -1.8162
   58MPD2    N1  896   3.154   0.304  14.187  0.1774  0.2790 -0.2856
   58MPD2    H7  897   3.167   0.374  14.115  1.6468 -1.1624 -1.4150
   59MPD2     C  898   1.542   0.075  13.369 -0.4185  0.4572 -0.0112
   59MPD2    C1  899   1.560   0.157  13.258  0.6534  0.2168 -0.0157
   59MPD2    C2  900   1.641   0.266  13.260 -0.3895 -0.5104  0.4957
   59MPD2    C3  901   1.698   0.299  13.380 -0.3085  0.7497 -0.0221
   59MPD2    C4  902   1.689   0.217  13.491 -0.7226 -0.0993  0.1130
   59MPD2    C5  903   1.604   0.111  13.488 -0.7843  0.5879 -0.2628
   59MPD2     H  904   1.668   0.312  13.166  0.3979 -2.0001 -0.0154
   59MPD2    H1  905   1.736   0.234  13.587  0.3658 -0.4082 -0.3633
   59MPD2    H2  906   1.504   4.700  13.361  2.3549 -0.6615  0.9778
   59MPD2    H3  907   1.583   0.055  13.579 -3.0805  2.4087  0.3449
   59MPD2     N  908   1.777   0.412  13.387 -0.3364  0.2287  0.1966
   59MPD2    H5  909   1.809   0.447  13.297  1.6189 -0.9446  0.4273
   59MPD2    N1  910   1.491   0.131  13.136  0.9017  0.3218  0.0076
   59MPD2    H7  911   1.517   0.199  13.065  0.2732 -0.4203 -0.9283
   60TCq2    C1  912   1.405   0.025  13.105 -0.0061  0.2028  0.1959
   60TCq2    O2  913   1.353   4.667  13.178 -0.1195  0.4499  0.3968
   60TCq2    C2  914   1.342   0.050  12.977 -0.4564  0.5631  0.3867
   60TCq2    C3  915   1.226   4.712  12.946 -0.7842 -0.0600  0.7123
   60TCq2    C4  916   1.163   0.009  12.827  0.1034  0.2343  0.0863
   60TCq2    C5  917   1.210   0.096  12.736 -0.2004 -0.3457 -0.1223
   60TCq2    C6  918   1.335   0.150  12.763 -0.0736 -0.3487  0.5460
   60TCq2    C7  919   1.405   0.122  12.876  0.6762 -1.0005 -0.1281
   60TCq2    C8  920   1.407   0.217  12.653 -0.4082  0.4614  0.4459
   60TCq2    O4  921   1.520   0.199  12.633 -0.4570 -0.4577 -0.3405
   60TCq2    C9  922   1.034   4.671  12.813  0.4031 -0.0145 -0.2387
   60TCq2    O5  923   0.992   4.588  12.905 -0.7126 -0.2688 -0.6245
   60TCq2    O6  924   0.976   4.708  12.705  0.9204  0.6383  0.1308
   60TCq2    H2  925   1.177   4.647  13.017 -0.1292 -0.6330  0.6374
   60TCq2    H3  926   1.150   0.117  12.648 -0.5272 -1.7814 -0.2464
   60TCq2    H4  927   1.509   0.151  12.880  0.1321  0.9735  0.0738
   61MPD2     C  928   1.574   1.576  15.660 -0.0320 -0.6753 -0.3272
   61MPD2    C1  929   1.472   1.579  15.569  0.2419  0.1447 -0.0441
   61MPD2    C2  930   1.502   1.547  15.435  0.3266 -0.0249  0.3891
   61MPD2    C3  931   1.632   1.535  15.387  0.3450 -0.1634 -0.2995
   61MPD2    C4  932   1.735   1.538  15.479 -0.0035  0.1038 -0.3616
   61MPD2    C5  933   1.701   1.562  15.614  0.2321  0.6181  0.2483
   61MPD2     H  934   1.417   1.550  15.367  0.3515  1.2695  0.4272
   61MPD2    H1  935   1.841   1.526  15.459 -0.1574 -0.2128 -0.9592
   61MPD2    H2  936   1.570   1.594  15.767 -1.3714 -1.4949 -0.2491
   61MPD2    H3  937   1.773   1.560  15.695  0.5810 -2.8122 -0.1488
   61MPD2     N  938   1.675   1.508  15.254 -0.2096  0.2084 -0.4193
   61MPD2    H5  939   1.773   1.515  15.229  0.1678  0.1998  1.0420
   61MPD2    N1  940   1.336   1.605  15.598 -0.1082 -0.3673  0.6798
   61MPD2    H7  941   1.276   1.620  15.518  0.9338 -2.0273 -0.4101
   62TCq2    C1  942   1.289   1.610  15.731 -0.5136 -0.2195  0.3476
   62TCq2    O2  943   1.346   1.580  15.836  0.1561  0.3498 -0.6275
   62TCq2    C2  944   1.148   1.652  15.747  0.8181  0.5822  0.9596
   62TCq2    C3  945   1.059   1.582  15.826  0.2179 -0.5726 -0.3646
   62TCq2    C4  946   0.927   1.589  15.801 -0.0025  0.0924  0.0041
   62TCq2    C5  947   0.874   1.659  15.696  0.3439  0.0877 -0.7378
   62TCq2    C6  948   0.961   1.731  15.618  0.2694 -0.6773 -0.0824
   62TCq2    C7  949   1.097   1.737  15.653 -0.0256  0.1399  0.0789
   62TCq2    C8  950   0.931   1.781  15.490  0.3234 -0.0007  0.0710
   62TCq2    O4  951   1.017   1.850  15.436  0.3767  0.4286 -0.7163
   62TCq2    C9  952   0.838   1.529  15.892 -0.9536  0.1577  0.4544
   62TCq2    O5  953   0.887   1.455  15.983  0.9359  0.0079  0.1574
   62TCq2    O6  954   0.713   1.562  15.888 -0.5927  0.2299  0.1416
   62TCq2    H2  955   1.088   1.523  15.913 -1.3185  0.5190  0.8873
   62TCq2    H3  956   0.766   1.661  15.687  0.3571  3.7775 -0.1240
   62TCq2    H4  957   1.161   1.798  15.590  0.2614  0.0013  0.2384
   63TMC2    C1  958   4.723   1.220  10.545 -0.7294 -0.2550  0.5529
   63TMC2    C2  959   4.680   1.210  10.675 -0.1852  0.5332 -0.5826
   63TMC2    C3  960   0.011   1.296  10.769 -0.4106 -0.0089 -0.1346
   63TMC2    C4  961   0.073   1.325  10.502 -0.2400  0.0230 -0.4616
   63TMC2    C5  962   0.130   1.402  10.594 -0.8300 -0.1922  0.0514
   63TMC2    C6  963   0.107   1.388  10.729  0.3958 -0.3817  0.1579
   63TMC2     C  964   4.648   1.158  10.445 -1.0416 -0.0796 -0.2443
   63TMC2     O  965   4.622   1.228  10.343  0.4725  0.4523 -0.0537
   63TMC2     H  966   4.608   1.136  10.708  0.8787 -0.3003 -0.1186
   63TMC2    H1  967   0.103   1.344  10.400  0.0598  1.2813 -0.1453
   63TMC2    H2  968   0.137   1.462  10.803  2.2977 -1.8841  0.8897
   63TMC2    C7  969   0.173   1.532  10.547 -0.5944  0.0639 -0.0819
   63TMC2    C8  970   0.001   1.255  10.909  0.1777  0.6916  0.3810
   63TMC2    O1  971   0.123   1.576  10.444  0.4117  0.1720  0.2311
   63TMC2    O2  972   4.641   1.175  10.942 -0.2293  0.3548  0.0366
   63TMC2    O5  973   0.124   1.279  10.968  0.1303  0.1707 -0.0375
   63TMC2    H5  974   0.186   1.323  10.905 -0.7978 -0.6877 -1.5572
   64MPD2     C  975   4.506   0.720  10.219  0.1987 -0.2588 -0.4400
   64MPD2    C1  976   4.583   0.687  10.323 -0.7386  0.2114  1.0529
   64MPD2    C2  977   4.624   0.791  10.410  0.3176 -0.5095  0.3675
   64MPD2    C3  978   4.604   0.924  10.379  0.2100 -0.2099  0.1159
   64MPD2    C4  979   4.529   0.954  10.270  0.5857 -0.6221 -0.4560
   64MPD2    C5  980   4.473   0.854  10.200  0.7051 -0.2552  0.1912
   64MPD2     H  981   4.684   0.773  10.498  1.4510  2.5646  0.2054
   64MPD2    H1  982   4.498   1.053  10.241  0.4875 -0.4332  0.2853
   64MPD2    H2  983   4.464   0.655  10.143 -0.7237 -1.2560  0.9086
   64MPD2    H3  984   4.408   0.884  10.118  2.6557 -2.2754 -2.0742
   64MPD2     N  985   4.652   1.023  10.466  0.2586 -0.2935  0.1372
   64MPD2    H5  986   4.699   0.989  10.549  2.6431  0.5049 -0.8976
   64MPD2    N1  987   4.614   0.557  10.362 -0.1837  0.5897 -0.2671
   64MPD2    H7  988   4.686   0.552  10.433 -0.4383  2.1273  0.0956
   65MPD2     C  989   1.728   0.785  16.123 -0.0790  0.1856 -0.0026
   65MPD2    C1  990   1.669   0.846  16.017 -1.2159  0.5108  0.4343
   65MPD2    C2  991   1.566   0.783  15.950 -0.4478  0.1289  0.0914
   65MPD2    C3  992   1.538   0.651  15.986 -0.2434 -0.0866  0.0514
   65MPD2    C4  993   1.607   0.581  16.079 -0.0061  0.3020 -0.2088
   65MPD2    C5  994   1.707   0.649  16.143  0.1609  0.2752  0.5176
   65MPD2     H  995   1.509   0.837  15.875  0.2671  1.2399  0.3521
   65MPD2    H1  996   1.590   0.477  16.101 -0.6710  0.3231 -0.6020
   65MPD2    H2  997   1.809   0.833  16.177  0.4016  0.8845 -1.3344
   65MPD2    H3  998   1.771   0.600  16.215  0.6578  1.6361  1.0006
   65MPD2     N  999   1.447   0.571  15.915 -0.0686 -0.1853  0.1652
   65MPD2    H5 1000   1.428   0.478  15.951  0.5684 -0.3941 -0.0224
   65MPD2    N1 1001   1.712   0.967  15.955 -0.6975  0.2066  1.0239
   65MPD2    H7 1002   1.668   0.996  15.868  0.4774 -0.1331  0.3171
   66TCq2    C1 1003   1.807   1.054  16.007  0.5679  0.2329 -0.3015
   66TCq2    O2 1004   1.859   1.058  16.111 -0.2619  0.0893  0.2825
   66TCq2    C2 1005   1.842   1.155  15.911 -0.3675 -0.2451  0.2648
   66TCq2    C3 1006   1.847   1.119  15.777  0.7570 -0.0295  0.1863
   66TCq2    C4 1007   1.901   1.199  15.688 -0.5718 -0.3611 -0.4850
   66TCq2    C5 1008   1.948   1.321  15.731 -0.1039  0.5486  0.1325
   66TCq2    C6 1009   1.947   1.355  15.863  0.1065  0.6532  0.5172
   66TCq2    C7 1010   1.891   1.273  15.960 -0.1026 -0.2039 -0.2011
   66TCq2    C8 1011   1.960   1.495  15.897 -0.5467  0.7000  0.5121
   66TCq2    O4 1012   2.032   1.564  15.825  0.4145  0.2465  0.1566
   66TCq2    C9 1013   1.883   1.177  15.549  0.5335 -0.3526  0.0609
   66TCq2    O5 1014   1.949   1.247  15.471  0.3108 -0.4332 -0.2545
   66TCq2    O6 1015   1.790   1.097  15.516  0.7002  0.4712  0.4358
   66TCq2    H2 1016   1.819   1.020  15.742 -1.2064  0.9317 -0.9664
   66TCq2    H3 1017   1.975   1.397  15.659  0.2364 -0.9564 -1.3269
   66TCq2    H4 1018   1.903   1.291  16.066  0.8662  0.2229 -0.3786
   67MPD2     C 1019   1.710   0.397  14.007  0.2600  0.2866 -0.7380
   67MPD2    C1 1020   1.651   0.456  14.112 -0.2398  0.1489 -0.4480
   67MPD2    C2 1021   1.518   0.446  14.140 -0.3955  0.7599 -0.8952
   67MPD2    C3 1022   1.440   0.358  14.063  0.2806 -0.1973 -0.1286
   67MPD2    C4 1023   1.501   0.299  13.953  0.0866  0.5699 -0.0794
   67MPD2    C5 1024   1.633   0.317  13.922  0.7855  0.0480  1.0491
   67MPD2     H 1025   1.472   0.493  14.226 -0.7237 -2.3957  0.6330
   67MPD2    H1 1026   1.441   0.246  13.880 -0.0223  0.4342  0.1062
   67MPD2    H2 1027   1.814   0.425  13.993  0.4900 -0.0417  0.3410
   67MPD2    H3 1028   1.677   0.276  13.832  0.2300 -0.0928  0.8433
   67MPD2     N 1029   1.300   0.342  14.082  0.3880 -0.7636  0.2299
   67MPD2    H5 1030   1.243   0.300  14.009 -1.9698  1.8120  0.5823
   67MPD2    N1 1031   1.723   0.527  14.214  1.0119  0.4679 -0.0811
   67MPD2    H7 1032   1.673   0.586  14.279  1.8171  1.1491 -0.0882
   68TCq2    C1 1033   1.857   0.520  14.232 -0.0417 -0.1812 -0.8862
   68TCq2    O2 1034   1.943   0.440  14.193 -0.5197 -0.0922  0.0970
   68TCq2    C2 1035   1.892   0.606  14.352  0.8349 -0.6860 -0.0368
   68TCq2    C3 1036   1.838   0.726  14.379 -0.3153 -0.6445 -0.2480
   68TCq2    C4 1037   1.872   0.796  14.489  0.9538  0.7915 -0.0715
   68TCq2    C5 1038   1.964   0.750  14.577 -0.7404  0.4138 -0.6572
   68TCq2    C6 1039   2.032   0.633  14.540  0.0592  0.2122  0.0868
   68TCq2    C7 1040   1.997   0.559  14.426  0.2602 -0.3935  0.2209
   68TCq2    C8 1041   2.094   0.555  14.647 -0.7913 -0.0725  0.6535
   68TCq2    O4 1042   2.144   0.446  14.613  0.4856  0.8272  0.1449
   68TCq2    C9 1043   1.807   0.925  14.517  0.1136 -0.1648 -0.7408
   68TCq2    O5 1044   1.828   0.978  14.630  0.5743 -0.6753  0.0129
   68TCq2    O6 1045   1.732   0.961  14.428 -0.2417 -0.2411 -0.3698
   68TCq2    H2 1046   1.755   0.766  14.321  0.3017  0.4360 -0.3753
   68TCq2    H3 1047   1.990   0.806  14.666 -1.9206 -2.0089  1.2529
   68TCq2    H4 1048   2.044   0.464  14.406  0.7799  0.5253 -2.9721
   69TMC2    C1 1049   3.433   1.637  12.535 -0.1487 -0.0449 -0.1466
   69TMC2    C2 1050   3.346   1.728  12.487 -0.3395  0.1787  0.4709
   69TMC2    C3 1051   3.381   1.802  12.383  0.0909 -0.5849 -0.2384
   69TMC2    C4 1052   3.556   1.631  12.482  0.2908  0.0781 -0.1428
   69TMC2    C5 1053   3.590   1.709  12.377 -0.1052  0.7139 -0.2454
   69TMC2    C6 1054   3.501   1.799  12.324  0.3832 -0.1931  0.8807
   69TMC2     C 1055   3.394   1.529  12.626 -0.7660  0.0732  0.4746
   69TMC2     O 1056   3.463   1.428  12.653  0.2149  0.1167 -0.1414
   69TMC2     H 1057   3.245   1.742  12.525  0.2989  1.4884  1.6707
   69TMC2    H1 1058   3.617   1.545  12.505  1.3098  0.9841  0.5774
   69TMC2    H2 1059   3.516   1.857  12.234 -2.4121 -1.2270 -0.2757
   69TMC2    C7 1060   3.708   1.674  12.312  0.0838  0.1577 -0.7190
   69TMC2    C8 1061   3.271   1.866  12.319 -0.5213 -0.3654  0.7619
   69TMC2    O1 1062   3.808   1.641  12.379 -0.5088  0.2457  0.3355
   69TMC2    O2 1063   3.156   1.827  12.319 -0.1232 -0.3982 -0.2430
   69TMC2    O5 1064   3.311   1.990  12.274  0.0846  0.1512 -0.4638
   69TMC2    H5 1065   3.387   2.035  12.317 -2.1285  1.2271  2.3181
   70MPD2     C 1066   3.125   1.560  12.871  0.3220  1.1183  0.1788
   70MPD2    C1 1067   3.209   1.487  12.786  0.0739 -0.2553 -0.1407
   70MPD2    C2 1068   3.221   1.348  12.797 -0.3494 -0.8525  0.2096
   70MPD2    C3 1069   3.149   1.280  12.897 -0.4773 -0.3400 -0.3003
   70MPD2    C4 1070   3.064   1.350  12.979  0.0957 -0.1593 -0.2304
   70MPD2    C5 1071   3.047   1.489  12.963 -0.2410 -0.0302  0.0460
   70MPD2     H 1072   3.281   1.290  12.728  2.0496  0.5546  1.1209
   70MPD2    H1 1073   3.011   1.299  13.059  2.8542 -1.5392  0.7135
   70MPD2    H2 1074   3.120   1.668  12.862  2.3568  1.1866 -0.1411
   70MPD2    H3 1075   2.981   1.531  13.038 -2.1952 -0.1085 -1.6225
   70MPD2     N 1076   3.166   1.144  12.919 -0.1620  0.4145 -0.0314
   70MPD2    H5 1077   3.109   1.110  12.996  0.9652  3.7185  2.2490
   70MPD2    N1 1078   3.282   1.572  12.696  0.6293 -0.3436  0.7261
   70MPD2    H7 1079   3.255   1.668  12.681 -1.0345 -0.9588 -0.1825
   71TMC2    C1 1080   1.388   2.112   1.891  0.9756  0.2896 -0.8473
   71TMC2    C2 1081   1.437   2.111   2.018 -0.0784 -0.5431 -0.0509
   71TMC2    C3 1082   1.348   2.069   2.117 -0.2925 -0.2641  0.2943
   71TMC2    C4 1083   1.256   2.097   1.864 -1.1996 -0.1183  0.3024
   71TMC2    C5 1084   1.175   2.051   1.969 -0.3172 -0.0188  0.0746
   71TMC2    C6 1085   1.223   2.037   2.094 -0.2699 -0.1608  0.4018
   71TMC2     C 1086   1.479   2.114   1.770  0.5770  0.6084 -0.2419
   71TMC2     O 1087   1.423   2.131   1.665 -0.0379 -0.0911 -0.4048
   71TMC2     H 1088   1.539   2.140   2.042  0.1076 -0.3366 -1.0868
   71TMC2    H1 1089   1.230   2.098   1.759 -2.2822  1.5459  0.5945
   71TMC2    H2 1090   1.151   2.006   2.169 -1.4743  3.1559  0.5852
   71TMC2    C7 1091   1.082   1.951   1.945 -0.4078 -0.0661  1.0975
   71TMC2    C8 1092   1.383   2.043   2.258  0.5175 -0.0907  0.7833
   71TMC2    O1 1093   1.081   1.851   2.011 -0.3188 -0.3269 -0.2472
   71TMC2    O2 1094   1.315   1.982   2.336 -0.0931 -0.0168  0.1712
   71TMC2    O5 1095   1.486   2.127   2.296  0.6198 -0.0887  0.4509
   71TMC2    H5 1096   1.507   2.192   2.225 -1.1329  0.1810  0.1953
   72MPD2     C 1097   1.933   2.092   1.521  0.0476 -1.4068  0.5456
   72MPD2    C1 1098   1.805   2.106   1.477 -0.2275  0.5962  0.0073
   72MPD2    C2 1099   1.696   2.106   1.562  0.0553  0.4155 -0.0613
   72MPD2    C3 1100   1.708   2.089   1.695 -0.3485  0.0801  0.6559
   72MPD2    C4 1101   1.836   2.074   1.745  0.6278  1.0872 -0.0523
   72MPD2    C5 1102   1.943   2.073   1.658  0.1755 -0.5394  0.3909
   72MPD2     H 1103   1.601   2.114   1.509 -0.4060  0.2651  0.7327
   72MPD2    H1 1104   1.850   2.057   1.851  0.2421 -0.2648 -0.2217
   72MPD2    H2 1105   2.024   2.087   1.463 -1.6407  0.8965 -2.2949
   72MPD2    H3 1106   2.043   2.057   1.699 -0.2567 -1.2730  1.1590
   72MPD2     N 1107   1.610   2.098   1.796 -0.3602  0.4271 -0.4655
   72MPD2    H5 1108   1.643   2.067   1.887  0.4326 -0.6595 -1.1210
   72MPD2    N1 1109   1.774   2.109   1.339 -0.8597 -0.1595  0.3996
   72MPD2    H7 1110   1.681   2.110   1.298 -0.6221  1.0817 -0.1021
   73TMC2    C1 1111   0.378   3.815  13.815 -0.4356  0.0053  0.0743
   73TMC2    C2 1112   0.240   3.823  13.829  0.2031 -0.1381 -0.1409
   73TMC2    C3 1113   0.190   3.751  13.926 -0.1814  0.1637  0.0354
   73TMC2    C4 1114   0.457   3.730  13.888 -0.2797 -0.4257  0.0906
   73TMC2    C5 1115   0.401   3.654  13.987 -0.5403 -0.0424  0.7409
   73TMC2    C6 1116   0.262   3.665  14.005 -0.0576 -0.4240 -0.2377
   73TMC2     C 1117   0.447   3.937  13.792  0.8321 -0.2253  0.9618
   73TMC2     O 1118   0.542   3.951  13.867  0.2063  0.1012  0.0154
   73TMC2     H 1119   0.176   3.880  13.763 -0.6320  0.1188  0.8982
   73TMC2    H1 1120   0.560   3.715  13.859 -0.4063  0.5443 -0.8534
   73TMC2    H2 1121   0.217   3.621  14.093 -0.7892 -1.1868 -0.9849
   73TMC2    C7 1122   0.475   3.655  14.113  0.0177  0.4714 -0.4091
   73TMC2    C8 1123   0.044   3.750  13.946 -0.8753 -0.2255  0.2032
   73TMC2    O1 1124   0.430   3.591  14.207  0.2264  0.6195  0.2919
   73TMC2    O2 1125   4.700   3.657  13.985 -1.0228  0.1405 -0.5171
   73TMC2    O5 1126   0.005   3.875  13.918  0.0578 -0.5731 -0.0561
   73TMC2    H5 1127   0.062   3.951  13.943 -0.9997  0.2899 -0.2205
   74MPD2     C 1128   0.569   4.398  13.620  0.8093 -0.1837 -0.2652
   74MPD2    C1 1129   0.580   4.351  13.746 -0.3621  0.2358 -0.3362
   74MPD2    C2 1130   0.518   4.226  13.775  0.2847 -0.0387  0.7548
   74MPD2    C3 1131   0.441   4.153  13.682  0.3218 -0.9401 -0.1969
   74MPD2    C4 1132   0.424   4.212  13.559  0.9752 -0.0040  0.0641
   74MPD2    C5 1133   0.493   4.322  13.529  0.5005  0.2959  0.2759
   74MPD2     H 1134   0.533   4.183  13.873 -0.1734 -2.6074 -0.3241
   74MPD2    H1 1135   0.360   4.158  13.490  1.6136 -0.8438  0.1240
   74MPD2    H2 1136   0.623   4.484  13.581 -0.9010  0.0449 -2.1099
   74MPD2    H3 1137   0.498   4.348  13.424  2.3631 -1.5374 -0.1030
   74MPD2     N 1138   0.393   4.023  13.699  0.0157  0.7147 -0.2086
   74MPD2    H5 1139   0.306   4.005  13.652  0.7122 -1.9449 -0.4419
   74MPD2    N1 1140   0.668   4.410  13.845 -0.3749  0.0233 -0.0445
   74MPD2    H7 1141   0.732   4.482  13.813 -0.8174  0.9412  1.0956
   75TCq2    C1 1142   1.244   0.361  14.206 -0.3301 -0.1109  0.1992
   75TCq2    O2 1143   1.300   0.363  14.314 -0.0825 -0.6418  0.1710
   75TCq2    C2 1144   1.101   0.329  14.201  0.2193 -0.0479 -0.2594
   75TCq2    C3 1145   1.031   0.305  14.322 -0.4042  0.6851  0.1256
   75TCq2    C4 1146   0.897   0.320  14.324  0.1544  0.4344 -0.2012
   75TCq2    C5 1147   0.830   0.359  14.209  0.3555  0.6159 -0.5769
   75TCq2    C6 1148   0.900   0.386  14.097 -0.2903 -0.2508  0.0656
   75TCq2    C7 1149   1.033   0.368  14.089  0.5083  0.4005  0.0411
   75TCq2    C8 1150   0.834   0.437  13.978  0.1024 -0.4619 -0.4188
   75TCq2    O4 1151   0.900   0.435  13.877  0.0721  0.2640 -0.0472
   75TCq2    C9 1152   0.835   0.277  14.449  0.1055 -0.2217 -0.8391
   75TCq2    O5 1153   0.712   0.312  14.472 -0.0469 -0.0173 -0.6458
   75TCq2    O6 1154   0.910   0.224  14.535  0.3225  0.4263 -0.0295
   75TCq2    H2 1155   1.085   0.270  14.410  0.1724 -0.1157 -0.5399
   75TCq2    H3 1156   0.724   0.342  14.219 -0.3920  4.5539 -1.6855
   75TCq2    H4 1157   1.086   0.391  13.997  3.0982 -0.2213  1.3679
   76MPD2     C 1158   4.557   1.033  12.389  0.8047 -0.2577 -0.0342
   76MPD2    C1 1159   4.563   1.061  12.255  0.1790  0.3879  0.3067
   76MPD2    C2 1160   4.595   0.953  12.175  0.9803  0.0467  0.4261
   76MPD2    C3 1161   4.628   0.827  12.221 -0.0860  0.3674 -0.0763
   76MPD2    C4 1162   4.626   0.800  12.355 -0.4016 -0.6277 -0.1353
   76MPD2    C5 1163   4.586   0.904  12.439  0.3982  0.8275  0.3987
   76MPD2     H 1164   4.596   0.973  12.069  3.6660 -1.5436  0.1500
   76MPD2    H1 1165   4.644   0.704  12.401 -1.3413 -0.8595 -0.2630
   76MPD2    H2 1166   4.527   1.104  12.465 -1.2153 -2.9938  1.7194
   76MPD2    H3 1167   4.568   0.892  12.545 -2.1175  1.6872  0.0648
   76MPD2     N 1168   4.672   0.729  12.136 -0.0740 -0.7748  0.3983
   76MPD2    H5 1169   4.707   0.649  12.187  1.8421 -0.5573 -0.5811
   76MPD2    N1 1170   4.535   1.183  12.189  0.2096 -0.3293 -0.0721
   76MPD2    H7 1171   4.536   1.175  12.087  0.6732 -0.8912 -0.0253
   77TCq2    C1 1172   4.679   0.731  12.001  0.9733  0.4573  0.3223
   77TCq2    O2 1173   4.640   0.813  11.920  0.1859  0.3765  0.4748
   77TCq2    C2 1174   4.712   0.601  11.943 -0.4477 -0.2448 -0.0745
   77TCq2    C3 1175   4.651   0.571  11.823  0.2675 -0.5634 -0.5014
   77TCq2    C4 1176   4.717   0.509  11.726  0.5099  0.0590  0.5804
   77TCq2    C5 1177   0.122   0.476  11.746  0.5053  0.3595 -0.0501
   77TCq2    C6 1178   0.176   0.488  11.873 -0.9758  0.1367  0.3082
   77TCq2    C7 1179   0.099   0.534  11.975 -0.6234 -0.1527  0.0430
   77TCq2    C8 1180   0.324   0.502  11.878 -0.7088  0.2721 -0.0341
   77TCq2    O4 1181   0.382   0.449  11.783 -0.2881  0.2889  0.2497
   77TCq2    C9 1182   4.654   0.501  11.593 -0.7205  0.1979 -0.4954
   77TCq2    O5 1183   4.541   0.555  11.573 -0.1230 -1.0108  0.0983
   77TCq2    O6 1184   4.721   0.435  11.509  0.2097 -0.2236 -0.2706
   77TCq2    H2 1185   4.555   0.614  11.798 -0.1169 -1.1366  0.0049
   77TCq2    H3 1186   0.169   0.445  11.654 -0.4821 -1.0583 -0.0641
   77TCq2    H4 1187   0.151   0.567  12.065  1.7290  0.1000 -1.3897
   78MPD1     C 1188   1.684   0.263   2.289 -0.1035 -0.5645  0.5499
   78MPD1    C1 1189   1.684   0.269   2.425 -0.4483  0.2631  0.1059
   78MPD1    C2 1190   1.795   0.234   2.493  0.2577  0.4043  0.1094
   78MPD1    C3 1191   1.905   0.186   2.431 -0.4536 -0.1253  0.8293
   78MPD1    C4 1192   1.902   0.165   2.297  0.7403 -0.0943  0.1768
   78MPD1    C5 1193   1.789   0.208   2.224  0.3706  0.7687 -0.0310
   78MPD1     H 1194   1.791   0.254   2.599 -1.6276  0.5981  0.0060
   78MPD1    H1 1195   1.987   0.124   2.243  1.2821  2.2976 -0.7910
   78MPD1    H2 1196   1.596   0.306   2.244  0.5790 -1.2766 -1.4528
   78MPD1    H3 1197   1.783   0.201   2.116 -1.1550  1.7227 -0.0059
   78MPD1     N 1198   2.021   0.139   2.501  0.0705 -0.0935  0.4284
   78MPD1    H5 1199   2.101   0.098   2.455 -0.1546 -0.0288 -0.0171
   78MPD1    N1 1200   1.584   0.341   2.500  0.2714 -0.5664  0.1559
   78MPD1    H6 1201   1.498   0.357   2.447  1.8156  0.8787 -1.8773
   78MPD1    H7 1202   1.559   0.284   2.581  1.7357 -0.7110  0.5079
   79TCq2    C1 1203   2.032   0.128   2.634 -0.7123  0.3647 -0.0479
   79TCq2    O2 1204   1.944   0.134   2.723 -0.0988 -0.7653  0.1213
   79TCq2    C2 1205   2.172   0.100   2.682  0.0847  0.3009  0.8803
   79TCq2    C3 1206   2.170   0.072   2.819  0.2019  0.1596 -0.0431
   79TCq2    C4 1207   2.282   0.099   2.895  0.3585 -0.0827 -0.2997
   79TCq2    C5 1208   2.398   0.154   2.833  0.2438  0.1027 -0.2737
   79TCq2    C6 1209   2.392   0.174   2.692  0.0513 -0.2835  0.5663
   79TCq2    C7 1210   2.279   0.147   2.613 -0.0763 -0.0892 -0.6410
   79TCq2    C8 1211   2.509   0.221   2.625 -0.4262 -0.6134 -0.0904
   79TCq2    O4 1212   2.516   0.187   2.507  0.7543  0.8881  0.0946
   79TCq2    C9 1213   2.297   0.055   3.031 -0.3927 -1.2521  0.7623
   79TCq2    O5 1214   2.218   4.695   3.060  0.2112  0.9502 -0.0150
   79TCq2    O6 1215   2.405   0.082   3.089  0.3160 -0.1677  0.1280
   79TCq2    H2 1216   2.082   0.038   2.873 -0.6859  0.3499 -1.3806
   79TCq2    H3 1217   2.487   0.177   2.890  1.3391  0.0572 -1.9726
   79TCq2    H4 1218   2.281   0.160   2.506  1.1844 -1.6872 -0.8032
   80MPD2     C 1219   3.614   0.987  12.088  0.4955 -0.1437 -0.3010
   80MPD2    C1 1220   3.599   0.950  11.954 -0.1645  0.4892 -0.1738
   80MPD2    C2 1221   3.473   0.942  11.894  0.2953 -0.6698  0.0500
   80MPD2    C3 1222   3.362   0.959  11.975  0.0028  0.1407  0.6074
   80MPD2    C4 1223   3.374   1.002  12.110  0.0116 -0.5348 -1.1849
   80MPD2    C5 1224   3.501   1.020  12.159 -0.4757 -0.1113 -1.3122
   80MPD2     H 1225   3.471   0.902  11.794  0.3241  0.0681 -0.2489
   80MPD2    H1 1226   3.290   1.023  12.175 -0.7249 -0.1372 -2.2608
   80MPD2    H2 1227   3.709   0.996  12.139  0.1544  0.2608  0.2653
   80MPD2    H3 1228   3.513   1.045  12.264  1.6455 -1.1533 -1.3034
   80MPD2     N 1229   3.239   0.921  11.926  0.0216  0.3962  0.1314
   80MPD2    H5 1230   3.168   0.915  11.998  0.5493  0.1894  0.6368
   80MPD2    N1 1231   3.711   0.905  11.877 -0.4001 -0.2294  0.1021
   80MPD2    H7 1232   3.694   0.863  11.786 -1.3463 -1.5346  0.8802
   81TCq2    C1 1233   3.841   0.895  11.932  0.6211 -0.7703  0.2754
   81TCq2    O2 1234   3.906   0.973  11.997 -0.1440 -0.6656  0.5369
   81TCq2    C2 1235   3.905   0.782  11.881 -0.0210 -0.1229 -0.4135
   81TCq2    C3 1236   4.035   0.793  11.840  0.0680  0.3066  0.4553
   81TCq2    C4 1237   4.074   0.694  11.755  0.1205  0.3611 -0.4958
   81TCq2    C5 1238   3.991   0.590  11.713  0.0362 -0.0920 -0.0649
   81TCq2    C6 1239   3.871   0.573  11.777 -0.2212 -0.4126 -0.1255
   81TCq2    C7 1240   3.823   0.675  11.849 -0.5665 -0.6714  1.2343
   81TCq2    C8 1241   3.799   0.448  11.769 -0.1426 -0.5986  0.7470
   81TCq2    O4 1242   3.842   0.364  11.692 -0.4810 -0.3458 -0.0495
   81TCq2    C9 1243   4.208   0.710  11.690 -0.6049 -0.7886  0.1589
   81TCq2    O5 1244   4.248   0.626  11.600 -0.1305 -0.0504  0.0728
   81TCq2    O6 1245   4.282   0.800  11.734 -0.0370  0.2117  0.1924
   81TCq2    H2 1246   4.091   0.885  11.858  0.0866 -0.4671  4.4804
   81TCq2    H3 1247   4.027   0.518  11.641 -0.6556  1.0733 -1.5574
   81TCq2    H4 1248   3.723   0.668  11.890 -1.2784  2.0895 -0.0441
   82MPD2     C 1249   2.001   0.179  10.720 -0.5739 -0.4399  0.6518
   82MPD2    C1 1250   1.990   0.044  10.739  0.2058 -0.4393 -0.4760
   82MPD2    C2 1251   2.002   4.725  10.870 -0.8020 -0.3177  0.0971
   82MPD2    C3 1252   2.010   0.086  10.975  0.2068  0.2675 -0.4568
   82MPD2    C4 1253   2.026   0.220  10.956 -0.3921 -0.5162  0.4104
   82MPD2    C5 1254   2.015   0.261  10.826 -0.5146  0.3905  0.4175
   82MPD2     H 1255   2.004   4.618  10.892 -0.8294 -0.3952 -0.2843
   82MPD2    H1 1256   2.032   0.293  11.036 -2.8034  0.0475  0.0986
   82MPD2    H2 1257   1.979   0.231  10.627  1.5113  0.9515  0.9206
   82MPD2    H3 1258   2.010   0.369  10.816 -1.6829  0.5430  2.7347
   82MPD2     N 1259   2.020   0.045  11.111  0.0773  0.3260 -0.1702
   82MPD2    H5 1260   2.013   0.122  11.178  1.0141 -0.4767  0.8526
   82MPD2    N1 1261   1.946   4.692  10.631  0.1361 -0.1885 -0.0319
   82MPD2    H7 1262   1.919   0.021  10.550  1.2074 -1.5849 -1.3264
   83TCq2    C1 1263   1.999   4.641  11.157 -0.3042  0.6508  0.0228
   83TCq2    O2 1264   1.983   4.537  11.095  0.1389  0.8456 -0.2534
   83TCq2    C2 1265   2.033   4.626  11.302  0.7344  0.3697 -0.7211
   83TCq2    C3 1266   2.132   4.705  11.355 -0.0936  0.3003 -0.2553
   83TCq2    C4 1267   2.167   4.683  11.489  0.5378  0.1623 -0.1389
   83TCq2    C5 1268   2.111   4.577  11.560  0.5069 -0.0749 -0.5686
   83TCq2    C6 1269   2.014   4.503  11.498 -0.7166  0.0774 -0.0190
   83TCq2    C7 1270   1.979   4.521  11.374  0.6839 -0.1385 -0.4519
   83TCq2    C8 1271   1.951   4.398  11.578  0.1002 -0.9215 -0.2605
   83TCq2    O4 1272   1.957   4.404  11.701  0.0574  0.1778  0.2229
   83TCq2    C9 1273   2.278   0.027  11.548  0.4576  0.7708  0.5814
   83TCq2    O5 1274   2.298   0.020  11.669 -0.9207  0.3844  0.3816
   83TCq2    O6 1275   2.349   0.090  11.463  0.4525  0.6352  0.3820
   83TCq2    H2 1276   2.190   0.051  11.298  0.0268 -0.6074 -1.2791
   83TCq2    H3 1277   2.143   4.551  11.660  0.3308 -1.2961 -0.8186
   83TCq2    H4 1278   1.903   4.459  11.327 -1.1706  1.1331  0.8743
   84TCq2    C1 1279   3.343   3.832  11.002 -0.1001 -0.5456 -0.0506
   84TCq2    O2 1280   3.319   3.947  10.970  0.0075  0.5724  0.2417
   84TCq2    C2 1281   3.328   3.791  11.140 -0.6948 -0.1657 -0.1674
   84TCq2    C3 1282   3.331   3.660  11.170 -0.0488  0.9322 -0.1359
   84TCq2    C4 1283   3.307   3.628  11.299 -0.1691  0.6498  0.3936
   84TCq2    C5 1284   3.274   3.722  11.392  0.0139 -0.0000 -0.6957
   84TCq2    C6 1285   3.266   3.854  11.354  0.2378  0.5376  0.3402
   84TCq2    C7 1286   3.294   3.893  11.226  0.4632  0.0818  0.5670
   84TCq2    C8 1287   3.205   3.948  11.454 -1.2668 -0.6674  0.8317
   84TCq2    O4 1288   3.138   3.895  11.539 -0.3509 -0.4350 -0.4191
   84TCq2    C9 1289   3.283   3.485  11.323  0.4093 -0.2171  0.2575
   84TCq2    O5 1290   3.303   3.398  11.231  0.6469 -0.2933 -0.1290
   84TCq2    O6 1291   3.247   3.460  11.445 -0.3464 -0.2591 -0.0863
   84TCq2    H2 1292   3.334   3.583  11.093  0.3496  2.0442 -1.2331
   84TCq2    H3 1293   3.237   3.686  11.487  0.1362  2.4356  0.2830
   84TCq2    H4 1294   3.283   3.989  11.177  0.8355  0.5902  1.4782
   85MPD2     C 1295   3.485   2.038  16.476  0.1803 -0.4863 -0.1686
   85MPD2    C1 1296   3.564   1.972  16.381  0.3868  0.1266  0.7091
   85MPD2    C2 1297   3.677   2.039  16.323  0.0348 -0.3165  0.1283
   85MPD2    C3 1298   3.707   2.163  16.372  0.2881 -0.0805  0.0703
   85MPD2    C4 1299   3.638   2.216  16.478  0.0622 -0.7150 -0.4122
   85MPD2    C5 1300   3.527   2.156  16.531 -0.8802  0.8895  0.4453
   85MPD2     H 1301   3.726   1.997  16.236 -2.1107 -0.2398 -1.1131
   85MPD2    H1 1302   3.669   2.309  16.525  1.6698 -0.9266 -1.0231
   85MPD2    H2 1303   3.386   2.008  16.507  0.0979  0.4028  0.4368
   85MPD2    H3 1304   3.475   2.190  16.620  1.6655  0.7167  2.0138
   85MPD2     N 1305   3.814   2.232  16.314  0.0622 -0.5333 -0.1434
   85MPD2    H5 1306   3.849   2.204  16.223  2.0303 -2.1689  1.1158
   85MPD2    N1 1307   3.549   1.837  16.356 -0.3203 -0.1649 -0.1672
   85MPD2    H7 1308   3.623   1.804  16.295  2.1844 -0.2236  2.8652
   86TCq2    C1 1309   3.876   2.342  16.370  0.1598 -0.8287 -0.6980
   86TCq2    O2 1310   3.859   2.392  16.477  0.1304  0.0790  0.1640
   86TCq2    C2 1311   3.970   2.412  16.287  0.8940 -0.2089  0.1000
   86TCq2    C3 1312   3.988   2.542  16.313 -0.3431  0.5164 -0.2450
   86TCq2    C4 1313   4.073   2.610  16.224 -0.0024 -0.5206 -0.1328
   86TCq2    C5 1314   4.132   2.550  16.113 -0.9655 -1.2849  0.6931
   86TCq2    C6 1315   4.106   2.420  16.084 -0.5228 -0.4373 -0.5490
   86TCq2    C7 1316   4.028   2.350  16.176 -0.6152  0.5376  0.6500
   86TCq2    C8 1317   4.136   2.372  15.947 -0.0482  0.1850 -0.4137
   86TCq2    O4 1318   4.125   2.247  15.938 -0.0036  0.2055 -0.1383
   86TCq2    C9 1319   4.097   2.753  16.237 -0.3585  1.2937  0.2693
   86TCq2    O5 1320   4.037   2.811  16.331  0.6489  0.1967  0.5731
   86TCq2    O6 1321   4.140   2.818  16.141 -0.1887  0.4732  0.0198
   86TCq2    H2 1322   3.952   2.592  16.402  0.5989  0.1468  0.3548
   86TCq2    H3 1323   4.191   2.612  16.048 -1.7915 -1.5382 -0.2941
   86TCq2    H4 1324   3.992   2.253  16.145  0.2787  1.3863 -3.1793
   87MPD2     C 1325   1.759   4.644   1.136 -0.3299  0.4970  0.2613
   87MPD2    C1 1326   1.866   0.004   1.126 -1.2799  0.0012 -0.0447
   87MPD2    C2 1327   1.857   0.108   1.035  0.5163  0.4059 -0.6700
   87MPD2    C3 1328   1.750   0.122   0.953 -0.5751  0.6248 -0.1203
   87MPD2    C4 1329   1.649   0.026   0.954 -0.3278  0.6912 -0.1091
   87MPD2    C5 1330   1.649   4.653   1.053  0.1533  0.1909  0.1740
   87MPD2     H 1331   1.945   0.172   1.036  0.1353  0.9221 -0.4019
   87MPD2    H1 1332   1.560   0.031   0.892  0.4168 -0.0013 -1.2462
   87MPD2    H2 1333   1.766   4.554   1.195 -0.8937  1.3169  1.5927
   87MPD2    H3 1334   1.577   4.572   1.058  0.7675 -0.3759 -0.0246
   87MPD2     N 1335   1.723   0.239   0.877 -0.5117  0.0310 -0.1337
   87MPD2    H5 1336   1.638   0.239   0.821 -2.2181 -1.9410  2.4413
   87MPD2    N1 1337   1.979   4.703   1.205  0.2770  0.2002 -0.1900
   87MPD2    H7 1338   1.969   4.630   1.274  0.4201  0.0340 -0.3433
   88TCq2    C1 1339   2.100   0.031   1.185  0.0184 -0.0395  0.3434
   88TCq2    O2 1340   2.145   0.074   1.075 -0.3325 -0.0535 -0.1186
   88TCq2    C2 1341   2.201   0.013   1.293  0.3685 -0.2590 -0.0369
   88TCq2    C3 1342   2.162   0.021   1.423 -1.0402 -0.4409 -0.9184
   88TCq2    C4 1343   2.256   0.051   1.520 -0.0191 -0.4744  0.0042
   88TCq2    C5 1344   2.390   0.068   1.480  0.3024  0.3613  0.1737
   88TCq2    C6 1345   2.427   0.058   1.355 -0.7407  0.4359 -0.2698
   88TCq2    C7 1346   2.329   0.038   1.261  1.0167 -0.0132  0.4018
   88TCq2    C8 1347   2.561   0.083   1.304  0.0757 -0.4659  0.5647
   88TCq2    O4 1348   2.582   0.093   1.181 -0.3026 -0.0624  1.0434
   88TCq2    C9 1349   2.214   0.080   1.656  0.3598  0.1427  0.0451
   88TCq2    O5 1350   2.304   0.060   1.745 -0.0194  0.6318 -0.4859
   88TCq2    O6 1351   2.094   0.105   1.672 -0.4071  0.5161 -0.2909
   88TCq2    H2 1352   2.057   0.003   1.442 -0.9171  0.5809  0.6877
   88TCq2    H3 1353   2.458   0.109   1.555  0.8095  0.0231 -0.0984
   88TCq2    H4 1354   2.365   0.046   1.159 -0.0452 -0.0295  0.0247
   89MPD2     C 1355   2.363   2.577   1.846  0.6770 -0.6520 -0.2504
   89MPD2    C1 1356   2.254   2.659   1.834  0.5835 -0.1808 -0.5272
   89MPD2    C2 1357   2.269   2.786   1.789  0.6789  0.3092  0.0467
   89MPD2    C3 1358   2.390   2.840   1.744 -0.1853  0.1959 -0.2951
   89MPD2    C4 1359   2.498   2.751   1.746  0.2159  0.5999  0.1418
   89MPD2    C5 1360   2.488   2.625   1.803 -0.1495 -0.2050 -0.1828
   89MPD2     H 1361   2.175   2.839   1.782 -0.0461 -1.1259 -1.0075
   89MPD2    H1 1362   2.598   2.785   1.724  1.1572 -3.0773 -1.2800
   89MPD2    H2 1363   2.361   2.477   1.888 -1.1047 -1.4620 -2.2684
   89MPD2    H3 1364   2.575   2.560   1.805 -0.7018 -0.8944  1.7019
   89MPD2     N 1365   2.387   2.972   1.690  0.4209 -0.1278 -0.5588
   89MPD2    H5 1366   2.303   3.030   1.690 -0.4173 -1.3371  2.8690
   89MPD2    N1 1367   2.126   2.614   1.865 -0.2103 -0.0722  0.1518
   89MPD2    H7 1368   2.048   2.678   1.849 -0.5655 -0.2588  1.2065
   90TCq2    C1 1369   2.493   3.026   1.633 -0.3639  0.5977 -0.4694
   90TCq2    O2 1370   2.595   2.966   1.605  0.3076 -0.3899 -0.1348
   90TCq2    C2 1371   2.475   3.164   1.578 -0.1737  0.2313  0.5630
   90TCq2    C3 1372   2.375   3.239   1.630 -0.3064 -1.1006 -0.4747
   90TCq2    C4 1373   2.378   3.377   1.599  0.4296 -0.3915 -0.5103
   90TCq2    C5 1374   2.473   3.427   1.521  0.1395 -0.1870  0.4260
   90TCq2    C6 1375   2.572   3.340   1.462  0.2079  0.5498 -0.4031
   90TCq2    C7 1376   2.579   3.209   1.508 -0.4696  0.2614  0.9597
   90TCq2    C8 1377   2.646   3.374   1.338  0.6906  0.9421  0.1138
   90TCq2    O4 1378   2.757   3.320   1.325 -0.0271  0.2398 -0.0754
   90TCq2    C9 1379   2.274   3.467   1.649  0.4348 -0.5466  0.9735
   90TCq2    O5 1380   2.269   3.582   1.601  0.4811  0.4098  0.0059
   90TCq2    O6 1381   2.186   3.410   1.718  0.2105  0.4620 -0.5028
   90TCq2    H2 1382   2.301   3.202   1.699  1.0661  0.5436  1.8602
   90TCq2    H3 1383   2.485   3.534   1.522 -0.8408 -0.0671 -0.8163
   90TCq2    H4 1384   2.636   3.144   1.442 -0.1663  2.8748 -1.3307
   91TMC2    C1 1385   3.546   3.317  16.784 -0.5846 -0.8873 -0.2540
   91TMC2    C2 1386   3.573   3.402  16.681  0.5001  0.4923 -0.1134
   91TMC2    C3 1387   3.486   3.413  16.577  0.7665  0.7332 -0.2928
   91TMC2    C4 1388   3.428   3.247  16.790  0.5590  0.5185 -0.7391
   91TMC2    C5 1389   3.340   3.266  16.690  0.4496  0.4941  0.4045
   91TMC2    C6 1390   3.362   3.348  16.582 -0.2804 -0.6265  0.4543
   91TMC2     C 1391   3.634   3.311  16.895  0.3149  0.5082  0.4218
   91TMC2     O 1392   3.602   3.242  16.994 -0.6260  0.5441 -0.1191
   91TMC2     H 1393   3.667   3.455  16.681  0.4834  0.5246  0.5175
   91TMC2    H1 1394   3.419   3.163  16.859 -0.0835 -0.2457 -1.7636
   91TMC2    H2 1395   3.292   3.382  16.507  0.9162  1.0847  0.1119
   91TMC2    C7 1396   3.215   3.203  16.698 -0.0402  0.2841 -0.4280
   91TMC2    C8 1397   3.538   3.479  16.461  0.1734 -0.1722 -0.1786
   91TMC2    O1 1398   3.183   3.176  16.813 -0.1758 -0.5810  0.0583
   91TMC2    O2 1399   3.629   3.562  16.470 -0.0303  0.4615  0.4255
   91TMC2    O5 1400   3.519   3.395  16.359  0.0890  0.1589  0.6225
   91TMC2    H5 1401   3.444   3.332  16.365 -0.6752  1.1718  1.5853
   92MPD2     C 1402   3.872   3.329  17.063  0.5593 -0.3195 -0.1950
   92MPD2    C1 1403   3.880   3.308  16.932 -0.0777 -0.4306  0.0322
   92MPD2    C2 1404   3.994   3.265  16.878  0.1817  0.2390 -0.2300
   92MPD2    C3 1405   4.104   3.230  16.954 -0.2623 -0.3015 -0.3832
   92MPD2    C4 1406   4.094   3.250  17.088  0.3741  0.3757 -0.6837
   92MPD2    C5 1407   3.985   3.307  17.139 -0.5755  0.2445  0.0856
   92MPD2     H 1408   3.991   3.239  16.773  2.3696 -1.1237  0.0406
   92MPD2    H1 1409   4.172   3.233  17.162  1.6051  0.7100 -1.8915
   92MPD2    H2 1410   3.778   3.363  17.105  1.6322  0.0357  1.9037
   92MPD2    H3 1411   3.984   3.318  17.246 -4.5874 -0.0349  0.0664
   92MPD2     N 1412   4.215   3.177  16.878 -0.3110  0.0832 -0.7764
   92MPD2    H5 1413   4.206   3.190  16.778  0.5504  0.8949 -0.7456
   92MPD2    N1 1414   3.766   3.325  16.848  0.1925 -0.1059  0.3912
   92MPD2    H7 1415   3.775   3.325  16.747 -1.7420 -0.5326  0.2185
   93MPD2     C 1416   0.045   2.666  13.726  0.7864 -0.0986  0.2737
   93MPD2    C1 1417   0.145   2.768  13.731  0.6964  0.6351  1.0862
   93MPD2    C2 1418   0.104   2.898  13.744  0.1866  0.8407  0.0731
   93MPD2    C3 1419   4.699   2.935  13.751  0.0282 -0.7571 -0.9827
   93MPD2    C4 1420   4.599   2.836  13.736  0.1054  0.8790  0.2348
   93MPD2    C5 1421   4.640   2.706  13.722  0.1334 -0.2745  0.4958
   93MPD2     H 1422   0.184   2.970  13.754  0.4847  0.5563 -0.2792
   93MPD2    H1 1423   4.491   2.845  13.734 -0.1317 -1.7393  0.1528
   93MPD2    H2 1424   0.057   2.559  13.713  0.6599 -0.2575  1.4913
   93MPD2    H3 1425   4.562   2.631  13.719 -1.0138  0.9252  0.0408
   93MPD2     N 1426   4.663   3.069  13.779  0.0273 -0.5624  0.1610
   93MPD2    H5 1427   0.011   3.138  13.791  0.5674 -0.7511 -1.9049
   93MPD2    N1 1428   0.281   2.736  13.723 -0.4516  0.1811 -0.2418
   93MPD2    H7 1429   0.355   2.805  13.714 -1.3039  1.1604  0.2848
   94TCq2    C1 1430   0.331   2.608  13.703  0.3221 -0.8432  0.1402
   94TCq2    O2 1431   0.269   2.514  13.656  0.3183  0.3264  0.4892
   94TCq2    C2 1432   0.473   2.585  13.716 -0.1227 -0.1145 -0.4459
   94TCq2    C3 1433   0.523   2.467  13.668 -0.1444 -0.0997 -0.0483
   94TCq2    C4 1434   0.655   2.436  13.672  0.0942 -0.1457  0.2740
   94TCq2    C5 1435   0.743   2.523  13.732  0.3025  0.3324  0.2607
   94TCq2    C6 1436   0.701   2.640  13.787  0.2407 -1.0023  0.1513
   94TCq2    C7 1437   0.562   2.675  13.778  0.3845 -0.6230  0.6405
   94TCq2    C8 1438   0.802   2.730  13.851  0.6178 -0.4440 -0.1360
   94TCq2    O4 1439   0.909   2.672  13.869 -0.5438  0.1841 -0.5187
   94TCq2    C9 1440   0.711   2.315  13.625 -0.3318 -0.2757  0.3208
   94TCq2    O5 1441   0.831   2.285  13.655 -0.4880 -0.9657  0.6378
   94TCq2    O6 1442   0.637   2.238  13.558 -0.3964 -0.0817 -0.1600
   94TCq2    H2 1443   0.455   2.394  13.623  1.1765 -1.0089 -0.5708
   94TCq2    H3 1444   0.849   2.501  13.729  0.0851 -0.3550 -2.5202
   94TCq2    H4 1445   0.526   2.765  13.826  1.8309 -0.0543  0.6530
   95TMC2    C1 1446   0.671   0.005  16.447 -0.0812 -0.0015  0.5608
   95TMC2    C2 1447   0.584   0.101  16.494 -0.5972 -0.6869 -0.2837
   95TMC2    C3 1448   0.477   0.047  16.550  0.2857  0.6367 -0.5406
   95TMC2    C4 1449   0.649   4.594  16.450 -1.0458 -0.6796  0.0757
   95TMC2    C5 1450   0.526   4.555  16.484  0.0938  0.0323 -0.7846
   95TMC2    C6 1451   0.434   4.643  16.532  0.3869  0.6123  0.1248
   95TMC2     C 1452   0.756   0.050  16.350 -0.0875  0.3465  0.0250
   95TMC2     O 1453   0.807   0.159  16.361 -0.1377 -0.3141 -0.0087
   95TMC2     H 1454   0.604   0.208  16.500 -0.4697 -0.7116 -0.2710
   95TMC2    H1 1455   0.727   4.518  16.441  1.2133  1.4485  1.7690
   95TMC2    H2 1456   0.345   4.606  16.583  0.7717 -1.4170 -0.6717
   95TMC2    C7 1457   0.483   4.478  16.372 -0.4143  0.0050  0.0473
   95TMC2    C8 1458   0.380   0.144  16.607 -0.2308  0.3244 -0.0399
   95TMC2    O1 1459   0.562   4.444  16.281  0.3113 -0.0003  0.8417
   95TMC2    O2 1460   0.257   0.133  16.602 -0.2299 -0.0996 -0.0403
   95TMC2    O5 1461   0.444   0.187  16.723 -0.8939 -0.3007 -0.5984
   95TMC2    H5 1462   0.535   0.151  16.733 -1.6118 -1.9948 -0.1534
   96MPD2     C 1463   0.876   4.696  15.854  0.4454 -0.5562  0.4030
   96MPD2    C1 1464   0.914   0.077  15.933 -0.2315 -0.3744  1.0575
   96MPD2    C2 1465   0.868   0.079  16.068  0.8209 -0.7482 -0.1438
   96MPD2    C3 1466   0.810   4.691  16.120  0.5261 -0.2932 -0.1300
   96MPD2    C4 1467   0.779   4.583  16.039 -1.1803  0.4441 -0.2244
   96MPD2    C5 1468   0.817   4.583  15.906 -0.0896 -0.4383 -0.3556
   96MPD2     H 1469   0.883   0.163  16.134 -0.5471  0.1592 -0.9858
   96MPD2    H1 1470   0.725   4.496  16.075 -1.0979 -0.0396 -1.2678
   96MPD2    H2 1471   0.901   4.694  15.748 -1.4719  0.3090 -0.0641
   96MPD2    H3 1472   0.806   4.493  15.848 -0.0475 -0.3058 -0.5670
   96MPD2     N 1473   0.756   4.682  16.249  0.4048  0.0993 -0.4460
   96MPD2    H5 1474   0.705   4.596  16.262 -1.5123  1.6032  2.0558
   96MPD2    N1 1475   0.985   0.186  15.877 -0.1241  0.6296 -0.0860
   96MPD2    H7 1476   1.000   0.184  15.777  0.6258 -0.9165  0.0603
   97MPD2     C 1477   3.360   2.261   1.019 -0.4584 -0.0447  0.2691
   97MPD2    C1 1478   3.231   2.256   0.977 -0.3793 -0.5148  0.1274
   97MPD2    C2 1479   3.189   2.338   0.874 -0.0027 -0.1704  0.6752
   97MPD2    C3 1480   3.277   2.425   0.822  0.1432 -0.8296 -0.4709
   97MPD2    C4 1481   3.410   2.429   0.868 -0.0239 -0.4752 -0.0893
   97MPD2    C5 1482   3.450   2.345   0.963  0.1753  0.1132 -0.0139
   97MPD2     H 1483   3.090   2.332   0.831 -0.3397  0.2718  1.3966
   97MPD2    H1 1484   3.483   2.496   0.823  1.8000 -1.1825  1.8106
   97MPD2    H2 1485   3.398   2.187   1.088 -1.7236 -0.7340  0.2063
   97MPD2    H3 1486   3.558   2.344   0.977  0.4488  1.7505 -2.0141
   97MPD2     N 1487   3.225   2.518   0.728  0.9108 -0.1498 -0.4921
   97MPD2    H5 1488   3.125   2.511   0.709  0.9759 -0.2503 -0.7924
   97MPD2    N1 1489   3.152   2.159   1.053  0.5516 -0.3617  0.0370
   97MPD2    H7 1490   3.197   2.133   1.140 -0.0174 -0.0463  0.4246
   98TCq2    C1 1491   3.290   2.615   0.656 -0.3361  0.0417 -0.3940
   98TCq2    O2 1492   3.405   2.650   0.674 -0.6996 -0.2026 -0.6317
   98TCq2    C2 1493   3.196   2.696   0.579  0.2833 -0.2464  0.1381
   98TCq2    C3 1494   3.107   2.620   0.508 -0.7435  0.3438  0.3668
   98TCq2    C4 1495   3.031   2.685   0.416 -0.4861 -0.6960  0.4764
   98TCq2    C5 1496   3.040   2.820   0.389 -0.3249 -0.0555 -0.5903
   98TCq2    C6 1497   3.131   2.890   0.463  0.3366  0.0124  0.6366
   98TCq2    C7 1498   3.210   2.829   0.554 -0.4665 -0.2940 -0.0593
   98TCq2    C8 1499   3.165   3.021   0.412  0.0185 -0.7129  0.0325
   98TCq2    O4 1500   3.270   3.067   0.451  0.1984  0.1118  0.1321
   98TCq2    C9 1501   2.918   2.612   0.356  0.4157  0.0356  0.0131
   98TCq2    O5 1502   2.843   2.666   0.277  0.4590  0.4018  0.1693
   98TCq2    O6 1503   2.907   2.491   0.401 -0.1545  0.2952  0.0313
   98TCq2    H2 1504   3.098   2.513   0.518  2.1369  0.2238  1.8173
   98TCq2    H3 1505   2.957   2.861   0.332 -0.2253  2.6030  1.1851
   98TCq2    H4 1506   3.296   2.879   0.598 -2.1984  1.4722  1.2662
   99MPD2     C 1507   1.836   4.269   2.295  0.3945  0.5179 -0.4705
   99MPD2    C1 1508   1.724   4.324   2.233  0.0514 -0.2930  0.4346
   99MPD2    C2 1509   1.693   4.305   2.100  0.1546 -0.4282  0.3902
   99MPD2    C3 1510   1.766   4.210   2.036 -0.4095  0.6455  1.2212
   99MPD2    C4 1511   1.877   4.156   2.090  0.0305 -0.0967 -0.6436
   99MPD2    C5 1512   1.911   4.185   2.218 -0.0472  0.2551 -0.0993
   99MPD2     H 1513   1.611   4.354   2.049  1.0912  1.6751  0.9052
   99MPD2    H1 1514   1.935   4.077   2.042 -2.4559 -1.5578 -1.2823
   99MPD2    H2 1515   1.859   4.287   2.399 -2.0612  0.3091  0.0986
   99MPD2    H3 1516   1.994   4.137   2.270  1.5784  2.3950 -0.7283
   99MPD2     N 1517   1.731   4.184   1.898  0.0624  0.1779 -0.5787
   99MPD2    H5 1518   1.653   4.242   1.867 -0.0041  0.8009  0.7557
   99MPD2    N1 1519   1.651   4.428   2.302  0.5348  0.1339 -0.6312
   99MPD2    H7 1520   1.558   4.451   2.270  1.3324  0.2248 -2.9006
  100TCq2    C1 1521   1.686   4.484   2.426  0.0618  0.1292  0.2051
  100TCq2    O2 1522   1.780   4.459   2.502 -0.2195  0.4056  0.6114
  100TCq2    C2 1523   1.572   4.565   2.474  0.1020 -0.4823 -0.2900
  100TCq2    C3 1524   1.600   4.634   2.590  0.6969  0.1115  0.8703
  100TCq2    C4 1525   1.512   4.721   2.642  0.7474  0.2918  0.6240
  100TCq2    C5 1526   1.393   0.026   2.574  0.5727  0.4696 -0.6509
  100TCq2    C6 1527   1.383   4.695   2.449 -0.8412  0.1070 -0.2888
  100TCq2    C7 1528   1.465   4.596   2.398 -0.0671  0.3777 -0.4136
  100TCq2    C8 1529   1.272   0.005   2.369 -0.3718 -0.1491  0.1181
  100TCq2    O4 1530   1.244   0.120   2.398  0.1799  0.2248 -0.4265
  100TCq2    C9 1531   1.549   0.070   2.759  0.3668 -0.2387  0.1127
  100TCq2    O5 1532   1.567   0.003   2.866  0.1111 -0.3678 -0.5771
  100TCq2    O6 1533   1.519   0.195   2.762 -0.3288 -0.1667 -0.4061
  100TCq2    H2 1534   1.699   4.629   2.633  0.7167  0.5012  0.8661
  100TCq2    H3 1535   1.330   0.109   2.606  2.3352  2.0200 -1.1948
  100TCq2    H4 1536   1.445   4.571   2.295  0.1494  3.3578 -1.1871
  101MPD2     C 1537   2.312   0.999  12.848  0.5458 -0.2980  0.9323
  101MPD2    C1 1538   2.249   1.067  12.948 -0.0623  0.1773  0.3583
  101MPD2    C2 1539   2.208   1.004  13.067 -0.3692  0.1698  0.5731
  101MPD2    C3 1540   2.226   0.867  13.075 -0.2681 -0.0418  0.1815
  101MPD2    C4 1541   2.290   0.798  12.977 -0.0796  0.6760 -0.6945
  101MPD2    C5 1542   2.336   0.865  12.864 -0.1298  0.2829  0.1036
  101MPD2     H 1543   2.151   1.059  13.141 -1.5611 -0.3818  0.0591
  101MPD2    H1 1544   2.303   0.691  12.990 -0.8242  0.7621  0.8080
  101MPD2    H2 1545   2.334   1.036  12.749  1.5909 -2.7995  0.2318
  101MPD2    H3 1546   2.380   0.816  12.779 -0.4508  0.9470 -0.4436
  101MPD2     N 1547   2.176   0.804  13.196 -1.1382 -0.2562  0.4767
  101MPD2    H5 1548   2.161   0.868  13.273  0.7178 -0.5783  1.0912
  101MPD2    N1 1549   2.222   1.201  12.910 -0.3541 -0.1673 -0.2025
  101MPD2    H7 1550   2.258   1.225  12.818 -0.2807 -4.1978 -1.2424
  102TCq2    C1 1551   2.410   1.594  12.658  0.0363  0.2715 -0.8295
  102TCq2    O2 1552   2.496   1.680  12.643  0.0004  0.0154  0.0516
  102TCq2    C2 1553   2.353   1.568  12.794  0.2531  0.7879  0.2103
  102TCq2    C3 1554   2.322   1.679  12.869 -0.2114 -0.0232  0.3838
  102TCq2    C4 1555   2.247   1.666  12.983  0.7365 -0.5984  0.0631
  102TCq2    C5 1556   2.197   1.545  13.024  0.3074 -0.1616  0.0147
  102TCq2    C6 1557   2.219   1.433  12.942  1.2773  0.4076  0.4845
  102TCq2    C7 1558   2.294   1.448  12.826 -0.1326 -0.7692 -0.1379
  102TCq2    C8 1559   2.178   1.302  12.993 -0.0495  0.1532  0.3975
  102TCq2    O4 1560   2.143   1.288  13.107 -0.2825 -0.4907 -0.2463
  102TCq2    C9 1561   2.227   1.784  13.065  0.2257 -0.1286 -0.7688
  102TCq2    O5 1562   2.158   1.763  13.170  0.2803  0.2951  0.1244
  102TCq2    O6 1563   2.272   1.895  13.020 -0.3509 -0.1367 -0.5471
  102TCq2    H2 1564   2.367   1.775  12.848  0.0619 -0.1406  0.4217
  102TCq2    H3 1565   2.159   1.535  13.125  1.4823 -1.3182  0.3435
  102TCq2    H4 1566   2.317   1.364  12.761 -1.2710 -0.2524 -1.2166
  103TMC2    C1 1567   0.683   0.565  12.577 -0.7108 -0.4062 -0.4332
  103TMC2    C2 1568   0.804   0.508  12.608  0.9931 -0.6683  0.2833
  103TMC2    C3 1569   0.848   0.517  12.737 -1.1546  0.3164 -0.0222
  103TMC2    C4 1570   0.597   0.607  12.667 -0.1759 -0.3776 -0.0082
  103TMC2    C5 1571   0.644   0.608  12.794  0.6631  0.6196 -0.0851
  103TMC2    C6 1572   0.772   0.583  12.832  0.7304  0.0362 -0.1764
  103TMC2     C 1573   0.622   0.525  12.456 -0.4829  0.2878  0.1600
  103TMC2     O 1574   0.500   0.545  12.459  0.0888 -0.1481  0.5658
  103TMC2     H 1575   0.878   0.484  12.532  1.4543 -1.6395  1.0378
  103TMC2    H1 1576   0.499   0.645  12.640  1.0278  1.2211 -2.0331
  103TMC2    H2 1577   0.806   0.581  12.935 -1.5166  2.2089  0.6020
  103TMC2    C7 1578   0.545   0.610  12.901  0.2125  0.4283  0.1169
  103TMC2    C8 1579   0.991   0.509  12.761 -0.3118  0.0015 -0.1693
  103TMC2    O1 1580   0.572   0.644  13.014  1.0592  0.2851 -0.3079
  103TMC2    O2 1581   1.060   0.598  12.807 -0.4713 -0.6883 -0.0185
  103TMC2    O5 1582   1.041   0.392  12.709 -0.2698 -0.6043  0.3772
  103TMC2    H5 1583   0.973   0.322  12.700 -0.9630 -0.2796  3.1534
  104MPD2     C 1584   0.771   0.508  12.118  0.2738  0.6215  0.7693
  104MPD2    C1 1585   0.674   0.515  12.210 -0.3282  0.3427  0.0410
  104MPD2    C2 1586   0.547   0.516  12.168  0.5392 -0.1196 -0.0206
  104MPD2    C3 1587   0.512   0.518  12.033 -0.2730 -0.3184  0.0093
  104MPD2    C4 1588   0.615   0.512  11.942 -0.2334  0.0334 -0.9622
  104MPD2    C5 1589   0.747   0.519  11.981 -0.3995 -0.9250 -0.3813
  104MPD2     H 1590   0.461   0.507  12.234 -0.1169  0.2702 -0.8247
  104MPD2    H1 1591   0.591   0.524  11.837  2.3341  1.7052 -1.3455
  104MPD2    H2 1592   0.873   0.502  12.153  0.5400  0.3743 -0.0595
  104MPD2    H3 1593   0.834   0.527  11.917 -0.1283 -2.2151 -0.1688
  104MPD2     N 1594   0.378   0.523  12.004  0.0635  0.3067  0.5471
  104MPD2    H5 1595   0.321   0.541  12.086  0.2151  3.5425 -0.0459
  104MPD2    N1 1596   0.710   0.510  12.349 -0.3241 -0.3410  0.8726
  104MPD2    H7 1597   0.808   0.521  12.372 -0.6515 -0.3021  2.2768
  105MPD2     C 1598   3.191   0.071   0.155  0.4968  0.2493 -0.4264
  105MPD2    C1 1599   3.066   0.115   0.203 -0.3079  0.8581 -0.0138
  105MPD2    C2 1600   3.056   0.147   0.337 -0.5154 -0.0790 -0.5800
  105MPD2    C3 1601   3.167   0.134   0.424 -0.2041  0.2142 -0.3361
  105MPD2    C4 1602   3.283   0.087   0.372  0.0256 -0.5735 -0.0987
  105MPD2    C5 1603   3.296   0.067   0.239 -0.0693  0.4233  0.3262
  105MPD2     H 1604   2.964   0.183   0.381  0.9643  1.9868  0.8333
  105MPD2    H1 1605   3.363   0.059   0.440  0.4500  1.5874  0.2921
  105MPD2    H2 1606   3.213   0.051   0.051  0.6710  0.4356 -0.4253
  105MPD2    H3 1607   3.381   0.012   0.201  0.2490  1.7511 -0.9261
  105MPD2     N 1608   3.158   0.176   0.560 -0.5727 -0.6916 -0.0054
  105MPD2    H5 1609   3.064   0.202   0.586 -0.0137 -2.5723  3.9125
  105MPD2    N1 1610   2.951   0.128   0.117 -0.7666  0.8587  0.4183
  105MPD2    H7 1611   2.865   0.163   0.159 -1.7486 -0.3513 -0.6242
  106TCq2    C1 1612   3.261   0.189   0.650  0.8790  0.1661  0.0480
  106TCq2    O2 1613   3.380   0.166   0.643  0.0758 -0.3384  0.1169
  106TCq2    C2 1614   3.216   0.278   0.754 -0.0874 -0.6345  0.0698
  106TCq2    C3 1615   3.135   0.384   0.725 -0.3549  0.3326 -0.6953
  106TCq2    C4 1616   3.079   0.456   0.827 -0.7256  0.1487  0.0278
  106TCq2    C5 1617   3.098   0.407   0.960  0.4550  0.5265  0.8213
  106TCq2    C6 1618   3.185   0.304   0.982  0.5264  0.2361 -0.0917
  106TCq2    C7 1619   3.244   0.234   0.878  0.3371 -0.6685  0.6677
  106TCq2    C8 1620   3.167   0.225   1.105 -0.5682  0.2626 -0.1812
  106TCq2    O4 1621   3.266   0.165   1.150  0.3244  0.0942 -0.7461
  106TCq2    C9 1622   2.984   0.561   0.797  0.0848 -0.1504 -0.6823
  106TCq2    O5 1623   2.916   0.610   0.892  0.5172 -0.2630 -0.3931
  106TCq2    O6 1624   2.957   0.589   0.675 -0.1247 -0.1856  0.4092
  106TCq2    H2 1625   3.125   0.416   0.622 -1.8247  1.8334 -0.0858
  106TCq2    H3 1626   3.040   0.453   1.039  2.0226 -0.3964  2.5111
  106TCq2    H4 1627   3.297   0.142   0.899 -1.4193 -1.5941  0.9973
  107TMC2    C1 1628   2.807   4.343  12.237  0.2579 -0.1982  0.1123
  107TMC2    C2 1629   2.868   4.242  12.304 -0.5552  0.0551  0.7023
  107TMC2    C3 1630   2.943   4.159  12.229  0.0685  0.2728  0.2376
  107TMC2    C4 1631   2.828   4.373  12.105 -0.7376 -0.4514  0.2392
  107TMC2    C5 1632   2.906   4.285  12.034 -0.4947  0.7327 -0.7262
  107TMC2    C6 1633   2.958   4.176  12.098  0.6486 -0.1029  0.8129
  107TMC2     C 1634   2.687   4.382  12.294  0.1103 -0.3307 -0.1056
  107TMC2     O 1635   2.630   4.304  12.369  0.3323 -0.1656  0.3230
  107TMC2     H 1636   2.861   4.235  12.412 -0.5853  0.6976  0.7431
  107TMC2    H1 1637   2.797   4.464  12.054 -1.1046  0.3867  1.9767
  107TMC2    H2 1638   3.033   4.115  12.048  0.2340 -0.4951  0.6719
  107TMC2    C7 1639   2.962   4.336  11.912  0.2544  0.2788 -0.2853
  107TMC2    C8 1640   2.944   4.014  12.261  0.4074  0.3448 -0.4935
  107TMC2    O1 1641   2.943   4.457  11.898  0.4564  0.4462 -0.7446
  107TMC2    O2 1642   3.009   3.928  12.203  0.2731 -0.4245 -0.0957
  107TMC2    O5 1643   2.827   4.002  12.324 -0.2529  0.1769 -0.0195
  107TMC2    H5 1644   2.780   4.086  12.341 -1.5636 -0.8518  1.4371
  108MPD2     C 1645   2.483   4.665  12.211 -0.0286  0.2038  0.2235
  108MPD2    C1 1646   2.521   4.558  12.285 -0.2492 -0.1468 -0.3210
  108MPD2    C2 1647   2.442   4.526  12.393 -0.5862 -0.4577 -0.1829
  108MPD2    C3 1648   2.318   4.585  12.410 -0.0548 -0.1871 -0.0867
  108MPD2    C4 1649   2.285   4.693  12.333 -0.4597 -0.3560  0.0227
  108MPD2    C5 1650   2.368   0.005  12.235  0.4834  0.5347 -0.0609
  108MPD2     H 1651   2.476   4.442  12.452 -0.6315 -1.2595 -1.2984
  108MPD2    H1 1652   2.189   0.018  12.339  0.1882  0.9168 -0.3408
  108MPD2    H2 1653   2.536   4.699  12.123 -0.4011  0.8092  0.2342
  108MPD2    H3 1654   2.319   0.074  12.168  2.2564  0.2146 -1.7088
  108MPD2     N 1655   2.238   4.542  12.517 -0.2044 -0.5675  0.0419
  108MPD2    H5 1656   2.139   4.561  12.507  0.2206  0.9097 -1.3974
  108MPD2    N1 1657   2.636   4.497  12.241  0.3029  0.2352 -0.0200
  108MPD2    H7 1658   2.688   4.539  12.165  0.0458  1.0492  0.2576
  109MPD2     C 1659   3.350   0.966   2.409 -0.0180 -0.0013 -0.0479
  109MPD2    C1 1660   3.273   0.987   2.293 -0.0268 -0.4006 -0.0753
  109MPD2    C2 1661   3.324   1.079   2.200  0.2467  0.2435  0.2677
  109MPD2    C3 1662   3.441   1.154   2.229 -0.2058  0.1643  0.1299
  109MPD2    C4 1663   3.503   1.134   2.349 -0.2881  0.0904  0.0121
  109MPD2    C5 1664   3.461   1.037   2.437  0.0804 -0.5018 -0.2709
  109MPD2     H 1665   3.282   1.083   2.100 -2.1616 -1.3024  1.2238
  109MPD2    H1 1666   3.591   1.195   2.367  0.6264 -0.9739 -0.8851
  109MPD2    H2 1667   3.321   0.892   2.483 -0.5332 -0.1053 -0.3520
  109MPD2    H3 1668   3.514   1.027   2.531 -3.0837 -4.6889  1.0331
  109MPD2     N 1669   3.479   1.243   2.128  0.1722 -0.4873  0.1678
  109MPD2    H5 1670   3.421   1.246   2.045 -0.6848  1.1742  0.8227
  109MPD2    N1 1671   3.164   0.901   2.269  0.0450 -0.1130  0.1594
  109MPD2    H7 1672   3.134   0.840   2.344 -0.3128 -0.4448 -0.2555
  110TCq2    C1 1673   3.596   1.314   2.126 -0.1228 -1.1643 -0.1512
  110TCq2    O2 1674   3.686   1.305   2.207  0.3986  0.5641  0.2543
  110TCq2    C2 1675   3.609   1.399   2.012 -0.3969  0.5149  0.0306
  110TCq2    C3 1676   3.734   1.415   1.961  0.1158 -0.2162  0.3271
  110TCq2    C4 1677   3.750   1.484   1.847  0.0552  0.1758 -0.0511
  110TCq2    C5 1678   3.643   1.543   1.781 -0.7104 -0.8844 -0.3928
  110TCq2    C6 1679   3.520   1.526   1.838 -0.0946  0.2830 -0.6497
  110TCq2    C7 1680   3.498   1.448   1.949 -0.3305 -0.5043  0.0135
  110TCq2    C8 1681   3.405   1.591   1.768 -0.1360  0.5715 -0.0761
  110TCq2    O4 1682   3.438   1.657   1.671  0.2607  0.4614 -0.3596
  110TCq2    C9 1683   3.882   1.509   1.790 -0.0019  0.0589  0.5069
  110TCq2    O5 1684   3.982   1.499   1.870 -0.2923  0.2496  0.3944
  110TCq2    O6 1685   3.893   1.568   1.682 -0.1472 -0.2995  0.1410
  110TCq2    H2 1686   3.812   1.366   2.019 -0.2876 -0.5098  0.6168
  110TCq2    H3 1687   3.669   1.606   1.696  1.6122 -1.5256 -0.1536
  110TCq2    H4 1688   3.399   1.430   1.990 -0.0814  0.9814  1.2594
  111TMC2    C1 1689   2.142   1.144  11.466 -0.1711 -0.8177  0.1443
  111TMC2    C2 1690   2.077   1.083  11.571 -0.3779 -0.0278  0.4330
  111TMC2    C3 1691   2.151   1.064  11.688  0.0667 -0.2156  0.9256
  111TMC2    C4 1692   2.258   1.213  11.485  0.5792 -0.4702 -1.0507
  111TMC2    C5 1693   2.324   1.193  11.602 -0.5604 -0.6061 -0.2594
  111TMC2    C6 1694   2.277   1.111  11.701 -0.1577  0.1863  0.1070
  111TMC2     C 1695   2.073   1.188  11.341 -0.0900 -0.4780 -0.8002
  111TMC2     O 1696   2.138   1.240  11.253 -0.5880  0.5163 -0.1273
  111TMC2     H 1697   1.979   1.037  11.567 -1.0252  1.4809 -1.1444
  111TMC2    H1 1698   2.294   1.281  11.409  4.0464 -1.6367 -0.4138
  111TMC2    H2 1699   2.331   1.105  11.794 -2.3711 -0.2007  1.3799
  111TMC2    C7 1700   2.432   1.280  11.635  0.1651 -0.2201 -0.1999
  111TMC2    C8 1701   2.085   0.983  11.787  0.9495 -0.6318 -0.3313
  111TMC2    O1 1702   2.459   1.280  11.753 -0.4048  0.0830 -0.0227
  111TMC2    O2 1703   1.966   0.944  11.795  0.0555 -0.0247 -0.0170
  111TMC2    O5 1704   2.190   0.939  11.864  0.3436 -0.2778  0.0017
  111TMC2    H5 1705   2.279   0.971  11.837  0.2706 -0.0163  0.0696
  112MPD2     C 1706   1.643   1.249  11.060  0.1782  0.5620 -0.1709
  112MPD2    C1 1707   1.777   1.287  11.024 -0.3671  0.4478 -0.4739
  112MPD2    C2 1708   1.877   1.253  11.114 -0.0927  0.5549 -0.1602
  112MPD2    C3 1709   1.850   1.193  11.235 -0.1437 -0.6967 -0.1345
  112MPD2    C4 1710   1.720   1.163  11.271  0.0856 -0.2773  0.7793
  112MPD2    C5 1711   1.622   1.197  11.181  0.3345 -0.0799  0.3779
  112MPD2     H 1712   1.979   1.273  11.085 -0.1950 -0.1143 -0.9666
  112MPD2    H1 1713   1.692   1.129  11.370 -0.1177 -2.4673 -0.0250
  112MPD2    H2 1714   1.557   1.276  10.999 -0.0217  0.9442  0.2797
  112MPD2    H3 1715   1.517   1.190  11.208 -0.2734  1.8880 -1.4289
  112MPD2     N 1716   1.939   1.159  11.345 -0.2113 -0.5965 -0.3682
  112MPD2    H5 1717   1.902   1.118  11.430 -2.5440 -1.8571 -2.0050
  112MPD2    N1 1718   1.800   1.371  10.909 -0.5204  0.0332 -0.1667
  112MPD2    H7 1719   1.891   1.415  10.900 -1.4106  1.5309 -1.6611
  113MPD2     C 1720   1.016   4.129   1.302  0.4533  0.2084  0.7466
  113MPD2    C1 1721   0.958   4.260   1.305 -0.4001  0.1399 -0.0264
  113MPD2    C2 1722   0.838   4.279   1.235 -0.4202  0.7344 -0.3705
  113MPD2    C3 1723   0.779   4.181   1.162 -0.5972 -0.5131  0.1015
  113MPD2    C4 1724   0.833   4.054   1.162 -0.2631  0.0731  1.0215
  113MPD2    C5 1725   0.946   4.027   1.230  0.0561 -0.3100  0.3734
  113MPD2     H 1726   0.797   4.379   1.239 -1.9828  0.0617  0.4931
  113MPD2    H1 1727   0.782   3.979   1.104 -1.1637  1.4518  0.0277
  113MPD2    H2 1728   1.109   4.110   1.353 -0.4558  1.9913  3.0345
  113MPD2    H3 1729   0.989   3.927   1.231  0.7036 -0.0448 -0.8377
  113MPD2     N 1730   0.672   4.199   1.067  0.4269 -0.3263 -0.4334
  113MPD2    H5 1731   0.626   4.115   1.033  0.9107 -1.1753  0.9789
  113MPD2    N1 1732   1.020   4.367   1.366  1.0064 -0.1704 -0.2741
  113MPD2    H7 1733   0.965   4.452   1.369 -0.9787 -1.5081  1.7309
  114TCq2    C1 1734   0.630   4.318   1.019  0.4072  0.3450 -0.0595
  114TCq2    O2 1735   0.652   4.431   1.070 -0.2408 -0.0878 -0.4844
  114TCq2    C2 1736   0.535   4.311   0.911  0.1283 -0.3181  0.1931
  114TCq2    C3 1737   0.478   4.429   0.881 -0.1004 -0.0611  0.1033
  114TCq2    C4 1738   0.366   4.424   0.802  0.9864 -0.1206 -0.6079
  114TCq2    C5 1739   0.320   4.308   0.748 -0.4304 -0.3701 -0.0119
  114TCq2    C6 1740   0.376   4.190   0.787 -0.3634  0.3959 -1.0597
  114TCq2    C7 1741   0.496   4.191   0.861  0.0999  0.7209 -0.8732
  114TCq2    C8 1742   0.315   4.065   0.744 -0.3071 -0.7148  0.4589
  114TCq2    O4 1743   0.248   4.071   0.641 -0.9303  0.0683  0.1658
  114TCq2    C9 1744   0.303   4.543   0.763 -0.5437 -0.2249 -0.4224
  114TCq2    O5 1745   0.375   4.642   0.778 -0.0997  0.0778  0.0729
  114TCq2    O6 1746   0.182   4.541   0.733 -0.4610  0.4325 -0.0476
  114TCq2    H2 1747   0.514   4.526   0.914 -0.3184  0.8942 -2.4275
  114TCq2    H3 1748   0.227   4.317   0.693 -0.0862 -0.0489 -0.5397
  114TCq2    H4 1749   0.547   4.096   0.873  0.4792  0.9928 -0.3436
  115TMC2    C1 1750   1.463   2.382  17.395 -0.5220 -0.1726  0.4919
  115TMC2    C2 1751   1.442   2.349  17.268  0.5082  0.3459 -0.1451
  115TMC2    C3 1752   1.432   2.450  17.176  0.4396  0.1409  0.6127
  115TMC2    C4 1753   1.451   2.512  17.438  0.3532  0.5315  0.1375
  115TMC2    C5 1754   1.443   2.607  17.341 -0.5214 -0.2275 -0.3934
  115TMC2    C6 1755   1.436   2.583  17.208 -0.1871  0.1596  0.5098
  115TMC2     C 1756   1.478   2.266  17.483 -0.0294 -0.3023  0.2840
  115TMC2     O 1757   1.516   2.170  17.419  0.0854 -0.3410  0.7100
  115TMC2     H 1758   1.418   2.249  17.234  2.3467 -0.6903  1.5800
  115TMC2    H1 1759   1.461   2.539  17.543  0.0637 -0.1202  0.3308
  115TMC2    H2 1760   1.416   2.654  17.129  1.8890 -0.2039 -0.3385
  115TMC2    C7 1761   1.445   2.742  17.395 -0.0819  0.9634  0.5594
  115TMC2    C8 1762   1.422   2.404  17.039 -0.1079 -0.1244 -0.6221
  115TMC2    O1 1763   1.451   2.760  17.513 -0.2210  0.1930  0.0009
  115TMC2    O2 1764   1.382   2.294  17.006  0.0060  0.3068 -0.1787
  115TMC2    O5 1765   1.415   2.512  16.961  0.5126  0.1100  0.3967
  115TMC2    H5 1766   1.467   2.585  17.002  1.3724  1.3148 -2.8654
  116MPD2     C 1767   1.531   2.025   0.222  0.3264 -0.0090  0.2578
  116MPD2    C1 1768   1.535   1.975   0.092  0.5017 -0.2954  0.2318
  116MPD2    C2 1769   1.501   2.067  17.698  0.4384  0.3987 -0.0764
  116MPD2    C3 1770   1.474   2.198   0.017 -0.3999 -0.0968 -0.7440
  116MPD2    C4 1771   1.474   2.249   0.141  0.1006 -0.6034 -0.0309
  116MPD2    C5 1772   1.506   2.160   0.239 -0.7396 -0.0177 -0.2984
  116MPD2     H 1773   1.500   2.032  17.595  1.2161 -1.0076  0.3925
  116MPD2    H1 1774   1.446   2.352   0.163 -0.1515 -0.4467 -1.0636
  116MPD2    H2 1775   1.544   1.960   0.308  1.7839  1.4223  1.1310
  116MPD2    H3 1776   1.507   2.188   0.344 -0.7360  2.2810 -0.9237
  116MPD2     N 1777   1.451   2.290  17.616 -0.6359  0.4380  0.6366
  116MPD2    H5 1778   1.427   2.386  17.641  2.2868  0.5241  3.2183
  116MPD2    N1 1779   1.541   1.838   0.058  0.2439 -0.0745 -0.5540
  116MPD2    H7 1780   1.518   1.808  17.669  2.6037 -2.6224 -0.3028
  117TMC2    C1 1781   4.447   3.604  14.325  0.0693 -0.2680 -0.6617
  117TMC2    C2 1782   4.486   3.518  14.423  0.1497 -0.5102  0.3602
  117TMC2    C3 1783   4.590   3.555  14.503 -0.4005  0.5070 -1.1050
  117TMC2    C4 1784   4.533   3.711  14.290  0.1944 -0.5292 -0.2301
  117TMC2    C5 1785   4.643   3.725  14.361  0.3562  0.4092  0.2391
  117TMC2    C6 1786   4.672   3.656  14.467 -0.6963  0.4180  0.7113
  117TMC2     C 1787   4.325   3.587  14.256 -0.5950 -0.3155 -0.1132
  117TMC2     O 1788   4.253   3.498  14.301 -0.7410  0.2079  0.2123
  117TMC2     H 1789   4.419   3.437  14.451  3.0019 -2.7712  0.6886
  117TMC2    H1 1790   4.529   3.743  14.186  1.2419 -2.6245 -0.9194
  117TMC2    H2 1791   0.021   3.689  14.539 -0.0576 -1.0423  0.7139
  117TMC2    C7 1792   4.723   3.844  14.328  0.2965 -0.1815 -0.2912
  117TMC2    C8 1793   4.625   3.468  14.611 -0.2505 -0.4123  0.1766
  117TMC2    O1 1794   4.669   3.937  14.270  0.1341 -0.5483  0.6946
  117TMC2    O2 1795   4.703   3.504  14.700 -0.3829 -0.5939  0.0962
  117TMC2    O5 1796   4.580   3.342  14.602 -0.1137  0.4765 -0.1945
  117TMC2    H5 1797   4.542   3.307  14.519 -0.4463 -0.4262  0.3424
  118MPD2     C 1798   0.357   3.916  14.390  0.3449 -0.7194  0.2087
  118MPD2    C1 1799   0.237   3.921  14.327 -0.0088 -0.3152  0.1830
  118MPD2    C2 1800   0.221   4.015  14.228  0.4847 -0.0452  0.0029
  118MPD2    C3 1801   0.323   4.101  14.189  0.6647 -0.8591  0.1718
  118MPD2    C4 1802   0.445   4.096  14.257 -0.5489  0.4593 -0.4786
  118MPD2    C5 1803   0.454   4.006  14.356  0.1274  0.0793  0.2283
  118MPD2     H 1804   0.124   4.013  14.181  0.4221 -1.2174  0.1823
  118MPD2    H1 1805   0.528   4.161  14.231 -1.7201  2.1960  0.0976
  118MPD2    H2 1806   0.382   3.842  14.465 -0.8309 -0.4323  0.8854
  118MPD2    H3 1807   0.545   4.001  14.415  0.9836 -2.2269 -1.2891
  118MPD2     N 1808   0.317   4.197  14.082  0.4104 -0.0908 -0.8329
  118MPD2    H5 1809   0.389   4.268  14.076 -0.9951  1.4318  0.4787
  118MPD2    N1 1810   0.135   3.826  14.359 -1.4011  0.6539 -0.0818
  118MPD2    H7 1811   0.172   3.757  14.424 -0.2440  0.3113 -1.1071
  119MPD2     C 1812   3.302   0.900  13.827 -0.4487  0.6540 -0.6205
  119MPD2    C1 1813   3.291   0.802  13.927  0.4161  0.0939  0.5202
  119MPD2    C2 1814   3.266   0.674  13.886  0.5308 -1.0144 -0.3872
  119MPD2    C3 1815   3.250   0.637  13.753  0.4788  0.4971  1.0722
  119MPD2    C4 1816   3.276   0.735  13.654  0.4124  0.5556 -0.4022
  119MPD2    C5 1817   3.294   0.870  13.696 -0.0731 -0.7929 -0.1853
  119MPD2     H 1818   3.266   0.598  13.963  1.3865 -0.7598 -0.1406
  119MPD2    H1 1819   3.269   0.719  13.547 -0.8793 -1.9662  0.0591
  119MPD2    H2 1820   3.333   1.002  13.847  0.9529 -0.0394  0.7605
  119MPD2    H3 1821   3.333   0.939  13.622 -1.9302  0.9286  0.4689
  119MPD2     N 1822   3.219   0.506  13.718 -0.8841  0.3273  0.1812
  119MPD2    H5 1823   3.217   0.487  13.618  3.2817  1.3264 -0.1110
  119MPD2    N1 1824   3.297   0.846  14.065 -0.2856  0.7755  0.5354
  119MPD2    H7 1825   3.349   0.933  14.077  1.8426 -0.6026  1.4142
  120TCq2    C1 1826   3.167   0.404  13.796 -0.6065  0.3060  0.3186
  120TCq2    O2 1827   3.129   0.408  13.913 -0.7413  0.4934  0.4496
  120TCq2    C2 1828   3.143   0.285  13.716 -0.0771 -0.0940  1.0175
  120TCq2    C3 1829   3.216   0.268  13.601 -0.2338  0.3941 -0.0810
  120TCq2    C4 1830   3.152   0.192  13.507 -1.0666  0.0198  0.2091
  120TCq2    C5 1831   3.035   0.135  13.524  0.2563  0.2003 -0.1120
  120TCq2    C6 1832   2.968   0.147  13.645  0.0571 -0.2699 -0.7816
  120TCq2    C7 1833   3.025   0.226  13.743  0.0835 -0.1773  0.9591
  120TCq2    C8 1834   2.822   0.133  13.641  0.1726 -0.2690  0.2633
  120TCq2    O4 1835   2.772   0.143  13.529 -0.0589  0.5755  0.5157
  120TCq2    C9 1836   3.227   0.183  13.378 -0.2538  0.3048 -0.0170
  120TCq2    O5 1837   3.173   0.124  13.280  0.2408  0.3657 -0.1162
  120TCq2    O6 1838   3.335   0.249  13.367 -0.5068 -0.1886  0.3828
  120TCq2    H2 1839   3.313   0.310  13.578  1.0119 -1.8632  1.0509
  120TCq2    H3 1840   2.987   0.087  13.439  1.2672  1.1242 -1.2138
  120TCq2    H4 1841   2.964   0.258  13.827 -1.4221  0.0541 -0.2121
  121TMC2    C1 1842   4.288   2.238  13.855 -0.5535  0.2547 -0.0487
  121TMC2    C2 1843   4.307   2.106  13.880  0.3906  0.0369 -0.6062
  121TMC2    C3 1844   4.194   2.043  13.924  0.3687  0.0095 -0.5088
  121TMC2    C4 1845   4.162   2.298  13.836 -0.1709 -0.5471 -0.1425
  121TMC2    C5 1846   4.054   2.218  13.870 -0.5257 -0.5904  0.2236
  121TMC2    C6 1847   4.065   2.097  13.929 -0.2878 -0.7827  0.0863
  121TMC2     C 1848   4.393   2.281  13.770 -0.8040 -0.6380  0.2971
  121TMC2     O 1849   4.506   2.248  13.808  0.5525  0.2588 -0.4872
  121TMC2     H 1850   4.405   2.059  13.870  1.1121  1.4972 -0.4008
  121TMC2    H1 1851   4.151   2.402  13.808 -1.3112 -0.4964  0.5222
  121TMC2    H2 1852   3.980   2.050  13.977 -1.1765  0.2487 -0.4636
  121TMC2    C7 1853   3.925   2.277  13.825 -0.5971 -0.0866  0.1798
  121TMC2    C8 1854   4.207   1.905  13.961  0.1410 -0.1343 -0.8731
  121TMC2    O1 1855   3.911   2.398  13.843  0.0681  0.4339 -0.1532
  121TMC2    O2 1856   4.295   1.846  14.016 -0.1391  0.2257 -0.2251
  121TMC2    O5 1857   4.095   1.841  13.912 -0.1198 -0.3237 -0.0041
  121TMC2    H5 1858   4.058   1.891  13.836 -0.2665  0.3863  0.5285
  122MPD2     C 1859   4.586   2.381  13.574 -0.4126 -0.2067 -0.1239
  122MPD2    C1 1860   4.452   2.406  13.562 -0.2972 -0.2775  0.0904
  122MPD2    C2 1861   4.411   2.470  13.449  0.1707 -0.3367  0.9504
  122MPD2    C3 1862   4.496   2.482  13.334  0.1648  0.8059  0.1652
  122MPD2    C4 1863   4.632   2.455  13.349 -0.2103 -0.4980 -1.2277
  122MPD2    C5 1864   4.669   2.420  13.477 -0.3707  0.5150  0.3103
  122MPD2     H 1865   4.304   2.485  13.440 -0.1167 -1.7149  2.1305
  122MPD2    H1 1866   4.709   2.490  13.281  1.1528 -0.4349  0.3567
  122MPD2    H2 1867   4.636   2.349  13.665 -1.5245  0.0340  0.5718
  122MPD2    H3 1868   0.045   2.415  13.513 -0.0101  1.1430 -0.6102
  122MPD2     N 1869   4.458   2.529  13.202 -0.4409 -0.0650 -0.5168
  122MPD2    H5 1870   4.530   2.533  13.130  0.0398 -0.7926 -0.0787
  122MPD2    N1 1871   4.358   2.366  13.668 -0.3371  0.0382 -0.3399
  122MPD2    H7 1872   4.261   2.394  13.651 -0.6786 -0.9770 -0.0774
  123MPD2     C 1873   3.215   0.379  10.006  0.7590  0.2302  0.7199
  123MPD2    C1 1874   3.232   0.257   9.945 -0.5789  0.5559 -0.1457
  123MPD2    C2 1875   3.295   0.249   9.823  0.0389  0.7016 -0.1770
  123MPD2    C3 1876   3.373   0.355   9.781  0.2278  0.4327 -0.5324
  123MPD2    C4 1877   3.349   0.480   9.844 -0.5783 -0.1813  0.0615
  123MPD2    C5 1878   3.272   0.492   9.954 -0.1176  0.0606  0.4098
  123MPD2     H 1879   3.308   0.152   9.776 -3.2373  0.6845 -1.0136
  123MPD2    H1 1880   3.410   0.565   9.818 -0.7838 -0.6874 -2.0345
  123MPD2    H2 1881   3.153   0.384  10.095  0.0352 -0.8982  0.2808
  123MPD2    H3 1882   3.265   0.587  10.005  2.0897  0.7986 -0.6597
  123MPD2     N 1883   3.453   0.338   9.664  0.1974 -0.2021  0.6882
  123MPD2    H5 1884   3.440   0.248   9.619 -2.1610  1.1504 -1.3273
  123MPD2    N1 1885   3.181   0.150  10.020 -0.5224  0.4664  0.5418
  123MPD2    H7 1886   3.128   0.176  10.102 -2.5021 -2.1074  0.1202
  124TCq2    C1 1887   3.532   0.429   9.607  0.3242  0.6603 -0.3814
  124TCq2    O2 1888   3.519   0.549   9.603  0.3530  0.0325  0.0402
  124TCq2    C2 1889   3.637   0.375   9.515  0.1128 -0.3269 -1.1019
  124TCq2    C3 1890   3.684   0.452   9.414  0.0732  0.2179 -0.1625
  124TCq2    C4 1891   3.793   0.404   9.341 -0.1043 -0.4232 -0.2120
  124TCq2    C5 1892   3.832   0.275   9.352 -0.4285  0.8409 -0.7689
  124TCq2    C6 1893   3.774   0.196   9.448 -0.2128 -0.0940 -0.3847
  124TCq2    C7 1894   3.679   0.248   9.536  0.1010  0.2927 -0.3546
  124TCq2    C8 1895   3.852   0.087   9.500  0.4053  0.1877  0.1810
  124TCq2    O4 1896   3.802   0.010   9.584  0.0740  0.1027 -0.0382
  124TCq2    C9 1897   3.841   0.492   9.245 -0.0349  0.0401 -0.3164
  124TCq2    O5 1898   3.939   0.454   9.178  0.3100  0.3115  0.4519
  124TCq2    O6 1899   3.794   0.610   9.253  0.1622 -0.2453 -0.1874
  124TCq2    H2 1900   3.638   0.549   9.400  2.7971  1.3764 -1.1399
  124TCq2    H3 1901   3.910   0.242   9.284 -0.4576 -1.1210  0.1512
  124TCq2    H4 1902   3.637   0.184   9.613 -1.1959  1.2973 -0.2345
  125TMC2    C1 1903   3.420   2.409   8.616  0.4184 -0.2613 -0.1931
  125TMC2    C2 1904   3.360   2.357   8.503  0.4655  0.4354 -0.0421
  125TMC2    C3 1905   3.321   2.226   8.504 -0.1916 -0.0705 -1.1440
  125TMC2    C4 1906   3.460   2.325   8.718 -0.0237 -0.2680  0.0761
  125TMC2    C5 1907   3.435   2.189   8.710 -0.1891  0.0877 -0.6101
  125TMC2    C6 1908   3.367   2.137   8.602  0.8855 -0.1204 -1.0081
  125TMC2     C 1909   3.415   2.553   8.630  0.2965 -0.0449  0.5777
  125TMC2     O 1910   3.396   2.617   8.530  0.6057  0.3054 -0.9339
  125TMC2     H 1911   3.330   2.412   8.415 -0.0065 -1.1993 -0.8906
  125TMC2    H1 1912   3.512   2.371   8.802 -0.4411 -0.0355  0.2064
  125TMC2    H2 1913   3.353   2.031   8.588  1.6128 -0.3363 -0.0486
  125TMC2    C7 1914   3.480   2.104   8.814  0.4993 -0.9590  0.1437
  125TMC2    C8 1915   3.286   2.171   8.376  0.1711  0.7650 -0.6402
  125TMC2    O1 1916   3.513   1.992   8.779 -0.3294 -0.0359  0.0262
  125TMC2    O2 1917   3.223   2.068   8.361 -0.2974  0.2152 -0.3642
  125TMC2    O5 1918   3.389   2.202   8.293  0.5651  0.1885 -0.1590
  125TMC2    H5 1919   3.437   2.283   8.320 -1.8135  1.1391  1.1928
  126MPD1     C 1920   3.264   2.974   8.872  0.1523 -0.2400  0.3737
  126MPD1    C1 1921   3.231   2.870   8.949  0.6551  0.7157  0.0134
  126MPD1    C2 1922   3.282   2.749   8.910 -0.1686  0.3549  0.2960
  126MPD1    C3 1923   3.344   2.728   8.789  0.1987  0.1352  0.6716
  126MPD1    C4 1924   3.372   2.841   8.708  0.0362 -0.3008 -0.3191
  126MPD1    C5 1925   3.325   2.962   8.752 -0.0422 -0.7710  0.3894
  126MPD1     H 1926   3.268   2.672   8.984 -0.4665  1.1022  1.0127
  126MPD1    H1 1927   3.417   2.831   8.610  1.5826 -1.9383  0.5511
  126MPD1    H2 1928   3.238   3.077   8.894  2.4379  0.3917  0.1581
  126MPD1    H3 1929   3.332   3.049   8.688 -0.7033 -0.0991  1.2416
  126MPD1     N 1930   3.381   2.594   8.757  0.1057 -0.3713  0.0923
  126MPD1    H5 1931   3.351   2.523   8.823 -2.1134 -2.2311 -2.8853
  126MPD1    N1 1932   3.196   2.893   9.084  0.1645  0.5555 -0.3292
  126MPD1    H6 1933   3.134   2.973   9.096 -0.2820  0.2169 -0.3628
  126MPD1    H7 1934   3.149   2.810   9.121 -0.4530  1.4120  0.7744
  127MPD2     C 1935   0.094   0.412   9.243 -0.7011 -0.6819 -0.3108
  127MPD2    C1 1936   0.146   0.393   9.371  0.1757 -0.2157 -0.3196
  127MPD2    C2 1937   0.163   0.505   9.451 -0.3601 -0.1982  0.2247
  127MPD2    C3 1938   0.119   0.629   9.415  0.2662 -1.3829  0.1945
  127MPD2    C4 1939   0.068   0.641   9.284 -0.2147  0.4638 -0.4839
  127MPD2    C5 1940   0.070   0.538   9.199 -0.3687 -0.2555  0.0536
  127MPD2     H 1941   0.226   0.507   9.540 -0.2797  0.1173  0.1578
  127MPD2    H1 1942   0.048   0.738   9.240 -1.4052 -0.0778 -1.1468
  127MPD2    H2 1943   0.074   0.334   9.171 -0.7426 -0.8589 -0.1052
  127MPD2    H3 1944   0.019   0.555   9.105  2.2376 -2.9790 -1.8442
  127MPD2     N 1945   0.127   0.734   9.510  0.0962  0.5044  0.0356
  127MPD2    H5 1946   0.163   0.716   9.603 -0.8603 -0.2109  0.2644
  127MPD2    N1 1947   0.170   0.263   9.420  0.1108  0.1826  0.2081
  127MPD2    H7 1948   0.136   0.189   9.360 -0.6579 -0.6846  1.7262
  128TCq2    C1 1949   0.221   0.234   9.543 -0.5436 -1.0942  0.1358
  128TCq2    O2 1950   0.245   0.312   9.635 -0.6372  0.2365 -0.8154
  128TCq2    C2 1951   0.226   0.091   9.576  0.5357  0.0186  0.0346
  128TCq2    C3 1952   0.221   0.059   9.710  0.0375 -0.2122 -0.4389
  128TCq2    C4 1953   0.202   4.656   9.742  0.0741  0.5305  0.6201
  128TCq2    C5 1954   0.187   4.558   9.648  0.0061 -0.2750  0.1846
  128TCq2    C6 1955   0.185   4.594   9.518  0.4705 -0.9713  0.1659
  128TCq2    C7 1956   0.210   4.719   9.481  0.5328  0.3177  0.5742
  128TCq2    C8 1957   0.086   4.531   9.423 -0.5763 -0.2427  0.1731
  128TCq2    O4 1958   0.115   4.528   9.307 -0.0086 -0.1368 -0.0320
  128TCq2    C9 1959   0.213   4.627   9.885 -0.3138 -0.0509  0.2911
  128TCq2    O5 1960   0.232   4.724   9.965 -0.0578 -0.0522  0.0089
  128TCq2    O6 1961   0.200   4.505   9.923  0.3075 -0.3012 -0.3002
  128TCq2    H2 1962   0.253   0.138   9.778 -2.5429 -1.2769  2.0277
  128TCq2    H3 1963   0.151   4.460   9.676  0.4533 -0.2462  0.8623
  128TCq2    H4 1964   0.215   0.011   9.374  0.1437  1.2867  0.7151
  129MPD2     C 1965   3.425   0.749   2.114  0.5004  0.2786  0.4122
  129MPD2    C1 1966   3.559   0.786   2.143  0.1239  0.1097 -0.7885
  129MPD2    C2 1967   3.621   0.893   2.072 -0.1246 -0.0721 -0.0691
  129MPD2    C3 1968   3.565   0.939   1.961  0.7050  0.1476  0.6156
  129MPD2    C4 1969   3.439   0.887   1.926 -0.0740 -1.1079 -0.1277
  129MPD2    C5 1970   3.365   0.803   2.004  0.2281 -0.1008 -0.0337
  129MPD2     H 1971   3.721   0.921   2.103 -0.7363  1.4991  0.4854
  129MPD2    H1 1972   3.388   0.918   1.835 -4.2044  0.6442  2.7983
  129MPD2    H2 1973   3.375   0.671   2.171  1.6291 -0.4318  0.4352
  129MPD2    H3 1974   3.265   0.771   1.979  0.1758 -0.1547  0.2446
  129MPD2     N 1975   3.641   1.022   1.882 -0.1559 -0.2278 -0.1061
  129MPD2    H5 1976   3.731   1.053   1.917 -0.2948 -1.7982  1.6302
  129MPD2    N1 1977   3.618   0.745   2.266 -0.8455 -0.0093 -0.3384
  129MPD2    H7 1978   3.691   0.802   2.307 -1.3051 -0.5944  1.2961
  130TCq2    C1 1979   3.577   0.644   2.344 -0.6753 -0.1626  0.3393
  130TCq2    O2 1980   3.518   0.552   2.295  0.3893 -0.1905  0.2315
  130TCq2    C2 1981   3.638   0.645   2.478 -0.6873  1.0184 -0.5710
  130TCq2    C3 1982   3.689   0.756   2.536 -0.4483  0.3206  0.2909
  130TCq2    C4 1983   3.661   0.775   2.669  0.7586  0.4794 -0.6659
  130TCq2    C5 1984   3.584   0.686   2.747  0.4750  0.4649 -0.2994
  130TCq2    C6 1985   3.550   0.570   2.685  0.3368  0.2878  0.3466
  130TCq2    C7 1986   3.575   0.551   2.555  0.1887  0.0406 -0.2341
  130TCq2    C8 1987   3.447   0.485   2.745  0.1573  0.0383 -0.8578
  130TCq2    O4 1988   3.340   0.490   2.681 -0.0171  0.4078  0.7983
  130TCq2    C9 1989   3.697   0.897   2.731  0.5832 -1.1012 -0.0309
  130TCq2    O5 1990   3.768   0.981   2.668  0.1669 -0.0347  0.0487
  130TCq2    O6 1991   3.664   0.909   2.854  0.2500  0.8588  0.0434
  130TCq2    H2 1992   3.746   0.831   2.484 -1.9837  0.6582 -0.9027
  130TCq2    H3 1993   3.561   0.709   2.850  1.7649 -0.2409  0.1557
  130TCq2    H4 1994   3.544   0.457   2.510 -0.5502  0.0445  0.2742
  131MPD2     C 1995   2.561   0.317  10.549 -0.7689  0.1656 -0.0768
  131MPD2    C1 1996   2.680   0.364  10.504 -0.1472  0.6796 -0.3841
  131MPD2    C2 1997   2.762   0.277  10.438 -0.3254 -0.1427 -0.6075
  131MPD2    C3 1998   2.714   0.154  10.392 -0.5317  0.1059 -0.8122
  131MPD2    C4 1999   2.587   0.116  10.430 -0.4323  0.2938 -1.1532
  131MPD2    C5 2000   2.517   0.195  10.513 -0.4090 -0.2732  0.0872
  131MPD2     H 2001   2.860   0.309  10.405 -0.2979 -1.0227 -1.3990
  131MPD2    H1 2002   2.558   0.012  10.433 -0.8555  0.4612  0.6039
  131MPD2    H2 2003   2.491   0.375  10.609 -0.4553  0.3051  0.1557
  131MPD2    H3 2004   2.425   0.165  10.562 -1.4568 -0.2314 -1.8608
  131MPD2     N 2005   2.809   0.083  10.309  0.2853 -0.3587 -0.5598
  131MPD2    H5 2006   2.893   0.134  10.284  2.3431 -2.0281  2.7866
  131MPD2    N1 2007   2.725   0.496  10.545 -0.0194 -0.1545  0.0797
  131MPD2    H7 2008   2.660   0.551  10.600  0.4683 -0.2489  0.7549
  132TCq2    C1 2009   3.118   0.947  10.532  0.4831 -0.5252 -0.0000
  132TCq2    O2 2010   3.210   0.886  10.587  0.1702 -0.2038 -0.4576
  132TCq2    C2 2011   2.987   0.888  10.535  0.4847 -0.6741 -0.2630
  132TCq2    C3 2012   2.879   0.968  10.513  0.4461 -0.0428  0.5283
  132TCq2    C4 2013   2.754   0.916  10.501  0.9408 -0.4669 -0.1126
  132TCq2    C5 2014   2.737   0.782  10.525  0.0373 -0.4479 -0.2256
  132TCq2    C6 2015   2.842   0.704  10.563 -0.1731  0.2217 -0.1521
  132TCq2    C7 2016   2.969   0.750  10.570  0.3288  0.5703 -0.0772
  132TCq2    C8 2017   2.844   0.567  10.519 -0.8700 -0.4419 -0.1282
  132TCq2    O4 2018   2.947   0.526  10.465 -0.3364 -0.3266  0.0210
  132TCq2    C9 2019   2.652   1.012  10.480  0.0563  0.3514  0.2650
  132TCq2    O5 2020   2.688   1.135  10.463 -0.5195 -0.4120 -0.4464
  132TCq2    O6 2021   2.529   0.975  10.487  0.5288  0.3461 -0.5065
  132TCq2    H2 2022   2.887   1.075  10.496  3.5634 -0.5917 -1.3753
  132TCq2    H3 2023   2.633   0.754  10.533  0.4225 -1.3247  1.6706
  132TCq2    H4 2024   3.054   0.691  10.599  2.5364  3.5611 -0.4107
  133MPD2     C 2025   1.910   1.589  10.087  0.0331 -0.5354 -0.4285
  133MPD2    C1 2026   2.000   1.596   9.988  0.0556 -1.1383 -0.0221
  133MPD2    C2 2027   2.047   1.484   9.917  0.2027 -0.0270 -0.8184
  133MPD2    C3 2028   1.997   1.359   9.944 -0.4332 -0.5166 -0.0459
  133MPD2    C4 2029   1.906   1.348  10.050  0.5236 -0.0778 -0.8461
  133MPD2    C5 2030   1.870   1.460  10.125 -0.2099 -0.3079  0.1109
  133MPD2     H 2031   2.109   1.495   9.829  1.7808  2.1505  0.5560
  133MPD2    H1 2032   1.860   1.257  10.086 -1.1318  0.8620 -0.5680
  133MPD2    H2 2033   1.871   1.668  10.151  1.6470 -1.4086  1.6388
  133MPD2    H3 2034   1.793   1.443  10.199  0.4969  0.6576  1.0683
  133MPD2     N 2035   2.030   1.240   9.872 -0.6143  0.8056  0.6104
  133MPD2    H5 2036   1.991   1.152   9.903  0.1312 -0.2065 -1.3133
  133MPD2    N1 2037   2.037   1.731   9.951 -0.0421  0.7291  0.4519
  133MPD2    H7 2038   1.998   1.808  10.004 -0.4389 -0.4465  1.9049
  134TCq2    C1 2039   2.130   1.768   9.856  0.5408 -0.4047  0.0598
  134TCq2    O2 2040   2.198   1.701   9.781 -0.7166 -0.7318  0.5862
  134TCq2    C2 2041   2.142   1.915   9.832  0.0732  0.2284  0.3551
  134TCq2    C3 2042   2.230   1.957   9.739 -0.1793  0.3112  0.4758
  134TCq2    C4 2043   2.245   2.091   9.720 -0.7896 -0.3298 -0.4808
  134TCq2    C5 2044   2.177   2.184   9.793 -0.0403  0.2184 -0.2306
  134TCq2    C6 2045   2.096   2.132   9.896 -0.1815  0.1270 -0.4888
  134TCq2    C7 2046   2.079   1.998   9.915  0.1702 -0.6214  0.6609
  134TCq2    C8 2047   2.063   2.221  10.005 -0.5863 -0.0689 -0.0290
  134TCq2    O4 2048   2.009   2.171  10.104  0.0519  0.0738 -0.1552
  134TCq2    C9 2049   2.322   2.139   9.608 -0.1822 -0.1680 -0.7342
  134TCq2    O5 2050   2.314   2.266   9.598  0.4554 -0.1258 -0.5887
  134TCq2    O6 2051   2.378   2.064   9.523 -0.3780 -0.6370  0.3984
  134TCq2    H2 2052   2.279   1.891   9.669 -1.3936  0.6466 -0.7006
  134TCq2    H3 2053   2.186   2.291   9.778  0.9739  0.3387  1.2073
  134TCq2    H4 2054   2.016   1.972   9.999  0.5875 -0.2879  1.0802
  135MPD2     C 2055   4.292   1.989   9.375 -0.1730  0.4557  0.9430
  135MPD2    C1 2056   4.284   1.943   9.248  0.0686 -0.7896  0.2014
  135MPD2    C2 2057   4.355   1.836   9.196 -0.1463 -0.3639  0.0834
  135MPD2    C3 2058   4.447   1.771   9.278 -0.5141 -0.0611  0.6752
  135MPD2    C4 2059   4.456   1.818   9.411 -0.4579  0.2295 -0.3150
  135MPD2    C5 2060   4.376   1.922   9.463 -0.0485 -0.1404  0.9577
  135MPD2     H 2061   4.323   1.783   9.108  4.1197 -1.0384 -1.0763
  135MPD2    H1 2062   4.524   1.769   9.480 -0.7476 -0.0499 -0.2268
  135MPD2    H2 2063   4.237   2.075   9.410 -1.6599 -1.1464  2.5853
  135MPD2    H3 2064   4.390   1.949   9.567 -1.1411  1.0454  0.7957
  135MPD2     N 2065   4.523   1.656   9.245 -0.8084 -0.1128  0.1570
  135MPD2    H5 2066   4.584   1.611   9.312  0.3695 -0.9914 -1.4911
  135MPD2    N1 2067   4.191   2.008   9.166 -0.1834 -0.4447 -0.6395
  135MPD2    H7 2068   4.185   1.983   9.067 -0.2945  0.0683 -0.7606
  136TCq2    C1 2069   4.092   2.097   9.204  0.9266  0.0427 -0.0042
  136TCq2    O2 2070   4.064   2.148   9.309  0.1196  0.3768 -0.2625
  136TCq2    C2 2071   4.010   2.134   9.082 -0.1127  0.5883  0.3314
  136TCq2    C3 2072   4.017   2.076   8.959  0.0174 -0.1561  0.0645
  136TCq2    C4 2073   3.945   2.124   8.849  0.3810  0.4030  0.4216
  136TCq2    C5 2074   3.876   2.242   8.849 -0.1387 -0.7051 -0.2126
  136TCq2    C6 2075   3.865   2.292   8.977 -0.1039  0.5569 -0.7195
  136TCq2    C7 2076   3.931   2.248   9.092  0.2904  0.0730  0.6290
  136TCq2    C8 2077   3.780   2.411   8.989 -0.1904 -0.3551  0.4354
  136TCq2    O4 2078   3.736   2.462   8.892  0.1503  0.2187  0.1042
  136TCq2    C9 2079   3.942   2.048   8.729  0.3085  0.0389 -0.3106
  136TCq2    O5 2080   3.882   2.100   8.631 -0.3243  0.7740 -0.4333
  136TCq2    O6 2081   4.012   1.947   8.728 -0.0760  0.3817  0.1480
  136TCq2    H2 2082   4.057   1.976   8.947 -2.5156 -1.3208  1.5302
  136TCq2    H3 2083   3.831   2.282   8.759 -0.9160  1.1438  1.0045
  136TCq2    H4 2084   3.951   2.315   9.175 -2.2153  1.5866 -0.0032
  137MPD2     C 2085   4.274   1.174   9.930  0.3364 -0.2944 -0.8304
  137MPD2    C1 2086   4.185   1.253   9.867  0.0112 -0.1582 -0.5081
  137MPD2    C2 2087   4.147   1.374   9.928 -0.5455  0.1986  0.2751
  137MPD2    C3 2088   4.217   1.418  10.033 -0.1106 -0.3489 -0.1359
  137MPD2    C4 2089   4.327   1.350  10.087  0.4003 -0.2733 -0.5725
  137MPD2    C5 2090   4.348   1.223  10.042 -1.0003 -0.0791  0.3183
  137MPD2     H 2091   4.065   1.429   9.885  0.8573  0.4508 -2.0702
  137MPD2    H1 2092   4.388   1.385  10.169 -1.7416 -0.2659  1.0125
  137MPD2    H2 2093   4.291   1.074   9.889  0.8905 -1.0701  1.3016
  137MPD2    H3 2094   4.421   1.159  10.090 -0.9853 -0.8710 -0.7672
  137MPD2     N 2095   4.160   1.534  10.092  0.1915  0.0223  0.3349
  137MPD2    H5 2096   4.068   1.552  10.053  1.0269 -0.1543 -1.7166
  137MPD2    N1 2097   4.118   1.217   9.744 -0.0469 -0.5067  0.2006
  137MPD2    H7 2098   4.060   1.290   9.704  1.7422  2.1229  2.4067
  138TCq2    C1 2099   4.138   1.107   9.668 -0.2648  0.1921  0.1639
  138TCq2    O2 2100   4.208   1.010   9.691 -0.3268  0.1819  0.0759
  138TCq2    C2 2101   4.083   1.121   9.532 -0.1144 -0.2102  0.4246
  138TCq2    C3 2102   4.092   1.003   9.457  0.4759 -0.1491  0.4771
  138TCq2    C4 2103   4.031   1.014   9.332 -0.3788  0.2643 -0.1831
  138TCq2    C5 2104   3.963   1.128   9.286  0.2476  0.3288 -0.4668
  138TCq2    C6 2105   3.966   1.240   9.360 -0.0269  0.5837  0.2469
  138TCq2    C7 2106   4.023   1.241   9.489 -0.2923 -0.3621 -0.0993
  138TCq2    C8 2107   3.861   1.344   9.336  0.0139  0.5652  0.1589
  138TCq2    O4 2108   3.830   1.363   9.221 -0.6136  0.5433  0.0157
  138TCq2    C9 2109   4.034   0.901   9.242  0.2706 -0.5564 -0.0670
  138TCq2    O5 2110   3.943   0.902   9.156 -0.4253  0.0008 -0.4745
  138TCq2    O6 2111   4.097   0.799   9.282  0.8597 -0.4052  0.3542
  138TCq2    H2 2112   4.146   0.917   9.493  2.8923  2.0498  2.0728
  138TCq2    H3 2113   3.916   1.125   9.189 -1.3077  1.1263  0.2563
  138TCq2    H4 2114   4.025   1.333   9.546  0.3784 -1.0753  1.0215
  139TMC2    C1 2115   4.164   4.637  13.514 -0.2170 -0.2438  0.0150
  139TMC2    C2 2116   4.070   4.544  13.475 -0.3599  0.7699 -0.2360
  139TMC2    C3 2117   3.962   4.525  13.554 -0.1651 -0.3291 -0.5891
  139TMC2    C4 2118   4.149   4.721  13.618 -0.3334  0.2748  0.2054
  139TMC2    C5 2119   4.040   4.698  13.697  0.4747 -0.6586  0.8895
  139TMC2    C6 2120   3.950   4.600  13.666 -0.6865  0.7636 -0.3897
  139TMC2     C 2121   4.302   4.596  13.477  0.8474 -0.0637 -0.4113
  139TMC2     O 2122   4.308   4.477  13.457  0.0830 -0.0534 -0.0293
  139TMC2     H 2123   4.088   4.489  13.384  2.6094  0.8881  0.2810
  139TMC2    H1 2124   4.218   0.076  13.642  0.4183 -0.7564  1.5759
  139TMC2    H2 2125   3.859   4.581  13.723  0.4125 -1.3373  0.6747
  139TMC2    C7 2126   4.009   0.064  13.799 -0.9173 -0.0401  0.5485
  139TMC2    C8 2127   3.861   4.425  13.529 -0.0749 -0.2102 -0.2150
  139TMC2    O1 2128   3.891   0.086  13.827 -0.3252  0.1930 -0.6554
  139TMC2    O2 2129   3.772   4.391  13.611 -0.2345  0.1647 -0.0164
  139TMC2    O5 2130   3.848   4.419  13.399  0.1991 -0.3870 -0.0069
  139TMC2    H5 2131   3.924   4.446  13.344 -0.9688  0.5457 -1.1434
  140MPD2     C 2132   4.614   0.036  13.515  1.0676  0.9303 -0.8573
  140MPD2    C1 2133   4.530   4.673  13.455 -0.4017  0.2042  0.2971
  140MPD2    C2 2134   4.565   4.572  13.365 -0.3534  0.1550  0.1303
  140MPD2    C3 2135   4.702   4.551  13.354 -0.6099  0.2408  0.1370
  140MPD2    C4 2136   0.065   4.643  13.411 -0.1640 -0.2271 -0.8821
  140MPD2    C5 2137   0.022   0.015  13.499  0.8802 -0.2345 -0.5521
  140MPD2     H 2138   4.498   4.507  13.311  0.6518  0.2615 -1.2655
  140MPD2    H1 2139   0.172   4.638  13.396  0.1452 -0.8355  1.4739
  140MPD2    H2 2140   4.592   0.111  13.590  1.8571  0.1308  0.1783
  140MPD2    H3 2141   0.090   0.090  13.537 -0.3435  1.4205 -1.6046
  140MPD2     N 2142   0.015   4.443  13.276 -0.0697  0.0869 -0.0077
  140MPD2    H5 2143   4.661   4.398  13.232 -0.0427  1.9157 -1.9081
  140MPD2    N1 2144   4.393   4.695  13.485 -0.4100  0.0510 -0.6615
  140MPD2    H7 2145   4.366   0.061  13.518  1.1025  0.3453 -0.2419
  141TCq2    C1 2146   0.535   0.958  14.300 -0.3820  0.2105  0.4790
  141TCq2    O2 2147   0.477   0.855  14.279 -0.1025 -0.2441  0.0220
  141TCq2    C2 2148   0.606   0.983  14.424  0.1964 -0.0515  0.1269
  141TCq2    C3 2149   0.668   0.874  14.475  0.7529  0.4738  0.8975
  141TCq2    C4 2150   0.748   0.882  14.585  0.2800  0.0058  0.1169
  141TCq2    C5 2151   0.793   1.008  14.623  0.1118 -0.6772  0.1103
  141TCq2    C6 2152   0.728   1.119  14.568 -0.3332 -0.2094 -0.5160
  141TCq2    C7 2153   0.634   1.111  14.469  0.7546 -0.3554  0.3309
  141TCq2    C8 2154   0.763   1.249  14.606 -0.0225  0.4431 -0.6001
  141TCq2    O4 2155   0.681   1.336  14.582  0.5267 -0.2067 -0.1595
  141TCq2    C9 2156   0.813   0.763  14.647  0.1329 -0.3159  0.3098
  141TCq2    O5 2157   0.889   0.781  14.741 -0.0928  0.3826 -0.0600
  141TCq2    O6 2158   0.782   0.649  14.601 -0.2139  0.3055  0.5772
  141TCq2    H2 2159   0.647   0.778  14.430  0.0426  1.1180 -0.1286
  141TCq2    H3 2160   0.858   1.017  14.710 -2.6057  1.8470  1.8501
  141TCq2    H4 2161   0.588   1.199  14.426 -0.4773 -0.9197  0.4825
  142MPD2     C 2162   3.645   4.170  10.727 -0.0166 -0.0844  0.1794
  142MPD2    C1 2163   3.624   4.290  10.658  0.1938 -0.1409 -0.0920
  142MPD2    C2 2164   3.707   4.323  10.554 -0.1032 -0.0587  0.1640
  142MPD2    C3 2165   3.807   4.241  10.511 -0.3213  0.0183 -0.2673
  142MPD2    C4 2166   3.826   4.124  10.578  0.1930  0.7616 -0.0619
  142MPD2    C5 2167   3.746   4.082  10.684 -0.1406  0.1058 -0.5745
  142MPD2     H 2168   3.692   4.416  10.499  1.9525  0.2292  0.1035
  142MPD2    H1 2169   3.905   4.058  10.544 -2.2054 -0.3131 -3.5515
  142MPD2    H2 2170   3.580   4.148  10.811 -0.4513  3.8162  0.8837
  142MPD2    H3 2171   3.769   3.988  10.733 -0.4427 -0.1907 -0.9908
  142MPD2     N 2172   3.892   4.273  10.404  0.4860  0.7063  0.5706
  142MPD2    H5 2173   3.963   4.206  10.379  0.2595  0.1068  1.5261
  142MPD2    N1 2174   3.525   4.372  10.707  0.0572 -0.5584 -0.5752
  142MPD2    H7 2175   3.452   4.335  10.767 -0.0558  0.3832 -0.1270
  143TCq2    C1 2176   3.907   4.390  10.339  0.3551  0.1002  0.0878
  143TCq2    O2 2177   3.821   4.476  10.327 -0.0232  0.1315  0.1080
  143TCq2    C2 2178   4.009   4.387  10.232 -0.2014 -0.5507  0.6233
  143TCq2    C3 2179   4.102   4.285  10.239 -0.7464  0.6220 -0.7066
  143TCq2    C4 2180   4.185   4.270  10.126 -0.4799  0.5461 -0.3079
  143TCq2    C5 2181   4.185   4.352  10.016  0.2049 -0.0000 -0.6801
  143TCq2    C6 2182   4.083   4.449  10.018  0.5492 -0.2644  0.0800
  143TCq2    C7 2183   3.990   4.458  10.118 -0.2390  0.1868  0.2985
  143TCq2    C8 2184   4.059   4.539   9.902  0.0759 -0.0084  0.0070
  143TCq2    O4 2185   3.945   4.593   9.902 -0.0245 -0.2523 -0.3321
  143TCq2    C9 2186   4.284   4.167  10.128  0.2802 -0.6310 -0.3429
  143TCq2    O5 2187   4.293   4.102  10.231  0.1641 -0.0063  0.0049
  143TCq2    O6 2188   4.382   4.195  10.059  0.2005 -0.1693  0.1841
  143TCq2    H2 2189   4.103   4.224  10.329  0.7595  1.3422 -0.2325
  143TCq2    H3 2190   4.254   4.325   9.937  0.8675  2.7996 -1.0655
  143TCq2    H4 2191   3.924   4.544  10.111 -0.7501 -0.1941  0.3964
  144MPD2     C 2192   0.737   3.761   0.801  0.0891 -0.1245  0.3282
  144MPD2    C1 2193   0.766   3.627   0.782 -0.4820  0.1400 -0.2801
  144MPD2    C2 2194   0.886   3.572   0.823  0.5165  0.3340 -0.9192
  144MPD2    C3 2195   0.976   3.657   0.897 -0.8062 -0.2720 -0.8234
  144MPD2    C4 2196   0.936   3.785   0.924 -0.3077  0.0299 -0.3731
  144MPD2    C5 2197   0.820   3.839   0.873 -0.3867  0.7905 -0.4140
  144MPD2     H 2198   0.912   3.471   0.794 -0.1323 -0.6564  1.9211
  144MPD2    H1 2199   0.992   3.860   0.979 -1.1479  0.2556  0.1735
  144MPD2    H2 2200   0.644   3.811   0.773  0.0241 -0.7193 -0.5377
  144MPD2    H3 2201   0.818   3.947   0.880 -0.3384  0.7048  1.0312
  144MPD2     N 2202   1.098   3.628   0.948  0.3302  0.2098 -0.8869
  144MPD2    H5 2203   1.145   3.686   1.017 -0.9702  2.5465 -1.9542
  144MPD2    N1 2204   0.669   3.536   0.723 -0.0666 -0.2121 -0.1398
  144MPD2    H7 2205   0.703   3.441   0.716 -1.6886 -0.4174 -4.9946
  145TCq2    C1 2206   1.170   3.512   0.909  0.1297 -0.0644 -0.1415
  145TCq2    O2 2207   1.141   3.427   0.824 -0.0462  0.2654 -0.0231
  145TCq2    C2 2208   1.301   3.510   0.969  0.6066  0.3688 -0.0212
  145TCq2    C3 2209   1.394   3.447   0.894  0.6971 -0.8254 -0.3489
  145TCq2    C4 2210   1.518   3.425   0.949  0.7174  0.6009 -0.4018
  145TCq2    C5 2211   1.553   3.486   1.073  0.8794  0.3538  0.4665
  145TCq2    C6 2212   1.457   3.554   1.140 -0.2321  0.1581 -0.0894
  145TCq2    C7 2213   1.328   3.566   1.091 -0.3952  0.1359 -0.5786
  145TCq2    C8 2214   1.489   3.591   1.279 -0.1005  0.0241  0.7429
  145TCq2    O4 2215   1.590   3.533   1.318  0.1404  0.1031  0.6241
  145TCq2    C9 2216   1.615   3.349   0.873 -0.0406  0.3264 -0.3510
  145TCq2    O5 2217   1.593   3.307   0.756  0.2383  0.1255 -0.2156
  145TCq2    O6 2218   1.718   3.311   0.934 -0.3907 -0.0233  0.2105
  145TCq2    H2 2219   1.374   3.412   0.794  1.8203 -1.4529 -0.3525
  145TCq2    H3 2220   1.656   3.476   1.107  0.8151 -1.0995  0.2280
  145TCq2    H4 2221   1.248   3.614   1.147 -0.4269 -0.2066 -0.3269
  146TMC2    C1 2222   2.451   1.679  11.474  0.2659  0.0074  0.6332
  146TMC2    C2 2223   2.453   1.699  11.341  0.3834  0.6593  0.4066
  146TMC2    C3 2224   2.554   1.775  11.292  0.8915 -0.5526  0.7220
  146TMC2    C4 2225   2.557   1.708  11.552 -0.8726 -0.4403  0.5257
  146TMC2    C5 2226   2.657   1.786  11.502 -0.3107 -0.3911 -0.1628
  146TMC2    C6 2227   2.663   1.817  11.372  0.2076 -0.1898  0.4059
  146TMC2     C 2228   2.329   1.630  11.529  0.1052 -0.2347 -0.3366
  146TMC2     O 2229   2.265   1.561  11.449 -0.4958  0.6958  0.3332
  146TMC2     H 2230   2.367   1.668  11.281 -0.0707 -0.2182  1.5203
  146TMC2    H1 2231   2.558   1.686  11.658 -1.9489 -0.9653  0.4321
  146TMC2    H2 2232   2.736   1.876  11.317  0.3691 -0.8193 -0.0598
  146TMC2    C7 2233   2.781   1.806  11.570 -0.1436 -0.3104 -1.1125
  146TMC2    C8 2234   2.567   1.787  11.150  0.1361 -0.4243  0.8716
  146TMC2    O1 2235   2.879   1.818  11.496 -0.1260 -0.2870  0.2935
  146TMC2    O2 2236   2.675   1.784  11.091 -0.2346 -0.4936  0.3056
  146TMC2    O5 2237   2.449   1.843  11.106 -0.8144 -0.2531 -0.1353
  146TMC2    H5 2238   2.375   1.864  11.167 -0.8668  0.8163 -0.5613
  147MPD2     C 2239   3.056   1.898  11.996  0.0934 -0.2135 -0.0570
  147MPD2    C1 2240   2.922   1.900  12.032 -0.4508 -0.3707  0.2910
  147MPD2    C2 2241   2.826   1.872  11.938 -0.3618 -0.7081  0.2198
  147MPD2    C3 2242   2.865   1.848  11.807  0.6932 -0.9354  0.5717
  147MPD2    C4 2243   2.999   1.848  11.769  0.0295  0.2670  0.0642
  147MPD2    C5 2244   3.092   1.872  11.865  0.0243 -0.0199  0.0596
  147MPD2     H 2245   2.720   1.870  11.960 -0.5642 -0.9734 -0.7642
  147MPD2    H1 2246   3.023   1.818  11.668  1.1829  1.4352 -0.0131
  147MPD2    H2 2247   3.132   1.905  12.073  2.3921  1.1252 -2.4628
  147MPD2    H3 2248   3.197   1.871  11.837 -1.1289 -1.1869 -4.2448
  147MPD2     N 2249   2.765   1.825  11.708  0.1474 -0.5035 -0.3837
  147MPD2    H5 2250   2.669   1.826  11.740 -0.1486 -0.2821 -1.2661
  147MPD2    N1 2251   2.895   1.917  12.168  0.2952  0.7155 -0.1359
  147MPD2    H7 2252   2.974   1.924  12.231 -0.6532  0.8148  1.0464
  148MPD2     C 2253   1.796   0.451  10.037 -0.0105 -0.6198 -0.7176
  148MPD2    C1 2254   1.895   0.401  10.112 -0.1348 -0.1851  0.9943
  148MPD2    C2 2255   1.924   0.270  10.096 -0.5536 -0.2329  0.5842
  148MPD2    C3 2256   1.854   0.194  10.004 -0.6744 -0.0521  0.5553
  148MPD2    C4 2257   1.767   0.250   9.921  0.2875 -0.1920  0.8519
  148MPD2    C5 2258   1.734   0.383   9.942  0.3072  0.6946 -0.4696
  148MPD2     H 2259   2.004   0.225  10.154  1.2417 -0.8401 -2.3034
  148MPD2    H1 2260   1.702   0.186   9.864  0.9979 -0.3496  0.2152
  148MPD2    H2 2261   1.754   0.548  10.060 -1.6071 -1.1005 -1.6275
  148MPD2    H3 2262   1.647   0.422   9.890  1.2199  3.3337 -0.0285
  148MPD2     N 2263   1.872   0.057   9.978  0.1368 -0.3023  0.9424
  148MPD2    H5 2264   1.820   0.010   9.905 -0.5400 -0.7699  1.7224
  148MPD2    N1 2265   1.957   0.465  10.215 -0.3847 -0.1600  0.1152
  148MPD2    H7 2266   2.024   0.411  10.268 -0.3793 -1.2647 -1.0232
  149TCq2    C1 2267   1.933   0.597  10.252 -0.1452 -0.0759  0.7416
  149TCq2    O2 2268   1.874   0.689  10.196  0.1324  0.0804  0.1304
  149TCq2    C2 2269   2.001   0.643  10.372 -0.2213 -0.2347  0.2622
  149TCq2    C3 2270   1.996   0.778  10.401 -0.5311  0.1184  0.4936
  149TCq2    C4 2271   2.044   0.831  10.520  1.2124 -0.0432 -0.3908
  149TCq2    C5 2272   2.103   0.746  10.610 -0.2962 -0.0142 -0.1448
  149TCq2    C6 2273   2.128   0.618  10.573  0.3670 -0.3821  0.0230
  149TCq2    C7 2274   2.070   0.561  10.461  0.2341 -0.1619  0.1488
  149TCq2    C8 2275   2.199   0.517  10.652 -1.0166 -0.8982 -0.1954
  149TCq2    O4 2276   2.223   0.408  10.600 -0.0257 -0.2005  0.0264
  149TCq2    C9 2277   2.087   0.969  10.526 -0.0040 -0.0062  0.1516
  149TCq2    O5 2278   2.091   1.039  10.418  0.5219  0.1595  0.4063
  149TCq2    O6 2279   2.178   0.994  10.614 -0.3305 -0.0963  0.0070
  149TCq2    H2 2280   1.977   0.846  10.318 -3.2025  0.5493  1.4398
  149TCq2    H3 2281   2.162   0.793  10.688  0.7765 -1.1767 -0.2444
  149TCq2    H4 2282   2.081   0.455  10.446  0.5224  0.1228 -1.6098
  150MPD2     C 2283   4.242   0.219  12.340  0.4594  0.1381  0.4263
  150MPD2    C1 2284   4.237   0.212  12.204 -0.1531 -0.4085  0.2725
  150MPD2    C2 2285   4.360   0.229  12.136  0.2006  0.1387  0.4535
  150MPD2    C3 2286   4.484   0.235  12.202  0.2430  0.3437 -0.8228
  150MPD2    C4 2287   4.482   0.257  12.334 -0.7118 -0.3939  0.1691
  150MPD2    C5 2288   4.362   0.246  12.403  0.5401 -0.1784  0.3449
  150MPD2     H 2289   4.370   0.212  12.029  2.6566  2.7905  0.2756
  150MPD2    H1 2290   4.575   0.266  12.389 -2.3425 -3.4825  3.4032
  150MPD2    H2 2291   4.155   0.217  12.405  1.4198 -0.2123  1.7091
  150MPD2    H3 2292   4.360   0.254  12.511 -1.6164 -2.4343  0.4603
  150MPD2     N 2293   4.595   0.215  12.129 -0.2013  0.0740 -0.2462
  150MPD2    H5 2294   4.598   0.198  12.029  0.8990  0.8302 -0.3346
  150MPD2    N1 2295   4.118   0.180  12.134 -0.1618 -0.4335 -0.3016
  150MPD2    H7 2296   4.037   0.187  12.194  0.1883  0.4792  0.0644
  151TCq2    C1 2297   4.724   0.199  12.176 -0.2102 -0.2080  0.2517
  151TCq2    O2 2298   0.051   0.234  12.282  0.4030  0.5532 -0.2027
  151TCq2    C2 2299   0.086   0.155  12.071 -0.6358 -0.8739  0.5815
  151TCq2    C3 2300   0.050   0.149  11.941 -0.2407  0.6229 -0.1400
  151TCq2    C4 2301   0.141   0.117  11.843 -0.3890 -0.1806  0.3320
  151TCq2    C5 2302   0.274   0.099  11.879 -0.5556 -0.3162  0.0933
  151TCq2    C6 2303   0.307   0.103  12.009  0.1164  0.5465 -0.2429
  151TCq2    C7 2304   0.216   0.137  12.103 -0.1971 -0.4657 -0.7547
  151TCq2    C8 2305   0.448   0.093  12.049  0.2141  0.0070  0.2660
  151TCq2    O4 2306   0.531   0.127  11.965  0.4447 -0.1419 -0.1966
  151TCq2    C9 2307   0.093   0.109  11.702  0.0492  0.1054  0.6887
  151TCq2    O5 2308   4.700   0.146  11.673 -0.0601 -0.2652 -0.0084
  151TCq2    O6 2309   0.190   0.101  11.620 -0.0285  0.0984 -0.2830
  151TCq2    H2 2310   4.677   0.147  11.897 -0.0161 -1.9340 -0.5035
  151TCq2    H3 2311   0.350   0.090  11.803 -0.0150  2.3637  0.2945
  151TCq2    H4 2312   0.254   0.154  12.203  0.1648 -2.3538 -0.5756
  152MPD2     C 2313   3.777   4.566  13.008 -0.7190  0.4951 -0.4020
  152MPD2    C1 2314   3.831   4.569  12.880 -0.9209 -0.1568  0.0723
  152MPD2    C2 2315   3.742   4.587  12.771  0.1287  0.0167 -0.0729
  152MPD2    C3 2316   3.609   4.610  12.802  0.5198 -0.1190 -0.4640
  152MPD2    C4 2317   3.563   4.611  12.929  0.6806  0.4275  0.3856
  152MPD2    C5 2318   3.643   4.594  13.029  1.2009  0.3619  0.4716
  152MPD2     H 2319   3.770   4.570  12.668 -0.3559 -0.7793 -0.0711
  152MPD2    H1 2320   3.463   4.637  12.962 -0.3308 -0.8876 -1.6875
  152MPD2    H2 2321   3.836   4.542  13.096  0.9379  3.4587 -0.7278
  152MPD2    H3 2322   3.603   4.597  13.130 -0.6113  1.1754 -0.2676
  152MPD2     N 2323   3.516   4.614  12.693 -0.3587  0.3115  0.0725
  152MPD2    H5 2324   3.555   4.608  12.599  0.7280  2.5168  0.4037
  152MPD2    N1 2325   3.964   4.525  12.864 -0.5329  0.1028 -0.4430
  152MPD2    H7 2326   4.002   4.504  12.956 -1.1769  1.2480  0.0813
  153TCq2    C1 2327   4.040   4.509  12.746  0.1926 -0.1427  0.5404
  153TCq2    O2 2328   4.012   4.523  12.631 -0.3125  0.5435  0.2308
  153TCq2    C2 2329   4.182   4.481  12.784  0.3720 -0.0077  0.5261
  153TCq2    C3 2330   4.205   4.415  12.903 -0.3967  1.1175  0.2452
  153TCq2    C4 2331   4.331   4.407  12.951 -0.1759 -0.0201 -0.1916
  153TCq2    C5 2332   4.435   4.456  12.876 -0.0992  0.0562  0.3941
  153TCq2    C6 2333   4.412   4.530  12.761 -0.2949 -0.1310 -1.6571
  153TCq2    C7 2334   4.287   4.539  12.714  0.3125 -0.0262  0.2053
  153TCq2    C8 2335   4.514   4.609  12.699  0.8762 -0.5455  0.3993
  153TCq2    O4 2336   4.500   4.647  12.582  0.0950  0.0531  0.1568
  153TCq2    C9 2337   4.354   4.349  13.080  0.4670  0.3609  0.1443
  153TCq2    O5 2338   4.467   4.371  13.132 -0.0967  0.0212  0.6945
  153TCq2    O6 2339   4.259   4.292  13.140  0.2631  0.1116  0.1543
  153TCq2    H2 2340   4.126   4.369  12.961  0.0799  1.0272  0.8228
  153TCq2    H3 2341   4.537   4.444  12.910 -0.5815 -0.6563  1.5549
  153TCq2    H4 2342   4.267   4.595  12.623 -1.1199  0.5899  0.9090
  154MPD2     C 2343   1.402   4.044   0.377  0.2686  0.2449 -0.3916
  154MPD2    C1 2344   1.452   4.133   0.469  0.3432  0.2683  0.2796
  154MPD2    C2 2345   1.383   4.251   0.496  0.3971 -0.0771  0.3693
  154MPD2    C3 2346   1.260   4.269   0.432 -0.1297 -0.0462  0.3830
  154MPD2    C4 2347   1.211   4.174   0.348 -0.3629 -0.1650  0.2814
  154MPD2    C5 2348   1.279   4.062   0.317  0.6943 -0.1522  0.5269
  154MPD2     H 2349   1.427   4.322   0.565 -2.3831  2.1861 -0.2094
  154MPD2    H1 2350   1.110   4.182   0.311  0.9107  1.3097 -2.8171
  154MPD2    H2 2351   1.465   3.967   0.334  0.8322  1.2335 -1.3521
  154MPD2    H3 2352   1.239   3.992   0.246 -0.3847 -2.2065  3.1487
  154MPD2     N 2353   1.181   4.384   0.456 -0.5357 -0.3821  0.8080
  154MPD2    H5 2354   1.203   4.442   0.536  0.4174 -2.3383  1.9718
  154MPD2    N1 2355   1.580   4.093   0.523 -0.3027  0.1533 -0.6358
  154MPD2    H7 2356   1.617   4.008   0.481 -0.2271  0.6827 -1.6523
  155TCq2    C1 2357   1.639   4.165   0.619 -1.2878 -0.1271  0.6933
  155TCq2    O2 2358   1.593   4.256   0.691 -0.8218 -0.4245  0.2075
  155TCq2    C2 2359   1.778   4.128   0.644  0.0780  0.4182  0.6278
  155TCq2    C3 2360   1.861   4.093   0.542 -1.0707  0.4323 -0.7353
  155TCq2    C4 2361   1.997   4.074   0.558  0.3743  0.2758 -0.2221
  155TCq2    C5 2362   2.051   4.087   0.686 -0.0854  0.0384  1.1375
  155TCq2    C6 2363   1.966   4.129   0.784  0.4594 -0.2121  0.5731
  155TCq2    C7 2364   1.833   4.164   0.768 -0.4157 -0.1446 -0.0623
  155TCq2    C8 2365   2.009   4.103   0.927 -0.9231  0.2200  0.6647
  155TCq2    O4 2366   2.110   4.039   0.943  0.7827  0.0449 -0.4006
  155TCq2    C9 2367   2.078   4.029   0.448 -0.0259 -0.3747 -0.2130
  155TCq2    O5 2368   2.177   3.952   0.480 -0.2908 -0.5797 -0.1095
  155TCq2    O6 2369   2.024   4.019   0.334  0.5184 -0.4893  0.1521
  155TCq2    H2 2370   1.819   4.062   0.447 -0.7710 -3.5840  0.4424
  155TCq2    H3 2371   2.153   4.055   0.698  0.1008 -0.2147 -1.1585
  155TCq2    H4 2372   1.774   4.200   0.851  0.0933 -0.4813  0.4444
  156MPD2     C 2373   0.123   2.332  11.954  0.4503 -0.1811  0.2505
  156MPD2    C1 2374   0.042   2.303  11.841  0.1340 -0.1298 -0.5301
  156MPD2    C2 2375   4.636   2.329  11.850  0.1672  0.3824  0.3211
  156MPD2    C3 2376   4.577   2.362  11.974  0.0673 -0.3763  0.2302
  156MPD2    C4 2377   4.658   2.392  12.082 -0.1201 -0.2527  0.5974
  156MPD2    C5 2378   0.069   2.382  12.073  0.6833  0.1114 -0.2002
  156MPD2     H 2379   4.578   2.308  11.761 -0.8209  1.3100  0.7464
  156MPD2    H1 2380   4.622   2.424  12.179 -0.6923  2.4986 -0.5392
  156MPD2    H2 2381   0.229   2.310  11.961  0.6437  0.5895 -0.2434
  156MPD2    H3 2382   0.129   2.402  12.161  1.1304 -0.2230 -0.4276
  156MPD2     N 2383   4.432   2.364  11.981  0.7149 -0.6673  0.3337
  156MPD2    H5 2384   4.378   2.350  11.897 -0.6945  0.9191  0.9865
  156MPD2    N1 2385   0.081   2.241  11.719 -0.0280 -0.0019 -0.9299
  156MPD2    H7 2386   0.014   2.234  11.644 -1.7841 -2.6946  0.8655
  157TCq2    C1 2387   0.190   2.163  11.710  0.3198 -0.0649  0.5633
  157TCq2    O2 2388   0.260   2.131  11.804  0.6392 -0.0363  1.0279
  157TCq2    C2 2389   0.183   2.068  11.595  0.2446  0.2449  0.0580
  157TCq2    C3 2390   0.178   1.935  11.623 -0.0889  0.0438  0.8405
  157TCq2    C4 2391   0.116   1.851  11.531  0.5579 -0.0559  0.2833
  157TCq2    C5 2392   0.070   1.898  11.417  0.8901  0.8191 -0.3763
  157TCq2    C6 2393   0.066   2.034  11.395 -0.2874 -0.4056  0.8626
  157TCq2    C7 2394   0.116   2.120  11.485 -0.0861  0.5770  0.4876
  157TCq2    C8 2395   4.706   2.094  11.293  0.3895  0.1269 -0.2150
  157TCq2    O4 2396   0.001   2.210  11.255  0.2998 -0.0687 -0.5816
  157TCq2    C9 2397   0.099   1.711  11.565 -0.0878 -0.4383  0.1964
  157TCq2    O5 2398   0.050   1.640  11.470 -0.1047  0.4927 -0.0291
  157TCq2    O6 2399   0.143   1.674  11.681 -0.0425  0.0529 -0.3896
  157TCq2    H2 2400   0.220   1.893  11.714  1.1456 -3.3174 -1.3138
  157TCq2    H3 2401   0.030   1.833  11.340  0.7946  1.1954 -0.6424
  157TCq2    H4 2402   0.097   2.226  11.474  0.8712  0.8210  1.2098
  158TMC2    C1 2403   4.226   0.945  13.136  0.0524  1.1487 -0.6702
  158TMC2    C2 2404   4.225   0.913  13.003  0.6911 -0.5415  0.7711
  158TMC2    C3 2405   4.108   0.908  12.935 -0.1374 -0.1649  0.6949
  158TMC2    C4 2406   4.112   0.957  13.207 -0.3068  0.2696 -0.4401
  158TMC2    C5 2407   3.992   0.935  13.140  0.6581 -0.4097  0.0178
  158TMC2    C6 2408   3.987   0.927  13.002 -0.0967  0.1151 -0.2672
  158TMC2     C 2409   4.358   0.980  13.187  0.3557  0.5030  0.1128
  158TMC2     O 2410   4.449   0.957  13.109 -0.2995  0.0228 -0.0981
  158TMC2     H 2411   4.313   0.899  12.941  0.0911  1.1418 -0.4669
  158TMC2    H1 2412   4.107   0.981  13.313 -1.8661 -1.5676 -0.1144
  158TMC2    H2 2413   3.894   0.914  12.948 -0.2445  1.4161 -0.3404
  158TMC2    C7 2414   3.863   0.960  13.199  0.2313 -0.2249 -0.1486
  158TMC2    C8 2415   4.100   0.871  12.796 -0.3064  0.4987  0.0967
  158TMC2    O1 2416   3.782   1.018  13.127 -0.0907 -0.7691 -0.0739
  158TMC2    O2 2417   4.187   0.802  12.739 -0.0244  0.4725 -1.2170
  158TMC2    O5 2418   4.020   0.958  12.731 -0.3142 -0.1084  0.1026
  158TMC2    H5 2419   3.972   1.018  12.792 -0.8476  0.5317 -0.9375
  159MPD2     C 2420   4.701   1.142  13.517  0.4389  0.1011  0.0338
  159MPD2    C1 2421   4.579   1.138  13.584  0.0624 -0.1265  1.0667
  159MPD2    C2 2422   4.465   1.112  13.514 -0.1556 -0.3648 -0.3374
  159MPD2    C3 2423   4.475   1.083  13.375 -0.0061  0.4588  0.6042
  159MPD2    C4 2424   4.600   1.090  13.311 -0.8173 -0.5379 -0.2257
  159MPD2    C5 2425   4.716   1.117  13.386 -0.9567  0.2339 -0.7997
  159MPD2     H 2426   4.370   1.097  13.565 -0.7421 -3.2727 -2.2832
  159MPD2    H1 2427   4.619   1.083  13.205  0.9461 -0.3894  0.0771
  159MPD2    H2 2428   0.065   1.168  13.571  0.6281 -0.8967  0.2052
  159MPD2    H3 2429   0.087   1.113  13.336 -1.2705 -0.7294 -1.3360
  159MPD2     N 2430   4.357   1.039  13.311  0.1366  0.0812 -0.3498
  159MPD2    H5 2431   4.273   1.033  13.368  0.2318 -0.7783 -0.2987
  159MPD2    N1 2432   4.586   1.162  13.720 -0.3985 -0.1367  0.2188
  159MPD2    H7 2433   4.675   1.172  13.767 -0.2837  4.5466 -1.0232
  160TMC2    C1 2434   0.538   3.849   1.958  0.3021  0.8118 -0.1112
  160TMC2    C2 2435   0.626   3.747   1.984  0.3922  0.0243  0.6456
  160TMC2    C3 2436   0.586   3.621   1.960 -1.0829  0.6116  0.2608
  160TMC2    C4 2437   0.417   3.823   1.899 -0.1161  0.0057  0.8169
  160TMC2    C5 2438   0.382   3.692   1.883  0.1591 -0.1700  0.6395
  160TMC2    C6 2439   0.463   3.584   1.908 -0.1920 -0.4492 -0.2680
  160TMC2     C 2440   0.591   3.984   1.986  0.5574  0.4219 -0.1864
  160TMC2     O 2441   0.688   3.995   2.058 -0.4488 -0.9498  0.0600
  160TMC2     H 2442   0.714   3.764   2.045  1.2640 -3.3006  0.3065
  160TMC2    H1 2443   0.332   3.889   1.899 -0.5808 -0.5910  2.6033
  160TMC2    H2 2444   0.433   3.483   1.881 -3.3528 -0.2431  2.4519
  160TMC2    C7 2445   0.286   3.660   1.787 -0.3572 -0.0090  0.0855
  160TMC2    C8 2446   0.679   3.514   1.980  0.3710 -0.1009  0.0357
  160TMC2    O1 2447   0.221   3.557   1.807 -0.5040  0.7627 -0.0294
  160TMC2    O2 2448   0.781   3.517   2.047  0.1062  0.6750  0.6885
  160TMC2    O5 2449   0.665   3.425   1.876  0.4876 -0.4996 -0.1101
  160TMC2    H5 2450   0.602   3.451   1.806  1.4052 -0.6182 -0.9848
  161MPD2     C 2451   0.630   4.282   2.008  0.2299 -0.7918 -0.1914
  161MPD2    C1 2452   0.537   4.213   1.929 -0.1415 -0.2790 -1.0100
  161MPD2    C2 2453   0.460   4.294   1.846 -0.0483 -0.4099 -0.1273
  161MPD2    C3 2454   0.463   4.436   1.858 -0.4016 -0.2876 -0.2406
  161MPD2    C4 2455   0.560   4.496   1.934  0.4724 -0.7294  0.3293
  161MPD2    C5 2456   0.649   4.419   2.005 -0.6557 -0.0439 -0.1396
  161MPD2     H 2457   0.399   4.253   1.767  0.0582 -0.1120 -0.3672
  161MPD2    H1 2458   0.548   4.602   1.951 -0.7154 -0.6376 -1.0297
  161MPD2    H2 2459   0.695   4.226   2.074 -0.2697 -0.9744  0.1450
  161MPD2    H3 2460   0.715   4.464   2.078 -0.6346  1.8040 -1.2984
  161MPD2     N 2461   0.374   4.520   1.778  0.4506 -0.1328  0.2702
  161MPD2    H5 2462   0.412   4.611   1.756 -0.0457 -0.4569 -1.8508
  161MPD2    N1 2463   0.518   4.080   1.920 -0.6123  0.5328 -0.2253
  161MPD2    H7 2464   0.446   4.046   1.856  0.9286 -3.1153 -0.0398
  162TMC2    C1 2465   3.008   0.515   1.472  0.1583  0.1080 -0.1920
  162TMC2    C2 2466   2.877   0.493   1.447 -0.0563 -0.4774  0.3878
  162TMC2    C3 2467   2.793   0.454   1.549  0.5869  0.0458  0.2801
  162TMC2    C4 2468   3.062   0.484   1.591  0.1309 -0.6919 -0.2409
  162TMC2    C5 2469   2.981   0.440   1.690  0.6978 -0.6208  0.1892
  162TMC2    C6 2470   2.847   0.433   1.678  0.6829 -0.1436  0.1996
  162TMC2     C 2471   3.090   0.563   1.362 -0.3393  0.2456 -0.1927
  162TMC2     O 2472   3.040   0.553   1.250 -0.7863  0.3525 -0.1280
  162TMC2     H 2473   2.834   0.519   1.350  0.6404 -1.5301 -0.2040
  162TMC2    H1 2474   3.170   0.478   1.601  0.0631  0.2356  1.0094
  162TMC2    H2 2475   2.783   0.397   1.759  0.0794  0.2353 -0.1061
  162TMC2    C7 2476   3.042   0.453   1.819 -0.6447 -0.0774 -0.5651
  162TMC2    C8 2477   2.649   0.438   1.517  0.7126 -1.0611 -0.1204
  162TMC2    O1 2478   3.113   0.550   1.826 -0.2145 -0.6517 -0.0609
  162TMC2    O2 2479   2.611   0.452   1.400 -0.4900 -0.4252  0.0202
  162TMC2    O5 2480   2.579   0.427   1.631  0.1276  0.2471 -0.0728
  162TMC2    H5 2481   2.631   0.445   1.712  2.3163 -0.5834 -1.2649
  163MPD2     C 2482   3.569   0.607   1.183  0.9482 -0.8617  0.2440
  163MPD2    C1 2483   3.451   0.603   1.119 -0.2142 -0.7563  0.5523
  163MPD2    C2 2484   3.330   0.602   1.188 -0.3231 -0.2126  0.0851
  163MPD2    C3 2485   3.331   0.606   1.328  0.1854 -0.0910  0.0036
  163MPD2    C4 2486   3.451   0.606   1.393 -1.1362  0.5116  0.3265
  163MPD2    C5 2487   3.572   0.612   1.320 -0.3087 -0.2059  0.4795
  163MPD2     H 2488   3.236   0.601   1.134 -0.2182 -0.5593 -0.0907
  163MPD2    H1 2489   3.459   0.613   1.501  0.6490  1.5327  0.1259
  163MPD2    H2 2490   3.660   0.617   1.125 -0.8691  1.9931 -2.1021
  163MPD2    H3 2491   3.670   0.614   1.365  0.6629  1.1350 -1.7184
  163MPD2     N 2492   3.214   0.597   1.405  0.0644  0.7449  0.1083
  163MPD2    H5 2493   3.230   0.606   1.504 -0.3354 -0.7068  0.3065
  163MPD2    N1 2494   3.460   0.615   0.981 -0.2792 -0.1064  0.2137
  163MPD2    H7 2495   3.559   0.614   0.955 -0.2687  1.1642  0.1719
  164TCq2    C1 2496   2.906   1.184  11.310  0.2370  0.3577  0.4029
  164TCq2    O2 2497   3.023   1.204  11.338 -0.0997 -0.4048  0.0862
  164TCq2    C2 2498   2.830   1.106  11.403  1.0744  0.2642 -0.3894
  164TCq2    C3 2499   2.884   1.105  11.530  0.0921 -0.0722 -0.6154
  164TCq2    C4 2500   2.812   1.051  11.632 -0.3789  0.3995 -0.0686
  164TCq2    C5 2501   2.693   0.990  11.608  0.9837 -0.6044 -0.5071
  164TCq2    C6 2502   2.651   0.978  11.479 -0.2413  0.3782  0.1615
  164TCq2    C7 2503   2.713   1.036  11.373  0.0935  0.2862 -0.1780
  164TCq2    C8 2504   2.521   0.913  11.450  0.0985  0.1181 -0.4110
  164TCq2    O4 2505   2.475   0.924  11.336  0.0360 -0.8932  0.1799
  164TCq2    C9 2506   2.843   1.083  11.769 -0.4895 -0.5580 -0.6538
  164TCq2    O5 2507   2.959   1.125  11.792 -0.3177 -0.3097  0.2543
  164TCq2    O6 2508   2.752   1.066  11.856  0.2538 -0.3179 -0.3935
  164TCq2    H2 2509   2.977   1.158  11.544 -0.3193  0.3357  0.5788
  164TCq2    H3 2510   2.645   0.946  11.695  2.4976  1.2682  1.2795
  164TCq2    H4 2511   2.679   1.025  11.271 -0.2021  4.0540 -0.4946
  165MPD2     C 2512   0.393   1.669   1.601  0.0729 -0.1344  0.1710
  165MPD2    C1 2513   0.320   1.746   1.515 -0.5780  0.3497  0.1120
  165MPD2    C2 2514   0.349   1.886   1.516  0.5586 -0.5109  0.0289
  165MPD2    C3 2515   0.439   1.932   1.610 -0.0014 -0.5245 -0.2939
  165MPD2    C4 2516   0.519   1.850   1.689  0.0599  0.5893  0.2949
  165MPD2    C5 2517   0.488   1.717   1.689 -0.3855 -0.3002  0.4469
  165MPD2     H 2518   0.307   1.943   1.434  1.2412  1.0349  0.7623
  165MPD2    H1 2519   0.593   1.890   1.756  0.0874  1.8718 -0.4886
  165MPD2    H2 2520   0.369   1.564   1.592 -4.4960  0.5512  3.8442
  165MPD2    H3 2521   0.542   1.650   1.755  0.2416  0.8820  1.1333
  165MPD2     N 2522   0.448   2.072   1.641 -0.4288  0.0504 -0.1977
  165MPD2    H5 2523   0.528   2.100   1.697 -0.1672 -2.5479  0.6963
  165MPD2    N1 2524   0.232   1.684   1.431  0.7084  0.1587 -0.6069
  165MPD2    H7 2525   0.221   1.584   1.445  0.9683  0.0528 -1.1544
  166TCq2    C1 2526   0.380   2.177   1.588 -0.5965 -0.0429  0.5358
  166TCq2    O2 2527   0.284   2.176   1.508  0.0236 -0.4468  0.3738
  166TCq2    C2 2528   0.435   2.305   1.629  0.4382 -0.7474 -0.2708
  166TCq2    C3 2529   0.556   2.313   1.695  0.2743  0.0527  0.8473
  166TCq2    C4 2530   0.606   2.432   1.736  0.0246  0.6895 -0.0884
  166TCq2    C5 2531   0.528   2.541   1.727  0.4853  0.7076 -0.2235
  166TCq2    C6 2532   0.411   2.525   1.666  0.2974 -0.8006  0.5678
  166TCq2    C7 2533   0.359   2.415   1.611 -0.7952 -0.0275  0.4941
  166TCq2    C8 2534   0.371   2.645   1.602  0.3220  0.1225 -0.2312
  166TCq2    O4 2535   0.451   2.733   1.596 -0.1812  0.2151 -0.1559
  166TCq2    C9 2536   0.735   2.443   1.788  0.2506  0.1910 -0.0627
  166TCq2    O5 2537   0.777   2.555   1.826 -0.1686 -0.0714 -0.5291
  166TCq2    O6 2538   0.802   2.339   1.805  0.3998  0.2183  0.3170
  166TCq2    H2 2539   0.626   2.231   1.709 -0.5577 -0.6158  1.0716
  166TCq2    H3 2540   0.572   2.636   1.757  2.7100 -0.2739 -0.3586
  166TCq2    H4 2541   0.266   2.410   1.557  0.0237 -1.2687 -0.8106
  167TMC2    C1 2542   1.859   0.881  12.837  0.4581 -0.0609  0.1861
  167TMC2    C2 2543   1.811   0.934  12.952  0.1998  0.3548  0.3177
  167TMC2    C3 2544   1.837   0.860  13.066  0.2414 -0.2849 -0.5693
  167TMC2    C4 2545   1.898   0.752  12.829  0.0386  0.0310  0.1910
  167TMC2    C5 2546   1.900   0.676  12.942 -0.1815 -0.7985 -0.8523
  167TMC2    C6 2547   1.872   0.724  13.065  0.4534  0.1433 -0.9690
  167TMC2     C 2548   1.875   0.975  12.726  0.6554  0.5829  0.1884
  167TMC2     O 2549   1.837   1.091  12.741 -0.1137  0.1325 -0.3991
  167TMC2     H 2550   1.797   1.041  12.963 -3.1172  0.0604 -0.8889
  167TMC2    H1 2551   1.901   0.698  12.735  0.9957 -0.8438  0.7266
  167TMC2    H2 2552   1.886   0.671  13.158  1.0565  0.0408 -1.1232
  167TMC2    C7 2553   1.933   0.534  12.938 -0.4922 -0.1641  0.3219
  167TMC2    C8 2554   1.840   0.945  13.182  0.1543 -0.1317  0.3180
  167TMC2    O1 2555   1.893   0.465  13.030 -0.0112  0.2798 -0.2442
  167TMC2    O2 2556   1.860   1.064  13.186  0.7834  0.5831 -0.0245
  167TMC2    O5 2557   1.832   0.866  13.287 -0.2192  0.6732 -0.5092
  167TMC2    H5 2558   1.790   0.780  13.265  2.5357 -1.1841  1.6096
  168MPD2     C 2559   1.931   1.134  12.477  0.4055 -0.4674  0.0128
  168MPD2    C1 2560   1.961   0.999  12.497 -0.2427  0.8903  0.3642
  168MPD2    C2 2561   1.995   0.918  12.390 -0.3292  0.3508 -0.1812
  168MPD2    C3 2562   2.013   0.974  12.264 -0.3176 -0.0663 -0.0298
  168MPD2    C4 2563   1.997   1.112  12.258  0.3076  0.5873  0.8846
  168MPD2    C5 2564   1.954   1.189  12.359 -0.6303  0.1865  0.4379
  168MPD2     H 2565   2.021   0.814  12.410  2.1727  1.1651  0.6887
  168MPD2    H1 2566   2.017   1.161  12.164  0.4183  1.0366  1.1434
  168MPD2    H2 2567   1.908   1.192  12.565  0.8848  0.1375 -0.2624
  168MPD2    H3 2568   1.941   1.296  12.345 -2.7417  0.0621  1.3565
  168MPD2     N 2569   2.060   0.896  12.160  0.5246  0.3791  0.1682
  168MPD2    H5 2570   2.098   0.938  12.076  0.7922 -1.8695 -0.8415
  168MPD2    N1 2571   1.940   0.925  12.617  0.0105 -0.4167  0.6668
  168MPD2    H7 2572   1.966   0.827  12.611 -0.5494 -0.5125 -0.1862
  169MPD1     C 2573   0.839   3.797   9.387 -0.6949  0.2803  0.5447
  169MPD1    C1 2574   0.798   3.887   9.483  0.0830  0.5886 -0.4296
  169MPD1    C2 2575   0.712   3.984   9.448  0.1747 -0.1485  0.1837
  169MPD1    C3 2576   0.650   3.986   9.327  0.8040  0.4596  0.0021
  169MPD1    C4 2577   0.683   3.892   9.230 -0.3269 -0.2225 -0.0531
  169MPD1    C5 2578   0.780   3.806   9.259 -0.2024 -0.0026  0.0167
  169MPD1     H 2579   0.684   4.068   9.510 -0.5284  1.2389 -2.0194
  169MPD1    H1 2580   0.628   3.883   9.137 -0.9662 -0.0644  0.3052
  169MPD1    H2 2581   0.914   3.722   9.404 -1.7487 -0.6690  1.0076
  169MPD1    H3 2582   0.799   3.735   9.179  1.0340  1.6247 -1.1084
  169MPD1     N 2583   0.553   4.087   9.308  0.1950 -0.3497  0.4569
  169MPD1    H5 2584   0.535   4.152   9.384  1.7761 -0.6276  1.0664
  169MPD1    N1 2585   0.855   3.887   9.610 -0.2299  0.0670 -0.4620
  169MPD1    H6 2586   0.881   3.796   9.646  2.3496  0.2861 -1.7909
  169MPD1    H7 2587   0.800   3.947   9.671  0.4500 -0.1606  0.3672
  170MPD1     C 2588   2.671   3.003  12.957  0.1249  0.3967  0.2143
  170MPD1    C1 2589   2.688   3.137  12.950 -0.5025  0.0507 -0.4617
  170MPD1    C2 2590   2.690   3.208  13.072 -0.6336  0.5774  0.5946
  170MPD1    C3 2591   2.683   3.138  13.195 -1.0165  0.3777 -0.0559
  170MPD1    C4 2592   2.682   2.999  13.192  0.4137  0.0339  0.3078
  170MPD1    C5 2593   2.671   2.932  13.077 -0.7560  0.2263  0.0586
  170MPD1     H 2594   2.686   3.316  13.078 -1.5624  0.6247 -0.6990
  170MPD1    H1 2595   2.677   2.943  13.285 -0.7116 -1.2272 -0.5167
  170MPD1    H2 2596   2.676   2.935  12.873  0.5316 -0.2670  0.7731
  170MPD1    H3 2597   2.663   2.824  13.083  0.1328  0.1122 -0.8216
  170MPD1     N 2598   2.712   3.214  13.310  0.2637 -0.0735 -0.1477
  170MPD1    H5 2599   2.763   3.296  13.279 -0.2256  0.4749  0.5063
  170MPD1    N1 2600   2.675   3.197  12.827  0.0979 -0.7158 -0.1289
  170MPD1    H6 2601   2.718   3.289  12.819  0.5642 -0.8687  0.6203
  170MPD1    H7 2602   2.713   3.138  12.752  0.1290  0.2438 -0.8739
  171MPD1     C 2603   1.865   4.562  15.380 -0.6855 -0.0754 -0.1825
  171MPD1    C1 2604   1.975   4.477  15.392 -0.2087 -0.0352  0.0396
  171MPD1    C2 2605   1.967   4.380  15.491 -0.8267  0.6619  0.2101
  171MPD1    C3 2606   1.849   4.354  15.558 -0.2035 -0.4651  0.3294
  171MPD1    C4 2607   1.745   4.438  15.537  0.0704 -0.5895 -0.2855
  171MPD1    C5 2608   1.755   4.543  15.453 -0.8494 -0.3050 -0.4365
  171MPD1     H 2609   2.054   4.317  15.506 -0.4357  0.5471 -2.4928
  171MPD1    H1 2610   1.647   4.423  15.581 -0.8057  1.5370 -1.4904
  171MPD1    H2 2611   1.869   4.647  15.313 -2.9317 -1.2139 -1.7545
  171MPD1    H3 2612   1.667   4.604  15.438 -1.2490 -1.3554 -2.4828
  171MPD1     N 2613   1.831   4.246  15.650 -0.2614  0.2325 -0.1226
  171MPD1    H5 2614   1.751   4.249  15.712  0.4837  0.1572  0.8387
  171MPD1    N1 2615   2.100   4.513  15.331  0.9044  0.2104  0.5428
  171MPD1    H6 2616   2.076   4.554  15.241  1.3816  0.1595  0.3981
  171MPD1    H7 2617   2.160   4.432  15.316  1.2257  0.0689  2.5839
  172MPD1     C 2618   0.824   3.147   0.454 -0.0389 -0.8733  0.3652
  172MPD1    C1 2619   0.876   3.218   0.350 -0.3352  0.1479 -0.0608
  172MPD1    C2 2620   0.974   3.311   0.376 -0.2655  0.0289 -0.2514
  172MPD1    C3 2621   1.004   3.348   0.505  0.2585  0.5599  0.0538
  172MPD1    C4 2622   0.943   3.285   0.604 -0.0438  0.5973 -0.3813
  172MPD1    C5 2623   0.860   3.179   0.579  0.4672 -0.1648 -0.4764
  172MPD1     H 2624   1.018   3.366   0.293  0.3522  0.1406  0.1493
  172MPD1    H1 2625   0.974   3.311   0.705 -0.1270 -2.9926  0.5800
  172MPD1    H2 2626   0.754   3.065   0.438 -1.6074  0.8524 -1.6433
  172MPD1    H3 2627   0.828   3.118   0.662 -0.0941 -1.2389 -1.4787
  172MPD1     N 2628   1.107   3.439   0.542 -0.1018  0.3108 -0.1184
  172MPD1    H5 2629   1.122   3.449   0.642  1.1173 -0.6388 -0.2244
  172MPD1    N1 2630   0.859   3.173   0.215 -0.6950  0.8856  0.4967
  172MPD1    H6 2631   0.859   3.241   0.139 -1.6560  0.4395  0.0946
  172MPD1    H7 2632   0.768   3.127   0.211  0.4534 -1.4184  1.1284
  173MPD1     C 2633   2.427   3.189  13.740  0.0399 -0.8034  0.1627
  173MPD1    C1 2634   2.429   3.308  13.808 -0.2012 -0.0982 -0.1134
  173MPD1    C2 2635   2.438   3.307  13.948 -0.4945 -1.0335  0.5213
  173MPD1    C3 2636   2.449   3.189  14.022  0.2327  0.2185  0.2262
  173MPD1    C4 2637   2.439   3.067  13.952  0.3912  0.0164 -0.3107
  173MPD1    C5 2638   2.432   3.072  13.813 -0.5583 -0.4626 -0.3086
  173MPD1     H 2639   2.447   3.402  14.001  0.9569 -2.0201  2.0361
  173MPD1    H1 2640   2.435   2.972  14.004  0.9440 -0.7750 -1.7452
  173MPD1    H2 2641   2.421   3.195  13.632  0.8109 -0.9134  0.1176
  173MPD1    H3 2642   2.453   2.979  13.763  2.4376 -1.0663  2.0616
  173MPD1     N 2643   2.455   3.182  14.162 -0.1740  0.3076 -0.8554
  173MPD1    H5 2644   2.449   3.092  14.210  0.5463  0.4235 -0.5499
  173MPD1    N1 2645   2.399   3.429  13.743  1.1507  0.1321  0.0234
  173MPD1    H6 2646   2.454   3.497  13.795  1.1478  0.2353 -0.1101
  173MPD1    H7 2647   2.427   3.438  13.646 -0.6095  2.3746 -0.2686
  174MPD1     C 2648   3.170   3.152  14.786 -0.4817  0.2344 -0.0681
  174MPD1    C1 2649   3.116   3.062  14.708 -0.7246  0.0664 -0.0325
  174MPD1    C2 2650   2.982   3.075  14.681  1.0121 -0.0450 -0.9477
  174MPD1    C3 2651   2.906   3.184  14.720 -0.0364 -0.2070  0.2928
  174MPD1    C4 2652   2.966   3.278  14.797  0.0520  0.5837  0.1144
  174MPD1    C5 2653   3.096   3.257  14.831  0.0982 -0.1339 -1.3346
  174MPD1     H 2654   2.944   2.994  14.620 -2.3127  0.1728  0.8508
  174MPD1    H1 2655   2.913   3.369  14.820  1.5566  1.5732 -0.3649
  174MPD1    H2 2656   3.273   3.140  14.817  0.3310  1.8236 -2.1895
  174MPD1    H3 2657   3.148   3.323  14.899  0.5125 -0.1885 -1.6011
  174MPD1     N 2658   2.769   3.197  14.679 -0.0985 -0.7427 -0.9261
  174MPD1    H5 2659   2.730   3.282  14.720  0.5101 -0.4739 -0.8996
  174MPD1    N1 2660   3.184   2.943  14.672  0.0091  0.1103  0.6206
  174MPD1    H6 2661   3.146   2.899  14.589  1.9432  1.2019 -0.8567
  174MPD1    H7 2662   3.280   2.972  14.655 -1.4756  3.5201 -1.9547
  175MPD1     C 2663   0.814   3.265  16.093  0.0594  0.4053  0.0722
  175MPD1    C1 2664   0.750   3.383  16.060  0.1202  0.6803 -0.4865
  175MPD1    C2 2665   0.759   3.492  16.146 -0.3812  0.7103  0.3090
  175MPD1    C3 2666   0.814   3.477  16.270 -0.9853  0.8873 -0.0329
  175MPD1    C4 2667   0.879   3.360  16.297 -0.7201 -0.6136  0.0858
  175MPD1    C5 2668   0.873   3.254  16.214 -0.1733 -0.0501 -0.4743
  175MPD1     H 2669   0.726   3.589  16.111  0.6574  1.6642  2.0131
  175MPD1    H1 2670   0.921   3.346  16.396 -0.3282  1.4160  0.2070
  175MPD1    H2 2671   0.804   3.175  16.033 -1.1375  0.2979  0.4525
  175MPD1    H3 2672   0.918   3.160  16.242  2.2864  1.4968  0.7258
  175MPD1     N 2673   0.811   3.587  16.362  0.2437  0.1154 -0.0350
  175MPD1    H5 2674   0.861   3.573  16.449 -0.3924  1.1479  0.5024
  175MPD1    N1 2675   0.698   3.415  15.933  0.1929  0.0445 -0.5453
  175MPD1    H6 2676   0.607   3.461  15.937  0.3483  0.5532 -3.1025
  175MPD1    H7 2677   0.677   3.332  15.879 -2.1831  0.4290 -0.2475
  176MPD1     C 2678   2.815   1.782  16.780 -0.1691  0.5753 -0.0546
  176MPD1    C1 2679   2.876   1.801  16.894  0.3374 -0.7132 -0.0346
  176MPD1    C2 2680   2.790   1.813  17.002  0.2557 -0.5002 -0.0698
  176MPD1    C3 2681   2.652   1.817  16.984 -0.1218  0.4686  0.1260
  176MPD1    C4 2682   2.599   1.807  16.855  0.4777  0.3704  0.0814
  176MPD1    C5 2683   2.689   1.793  16.756 -0.2855  0.7401 -0.0055
  176MPD1     H 2684   2.839   1.825  17.098  0.5333  1.0037 -0.3890
  176MPD1    H1 2685   2.495   1.788  16.827  0.1596  2.4291 -0.1402
  176MPD1    H2 2686   2.869   1.767  16.687  2.0002 -0.2096  1.3366
  176MPD1    H3 2687   2.657   1.783  16.652 -0.4111  0.0584  0.0991
  176MPD1     N 2688   2.579   1.831  17.103 -0.2617  0.0428  0.5184
  176MPD1    H5 2689   2.631   1.841  17.190  0.3873 -1.1371  0.2659
  176MPD1    N1 2690   3.015   1.793  16.914  0.0093  0.0500 -0.0788
  176MPD1    H6 2691   3.033   1.828  17.008 -1.1299  0.4325 -0.0060
  176MPD1    H7 2692   3.059   1.852  16.843  1.1772 -2.0890 -1.1259
  177MPD1     C 2693   0.664   0.756  10.178  0.0079  0.6502  0.3309
  177MPD1    C1 2694   0.585   0.673  10.104 -0.1236 -0.3873  0.3021
  177MPD1    C2 2695   0.495   0.719  10.006 -0.0235 -0.1919  0.3829
  177MPD1    C3 2696   0.486   0.854   9.979 -0.2820 -0.0815  0.3335
  177MPD1    C4 2697   0.566   0.940  10.052  0.1126 -0.2944 -0.6835
  177MPD1    C5 2698   0.658   0.892  10.141 -0.3606  0.5448 -0.1147
  177MPD1     H 2699   0.431   0.652   9.951 -1.1447 -0.7469  2.3367
  177MPD1    H1 2700   0.575   1.048  10.043  0.7708 -0.2041  1.1281
  177MPD1    H2 2701   0.720   0.727  10.266  0.5076  1.6284  0.3391
  177MPD1    H3 2702   0.707   0.967  10.201 -1.7659  0.0014  1.7159
  177MPD1     N 2703   0.398   0.891   9.873  0.2208 -0.6070  0.9081
  177MPD1    H5 2704   0.342   0.824   9.821  0.1158 -0.5894  0.9960
  177MPD1    N1 2705   0.588   0.536  10.126  0.2688  0.1352  0.1598
  177MPD1    H6 2706   0.684   0.505  10.132  0.4037  0.1354 -2.0514
  177MPD1    H7 2707   0.538   0.490  10.049  0.3935 -0.5261  0.4756
  178MPD1     C 2708   3.070   1.898   0.681 -0.3984  0.6824  0.1908
  178MPD1    C1 2709   3.069   1.832   0.562 -0.2533  0.5107 -0.0223
  178MPD1    C2 2710   3.174   1.850   0.471  0.4124  0.3847  0.6604
  178MPD1    C3 2711   3.274   1.945   0.495  0.6315 -0.4166 -0.5204
  178MPD1    C4 2712   3.269   2.003   0.625 -0.2707 -0.1317 -0.1727
  178MPD1    C5 2713   3.171   1.985   0.718 -0.3302 -0.5213  0.2322
  178MPD1     H 2714   3.165   1.814   0.369  0.2348 -0.2473  0.8951
  178MPD1    H1 2715   3.345   2.077   0.647 -0.5499 -0.6139  2.4631
  178MPD1    H2 2716   2.984   1.885   0.745  0.7858 -1.4100  1.3540
  178MPD1    H3 2717   3.156   2.044   0.808 -0.6402 -0.7425  0.3239
  178MPD1     N 2718   3.373   1.980   0.408 -1.1671 -0.3476 -0.1613
  178MPD1    H5 2719   3.414   2.072   0.421  1.5065 -1.2563 -2.0586
  178MPD1    N1 2720   2.947   1.773   0.515 -0.0987  0.1185 -0.1420
  178MPD1    H6 2721   2.890   1.734   0.589 -1.5314  2.3847 -0.0360
  178MPD1    H7 2722   2.968   1.703   0.444  0.7090 -0.8929  1.1123
  179MPD1     C 2723   2.779   0.784  15.128  0.0816  0.2345  0.3548
  179MPD1    C1 2724   2.843   0.665  15.118 -0.1775 -0.9678  0.0963
  179MPD1    C2 2725   2.818   0.568  15.220  0.2764 -0.1708 -0.2917
  179MPD1    C3 2726   2.734   0.604  15.328  0.1097 -0.0172 -0.3232
  179MPD1    C4 2727   2.669   0.729  15.325  0.2731 -0.1615 -0.2093
  179MPD1    C5 2728   2.697   0.816  15.235 -0.6237  0.1918  0.1183
  179MPD1     H 2729   2.863   0.469  15.218 -1.2769 -0.8607 -0.9666
  179MPD1    H1 2730   2.595   0.757  15.400  1.4428  2.0285  0.1300
  179MPD1    H2 2731   2.795   0.859  15.052 -1.8523 -0.2203 -0.4816
  179MPD1    H3 2732   2.641   0.909  15.243  0.2665  0.6523  0.9531
  179MPD1     N 2733   2.707   0.519  15.436  0.1445  0.2080 -0.3879
  179MPD1    H5 2734   2.627   0.554  15.488  1.0523 -0.0601  1.1740
  179MPD1    N1 2735   2.908   0.634  14.997 -0.0418  0.0939  0.0036
  179MPD1    H6 2736   2.969   0.552  15.008  0.4463  0.5234  0.4777
  179MPD1    H7 2737   2.976   0.706  14.974 -0.3015  0.3613  0.0727
  180MPD1     C 2738   2.396   1.962  15.163 -0.2323 -0.3895 -0.3808
  180MPD1    C1 2739   2.491   2.053  15.125 -0.4668 -0.5898 -0.1065
  180MPD1    C2 2740   2.524   2.053  14.985  0.9057 -0.2958  0.0539
  180MPD1    C3 2741   2.472   1.967  14.893 -0.1244 -0.0469 -0.8811
  180MPD1    C4 2742   2.382   1.872  14.942  0.3867  0.0967 -0.3375
  180MPD1    C5 2743   2.356   1.870  15.074  0.8424 -0.7356  0.6081
  180MPD1     H 2744   2.606   2.113  14.947 -0.6340  1.0881 -1.0466
  180MPD1    H1 2745   2.330   1.794  14.887  0.7816 -0.6501  0.3396
  180MPD1    H2 2746   2.347   1.969  15.260  0.2348  0.4419 -0.2020
  180MPD1    H3 2747   2.276   1.802  15.101  0.7787 -1.3455 -1.1168
  180MPD1     N 2748   2.509   1.982  14.755  0.0245  0.0639 -0.0763
  180MPD1    H5 2749   2.595   2.034  14.740 -0.4362  0.1038 -2.6417
  180MPD1    N1 2750   2.530   2.168  15.198 -0.4684 -0.1091 -0.2672
  180MPD1    H6 2751   2.535   2.143  15.296  0.1007  1.9827  0.2411
  180MPD1    H7 2752   2.622   2.194  15.164 -0.8172  1.6311  0.1169
  181MPD1     C 2753   3.712   2.740   9.905 -0.3388  1.4408 -0.7043
  181MPD1    C1 2754   3.788   2.826   9.976 -0.2391  0.1884 -0.4552
  181MPD1    C2 2755   3.865   2.926   9.910 -0.3010  0.4480  0.0544
  181MPD1    C3 2756   3.889   2.925   9.770 -0.8849 -0.0286 -0.0669
  181MPD1    C4 2757   3.826   2.827   9.697  0.5281  0.4257 -0.0467
  181MPD1    C5 2758   3.735   2.744   9.768  0.1891  0.0729  0.2295
  181MPD1     H 2759   3.922   2.987   9.979  2.3178 -1.9160 -0.0672
  181MPD1    H1 2760   3.841   2.824   9.590 -0.1498  0.1679 -0.1321
  181MPD1    H2 2761   3.635   2.677   9.949  0.2454  1.3622  0.1930
  181MPD1    H3 2762   3.683   2.679   9.699  0.5240 -0.7156  0.7230
  181MPD1     N 2763   3.960   3.016   9.687  0.3758 -1.0454  0.1241
  181MPD1    H5 2764   3.991   2.980   9.598  0.2070 -2.7311  0.7462
  181MPD1    N1 2765   3.771   2.830  10.117 -0.0645  0.3302  0.2683
  181MPD1    H6 2766   3.850   2.868  10.169  0.1908  3.9845 -2.8044
  181MPD1    H7 2767   3.728   2.753  10.167  0.4105  0.1062  0.3307
  182MPD1     C 2768   1.251   1.823   1.201  0.1430 -0.0951  0.2018
  182MPD1    C1 2769   1.145   1.873   1.268  0.8617  0.4978  0.0760
  182MPD1    C2 2770   1.077   1.974   1.204  0.1851  0.3811  0.3874
  182MPD1    C3 2771   1.112   2.007   1.075  0.7900  0.2101 -0.3642
  182MPD1    C4 2772   1.218   1.942   1.004 -0.4385 -0.0033 -0.3040
  182MPD1    C5 2773   1.277   1.846   1.072  0.3905  0.1056 -0.6106
  182MPD1     H 2774   0.991   2.020   1.252  0.0712  1.9641 -1.3311
  182MPD1    H1 2775   1.239   1.952   0.898  1.8861 -2.3347 -0.0483
  182MPD1    H2 2776   1.301   1.740   1.251  1.0396  0.4117  0.1405
  182MPD1    H3 2777   1.351   1.796   1.011 -0.2176 -0.9977 -0.4444
  182MPD1     N 2778   1.042   2.104   0.992 -0.8701 -0.2423 -0.2860
  182MPD1    H5 2779   1.056   2.097   0.892  3.9734 -1.1884  0.4537
  182MPD1    N1 2780   1.134   1.847   1.408 -0.7687 -0.0818 -0.0445
  182MPD1    H6 2781   1.041   1.866   1.446  0.0430  1.8319  0.9630
  182MPD1    H7 2782   1.154   1.750   1.432  1.0518  0.4549  0.5822
  183MPD1     C 2783   4.615   1.876   8.347  0.3451  0.6348 -0.1966
  183MPD1    C1 2784   4.565   2.005   8.345 -0.1737  0.7110  1.0152
  183MPD1    C2 2785   4.617   2.100   8.437 -0.4707 -0.3892 -0.2589
  183MPD1    C3 2786   4.700   2.064   8.540 -0.6286  0.0017 -0.4844
  183MPD1    C4 2787   0.014   1.933   8.552 -0.7955  0.7370 -0.3182
  183MPD1    C5 2788   4.700   1.846   8.453 -0.0494  0.1877 -0.0691
  183MPD1     H 2789   4.589   2.204   8.439 -0.5751 -0.4327  0.3690
  183MPD1    H1 2790   0.067   1.904   8.642 -0.5986  0.0902 -0.6407
  183MPD1    H2 2791   4.593   1.799   8.274  1.5714  1.7961 -1.8074
  183MPD1    H3 2792   4.720   1.739   8.456 -0.3507  0.1732  1.6035
  183MPD1     N 2793   4.722   2.164   8.650  0.1579 -0.0241  0.1218
  183MPD1    H5 2794   4.687   2.258   8.638 -0.7747 -0.2266  1.1642
  183MPD1    N1 2795   4.459   2.044   8.257  0.1935  0.3899 -0.8430
  183MPD1    H6 2796   4.375   1.987   8.250  0.2169  0.5064 -2.2423
  183MPD1    H7 2797   4.416   2.129   8.292  3.1500  1.4371  0.2108
  184MPD1     C 2798   4.405   4.584  10.059  0.7558  0.1197 -0.4042
  184MPD1    C1 2799   4.493   4.546   9.959  0.0011 -0.1083  0.6037
  184MPD1    C2 2800   4.542   4.646   9.874  0.4313 -0.4670 -0.1019
  184MPD1    C3 2801   4.469   0.040   9.867  0.1431 -0.5234  0.4833
  184MPD1    C4 2802   4.362   0.062   9.952  0.1004 -0.2620  0.4583
  184MPD1    C5 2803   4.338   4.705  10.057 -0.5095 -0.7418  0.3258
  184MPD1     H 2804   4.630   4.624   9.815 -0.9800 -1.9390 -1.6702
  184MPD1    H1 2805   4.294   0.146   9.950  0.3991 -0.0938 -2.7788
  184MPD1    H2 2806   4.383   4.510  10.136  1.2133 -0.5368 -0.9038
  184MPD1    H3 2807   4.255   4.720  10.125  0.2797 -3.2378  1.8615
  184MPD1     N 2808   4.496   0.137   9.769  0.3201 -0.0771  0.3686
  184MPD1    H5 2809   4.437   0.220   9.771  0.9848  0.3709  1.4795
  184MPD1    N1 2810   4.564   4.424   9.978  0.0944  0.1938 -0.4186
  184MPD1    H6 2811   4.502   4.351  10.011  1.5208 -0.7848  0.1069
  184MPD1    H7 2812   4.590   4.394   9.884 -1.7084 -1.7003 -0.3035
  185MPD1     C 2813   4.331   0.042   8.809  0.1211  0.5598  1.0799
  185MPD1    C1 2814   4.267   0.152   8.861  0.7959 -0.1349 -0.3287
  185MPD1    C2 2815   4.325   0.214   8.966  0.3679  0.2646 -0.0033
  185MPD1    C3 2816   4.434   0.152   9.036 -0.1160  0.2267 -0.0540
  185MPD1    C4 2817   4.485   0.031   8.991  0.1822 -0.3941 -0.3082
  185MPD1    C5 2818   4.433   4.709   8.874  0.1489  0.0752 -0.2214
  185MPD1     H 2819   4.277   0.300   9.012  2.1775  0.5657  1.3350
  185MPD1    H1 2820   4.569   4.709   9.039 -0.6373 -1.0008  0.5159
  185MPD1    H2 2821   4.296   4.717   8.720  0.7663  1.3510  0.3630
  185MPD1    H3 2822   4.466   4.613   8.836 -2.6445 -0.6017 -0.8945
  185MPD1     N 2823   4.488   0.197   9.157 -0.6056 -0.9925  0.5160
  185MPD1    H5 2824   4.556   0.136   9.202  1.5649  0.5210 -0.7181
  185MPD1    N1 2825   4.175   0.214   8.775 -0.1718 -0.6676 -0.2324
  185MPD1    H6 2826   4.119   0.280   8.828 -0.7924 -0.0312 -1.6815
  185MPD1    H7 2827   4.118   0.145   8.726  1.0628 -1.3136 -0.7522
  186MPD1     C 2828   3.700   0.156  15.826  0.1890 -0.1995 -0.8492
  186MPD1    C1 2829   3.604   0.127  15.920  0.3791 -0.8773  0.1105
  186MPD1    C2 2830   3.561   0.223  16.012 -0.5563 -0.4769 -0.1298
  186MPD1    C3 2831   3.615   0.349  16.019 -0.1150  0.5552 -0.5240
  186MPD1    C4 2832   3.725   0.375  15.931 -0.3517 -0.1488  0.2693
  186MPD1    C5 2833   3.760   0.282  15.835  0.9189 -0.4996 -0.0637
  186MPD1     H 2834   3.478   0.192  16.074  0.1228 -0.5887  0.7266
  186MPD1    H1 2835   3.774   0.472  15.935 -0.7427 -0.0120  2.0111
  186MPD1    H2 2836   3.747   0.085  15.760  0.2059 -1.6626  0.7426
  186MPD1    H3 2837   3.843   0.320  15.777 -0.0656 -0.6882 -1.6128
  186MPD1     N 2838   3.574   0.451  16.110 -0.3372  0.1445 -0.3923
  186MPD1    H5 2839   3.625   0.539  16.107  0.5409 -0.3955 -1.3199
  186MPD1    N1 2840   3.556   4.722  15.941 -0.0937  0.6237  1.0700
  186MPD1    H6 2841   3.456   4.711  15.960 -0.7164 -0.5059 -2.8738
  186MPD1    H7 2842   3.555   4.667  15.855 -0.1005  0.7670  0.9784
  187MPD1     C 2843   2.146   2.673   0.574  0.0963  0.5963 -0.0907
  187MPD1    C1 2844   2.206   2.590   0.481 -0.1992  0.1855 -0.4215
  187MPD1    C2 2845   2.180   2.606   0.349  0.3824 -0.5798  0.0674
  187MPD1    C3 2846   2.081   2.696   0.310 -0.0122  0.4511 -0.3973
  187MPD1    C4 2847   2.023   2.782   0.410  0.6232 -0.0817  0.1512
  187MPD1    C5 2848   2.049   2.762   0.539  0.8132  0.0995 -0.8069
  187MPD1     H 2849   2.230   2.545   0.274 -1.5345 -1.2917 -0.6298
  187MPD1    H1 2850   1.946   2.855   0.389  0.3505 -1.0117 -2.0440
  187MPD1    H2 2851   2.166   2.667   0.680 -0.1815 -1.0700 -0.1433
  187MPD1    H3 2852   2.002   2.819   0.617  0.7641 -1.4730  0.3165
  187MPD1     N 2853   2.047   2.722   0.177  0.4073  0.1644 -0.0357
  187MPD1    H5 2854   1.986   2.801   0.155  1.0246  0.2429 -1.4666
  187MPD1    N1 2855   2.317   2.516   0.523  0.2824 -0.2642 -0.1764
  187MPD1    H6 2856   2.337   2.438   0.460  0.5710 -1.7922  1.8125
  187MPD1    H7 2857   2.306   2.481   0.618  1.0311  1.4334  0.5140
  188MPD1     C 2858   3.195   1.102   9.991 -0.4924 -0.0267  0.0625
  188MPD1    C1 2859   3.065   1.108   9.939  0.4628  0.2193 -0.3519
  188MPD1    C2 2860   3.003   0.998   9.879 -0.8415 -0.2590 -0.2839
  188MPD1    C3 2861   3.079   0.886   9.859  0.3824 -0.3207 -0.0291
  188MPD1    C4 2862   3.210   0.885   9.897 -0.2824  0.4648 -0.4457
  188MPD1    C5 2863   3.262   0.987   9.956  0.8572  0.4159 -0.7432
  188MPD1     H 2864   2.900   1.008   9.848 -1.4392  0.0521  1.7749
  188MPD1    H1 2865   3.279   0.813   9.856  0.0688  1.9121 -2.3611
  188MPD1    H2 2866   3.253   1.180  10.040 -1.5943  0.5360  0.4926
  188MPD1    H3 2867   3.369   0.982   9.971 -0.0958 -2.2377  5.1406
  188MPD1     N 2868   3.019   0.774   9.803 -0.0819 -0.1275 -0.3661
  188MPD1    H5 2869   3.076   0.702   9.759  0.0779 -0.2574  0.0555
  188MPD1    N1 2870   2.993   1.221   9.974 -0.0751  0.1516 -0.4178
  188MPD1    H6 2871   2.931   1.239   9.896  0.8620 -2.7764 -1.8524
  188MPD1    H7 2872   3.055   1.299   9.992  0.1950 -0.1869  0.1302
  189MPD1     C 2873   4.172   3.156   0.544 -0.2282  0.4253 -0.4513
  189MPD1    C1 2874   4.042   3.132   0.582 -0.1810  0.3242  0.5597
  189MPD1    C2 2875   3.950   3.236   0.570 -0.0013 -0.8477  0.3850
  189MPD1    C3 2876   3.976   3.342   0.492  0.3679 -0.3261  0.0562
  189MPD1    C4 2877   4.104   3.365   0.450 -0.6533  0.0289 -0.3205
  189MPD1    C5 2878   4.201   3.275   0.476  0.4314  0.6131 -0.9746
  189MPD1     H 2879   3.851   3.230   0.615 -0.3900 -1.5046 -0.5685
  189MPD1    H1 2880   4.138   3.446   0.385 -0.8779 -0.0634 -0.5518
  189MPD1    H2 2881   4.256   3.088   0.557 -0.5198 -0.0767 -1.1697
  189MPD1    H3 2882   4.294   3.278   0.420  0.1591  3.0095 -1.2968
  189MPD1     N 2883   3.873   3.440   0.474 -0.2612  0.1743 -0.9556
  189MPD1    H5 2884   3.787   3.422   0.524  0.3512  2.1504  0.8273
  189MPD1    N1 2885   4.019   3.021   0.671  0.1095  0.3338 -0.1797
  189MPD1    H6 2886   3.921   2.993   0.666 -0.1545  0.9399  1.5282
  189MPD1    H7 2887   4.078   2.939   0.661  2.5149  2.0739 -0.1203
  190MPD1     C 2888   3.286   1.018  16.153 -0.0346 -0.5069 -0.4993
  190MPD1    C1 2889   3.363   1.089  16.066 -0.3348  0.5446  0.7203
  190MPD1    C2 2890   3.339   1.222  16.043 -0.8744  0.0578  0.0673
  190MPD1    C3 2891   3.260   1.295  16.128  0.0637  0.0321  0.3142
  190MPD1    C4 2892   3.188   1.227  16.229 -0.4215 -0.3317 -0.2532
  190MPD1    C5 2893   3.197   1.087  16.235 -0.0210 -0.1750  1.0078
  190MPD1     H 2894   3.393   1.270  15.963  0.2213 -0.7435  0.3243
  190MPD1    H1 2895   3.127   1.274  16.306  0.1586 -0.4723  0.2904
  190MPD1    H2 2896   3.275   0.910  16.151  0.5035 -0.5626 -0.4917
  190MPD1    H3 2897   3.136   1.027  16.301 -1.6409  0.4067  0.0625
  190MPD1     N 2898   3.266   1.430  16.107  0.4912  0.3246 -0.0898
  190MPD1    H5 2899   3.322   1.463  16.028  0.2954 -0.4160 -0.5384
  190MPD1    N1 2900   3.439   1.014  15.974 -0.4619 -0.1204 -0.2988
  190MPD1    H6 2901   3.478   0.928  16.012 -2.6324 -1.7087 -1.6951
  190MPD1    H7 2902   3.526   1.056  15.942  0.0901  1.0333  2.6866
  191MPD1     C 2903   2.116   3.629  12.961 -0.6408  0.9833 -0.5843
  191MPD1    C1 2904   2.185   3.700  12.872 -0.0956 -0.2308  0.3427
  191MPD1    C2 2905   2.205   3.642  12.747 -0.4471  0.0026 -0.1691
  191MPD1    C3 2906   2.141   3.528  12.703 -0.2338 -0.9272 -0.2620
  191MPD1    C4 2907   2.072   3.461  12.802  1.1361 -0.2281  0.1862
  191MPD1    C5 2908   2.061   3.509  12.928 -0.9100 -0.0436  0.1085
  191MPD1     H 2909   2.268   3.695  12.676 -0.4217 -1.1354 -0.9892
  191MPD1    H1 2910   2.028   3.365  12.779  1.8438 -0.3622 -0.6406
  191MPD1    H2 2911   2.106   3.654  13.066 -0.2790  0.5379 -0.4494
  191MPD1    H3 2912   1.995   3.460  12.998 -0.4696  1.2848  1.4592
  191MPD1     N 2913   2.160   3.478  12.574  0.3106  0.7561  0.0571
  191MPD1    H5 2914   2.236   3.529  12.531  0.5493  0.7592  0.4908
  191MPD1    N1 2915   2.248   3.823  12.907 -0.6407  0.3939 -0.2952
  191MPD1    H6 2916   2.247   3.897  12.838 -0.5180  1.4288  0.8074
  191MPD1    H7 2917   2.209   3.860  12.993 -2.1781 -3.1713  0.5446
  192MPD1     C 2918   1.852   2.940  11.650 -0.3137  0.0668 -0.2771
  192MPD1    C1 2919   1.804   2.909  11.778  0.6874  0.8567  0.7566
  192MPD1    C2 2920   1.855   2.973  11.887 -0.3648  0.3316  0.2484
  192MPD1    C3 2921   1.951   3.072  11.873  0.1174 -0.0813  0.0958
  192MPD1    C4 2922   2.006   3.089  11.748  0.6982  0.8767  0.3199
  192MPD1    C5 2923   1.953   3.026  11.641  0.8675 -0.2481  0.1284
  192MPD1     H 2924   1.820   2.958  11.988  3.5563 -2.7933  1.1334
  192MPD1    H1 2925   2.087   3.156  11.720 -0.2619  1.4281 -1.0838
  192MPD1    H2 2926   1.813   2.897  11.558  0.1306  0.8804 -0.8511
  192MPD1    H3 2927   2.007   3.026  11.546  1.7086  1.1913  0.6008
  192MPD1     N 2928   2.007   3.151  11.976  0.2544  0.0769 -0.1327
  192MPD1    H5 2929   2.094   3.202  11.960  1.2790 -1.5630  0.1466
  192MPD1    N1 2930   1.694   2.817  11.789  0.4017  0.2017  0.4826
  192MPD1    H6 2931   1.671   2.783  11.882 -1.0866 -0.7244 -0.2250
  192MPD1    H7 2932   1.689   2.734  11.730  0.2486  0.4148  0.1950
  193MPD1     C 2933   1.902   3.641  16.461 -0.4321  0.3440 -0.3533
  193MPD1    C1 2934   1.788   3.710  16.503  0.1643 -0.1083 -0.2451
  193MPD1    C2 2935   1.812   3.796  16.612 -0.5430 -0.0348  0.1864
  193MPD1    C3 2936   1.934   3.831  16.666 -0.5165 -0.1136  0.0530
  193MPD1    C4 2937   2.039   3.763  16.611  0.8398  1.1422 -0.0412
  193MPD1    C5 2938   2.020   3.661  16.521 -0.1422  0.5209 -0.4261
  193MPD1     H 2939   1.725   3.849  16.650  0.2201  1.3334  0.0384
  193MPD1    H1 2940   2.138   3.797  16.638  0.3395  3.8995 -1.7129
  193MPD1    H2 2941   1.894   3.561  16.389  2.2311 -0.2070 -0.0483
  193MPD1    H3 2942   2.107   3.605  16.488 -0.6321 -0.4706 -0.0653
  193MPD1     N 2943   1.960   3.933  16.763  0.2827 -0.0019 -0.4146
  193MPD1    H5 2944   2.060   3.947  16.780 -0.0141  1.6981 -0.1248
  193MPD1    N1 2945   1.663   3.674  16.459  0.0346 -0.6851  0.8551
  193MPD1    H6 2946   1.605   3.758  16.469 -1.4110 -1.6102  0.2437
  193MPD1    H7 2947   1.678   3.662  16.360 -1.7860  2.2120  0.2111
  194MPD1     C 2948   0.601   1.496  16.749 -0.9147  0.6322  0.1806
  194MPD1    C1 2949   0.662   1.413  16.847 -0.8281  0.1611  0.6409
  194MPD1    C2 2950   0.582   1.332  16.929 -0.4014 -0.3412  0.9743
  194MPD1    C3 2951   0.445   1.343  16.921 -0.6554  0.3607 -0.2068
  194MPD1    C4 2952   0.390   1.420  16.826  0.0060 -0.2400  0.2339
  194MPD1    C5 2953   0.464   1.496  16.742 -0.0546 -0.5137 -0.1337
  194MPD1     H 2954   0.636   1.261  16.990  1.4441  0.1976 -0.0263
  194MPD1    H1 2955   0.284   1.429  16.810  0.0818  1.2383  0.4987
  194MPD1    H2 2956   0.654   1.559  16.679  0.1165 -0.9418 -0.4691
  194MPD1    H3 2957   0.416   1.555  16.665  0.7551 -0.5940 -0.6962
  194MPD1     N 2958   0.357   1.263  17.009 -0.2140  0.2597  0.0832
  194MPD1    H5 2959   0.259   1.249  16.986 -0.3336  0.1467  0.6447
  194MPD1    N1 2960   0.798   1.388  16.828 -0.0591 -0.4124  0.0464
  194MPD1    H6 2961   0.842   1.477  16.803  1.2980 -0.5797  1.8521
  194MPD1    H7 2962   0.843   1.340  16.906 -0.1203 -0.4437  0.0616
  195MPD1     C 2963   1.235   3.077   0.460  0.1529 -0.8008  0.3128
  195MPD1    C1 2964   1.352   3.086   0.535  0.0181 -0.4304  0.4337
  195MPD1    C2 2965   1.451   2.993   0.514 -0.0661 -0.0313 -0.7687
  195MPD1    C3 2966   1.434   2.891   0.416 -0.1177 -0.5119  0.0616
  195MPD1    C4 2967   1.324   2.892   0.338 -0.0916 -0.1554 -0.3214
  195MPD1    C5 2968   1.225   2.987   0.355  0.1341  0.2655  0.2814
  195MPD1     H 2969   1.543   3.004   0.571 -1.2886 -0.1005  1.2020
  195MPD1    H1 2970   1.307   2.814   0.265  0.5941  1.8333 -2.5877
  195MPD1    H2 2971   1.157   3.151   0.473 -0.9096 -1.9398  0.4336
  195MPD1    H3 2972   1.141   2.991   0.286  0.6509 -0.0235 -0.3616
  195MPD1     N 2973   1.530   2.794   0.375  0.6193 -0.4400  0.2580
  195MPD1    H5 2974   1.507   2.730   0.300 -0.3756  0.1426  0.0620
  195MPD1    N1 2975   1.362   3.172   0.644 -0.4847 -0.0887  0.2413
  195MPD1    H6 2976   1.456   3.194   0.674 -0.7708  1.4117  0.0348
  195MPD1    H7 2977   1.303   3.254   0.634 -0.1564 -0.1104 -1.8532
  196MPD1     C 2978   1.569   1.357   1.022 -0.3440  0.2603 -1.1288
  196MPD1    C1 2979   1.527   1.432   0.915 -0.1341 -0.3431  0.2604
  196MPD1    C2 2980   1.542   1.569   0.926  0.5875  0.5614  1.0644
  196MPD1    C3 2981   1.608   1.630   1.030  0.3758 -1.1973  0.7794
  196MPD1    C4 2982   1.644   1.553   1.141  0.4062 -0.5079  0.6566
  196MPD1    C5 2983   1.633   1.418   1.128 -0.5459 -0.1205  0.1484
  196MPD1     H 2984   1.505   1.621   0.838 -1.2379 -0.2675  1.3637
  196MPD1    H1 2985   1.702   1.602   1.219 -0.4856  0.9252  0.4362
  196MPD1    H2 2986   1.541   1.252   1.012 -3.3171  0.9021  0.3301
  196MPD1    H3 2987   1.675   1.353   1.203 -1.7391 -1.9924 -0.8188
  196MPD1     N 2988   1.626   1.768   1.045 -0.0264 -0.1658  0.5664
  196MPD1    H5 2989   1.643   1.799   1.140 -0.9490  1.7556  0.1043
  196MPD1    N1 2990   1.461   1.378   0.810 -0.2058  0.2729 -0.1312
  196MPD1    H6 2991   1.491   1.419   0.722 -0.0742 -0.8293 -0.5968
  196MPD1    H7 2992   1.476   1.277   0.802 -1.4304  0.1126 -0.3902
  197MPD1     C 2993   0.682   4.066   0.048 -0.2437  0.6847  0.2825
  197MPD1    C1 2994   0.773   4.166   0.068  0.0087  0.4623  0.1841
  197MPD1    C2 2995   0.765   4.275  17.694 -0.1112  0.2417 -0.2362
  197MPD1    C3 2996   0.681   4.279  17.584 -0.1063 -0.6942 -0.4092
  197MPD1    C4 2997   0.596   4.171  17.565 -0.2037 -0.5145 -0.0354
  197MPD1    C5 2998   0.602   4.060  17.646  0.1102 -0.4724 -0.2937
  197MPD1     H 2999   0.838   4.356  17.693 -0.8821  0.9381 -1.0847
  197MPD1    H1 3000   0.525   4.170  17.482 -0.4367 -0.4754  0.1637
  197MPD1    H2 3001   0.692   3.969   0.095 -1.9958 -0.4880 -1.7364
  197MPD1    H3 3002   0.538   3.973  17.637 -0.9665  0.1271  1.6471
  197MPD1     N 3003   0.683   4.389  17.494 -0.3122  0.6051 -0.1859
  197MPD1    H5 3004   0.621   4.377  17.414 -0.6628 -2.3631  0.5170
  197MPD1    N1 3005   0.871   4.147   0.168  0.3859  0.5527  0.4662
  197MPD1    H6 3006   0.956   4.118   0.122 -1.4580 -0.2162 -2.4654
  197MPD1    H7 3007   0.892   4.241   0.201  4.1212 -1.0985  2.7069
  198MPD1     C 3008   1.956   3.298  15.827  0.3818 -0.2486 -0.1458
  198MPD1    C1 3009   2.039   3.361  15.915 -0.0153 -0.2782  0.8927
  198MPD1    C2 3010   2.161   3.306  15.943  0.0847 -0.0013  0.7330
  198MPD1    C3 3011   2.205   3.197  15.862  0.3398 -0.2414  0.5019
  198MPD1    C4 3012   2.118   3.142  15.776 -0.5152  0.8216  0.1596
  198MPD1    C5 3013   2.002   3.196  15.751 -0.0542 -0.0925 -0.1035
  198MPD1     H 3014   2.230   3.362  16.006  1.0969 -0.8339  0.3572
  198MPD1    H1 3015   2.143   3.053  15.718  2.0287  1.7838 -0.2251
  198MPD1    H2 3016   1.857   3.335  15.807  1.6842  1.8117 -2.7869
  198MPD1    H3 3017   1.944   3.147  15.674  0.0148 -0.6511  0.2004
  198MPD1     N 3018   2.342   3.158  15.881 -0.6333  0.3816 -0.5555
  198MPD1    H5 3019   2.395   3.199  15.956 -2.0878  1.9369 -0.3727
  198MPD1    N1 3020   1.993   3.467  15.986 -0.0731  0.2453  0.5024
  198MPD1    H6 3021   2.071   3.527  16.013 -1.6586  2.5999 -0.1119
  198MPD1    H7 3022   1.933   3.529  15.933  1.6952 -1.0474 -3.0230
  199MPD1     C 3023   4.548   3.044   9.099  0.5594  0.1630  0.3212
  199MPD1    C1 3024   4.416   3.054   9.151 -0.1014 -0.0909 -0.6126
  199MPD1    C2 3025   4.365   3.173   9.194  0.2514 -0.4025 -0.7126
  199MPD1    C3 3026   4.445   3.284   9.193  0.4339 -0.0596  0.4020
  199MPD1    C4 3027   4.571   3.282   9.150 -0.7374 -0.4834  0.4712
  199MPD1    C5 3028   4.620   3.164   9.098 -0.2657  0.5903 -0.0731
  199MPD1     H 3029   4.259   3.172   9.218  0.4159  1.5641  0.1334
  199MPD1    H1 3030   4.636   3.368   9.156  0.0396 -1.0433  0.1200
  199MPD1    H2 3031   4.597   2.958   9.055 -0.2704  1.0569 -2.3643
  199MPD1    H3 3032   4.709   3.157   9.037 -1.3041 -0.3315 -1.4937
  199MPD1     N 3033   4.395   3.412   9.228  0.1224  0.0218  0.3716
  199MPD1    H5 3034   4.470   3.477   9.210 -0.9604  1.0729 -0.3909
  199MPD1    N1 3035   4.332   2.941   9.133  0.4815 -0.2165 -0.2232
  199MPD1    H6 3036   4.257   2.938   9.202  0.8207 -0.4587  0.1304
  199MPD1    H7 3037   4.391   2.859   9.145  1.7399  0.3299 -2.7410
  200MPD1     C 3038   3.375   4.074  15.810  0.1100 -0.0774  0.0272
  200MPD1    C1 3039   3.488   4.006  15.860  0.0525 -0.0505 -0.1043
  200MPD1    C2 3040   3.607   4.032  15.797  0.5282  0.2909  0.1682
  200MPD1    C3 3041   3.625   4.123  15.701  0.0086 -0.5027  0.1539
  200MPD1    C4 3042   3.508   4.191  15.659  0.0110 -0.1807  0.7129
  200MPD1    C5 3043   3.386   4.165  15.715 -0.4130 -0.2963  0.4114
  200MPD1     H 3044   3.691   3.980  15.841  0.1050 -0.5579 -0.0245
  200MPD1    H1 3045   3.514   4.259  15.575 -0.5565 -1.5809 -0.4464
  200MPD1    H2 3046   3.276   4.056  15.851  0.3384 -0.2518  0.5109
  200MPD1    H3 3047   3.295   4.202  15.671 -0.7372 -1.8340 -0.2213
  200MPD1     N 3048   3.753   4.148  15.641  0.0441 -0.1931 -0.2253
  200MPD1    H5 3049   3.821   4.073  15.650  0.0150  0.0264  1.7698
  200MPD1    N1 3050   3.478   3.898  15.950 -0.3684  0.0688 -0.6483
  200MPD1    H6 3051   3.391   3.900  16.004 -1.4546 -1.5892 -2.3290
  200MPD1    H7 3052   3.560   3.893  16.010  0.1360  2.4372 -1.1521
  201MPD1     C 3053   0.842   3.354  13.395 -0.4192 -0.8651 -0.3359
  201MPD1    C1 3054   0.878   3.243  13.466 -0.2529 -0.6119  0.8997
  201MPD1    C2 3055   0.916   3.128  13.392 -0.4221 -0.1699 -0.1655
  201MPD1    C3 3056   0.927   3.136  13.257  0.4143  0.5063 -0.2679
  201MPD1    C4 3057   0.890   3.249  13.188 -0.2332  0.0138  0.7713
  201MPD1    C5 3058   0.841   3.353  13.259 -0.1592 -0.1816  0.2955
  201MPD1     H 3059   0.929   3.033  13.441 -0.1302 -1.2856 -2.4082
  201MPD1    H1 3060   0.893   3.258  13.080  0.3568 -1.2611  0.6905
  201MPD1    H2 3061   0.805   3.443  13.443  1.6357  0.1872 -0.6951
  201MPD1    H3 3062   0.816   3.447  13.212 -1.1614 -0.4842  0.2286
  201MPD1     N 3063   0.987   3.026  13.191 -0.8463  0.6144  0.1712
  201MPD1    H5 3064   1.016   2.947  13.248  3.9768  2.8294  0.8305
  201MPD1    N1 3065   0.850   3.229  13.605 -0.4941  0.4029  0.0637
  201MPD1    H6 3066   0.880   3.304  13.668  0.4172  1.0985 -1.1976
  201MPD1    H7 3067   0.905   3.156  13.650 -0.6394 -0.4112 -1.1016
  202MPD1     C 3068   0.299   1.390   8.991  0.0803 -1.2052 -0.3988
  202MPD1    C1 3069   0.425   1.345   8.994 -0.1559 -0.7207  0.6743
  202MPD1    C2 3070   0.492   1.372   9.116 -0.4812 -0.4260 -0.0648
  202MPD1    C3 3071   0.459   1.481   9.190 -0.4390 -1.2510 -0.1584
  202MPD1    C4 3072   0.346   1.551   9.160 -0.1286 -0.9927 -0.1247
  202MPD1    C5 3073   0.263   1.497   9.068  0.0792 -0.0460  0.0542
  202MPD1     H 3074   0.588   1.323   9.129 -0.7090 -0.1148  2.6878
  202MPD1    H1 3075   0.313   1.627   9.231  0.1891  0.7708 -1.8644
  202MPD1    H2 3076   0.229   1.359   8.914 -0.5099 -1.2382  0.1581
  202MPD1    H3 3077   0.166   1.545   9.060 -1.3430 -2.5338  2.6685
  202MPD1     N 3078   0.536   1.536   9.295 -0.5579 -0.3823  0.5898
  202MPD1    H5 3079   0.494   1.619   9.334  0.0179 -0.5637  1.6094
  202MPD1    N1 3080   0.443   1.229   8.924  0.5571  1.0460  0.2452
  202MPD1    H6 3081   0.541   1.201   8.926  0.2703  0.0950  1.0772
  202MPD1    H7 3082   0.407   1.232   8.829  0.7851  1.6427  0.1794
  203MPD1     C 3083   3.644   2.879  11.427 -0.0584 -0.7201 -1.1459
  203MPD1    C1 3084   3.733   2.772  11.422  0.1097 -0.8154 -0.1600
  203MPD1    C2 3085   3.832   2.769  11.521  0.3046 -0.5177 -0.4944
  203MPD1    C3 3086   3.815   2.852  11.630 -0.7223  0.3399  0.4854
  203MPD1    C4 3087   3.712   2.943  11.643 -0.1181 -0.5537  1.0529
  203MPD1    C5 3088   3.631   2.963  11.535 -0.4179 -0.5636  0.3004
  203MPD1     H 3089   3.917   2.704  11.506  1.2046  0.3957  0.6720
  203MPD1    H1 3090   3.693   3.000  11.733 -0.9989 -0.0211  0.5276
  203MPD1    H2 3091   3.574   2.889  11.344  1.2995 -1.3021 -2.3583
  203MPD1    H3 3092   3.555   3.039  11.526  0.1233  0.0005  0.4877
  203MPD1     N 3093   3.903   2.827  11.738 -0.3533  0.2978  0.4109
  203MPD1    H5 3094   3.973   2.754  11.728  0.6689  1.3993 -0.4003
  203MPD1    N1 3095   3.756   2.717  11.297  0.0135  0.2547 -0.0622
  203MPD1    H6 3096   3.673   2.727  11.240  0.6041  1.3267 -0.7364
  203MPD1    H7 3097   3.788   2.621  11.308 -1.4571 -0.1163  0.9807
  204MPD1     C 3098   0.464   4.222  17.166 -0.6826  0.2826 -0.0201
  204MPD1    C1 3099   0.464   4.183  17.035  0.0852 -0.2334  0.3445
  204MPD1    C2 3100   0.351   4.132  16.976 -0.8557 -0.0050  0.6926
  204MPD1    C3 3101   0.228   4.150  17.041 -0.0665  0.2682 -0.4035
  204MPD1    C4 3102   0.221   4.198  17.171 -0.4816  0.0013 -0.9785
  204MPD1    C5 3103   0.341   4.229  17.230  0.6002 -0.0418  0.3283
  204MPD1     H 3104   0.353   4.088  16.877 -0.8938 -0.1319  0.7474
  204MPD1    H1 3105   0.128   4.203  17.228  0.4124 -1.3125  0.6084
  204MPD1    H2 3106   0.554   4.246  17.221  0.1177 -0.7199 -0.8775
  204MPD1    H3 3107   0.346   4.254  17.335 -1.0274 -1.6369  0.7853
  204MPD1     N 3108   0.110   4.109  16.978  0.1825 -0.5344 -0.9597
  204MPD1    H5 3109   0.126   4.065  16.887  1.1047 -2.8723  0.3279
  204MPD1    N1 3110   0.586   4.157  16.972 -0.7741  0.5192  0.0890
  204MPD1    H6 3111   0.652   4.231  16.996 -0.0666  0.0082 -0.2644
  204MPD1    H7 3112   0.590   4.152  16.871 -2.9668 -1.0592  0.0859
  205MPD1     C 3113   0.343   3.018  16.586  0.5756 -0.3514  0.6355
  205MPD1    C1 3114   0.349   2.945  16.702  0.3818  0.7656 -0.8565
  205MPD1    C2 3115   0.278   2.986  16.814 -0.4433  0.2124 -0.3520
  205MPD1    C3 3116   0.184   3.085  16.797  0.7035  0.5209 -0.0346
  205MPD1    C4 3117   0.176   3.151  16.677 -1.1975 -0.3054 -0.0239
  205MPD1    C5 3118   0.251   3.117  16.570  0.1690 -0.0508  0.2748
  205MPD1     H 3119   0.295   2.929  16.905  0.9521  1.6798  0.3016
  205MPD1    H1 3120   0.117   3.239  16.658 -0.3718  0.1537 -0.4379
  205MPD1    H2 3121   0.401   2.990  16.498 -0.1242 -0.5284  0.2244
  205MPD1    H3 3122   0.246   3.175  16.479  0.1994 -0.0262  0.2888
  205MPD1     N 3123   0.098   3.120  16.901  0.3203  0.3550  0.0777
  205MPD1    H5 3124   0.021   3.186  16.895 -0.2748 -0.5858 -2.6165
  205MPD1    N1 3125   0.449   2.847  16.718 -0.0497  0.0946 -0.8924
  205MPD1    H6 3126   0.472   2.791  16.636  0.4274  2.5283 -2.4054
  205MPD1    H7 3127   0.416   2.782  16.790 -0.3359  2.9101  1.5157
  206MPD1     C 3128   0.368   1.406  14.883 -0.1150 -0.4032 -0.3625
  206MPD1    C1 3129   0.369   1.275  14.867  0.0176 -0.0936  0.1228
  206MPD1    C2 3130   0.292   1.193  14.951  0.4730  1.0828  0.0625
  206MPD1    C3 3131   0.212   1.253  15.047 -1.2580  0.6479 -0.9060
  206MPD1    C4 3132   0.215   1.391  15.066  0.5413 -0.3987 -0.0659
  206MPD1    C5 3133   0.293   1.464  14.982 -0.5361 -0.3313  0.1339
  206MPD1     H 3134   0.306   1.086  14.940  0.1337  1.0027  0.4394
  206MPD1    H1 3135   0.143   1.448  15.123  3.6450  2.0247  1.4571
  206MPD1    H2 3136   0.437   1.471  14.830 -0.9060  0.2653 -0.5782
  206MPD1    H3 3137   0.290   1.571  14.997 -3.0295 -0.3498 -0.2614
  206MPD1     N 3138   0.139   1.183  15.140 -0.7587  0.5939 -0.5089
  206MPD1    H5 3139   0.104   1.239  15.217 -0.2443 -0.6775  0.6603
  206MPD1    N1 3140   0.457   1.229  14.764 -0.2823  0.1243  0.1833
  206MPD1    H6 3141   0.481   1.302  14.697  0.9601  1.1620  1.7668
  206MPD1    H7 3142   0.406   1.159  14.710  0.4753  0.3204 -0.7715
  207MPD1     C 3143   3.058   0.648  10.854 -0.4977  0.0291  0.7975
  207MPD1    C1 3144   3.196   0.624  10.826 -0.3478  0.1758 -0.8781
  207MPD1    C2 3145   3.243   0.497  10.838  0.5103 -0.1544 -0.4824
  207MPD1    C3 3146   3.156   0.392  10.852 -0.8791 -0.1873  0.4573
  207MPD1    C4 3147   3.020   0.410  10.855  0.5172  0.1970 -0.1287
  207MPD1    C5 3148   2.978   0.539  10.877 -0.2452 -0.6707 -0.0236
  207MPD1     H 3149   3.351   0.487  10.831  0.7622  0.7827  2.1907
  207MPD1    H1 3150   2.961   0.320  10.864 -1.3302  1.3604 -0.5157
  207MPD1    H2 3151   3.016   0.748  10.857  0.0557  0.4051 -3.3500
  207MPD1    H3 3152   2.873   0.557  10.898 -0.3208  2.1488 -2.8027
  207MPD1     N 3153   3.202   0.260  10.845 -0.4278  0.6382 -0.0288
  207MPD1    H5 3154   3.129   0.192  10.861 -1.4664  2.3550  2.5839
  207MPD1    N1 3155   3.283   0.733  10.807 -0.0075 -0.3250  0.2932
  207MPD1    H6 3156   3.241   0.794  10.737  1.4923 -0.8268 -1.0594
  207MPD1    H7 3157   3.379   0.708  10.783  0.0405 -2.5327  2.8556
  208MPD1     C 3158   0.509   2.388  16.897  0.7581  0.1437 -0.2238
  208MPD1    C1 3159   0.411   2.460  16.957 -0.0482  0.1709 -0.3502
  208MPD1    C2 3160   0.389   2.442  17.088 -0.2628  0.7059 -0.2323
  208MPD1    C3 3161   0.450   2.345  17.158  0.2786 -0.0124  1.0609
  208MPD1    C4 3162   0.547   2.265  17.099 -0.5085 -0.3960  0.1018
  208MPD1    C5 3163   0.573   2.286  16.971 -0.5474  0.0714  0.4759
  208MPD1     H 3164   0.314   2.501  17.139 -0.7398 -0.0532 -0.0686
  208MPD1    H1 3165   0.600   2.186  17.150 -1.9250 -1.7326 -0.4761
  208MPD1    H2 3166   0.540   2.414  16.796  0.5069  0.2385 -0.2763
  208MPD1    H3 3167   0.646   2.229  16.914 -1.1667 -1.1395  0.8852
  208MPD1     N 3168   0.413   2.324  17.293 -0.1097  0.2082 -0.5961
  208MPD1    H5 3169   0.356   2.397  17.336 -1.9965 -0.6968 -1.6002
  208MPD1    N1 3170   0.365   2.575  16.899  1.0476  0.5208 -0.0235
  208MPD1    H6 3171   0.344   2.567  16.800 -0.2645 -2.1640  0.4935
  208MPD1    H7 3172   0.287   2.605  16.957 -0.6085  0.2182 -2.0793
  209MPD1     C 3173   2.562   4.054  12.107 -0.1832  0.4716 -0.6085
  209MPD1    C1 3174   2.573   4.160  12.020  0.5859  0.1560 -0.1675
  209MPD1    C2 3175   2.615   4.132  11.884  0.3151  0.3431  0.1341
  209MPD1    C3 3176   2.659   4.010  11.846 -0.4946 -0.2135  0.5129
  209MPD1    C4 3177   2.655   3.906  11.940  0.0887  0.8322  0.7381
  209MPD1    C5 3178   2.610   3.932  12.069  0.1505  0.0738 -0.0444
  209MPD1     H 3179   2.628   4.211  11.811 -1.3359 -0.5016 -1.0770
  209MPD1    H1 3180   2.691   3.805  11.919  1.0587  1.2847  0.2163
  209MPD1    H2 3181   2.513   4.066  12.203  0.6252  0.3031 -0.1759
  209MPD1    H3 3182   2.608   3.855  12.145 -0.1936 -0.2861 -0.4152
  209MPD1     N 3183   2.711   3.996  11.715 -0.5899  0.2837  0.3325
  209MPD1    H5 3184   2.696   4.079  11.658 -1.2585 -0.1943 -0.2012
  209MPD1    N1 3185   2.508   4.279  12.043 -0.5278  0.5328 -0.5489
  209MPD1    H6 3186   2.545   4.356  11.988  0.0148 -0.5176 -1.6367
  209MPD1    H7 3187   2.514   4.312  12.139  0.1959  0.2864 -0.5098
  210MPD1     C 3188   3.140   3.505  10.823  0.2081  0.7614 -0.3764
  210MPD1    C1 3189   3.133   3.457  10.953  0.2589  0.3109  0.1501
  210MPD1    C2 3190   3.043   3.505  11.045 -0.1681  0.1493 -0.2393
  210MPD1    C3 3191   2.965   3.622  11.008  0.3245 -0.2156 -0.0019
  210MPD1    C4 3192   2.973   3.668  10.880  0.4965  0.6624 -0.4613
  210MPD1    C5 3193   3.047   3.602  10.792  0.0071 -0.3911  0.3856
  210MPD1     H 3194   3.031   3.470  11.147 -0.8159  1.5782  0.1839
  210MPD1    H1 3195   2.918   3.754  10.845  0.9447  0.4175 -1.7702
  210MPD1    H2 3196   3.184   3.447  10.742  0.4056  0.8927 -0.3639
  210MPD1    H3 3197   3.046   3.633  10.688 -0.5592 -0.0313  0.5004
  210MPD1     N 3198   2.891   3.702  11.098  0.2590  0.0011  0.0332
  210MPD1    H5 3199   2.843   3.779  11.053 -2.1983 -1.3984  0.2130
  210MPD1    N1 3200   3.209   3.343  10.986  0.2354 -0.3684 -0.1867
  210MPD1    H6 3201   3.242   3.364  11.080 -1.9053  0.6854  0.3289
  210MPD1    H7 3202   3.281   3.334  10.915 -0.5021  0.7201 -1.0786
  211MPD1     C 3203   0.259   2.439  16.642  0.3162 -0.0029 -0.0240
  211MPD1    C1 3204   0.286   2.558  16.571 -0.4740  0.4277  0.4895
  211MPD1    C2 3205   0.206   2.669  16.584  0.1810 -0.4423 -0.4445
  211MPD1    C3 3206   0.090   2.650  16.658 -0.5796  0.2297 -0.6011
  211MPD1    C4 3207   0.065   2.530  16.723  0.7714 -0.2503 -0.4634
  211MPD1    C5 3208   0.144   2.425  16.711 -0.8638 -0.2885 -0.0749
  211MPD1     H 3209   0.228   2.765  16.539 -1.0226  0.2994  0.5632
  211MPD1    H1 3210   4.705   2.513  16.787  2.2031 -0.8155  1.3188
  211MPD1    H2 3211   0.322   2.353  16.625  0.3455 -0.1683  0.9145
  211MPD1    H3 3212   0.112   2.333  16.759 -0.5134 -0.3785 -0.0184
  211MPD1     N 3213   0.004   2.760  16.666 -0.6621 -0.1658  0.1368
  211MPD1    H5 3214   0.038   2.839  16.611 -0.5288  0.2872  0.8610
  211MPD1    N1 3215   0.408   2.565  16.508  0.3734 -0.7350 -0.0453
  211MPD1    H6 3216   0.404   2.609  16.417 -0.1958  2.2136  1.3977
  211MPD1    H7 3217   0.430   2.469  16.482 -1.7623 -0.9763 -0.9239
  212MPD1     C 3218   4.682   1.468  16.679  0.1609 -0.6000  0.0014
  212MPD1    C1 3219   4.651   1.435  16.811  0.6150  0.9047  0.3232
  212MPD1    C2 3220   4.548   1.347  16.839 -0.6590  0.0263  0.0636
  212MPD1    C3 3221   4.473   1.290  16.734  0.8382 -0.1414  0.0791
  212MPD1    C4 3222   4.506   1.323  16.601  0.8668 -0.1981 -0.5356
  212MPD1    C5 3223   4.600   1.419  16.575 -0.2502 -0.0720  0.3214
  212MPD1     H 3224   4.537   1.306  16.939  0.3662  2.4058  1.1504
  212MPD1    H1 3225   4.449   1.283  16.518  1.4788 -0.7610 -0.6828
  212MPD1    H2 3226   0.038   1.538  16.664 -0.3789 -0.4107 -1.9289
  212MPD1    H3 3227   4.619   1.435  16.470  1.0779 -0.2886  0.5245
  212MPD1     N 3228   4.372   1.197  16.762  0.5660  0.2005  0.0542
  212MPD1    H5 3229   4.330   1.144  16.686 -0.7689  0.3086  0.7324
  212MPD1    N1 3230   0.003   1.472  16.916 -0.1037 -0.1066 -0.3749
  212MPD1    H6 3231   0.048   1.563  16.901 -2.2526  1.3159  1.7678
  212MPD1    H7 3232   4.685   1.475  17.008  0.8955 -1.6742  0.1503
  213MPD1     C 3233   2.725   2.183  16.204  0.5434  0.4615  0.0173
  213MPD1    C1 3234   2.609   2.102  16.195  0.9862 -0.6089 -0.4956
  213MPD1    C2 3235   2.537   2.107  16.075  0.0468  0.3200 -0.3253
  213MPD1    C3 3236   2.561   2.204  15.973 -0.0714 -0.3971  0.1185
  213MPD1    C4 3237   2.674   2.289  15.991  0.1169  0.0617  0.0645
  213MPD1    C5 3238   2.743   2.276  16.105 -0.5806 -0.1353 -0.9325
  213MPD1     H 3239   2.460   2.034  16.053 -0.3033  0.4881  0.3321
  213MPD1    H1 3240   2.712   2.353  15.912  1.7106 -1.4294 -0.3648
  213MPD1    H2 3241   2.790   2.178  16.290  0.8501 -2.5502 -0.3977
  213MPD1    H3 3242   2.836   2.331  16.118  0.7632 -2.0144 -2.4773
  213MPD1     N 3243   2.476   2.212  15.862  0.2174 -0.6402  0.2876
  213MPD1    H5 3244   2.406   2.139  15.848  0.0489 -0.4020 -0.1237
  213MPD1    N1 3245   2.608   1.985  16.264 -0.3194 -0.2119  0.1200
  213MPD1    H6 3246   2.520   1.936  16.276 -1.1643  1.4967  0.8955
  213MPD1    H7 3247   2.643   2.004  16.358  0.6957 -0.4591 -0.2002
  214MPD1     C 3248   2.093   1.567  15.447 -0.2686 -0.3379  0.0763
  214MPD1    C1 3249   2.083   1.660  15.339 -0.0042  0.8579 -0.0552
  214MPD1    C2 3250   2.129   1.791  15.358 -0.8392  0.3976 -0.0651
  214MPD1    C3 3251   2.182   1.824  15.486 -0.8133 -0.3108 -0.0252
  214MPD1    C4 3252   2.202   1.727  15.580  0.8452 -0.5473 -0.1602
  214MPD1    C5 3253   2.161   1.598  15.558  0.3368 -0.3341  0.9651
  214MPD1     H 3254   2.133   1.858  15.273  0.5415  0.5396  0.1116
  214MPD1    H1 3255   2.253   1.751  15.672  2.3517  1.5669 -1.5734
  214MPD1    H2 3256   2.040   1.472  15.448 -1.9321  0.5932  0.5816
  214MPD1    H3 3257   2.167   1.523  15.637 -0.4991 -0.2964  1.0637
  214MPD1     N 3258   2.207   1.961  15.527 -0.8865  0.0339 -0.1302
  214MPD1    H5 3259   2.233   1.972  15.624 -0.0361 -2.5623 -0.0703
  214MPD1    N1 3260   1.998   1.638  15.227  0.1071 -0.4910  0.7468
  214MPD1    H6 3261   1.998   1.537  15.213 -1.3377 -0.3665 -0.1890
  214MPD1    H7 3262   2.027   1.678  15.137 -1.6688  0.3035  0.5272
  215MPD1     C 3263   2.248   2.325  10.748 -0.4507  0.0069 -0.1577
  215MPD1    C1 3264   2.244   2.351  10.882 -0.3006  0.2258  0.4095
  215MPD1    C2 3265   2.265   2.482  10.919 -0.4378  0.0629  0.4758
  215MPD1    C3 3266   2.316   2.588  10.839 -0.0452  0.4770 -0.3268
  215MPD1    C4 3267   2.342   2.551  10.705 -0.4399 -0.4599 -0.0435
  215MPD1    C5 3268   2.298   2.428  10.663 -0.4434 -0.0515 -0.1537
  215MPD1     H 3269   2.261   2.503  11.025  1.4408 -1.2451  0.8005
  215MPD1    H1 3270   2.378   2.619  10.629 -0.4004 -0.4546 -0.0204
  215MPD1    H2 3271   2.208   2.235  10.703  0.5656 -1.0427  1.0312
  215MPD1    H3 3272   2.290   2.407  10.557 -0.2509 -1.2887  0.0840
  215MPD1     N 3273   2.361   2.706  10.899 -0.2275 -0.4270  0.8538
  215MPD1    H5 3274   2.351   2.711  11.000 -1.4926  0.8420  0.6593
  215MPD1    N1 3275   2.172   2.270  10.974  0.4910  0.3673 -0.6758
  215MPD1    H6 3276   2.209   2.284  11.068 -0.0323 -0.6812 -0.3202
  215MPD1    H7 3277   2.184   2.174  10.945 -0.4727  0.7041 -2.2078
  216MPD1     C 3278   4.562   0.933  16.505  0.1784  0.0226 -0.0659
  216MPD1    C1 3279   4.514   0.826  16.446  0.6234 -0.4399 -0.0733
  216MPD1    C2 3280   4.509   0.715  16.524 -0.3866  0.1360  0.1022
  216MPD1    C3 3281   4.544   0.705  16.657 -0.2486 -0.3342 -0.9068
  216MPD1    C4 3282   4.591   0.823  16.718 -0.1321 -0.6830 -0.0228
  216MPD1    C5 3283   4.608   0.935  16.634  0.4457  0.2515  0.4783
  216MPD1     H 3284   4.464   0.629  16.474 -0.1057 -0.9099  1.6648
  216MPD1    H1 3285   4.604   0.834  16.826 -1.2637 -0.4108  0.0851
  216MPD1    H2 3286   4.588   1.020  16.445  1.4419  0.3676  0.9973
  216MPD1    H3 3287   4.650   1.028  16.669 -1.1621  0.5907  1.4775
  216MPD1     N 3288   4.531   0.587  16.724 -0.1082 -0.1491 -0.3176
  216MPD1    H5 3289   4.498   0.509  16.669 -0.5255  0.2246 -0.5992
  216MPD1    N1 3290   4.501   0.832  16.307 -0.0376  0.0387 -0.0569
  216MPD1    H6 3291   4.487   0.930  16.282 -2.0342 -0.4912 -1.0772
  216MPD1    H7 3292   4.412   0.782  16.296  1.2188 -1.4924 -3.3098
  217MPD1     C 3293   4.674   0.745   8.632  0.2739 -0.3343 -0.1128
  217MPD1    C1 3294   4.576   0.841   8.631  0.2071  0.1944 -0.3476
  217MPD1    C2 3295   4.578   0.944   8.724  0.5625 -0.0406  0.1254
  217MPD1    C3 3296   4.680   0.954   8.814 -0.0089  0.2272  0.4119
  217MPD1    C4 3297   0.048   0.858   8.814 -0.2628  0.1582  0.2137
  217MPD1    C5 3298   0.044   0.750   8.724  0.1751 -0.0092  0.0142
  217MPD1     H 3299   4.499   1.019   8.733  1.5867  1.3954 -2.8929
  217MPD1    H1 3300   0.126   0.868   8.888 -1.1953  1.2162  1.0542
  217MPD1    H2 3301   4.685   0.665   8.559 -0.2476 -0.8967  0.4278
  217MPD1    H3 3302   0.132   0.687   8.720 -0.0118 -0.3198  0.7296
  217MPD1     N 3303   4.689   1.052   8.910 -0.4182  0.3553 -0.7124
  217MPD1    H5 3304   0.052   1.047   8.960 -1.5230  0.0081  1.2015
  217MPD1    N1 3305   4.479   0.850   8.529  0.1493 -0.2047  0.0601
  217MPD1    H6 3306   4.476   0.760   8.483 -1.5912 -1.8950  3.5585
  217MPD1    H7 3307   4.391   0.872   8.575 -0.5594 -0.5217 -1.1489
  218MPD1     C 3308   1.975   4.139  12.766  0.2410 -0.3742 -0.2951
  218MPD1    C1 3309   1.901   4.072  12.855  0.4874 -0.1723  1.1019
  218MPD1    C2 3310   1.870   3.945  12.826 -0.3257 -0.3328  0.3329
  218MPD1    C3 3311   1.909   3.881  12.714 -0.0080  0.4263 -0.4368
  218MPD1    C4 3312   1.998   3.944  12.634  0.5451  0.0833 -0.6322
  218MPD1    C5 3313   2.029   4.073  12.663  0.1443 -0.3782  0.0947
  218MPD1     H 3314   1.811   3.899  12.904 -0.1334  1.6754  1.6689
  218MPD1    H1 3315   2.039   3.899  12.544 -1.3931 -0.0888 -1.4310
  218MPD1    H2 3316   2.019   4.235  12.789 -2.4945  0.6060  0.8288
  218MPD1    H3 3317   2.099   4.123  12.598  2.5021  1.0504  3.7286
  218MPD1     N 3318   1.839   3.762  12.672 -0.7651 -0.0524 -0.4223
  218MPD1    H5 3319   1.770   3.731  12.740 -0.3506 -1.5721 -0.6956
  218MPD1    N1 3320   1.837   4.131  12.967 -0.3760  0.0227 -0.1413
  218MPD1    H6 3321   1.792   4.065  13.030 -1.1907  0.1629 -0.5789
  218MPD1    H7 3322   1.901   4.187  13.024 -1.7691  0.2235  1.2067
  219MPD1     C 3323   1.471   3.415  11.814 -0.1832 -0.4564  0.0450
  219MPD1    C1 3324   1.389   3.402  11.927  0.2144 -0.3115 -0.9923
  219MPD1    C2 3325   1.453   3.390  12.046  0.2763 -0.0865 -0.5957
  219MPD1    C3 3326   1.586   3.422  12.061  0.3354  0.2169 -0.1687
  219MPD1    C4 3327   1.659   3.460  11.955 -0.6719 -0.4010  0.1107
  219MPD1    C5 3328   1.600   3.452  11.833  0.0294 -1.0508  0.1490
  219MPD1     H 3329   1.399   3.356  12.133  0.6449  4.0115  1.1964
  219MPD1    H1 3330   1.762   3.493  11.962 -1.2171  0.9059  2.2951
  219MPD1    H2 3331   1.429   3.409  11.714  0.7661 -0.7551 -0.3349
  219MPD1    H3 3332   1.663   3.468  11.746  1.2872  1.0987  1.4477
  219MPD1     N 3333   1.652   3.420  12.182 -0.0419 -0.2733 -0.5850
  219MPD1    H5 3334   1.747   3.455  12.189  0.4122 -1.3908 -1.1804
  219MPD1    N1 3335   1.265   3.354  11.903  0.1258 -0.1294 -0.0002
  219MPD1    H6 3336   1.203   3.355  11.984  1.1882  2.3245  0.7890
  219MPD1    H7 3337   1.212   3.386  11.822  0.4824 -1.9482 -0.9627
  220MPD1     C 3338   2.434   4.107   9.532 -0.0909 -0.1256  0.0360
  220MPD1    C1 3339   2.543   4.036   9.579 -0.1206  0.5372  0.2836
  220MPD1    C2 3340   2.512   3.942   9.678 -0.0604  0.3878  0.3584
  220MPD1    C3 3341   2.388   3.923   9.740  0.2358 -0.3490 -0.6271
  220MPD1    C4 3342   2.289   4.015   9.707 -0.2474  0.1415  0.3521
  220MPD1    C5 3343   2.317   4.101   9.603 -0.3592  0.5333  0.3137
  220MPD1     H 3344   2.592   3.874   9.706  0.1212  1.9285  3.5692
  220MPD1    H1 3345   2.186   4.007   9.741 -0.1677  1.1516  0.8055
  220MPD1    H2 3346   2.450   4.165   9.442  2.4610  0.2354  0.7113
  220MPD1    H3 3347   2.229   4.149   9.561 -0.4607  1.1736  1.2641
  220MPD1     N 3348   2.382   3.823   9.841 -0.4103 -0.0446  0.1113
  220MPD1    H5 3349   2.466   3.771   9.861 -0.7610  0.5231  2.9978
  220MPD1    N1 3350   2.662   4.028   9.498 -0.1428  1.0854 -0.0145
  220MPD1    H6 3351   2.749   4.015   9.549 -0.4831  1.0637  0.5614
  220MPD1    H7 3352   2.686   4.115   9.451  0.5052  0.8124 -0.1840
  221MPD1     C 3353   3.708   2.986  16.826  0.6826  0.5630 -0.2822
  221MPD1    C1 3354   3.823   2.970  16.902 -0.5307  0.6083 -0.1635
  221MPD1    C2 3355   3.933   2.921  16.836  0.1641 -0.1950  0.2156
  221MPD1    C3 3356   3.937   2.887  16.703 -0.4290  0.4876  0.2446
  221MPD1    C4 3357   3.820   2.892  16.637  0.0450 -0.0758 -0.4489
  221MPD1    C5 3358   3.713   2.948  16.696 -0.9560  0.7009 -0.1355
  221MPD1     H 3359   4.022   2.910  16.896 -0.3389  0.4912  1.0800
  221MPD1    H1 3360   3.808   2.853  16.536 -2.3242 -1.4284  0.3581
  221MPD1    H2 3361   3.620   3.040  16.859 -0.6991 -1.6139 -0.4015
  221MPD1    H3 3362   3.622   2.956  16.638 -1.0609 -1.2637 -0.2343
  221MPD1     N 3363   4.048   2.834  16.636 -0.0266  0.5128  0.1844
  221MPD1    H5 3364   4.032   2.811  16.538  1.7369  2.9022 -0.6628
  221MPD1    N1 3365   3.819   2.973  17.045  0.0379 -0.2087 -0.2551
  221MPD1    H6 3366   3.895   3.028  17.085  3.6029 -3.1797 -3.0433
  221MPD1    H7 3367   3.735   3.026  17.068 -1.5379 -1.7565 -2.3711
  222MPD1     C 3368   4.290   1.820  16.966  0.2499 -0.1111 -0.7079
  222MPD1    C1 3369   4.219   1.875  17.076  0.8796  0.3911 -0.0914
  222MPD1    C2 3370   4.178   1.785  17.167 -0.9678 -0.4863  0.0276
  222MPD1    C3 3371   4.206   1.651  17.167 -0.1392  0.2546 -0.3518
  222MPD1    C4 3372   4.282   1.603  17.066  0.0971  0.5217 -0.3091
  222MPD1    C5 3373   4.319   1.683  16.966  0.1444  0.2914 -0.1539
  222MPD1     H 3374   4.120   1.828  17.249 -0.5948 -0.5421  0.3235
  222MPD1    H1 3375   4.323   1.504  17.054 -0.4903  0.4176 -1.4284
  222MPD1    H2 3376   4.332   1.875  16.883  0.3177 -0.1358 -0.6905
  222MPD1    H3 3377   4.376   1.637  16.886 -1.9920 -2.0683 -0.3091
  222MPD1     N 3378   4.168   1.566  17.275 -0.2783  0.0568  0.1033
  222MPD1    H5 3379   4.203   1.471  17.266 -0.4384 -0.0271  0.3752
  222MPD1    N1 3380   4.178   2.009  17.073  0.2045 -0.0546  0.5526
  222MPD1    H6 3381   4.255   2.066  17.038 -1.1500  1.4093 -0.0818
  222MPD1    H7 3382   4.167   2.047  17.167 -0.6321  0.3384  0.3066
  223MPD1     C 3383   4.257   0.769  17.169 -0.0232  0.3209  0.0578
  223MPD1    C1 3384   4.332   0.884  17.146  0.3972  0.2874 -0.3604
  223MPD1    C2 3385   4.302   0.995  17.220 -0.2508  0.0806  0.2956
  223MPD1    C3 3386   4.210   0.990  17.317 -0.2441  0.7440 -0.3139
  223MPD1    C4 3387   4.144   0.871  17.333  0.3047 -0.0753 -0.4944
  223MPD1    C5 3388   4.162   0.765  17.258 -0.1944 -0.2082 -0.0293
  223MPD1     H 3389   4.341   1.094  17.198 -3.0816  1.4318  1.2277
  223MPD1    H1 3390   4.065   0.870  17.408  0.4577  1.2804 -0.3269
  223MPD1    H2 3391   4.273   0.687  17.099  0.0138  0.3365  0.0477
  223MPD1    H3 3392   4.101   0.679  17.282 -0.8373 -0.2070 -1.6752
  223MPD1     N 3393   4.178   1.116  17.382 -0.1975  0.1703  0.2242
  223MPD1    H5 3394   4.232   1.198  17.358  0.7134  0.7064  4.2007
  223MPD1    N1 3395   4.405   0.902  17.030 -0.3169  0.0516  1.1329
  223MPD1    H6 3396   4.435   0.816  16.986  0.5831  0.5472  0.7853
  223MPD1    H7 3397   4.489   0.959  17.040  0.5597 -0.7859 -1.4650
  224MPD1     C 3398   4.344   2.140   8.797 -0.1234  1.2042 -0.4197
  224MPD1    C1 3399   4.428   2.047   8.847 -0.4175 -0.1792  0.7144
  224MPD1    C2 3400   4.485   2.066   8.972  0.5611  0.7879 -0.4958
  224MPD1    C3 3401   4.462   2.180   9.041  0.3244 -1.1821  0.0651
  224MPD1    C4 3402   4.388   2.278   8.986  0.3376  0.0606 -0.3655
  224MPD1    C5 3403   4.322   2.251   8.869 -0.7516 -0.5001  0.2856
  224MPD1     H 3404   4.551   1.991   9.013  0.1085  0.2685 -0.7060
  224MPD1    H1 3405   4.356   2.366   9.041 -1.2216 -0.8314  0.1672
  224MPD1    H2 3406   4.297   2.113   8.703  0.4006  1.4237 -0.7476
  224MPD1    H3 3407   4.257   2.328   8.831  2.3152  2.2529  0.5818
  224MPD1     N 3408   4.521   2.198   9.168 -0.1539  0.0701  0.8588
  224MPD1    H5 3409   4.483   2.267   9.232  2.2430  0.1732  2.1940
  224MPD1    N1 3410   4.463   1.938   8.774  0.0458 -0.3242 -0.3959
  224MPD1    H6 3411   4.449   1.945   8.673  0.3174  0.1535 -0.3993
  224MPD1    H7 3412   4.557   1.903   8.791 -0.2917 -0.1673  1.7491
  225MPD1     C 3413   1.220   3.269  13.680  0.3992 -0.1751 -0.3546
  225MPD1    C1 3414   1.208   3.182  13.574  0.5542  0.7526  0.4157
  225MPD1    C2 3415   1.215   3.244  13.452  0.4673  0.4083  0.8106
  225MPD1    C3 3416   1.204   3.377  13.427 -0.4111 -0.0288  0.0924
  225MPD1    C4 3417   1.208   3.463  13.539 -0.1574 -0.2090  0.4137
  225MPD1    C5 3418   1.226   3.404  13.660 -0.3331 -0.3043 -0.2972
  225MPD1     H 3419   1.210   3.186  13.361  0.5053  2.2793 -0.3914
  225MPD1    H1 3420   1.218   3.570  13.533 -0.7444 -0.0941  1.5211
  225MPD1    H2 3421   1.242   3.239  13.782 -2.2996  0.1552  0.3450
  225MPD1    H3 3422   1.262   3.476  13.733  1.3604 -0.1179 -1.3350
  225MPD1     N 3423   1.201   3.435  13.297  0.2394  0.1643 -0.0450
  225MPD1    H5 3424   1.170   3.532  13.291  1.4854  0.7084  2.2152
  225MPD1    N1 3425   1.218   3.044  13.587  0.0931 -0.2327 -0.5683
  225MPD1    H6 3426   1.181   3.019  13.678 -0.9298 -1.8141 -1.4050
  225MPD1    H7 3427   1.163   2.989  13.521  0.5751 -0.3151 -0.9002
  226MPD1     C 3428   3.632   3.489   9.323  0.0915  0.2690 -0.0962
  226MPD1    C1 3429   3.693   3.601   9.275 -0.5187  0.3648  0.0434
  226MPD1    C2 3430   3.810   3.588   9.200 -0.3120  0.3502  0.2698
  226MPD1    C3 3431   3.871   3.463   9.187  0.5160  0.2172 -0.2740
  226MPD1    C4 3432   3.813   3.355   9.242 -0.4859 -0.0718 -0.2030
  226MPD1    C5 3433   3.696   3.372   9.313 -0.2372  0.2417 -0.1657
  226MPD1     H 3434   3.851   3.677   9.154 -0.4109 -1.0716 -2.5481
  226MPD1    H1 3435   3.858   3.257   9.239  1.7448  1.0092 -2.2107
  226MPD1    H2 3436   3.534   3.503   9.368  1.0290  2.6540  1.2302
  226MPD1    H3 3437   3.654   3.294   9.377 -1.3593  0.7296 -0.3084
  226MPD1     N 3438   3.989   3.456   9.101  0.4761 -0.3462 -0.0913
  226MPD1    H5 3439   4.039   3.538   9.068 -2.4456  1.8872  1.0133
  226MPD1    N1 3440   3.627   3.722   9.290 -0.6996  0.1930 -0.0103
  226MPD1    H6 3441   3.608   3.742   9.388 -0.7970  2.8225 -0.5631
  226MPD1    H7 3442   3.686   3.798   9.257  1.3687 -0.1339  2.8859
  227MPD1     C 3443   4.618   3.998   8.601 -1.0369  0.5676  0.3072
  227MPD1    C1 3444   4.697   3.887   8.611  0.3244  0.0744 -0.2295
  227MPD1    C2 3445   4.634   3.766   8.653 -0.5490  1.4260 -0.0517
  227MPD1    C3 3446   4.504   3.766   8.701  0.3642  0.1731  0.0814
  227MPD1    C4 3447   4.426   3.880   8.697 -0.6857 -0.1825 -0.3335
  227MPD1    C5 3448   4.488   3.993   8.643  0.0155 -0.3059  0.0427
  227MPD1     H 3449   4.682   3.672   8.633 -0.3613  1.4670  0.2041
  227MPD1    H1 3450   4.334   3.897   8.751 -0.7658 -0.6796 -0.3229
  227MPD1    H2 3451   4.650   4.090   8.555  0.3084 -0.5278 -0.9546
  227MPD1    H3 3452   4.448   4.093   8.657 -1.1637 -1.1543  2.5576
  227MPD1     N 3453   4.446   3.644   8.743 -0.1647  0.5546  0.2604
  227MPD1    H5 3454   4.504   3.562   8.737  0.4490  0.9857  0.2841
  227MPD1    N1 3455   0.091   3.884   8.537  0.0053  0.0822  0.6295
  227MPD1    H6 3456   0.162   3.816   8.562  1.6080  1.2734 -0.6793
  227MPD1    H7 3457   0.136   3.974   8.527  0.5808 -0.2602  0.1666
  228MPD1     C 3458   3.368   2.490  12.414 -0.7869  0.0804 -0.7651
  228MPD1    C1 3459   3.278   2.462  12.316 -0.2572  0.7858 -0.5490
  228MPD1    C2 3460   3.165   2.383  12.340 -0.2425 -0.0425  0.6573
  228MPD1    C3 3461   3.160   2.312  12.454  0.8034  0.5692  0.3329
  228MPD1    C4 3462   3.269   2.323  12.542  0.2883 -0.4060  0.5521
  228MPD1    C5 3463   3.361   2.418  12.525 -0.7244  0.2667  0.2191
  228MPD1     H 3464   3.083   2.372  12.270  0.6064 -1.5125 -0.1057
  228MPD1    H1 3465   3.288   2.249  12.619  2.2973 -2.5288 -2.0053
  228MPD1    H2 3466   3.458   2.547  12.391 -0.2538 -0.4728 -0.0511
  228MPD1    H3 3467   3.450   2.433  12.585 -0.6102 -0.0633  0.1340
  228MPD1     N 3468   3.057   2.214  12.470 -0.5345  0.3944 -0.1673
  228MPD1    H5 3469   2.979   2.212  12.405  0.8244  0.8079 -1.8279
  228MPD1    N1 3470   3.278   2.548  12.208  0.3694 -0.7044  0.3241
  228MPD1    H6 3471   3.370   2.587  12.189 -0.0482  1.4722  2.7541
  228MPD1    H7 3472   3.221   2.524  12.127 -1.1358 -1.3744  1.5761
  229MPD1     C 3473   3.282   0.535  14.576 -0.2793  0.2449  0.1740
  229MPD1    C1 3474   3.228   0.601  14.692 -0.3608  0.3052  0.6746
  229MPD1    C2 3475   3.202   0.526  14.804 -0.1635 -1.0503  0.4376
  229MPD1    C3 3476   3.195   0.386  14.790  0.4376 -0.5960  0.3192
  229MPD1    C4 3477   3.226   0.322  14.674  0.1354  0.4921 -0.3726
  229MPD1    C5 3478   3.275   0.398  14.569 -0.8096 -0.3544  1.1337
  229MPD1     H 3479   3.165   0.575  14.894 -1.9019  0.4490 -1.0827
  229MPD1    H1 3480   3.207   0.216  14.657  0.5781  0.5714 -1.3416
  229MPD1    H2 3481   3.304   0.591  14.485 -0.7323  0.5076  0.2285
  229MPD1    H3 3482   3.290   0.345  14.475 -1.1741 -1.7819  1.8818
  229MPD1     N 3483   3.147   0.302  14.898 -0.6014 -0.0461 -0.0686
  229MPD1    H5 3484   3.136   0.201  14.891  0.9348 -0.2043 -0.2332
  229MPD1    N1 3485   3.215   0.742  14.700 -0.3219 -0.0161 -0.6092
  229MPD1    H6 3486   3.209   0.773  14.603 -1.1444  0.8502 -0.2889
  229MPD1    H7 3487   3.147   0.787  14.761 -0.3871 -0.6910 -0.1845
  230MPD1     C 3488   3.248   0.557  15.846  0.5681  0.2567  0.7229
  230MPD1    C1 3489   3.159   0.608  15.752  0.1465  0.0312  0.6353
  230MPD1    C2 3490   3.128   0.522  15.651 -0.3941 -0.3427 -0.2771
  230MPD1    C3 3491   3.187   0.395  15.640 -0.5335 -0.2990 -0.1139
  230MPD1    C4 3492   3.283   0.354  15.731 -0.0650 -0.3328 -0.1772
  230MPD1    C5 3493   3.310   0.441  15.834 -0.5874  0.1317  0.7303
  230MPD1     H 3494   3.058   0.546  15.571  0.7295  0.5338 -1.0053
  230MPD1    H1 3495   3.343   0.265  15.713  1.5184  1.1753 -2.4746
  230MPD1    H2 3496   3.268   0.606  15.941 -1.7756 -0.6539  1.6585
  230MPD1    H3 3497   3.382   0.407  15.907 -0.3148 -0.8267  0.0090
  230MPD1     N 3498   3.158   0.328  15.519  0.4410  0.3398  0.3491
  230MPD1    H5 3499   3.088   0.377  15.464  1.8554  1.3445 -0.5593
  230MPD1    N1 3500   3.084   0.721  15.790  0.1093 -0.1295 -0.3464
  230MPD1    H6 3501   3.137   0.784  15.850  1.0124 -0.4291 -0.8324
  230MPD1    H7 3502   3.034   0.766  15.714 -2.3771 -0.7376  0.9221
  231MPD1     C 3503   1.609   2.096  15.612  0.2555  0.7531  0.5839
  231MPD1    C1 3504   1.643   2.038  15.494  0.5372  0.3397  0.0801
  231MPD1    C2 3505   1.700   2.114  15.405 -0.4006  0.4474 -0.1380
  231MPD1    C3 3506   1.747   2.239  15.426  0.2924 -0.6546  0.0292
  231MPD1    C4 3507   1.722   2.293  15.546 -0.0739  0.0621 -0.0741
  231MPD1    C5 3508   1.657   2.219  15.641 -1.0728  0.4738  0.5426
  231MPD1     H 3509   1.706   2.067  15.308 -2.9193 -0.8609  0.3483
  231MPD1    H1 3510   1.744   2.394  15.581 -1.8450 -0.0158  1.2853
  231MPD1    H2 3511   1.547   2.046  15.685 -0.3770  1.3500  0.4501
  231MPD1    H3 3512   1.623   2.263  15.734 -0.8780  1.6227  0.0706
  231MPD1     N 3513   1.808   2.302  15.317 -0.3241  0.3200 -0.3410
  231MPD1    H5 3514   1.788   2.271  15.223  0.3712 -1.9668  0.2712
  231MPD1    N1 3515   1.601   1.905  15.460  0.1351  0.6738 -0.2345
  231MPD1    H6 3516   1.649   1.861  15.382  1.1389  1.8778 -0.2921
  231MPD1    H7 3517   1.617   1.830  15.527  2.1001  1.3500  0.0597
  232MPD1     C 3518   3.642   4.296  17.274  0.6630  1.0332  0.0481
  232MPD1    C1 3519   3.642   4.332  17.406 -0.1631 -0.0463  0.3073
  232MPD1    C2 3520   3.525   4.339  17.481 -0.6196  0.2198 -0.0154
  232MPD1    C3 3521   3.408   4.314  17.425  0.0266  0.1896 -0.2672
  232MPD1    C4 3522   3.406   4.277  17.291 -0.5997 -0.1708  0.5862
  232MPD1    C5 3523   3.520   4.257  17.220  0.3225  0.6608  0.1759
  232MPD1     H 3524   3.525   4.375  17.583  0.2607 -0.7593  0.3295
  232MPD1    H1 3525   3.317   4.267  17.230 -1.3166  1.1579  1.4348
  232MPD1    H2 3526   3.728   4.291  17.209  0.5473  0.5723 -0.0672
  232MPD1    H3 3527   3.528   4.228  17.116 -1.1487 -2.4415  0.9105
  232MPD1     N 3528   3.292   4.317  17.502 -0.4668 -0.3784 -0.5520
  232MPD1    H5 3529   3.298   4.341  17.600 -3.3171 -4.7419  0.6468
  232MPD1    N1 3530   3.757   4.396  17.471  0.1736 -0.3618  0.1108
  232MPD1    H6 3531   3.849   4.375  17.433  0.7787  0.2756  1.2124
  232MPD1    H7 3532   3.767   4.366  17.568 -0.0700  0.0707  0.2713
  233MPD1     C 3533   4.252   3.471   1.191 -0.4124 -0.3893  0.3569
  233MPD1    C1 3534   4.361   3.522   1.133 -0.3068  0.3055 -0.5820
  233MPD1    C2 3535   4.474   3.442   1.130  0.1378 -0.7654 -0.2206
  233MPD1    C3 3536   4.483   3.322   1.197  0.0324 -0.1979  0.2983
  233MPD1    C4 3537   4.372   3.285   1.269  0.4673 -0.1711 -0.3577
  233MPD1    C5 3538   4.256   3.351   1.255  0.5696 -0.3406 -1.0523
  233MPD1     H 3539   4.562   3.484   1.084 -0.0483  1.4739  1.4274
  233MPD1    H1 3540   4.372   3.189   1.321 -0.3781 -0.4253 -0.8358
  233MPD1    H2 3541   4.159   3.526   1.184  0.0600  0.6960  2.6316
  233MPD1    H3 3542   4.164   3.321   1.305  1.2888 -0.4594  0.2108
  233MPD1     N 3543   4.593   3.236   1.186  0.0612  0.2142  0.1771
  233MPD1    H5 3544   4.582   3.146   1.232  3.3786  0.2222  0.9732
  233MPD1    N1 3545   4.354   3.639   1.060  0.8538 -0.3869 -0.5851
  233MPD1    H6 3546   4.280   3.704   1.084  2.5079  1.6525 -0.9658
  233MPD1    H7 3547   4.440   3.693   1.066  1.5835 -1.6660  0.5603
  234MPD1     C 3548   1.050   1.267  10.529  0.5280 -0.2263  0.3463
  234MPD1    C1 3549   1.036   1.404  10.503 -0.0161 -0.0512  0.2266
  234MPD1    C2 3550   0.955   1.445  10.402 -0.3844 -0.1064 -0.6759
  234MPD1    C3 3551   0.913   1.361  10.308  0.5880 -0.7306  1.3723
  234MPD1    C4 3552   0.918   1.223  10.323  0.0450 -0.2254 -0.1310
  234MPD1    C5 3553   0.979   1.180  10.443 -0.1024 -0.2132 -0.3136
  234MPD1     H 3554   0.951   1.548  10.371 -0.8439 -0.5546 -2.0833
  234MPD1    H1 3555   0.874   1.155  10.251  1.7456  0.2913 -1.6593
  234MPD1    H2 3556   1.096   1.217  10.614 -1.9204  2.8264  3.4616
  234MPD1    H3 3557   0.985   1.073  10.461  0.7468 -0.3306 -1.2917
  234MPD1     N 3558   0.831   1.419  10.202  0.4109  0.2173 -0.1744
  234MPD1    H5 3559   0.825   1.520  10.205  2.1543  0.2912  1.0736
  234MPD1    N1 3560   1.099   1.504  10.583  0.3409 -0.4872  0.3484
  234MPD1    H6 3561   1.113   1.597  10.544  0.2945 -0.5872  0.0922
  234MPD1    H7 3562   1.185   1.466  10.621  1.7811  2.6182  0.1631
  235MPD1     C 3563   3.178   3.851  10.327  0.0181  0.0407 -0.0502
  235MPD1    C1 3564   3.105   3.919  10.416 -0.0056 -0.4340  0.4772
  235MPD1    C2 3565   3.057   4.048  10.376  0.2698  0.0115 -1.1863
  235MPD1    C3 3566   3.100   4.107  10.257 -0.1942  0.7174 -0.3306
  235MPD1    C4 3567   3.177   4.030  10.176  0.8922  0.3958 -0.1114
  235MPD1    C5 3568   3.222   3.905  10.216  0.1754  0.3150 -0.9607
  235MPD1     H 3569   2.992   4.108  10.439  1.6345  0.6617 -0.3875
  235MPD1    H1 3570   3.196   4.064  10.075  0.4784  2.0156  0.3386
  235MPD1    H2 3571   3.217   3.754  10.354 -1.1532 -0.6140 -0.6904
  235MPD1    H3 3572   3.270   3.840  10.144  2.4483  1.9149 -0.8555
  235MPD1     N 3573   3.047   4.237  10.235  0.4757 -0.0899  0.3066
  235MPD1    H5 3574   3.017   4.281  10.321 -0.0082  0.7600 -0.2911
  235MPD1    N1 3575   3.063   3.861  10.536 -0.2350  0.0912  0.0506
  235MPD1    H6 3576   3.127   3.787  10.564  0.9708  1.2242  0.3115
  235MPD1    H7 3577   3.048   3.935  10.605  0.5106  0.3115 -0.0271
  236MPD1     C 3578   1.239   4.115   9.859  0.1725  0.2926 -0.3629
  236MPD1    C1 3579   1.318   4.178   9.755 -0.4665 -0.1279  0.5471
  236MPD1    C2 3580   1.428   4.243   9.797 -0.0221  0.0166  0.0167
  236MPD1    C3 3581   1.484   4.218   9.928  0.5010  0.2778  0.3491
  236MPD1    C4 3582   1.408   4.146  10.016 -0.0205  0.5234  0.0792
  236MPD1    C5 3583   1.282   4.114   9.989 -0.7143 -0.0815 -0.5932
  236MPD1     H 3584   1.494   4.306   9.738  0.2243  0.0759  0.3557
  236MPD1    H1 3585   1.447   4.151  10.117  1.6496  1.0564 -0.5919
  236MPD1    H2 3586   1.137   4.079   9.847 -0.3869  1.6501  0.2658
  236MPD1    H3 3587   1.226   4.064  10.066  1.6600 -1.1832  0.4344
  236MPD1     N 3588   1.605   4.266   9.980  0.1355  0.0119 -0.1095
  236MPD1    H5 3589   1.618   4.253  10.080 -1.0738 -0.5930 -0.0289
  236MPD1    N1 3590   1.267   4.192   9.624 -0.4431 -0.8104  0.3487
  236MPD1    H6 3591   1.206   4.117   9.593  2.4388 -2.6538 -0.8442
  236MPD1    H7 3592   1.346   4.194   9.560  1.6876  0.2045  2.9532
  237MPD1     C 3593   1.629   3.490  14.342  0.0054 -0.4266  0.4172
  237MPD1    C1 3594   1.595   3.604  14.414 -0.2453 -0.1054 -0.1801
  237MPD1    C2 3595   1.486   3.596  14.502 -0.0583 -0.1552 -0.5549
  237MPD1    C3 3596   1.424   3.473  14.530  0.3233 -0.9347  0.4026
  237MPD1    C4 3597   1.465   3.367  14.456 -0.3238  1.1003 -0.0468
  237MPD1    C5 3598   1.570   3.371  14.373 -0.2166  0.3671 -1.0254
  237MPD1     H 3599   1.446   3.682  14.554  0.3864  1.2590 -2.5853
  237MPD1    H1 3600   1.420   3.268  14.463  0.2796  0.7521 -1.0060
  237MPD1    H2 3601   1.712   3.494  14.273  1.0057 -0.9400  1.5742
  237MPD1    H3 3602   1.617   3.281  14.334  1.6720  0.8593  0.1030
  237MPD1     N 3603   1.306   3.449  14.609 -0.6676  0.0809 -0.7270
  237MPD1    H5 3604   1.270   3.354  14.617 -0.4633  0.1408  0.9623
  237MPD1    N1 3605   1.661   3.727  14.389 -0.3693 -0.0115 -0.7041
  237MPD1    H6 3606   1.737   3.723  14.322  0.4794  0.0021  0.2647
  237MPD1    H7 3607   1.693   3.771  14.475  2.0974  0.9742 -2.1326
  238MPD1     C 3608   3.808   2.541  15.077 -0.4397  0.3893 -0.0899
  238MPD1    C1 3609   3.724   2.507  15.182 -0.0548  0.1533 -0.5222
  238MPD1    C2 3610   3.590   2.474  15.154  0.1070 -0.3306  0.9150
  238MPD1    C3 3611   3.536   2.520  15.037  0.2121 -0.0543 -0.1163
  238MPD1    C4 3612   3.611   2.575  14.939  0.2533  0.0001 -0.7945
  238MPD1    C5 3613   3.746   2.580  14.958 -0.0990 -0.3462 -0.7489
  238MPD1     H 3614   3.527   2.452  15.239 -0.1115 -2.3122  0.2373
  238MPD1    H1 3615   3.585   2.603  14.837 -0.1554 -0.9114 -0.9382
  238MPD1    H2 3616   3.915   2.540  15.091 -0.6820  3.7628  1.9032
  238MPD1    H3 3617   3.802   2.610  14.870  0.3380  2.2043  0.4025
  238MPD1     N 3618   3.402   2.490  15.006  0.6669 -0.0317  0.2100
  238MPD1    H5 3619   3.375   2.538  14.921 -0.2128  0.8987  1.0138
  238MPD1    N1 3620   3.776   2.472  15.305  0.1585  0.1673  0.4995
  238MPD1    H6 3621   3.851   2.539  15.324 -1.7930  2.6987 -0.8184
  238MPD1    H7 3622   3.708   2.480  15.380  0.3511  1.9680  0.4920
  239MPD1     C 3623   3.468   3.651  15.062  0.2346 -0.3074 -0.2894
  239MPD1    C1 3624   3.505   3.531  15.019 -0.3815 -0.1691 -0.5891
  239MPD1    C2 3625   3.462   3.488  14.900  0.0128  0.2497 -0.6041
  239MPD1    C3 3626   3.395   3.573  14.817  0.2263  0.0472 -0.3229
  239MPD1    C4 3627   3.361   3.700  14.864 -0.7990 -0.1775  0.1348
  239MPD1    C5 3628   3.402   3.743  14.982 -0.2617 -0.2277 -0.4583
  239MPD1     H 3629   3.492   3.386  14.877 -1.3327 -0.2396 -0.2288
  239MPD1    H1 3630   3.306   3.766  14.798 -2.6965 -1.5293  0.3740
  239MPD1    H2 3631   3.531   3.697  15.138 -1.5203  1.0914  0.3305
  239MPD1    H3 3632   3.397   3.847  15.010  1.5063 -0.2120 -0.2250
  239MPD1     N 3633   3.335   3.533  14.690  0.2466 -0.5839 -0.1237
  239MPD1    H5 3634   3.275   3.606  14.652 -0.4260 -0.9988  0.1308
  239MPD1    N1 3635   3.575   3.449  15.102 -0.7342 -0.1044  0.4579
  239MPD1    H6 3636   3.615   3.365  15.062 -3.4413 -1.2534  0.1874
  239MPD1    H7 3637   3.652   3.488  15.156 -0.8152  1.9011 -0.8721
  240MPD1     C 3638   2.967   2.877  13.967 -0.5344  0.3934 -0.6754
  240MPD1    C1 3639   2.833   2.897  14.007  0.4401  0.2885 -0.1285
  240MPD1    C2 3640   2.796   2.850  14.133  0.8541  0.0142 -0.2957
  240MPD1    C3 3641   2.888   2.802  14.221  0.3498 -0.3043 -0.0116
  240MPD1    C4 3642   3.020   2.797  14.191  1.0162 -0.0441 -0.0880
  240MPD1    C5 3643   3.057   2.825  14.058  0.0335  0.1577 -0.6500
  240MPD1     H 3644   2.693   2.853  14.166  0.8240 -0.3923 -0.3485
  240MPD1    H1 3645   3.100   2.763  14.257 -0.7751 -1.8446  1.1601
  240MPD1    H2 3646   3.005   2.906  13.869  0.3081 -1.2490 -0.8150
  240MPD1    H3 3647   3.161   2.841  14.035  0.0638  0.3131 -0.4056
  240MPD1     N 3648   2.840   2.779  14.351  0.3487 -0.4455  0.0394
  240MPD1    H5 3649   2.741   2.802  14.354  0.2064 -0.7265 -2.0841
  240MPD1    N1 3650   2.741   2.943  13.918  0.4052  0.1200 -0.1412
  240MPD1    H6 3651   2.788   2.998  13.846 -2.1542  3.7638  0.9916
  240MPD1    H7 3652   2.666   2.998  13.959  1.2075  1.6137 -0.6681
  241MPD1     C 3653   2.885   2.553  15.433 -0.3966  0.1394  0.2424
  241MPD1    C1 3654   2.984   2.601  15.358  0.2570  0.4548  0.0369
  241MPD1    C2 3655   2.960   2.616  15.223  0.5628  1.4202 -0.3321
  241MPD1    C3 3656   2.838   2.596  15.167  0.0639 -0.1565  0.2440
  241MPD1    C4 3657   2.738   2.539  15.247 -0.0386 -0.3588 -0.1047
  241MPD1    C5 3658   2.771   2.509  15.374  0.6070 -0.0894 -0.1356
  241MPD1     H 3659   3.042   2.651  15.161  0.7438 -0.4727 -1.1575
  241MPD1    H1 3660   2.637   2.516  15.213 -0.4200 -2.6782  2.5902
  241MPD1    H2 3661   2.909   2.530  15.536 -0.0329  0.3064  0.1937
  241MPD1    H3 3662   2.705   2.456  15.442 -1.5982  1.7716 -0.8490
  241MPD1     N 3663   2.800   2.612  15.030 -0.1398 -0.2578  0.6544
  241MPD1    H5 3664   2.712   2.576  14.995 -0.0355  0.0300  0.0986
  241MPD1    N1 3665   3.110   2.619  15.414  0.5752 -0.3166 -0.8782
  241MPD1    H6 3666   3.188   2.651  15.356  1.3775 -0.0110  0.3707
  241MPD1    H7 3667   3.114   2.643  15.513  0.2299  1.3081 -1.2478
  242MPD1     C 3668   2.800   1.280  15.789  0.3169 -0.3025 -1.2064
  242MPD1    C1 3669   2.765   1.150  15.766 -0.1773 -0.3523 -0.3158
  242MPD1    C2 3670   2.839   1.090  15.674 -0.7390 -0.3391  0.2112
  242MPD1    C3 3671   2.928   1.152  15.594  0.2029  0.0726 -0.3478
  242MPD1    C4 3672   2.962   1.283  15.617  1.0569 -0.0709 -0.3477
  242MPD1    C5 3673   2.893   1.345  15.713 -0.0812 -0.1133 -1.3076
  242MPD1     H 3674   2.809   0.989  15.649 -1.2685  0.2376 -1.4944
  242MPD1    H1 3675   3.032   1.340  15.557 -0.7354  2.5386  0.0166
  242MPD1    H2 3676   2.754   1.344  15.864 -2.4185 -0.0584 -3.0863
  242MPD1    H3 3677   2.915   1.448  15.740  0.7367 -0.9052  1.0795
  242MPD1     N 3678   2.999   1.089  15.485 -0.1395  0.2995  0.0027
  242MPD1    H5 3679   3.068   1.143  15.435 -1.1482  0.3009 -1.3817
  242MPD1    N1 3680   2.679   1.091  15.856  0.3676 -0.1402  0.2676
  242MPD1    H6 3681   2.617   1.153  15.908 -0.2619 -0.4200 -0.1416
  242MPD1    H7 3682   2.625   1.017  15.811 -0.1107  1.0524 -1.1210
  243MPD1     C 3683   0.026   4.160   0.002  0.5437  0.6678  0.5144
  243MPD1    C1 3684   0.054   4.119  17.581 -0.5781  0.0530 -0.4500
  243MPD1    C2 3685   4.700   4.169  17.479 -0.6668 -0.1586 -0.2798
  243MPD1    C3 3686   4.580   4.233  17.504  0.0776 -0.9041  0.1599
  243MPD1    C4 3687   4.552   4.263  17.635  0.3932 -0.3190 -0.1754
  243MPD1    C5 3688   4.642   4.237   0.035 -1.1255  0.2902 -0.1287
  243MPD1     H 3689   4.723   4.160  17.373  1.2113  2.8514 -0.1498
  243MPD1    H1 3690   4.454   4.299  17.665  0.9133  1.4812 -0.5902
  243MPD1    H2 3691   0.094   4.130   0.081  1.2401 -1.3610 -0.8514
  243MPD1    H3 3692   4.611   4.259   0.136  0.6031  2.3326 -0.0448
  243MPD1     N 3693   4.495   4.256  17.391 -0.0925 -0.2130  0.7132
  243MPD1    H5 3694   4.532   4.235  17.299 -0.1301  0.5849  0.5163
  243MPD1    N1 3695   0.184   4.074  17.550 -0.2988 -0.1448 -0.3947
  243MPD1    H6 3696   0.194   4.022  17.463  0.2670 -2.1979  0.9056
  243MPD1    H7 3697   0.233   4.029  17.627 -0.3282  0.1720 -0.1909
  244MPD1     C 3698   3.848   0.177  17.344 -0.2862 -0.2406 -0.2997
  244MPD1    C1 3699   3.920   0.112  17.443  0.3735 -0.9255  0.3881
  244MPD1    C2 3700   3.975   4.709  17.421 -0.1754  0.9466 -0.1465
  244MPD1    C3 3701   3.953   4.650  17.299  0.1750  0.5414  0.7619
  244MPD1    C4 3702   3.862   4.708  17.210 -0.1805  0.1167 -0.7118
  244MPD1    C5 3703   3.824   0.113  17.229 -0.2877  0.1254 -0.2823
  244MPD1     H 3704   4.037   4.655  17.491  0.4478 -0.8431 -2.0597
  244MPD1    H1 3705   3.820   4.660  17.123  1.1556 -2.1858 -0.0848
  244MPD1    H2 3706   3.794   0.265  17.378 -0.6875 -0.2262 -0.9664
  244MPD1    H3 3707   3.751   0.154  17.160 -1.5977 -0.8295  0.5120
  244MPD1     N 3708   4.008   4.523  17.278  0.7191  0.1043 -0.1830
  244MPD1    H5 3709   4.077   4.498  17.348 -0.2596  1.4734  1.3022
  244MPD1    N1 3710   3.925   0.173  17.567  0.1857 -0.8079 -1.0304
  244MPD1    H6 3711   3.942   0.272  17.550 -1.5110  0.1758  3.0960
  244MPD1    H7 3712   4.006   0.135  17.617  0.3649 -1.9845 -2.2011
  245MPD1     C 3713   1.064   0.695  14.021  0.8379  0.6759 -0.1042
  245MPD1    C1 3714   1.020   0.765  13.911  0.2564 -0.1321 -0.7478
  245MPD1    C2 3715   1.124   0.816  13.831 -0.0429 -0.0278  0.0403
  245MPD1    C3 3716   1.256   0.819  13.871  0.1386 -0.1553  0.4823
  245MPD1    C4 3717   1.286   0.749  13.985 -0.1678  0.1128  0.1093
  245MPD1    C5 3718   1.194   0.699  14.067 -0.3836 -0.9260 -0.0175
  245MPD1     H 3719   1.113   0.872  13.739  0.5363 -1.0907 -0.6709
  245MPD1    H1 3720   1.388   0.747  14.022 -0.8151  0.1996  1.9240
  245MPD1    H2 3721   0.990   0.645  14.082  0.1073  1.7628 -0.1006
  245MPD1    H3 3722   1.221   0.649  14.159  1.6066  0.5679  0.2299
  245MPD1     N 3723   1.359   0.880  13.790  0.3204  0.7177 -0.6129
  245MPD1    H5 3724   1.320   0.929  13.710  0.2372 -2.1141 -2.3111
  245MPD1    N1 3725   0.891   0.760  13.855  0.1473  0.1854  0.0446
  245MPD1    H6 3726   0.821   0.757  13.929  1.2123 -0.7331  1.0193
  245MPD1    H7 3727   0.876   0.839  13.793  2.3016 -0.6635 -1.5541
  246MPD1     C 3728   2.202   2.620  10.298 -0.1893 -0.4998  0.2068
  246MPD1    C1 3729   2.274   2.624  10.183  0.0905 -0.5071  0.3231
  246MPD1    C2 3730   2.238   2.532  10.083 -0.7832  0.1648  0.4296
  246MPD1    C3 3731   2.149   2.430  10.106 -0.1203  0.3189 -0.4058
  246MPD1    C4 3732   2.092   2.422  10.224 -0.4062  0.0366  0.4872
  246MPD1    C5 3733   2.113   2.517  10.314 -0.1308 -0.0887  0.7681
  246MPD1     H 3734   2.283   2.543   9.985 -0.7015 -1.0441  0.3328
  246MPD1    H1 3735   2.015   2.350  10.249  0.1915 -1.1169 -1.0352
  246MPD1    H2 3736   2.205   2.694  10.377  0.1066  0.4305 -0.6614
  246MPD1    H3 3737   2.071   2.505  10.414 -2.2704  0.8813 -0.0216
  246MPD1     N 3738   2.132   2.333  10.001  0.0241 -0.1936  0.5282
  246MPD1    H5 3739   2.185   2.353   9.917 -0.3104 -0.5120  0.2448
  246MPD1    N1 3740   2.363   2.729  10.154 -0.6096 -0.3328  0.2126
  246MPD1    H6 3741   2.418   2.715  10.069 -1.2663 -1.7849  0.0195
  246MPD1    H7 3742   2.412   2.764  10.235 -1.2601 -1.1333  0.9555
  247MPD1     C 3743   0.107   4.358  16.043  0.5767 -0.9835 -0.0405
  247MPD1    C1 3744   0.239   4.324  16.042 -0.5150 -0.1769 -0.3745
  247MPD1    C2 3745   0.317   4.337  16.156  0.1346  0.6626 -0.1061
  247MPD1    C3 3746   0.266   4.415  16.263  0.4124 -0.6061 -0.6496
  247MPD1    C4 3747   0.124   4.445  16.265  0.2895 -0.6559  0.7124
  247MPD1    C5 3748   0.051   4.409  16.160 -0.5533 -0.4086  0.1537
  247MPD1     H 3749   0.420   4.305  16.160 -0.0213  0.0640 -0.8672
  247MPD1    H1 3750   0.084   4.500  16.349 -1.8750 -1.1104 -0.0374
  247MPD1    H2 3751   0.045   4.346  15.955 -3.0721  1.0047  2.2995
  247MPD1    H3 3752   4.669   4.419  16.158 -0.5177 -0.4343 -2.0351
  247MPD1     N 3753   0.347   4.467  16.374 -0.2911 -0.2084 -0.2518
  247MPD1    H5 3754   0.301   4.512  16.453  1.7656  0.3545  0.6214
  247MPD1    N1 3755   0.288   4.263  15.925  0.1804 -0.0594 -0.5183
  247MPD1    H6 3756   0.388   4.279  15.916 -0.0326  1.3401 -0.3728
  247MPD1    H7 3757   0.250   4.317  15.848  0.0604  1.2589  0.4646
  248MPD1     C 3758   2.086   4.303   1.391  0.0465 -0.2227 -0.4729
  248MPD1    C1 3759   1.971   4.355   1.346  0.7359  0.5231  0.2772
  248MPD1    C2 3760   1.938   4.308   1.223 -0.4915 -0.5149  0.5988
  248MPD1    C3 3761   1.988   4.203   1.157 -0.5540  0.0508  0.5629
  248MPD1    C4 3762   2.091   4.137   1.213 -0.5731  0.6821 -0.0958
  248MPD1    C5 3763   2.137   4.186   1.332  0.4791  0.0747  0.4275
  248MPD1     H 3764   1.854   4.358   1.177  0.9794  1.1136 -0.3366
  248MPD1    H1 3765   2.134   4.046   1.173  0.1703  1.1879 -0.4557
  248MPD1    H2 3766   2.146   4.344   1.471  0.0602  0.0765 -0.6363
  248MPD1    H3 3767   2.229   4.146   1.374  1.1328  3.1581  1.9202
  248MPD1     N 3768   1.938   4.173   1.026  0.2718 -0.2608 -0.2011
  248MPD1    H5 3769   1.853   4.226   1.009 -0.4284 -1.6256 -0.9836
  248MPD1    N1 3770   1.913   4.468   1.401  0.5138 -0.2367  0.0238
  248MPD1    H6 3771   1.909   4.447   1.500  0.3497 -0.8055 -0.1013
  248MPD1    H7 3772   1.815   4.485   1.380  1.0937  2.1647 -0.7610
  249MPD1     C 3773   3.053   0.173  10.561 -0.2745  0.2088 -0.3735
  249MPD1    C1 3774   3.165   0.203  10.494 -0.4632 -0.0441 -0.2162
  249MPD1    C2 3775   3.239   0.099  10.440 -0.7041 -0.2799  0.2532
  249MPD1    C3 3776   3.200   4.691  10.446  0.6920  0.1926  0.4240
  249MPD1    C4 3777   3.081   4.669  10.506  0.6405  0.2787 -0.0633
  249MPD1    C5 3778   3.014   0.043  10.571  0.5280 -0.2112 -0.1459
  249MPD1     H 3779   3.333   0.134  10.398  0.1593 -2.2718  0.5406
  249MPD1    H1 3780   3.036   4.571  10.512  1.7488 -0.4515 -3.2834
  249MPD1    H2 3781   2.993   0.253  10.601 -1.3137  1.0673 -3.6782
  249MPD1    H3 3782   2.917   0.033  10.617  1.5587 -2.1173  1.6147
  249MPD1     N 3783   3.283   4.587  10.400  0.0768  0.1803  0.0946
  249MPD1    H5 3784   3.371   4.614  10.357  0.4386 -1.1050  0.0205
  249MPD1    N1 3785   3.206   0.335  10.459  1.2035  0.3123 -0.3567
  249MPD1    H6 3786   3.308   0.342  10.458  1.2801 -0.7068 -0.2153
  249MPD1    H7 3787   3.169   0.415  10.510  0.2744 -1.0689  1.1528
  250MPD2     C 3788   3.546   3.464  13.077 -0.0173  0.1556  0.2154
  250MPD2    C1 3789   3.592   3.508  12.959 -0.1952  0.8581  0.0099
  250MPD2    C2 3790   3.561   3.444  12.842  0.6731  0.1715  0.0553
  250MPD2    C3 3791   3.483   3.334  12.848  0.8744  0.3274 -0.4294
  250MPD2    C4 3792   3.429   3.297  12.967  0.6086 -0.5460  0.3274
  250MPD2    C5 3793   3.458   3.361  13.083  0.2674  0.2171  0.3231
  250MPD2     H 3794   3.595   3.499  12.755  2.5431  0.3541  0.8936
  250MPD2    H1 3795   3.364   3.212  12.981 -0.1129 -0.1564 -0.6368
  250MPD2    H2 3796   3.573   3.518  13.167 -1.2109  1.7040 -0.3303
  250MPD2    H3 3797   3.414   3.323  13.175  0.3524  1.9488  1.0788
  250MPD2     N 3798   3.440   3.261  12.727  0.3978 -0.1895  0.1286
  250MPD2    H5 3799   3.375   3.187  12.749  1.2745 -0.7918  0.6933
  250MPD2    N1 3800   3.680   3.624  12.963  0.6114 -0.1331 -0.2004
  250MPD2    H7 3801   3.683   3.678  13.050 -2.8493 -2.4479  1.3699
  251TMC3    C1 3802   3.834   3.782  12.868  0.3908  0.3530  0.5476
  251TMC3    C2 3803   3.761   3.884  12.923 -0.2075 -0.7162  0.5684
  251TMC3    C3 3804   3.817   4.008  12.929  0.0877 -0.1229  0.1701
  251TMC3    C4 3805   3.949   3.801  12.797 -0.1934 -0.2943  0.2540
  251TMC3    C5 3806   4.002   3.930  12.794  0.8258  0.4793  0.6871
  251TMC3    C6 3807   3.937   4.030  12.866 -0.1139 -0.2006 -0.0678
  251TMC3     C 3808   3.777   3.645  12.868 -0.9651  0.0412  0.0426
  251TMC3     O 3809   3.824   3.571  12.783  0.3517  0.0291  0.0004
  251TMC3     H 3810   3.665   3.859  12.964  0.2593 -0.7177  1.6637
  251TMC3    H1 3811   3.995   3.724  12.737  1.1296  0.6552  0.0449
  251TMC3    H2 3812   3.993   4.119  12.895 -1.0624 -0.3085  2.0880
  251TMC3    C7 3813   4.150   3.934  12.789  0.4486  0.3971  0.1586
  251TMC3    C8 3814   3.743   4.124  12.983 -0.4179 -0.4055 -0.3411
  251TMC3    O1 3815   4.208   4.036  12.826 -0.2666  0.1338 -0.2029
  251TMC3    O2 3816   3.804   4.228  13.008  0.5539 -0.2161  0.4988
  252TMC3    C1 3817   0.399   4.215   9.195  0.1174  0.3787 -0.3828
  252TMC3    C2 3818   0.461   4.338   9.236 -0.6817  0.0777 -0.5329
  252TMC3    C3 3819   0.411   4.452   9.186  0.1338 -0.3051 -0.5030
  252TMC3    C4 3820   0.300   4.218   9.101  0.6233 -0.0365 -0.1493
  252TMC3    C5 3821   0.259   4.338   9.050  0.0867  0.0768  0.1637
  252TMC3    C6 3822   0.317   4.452   9.083 -0.1585  0.9525  0.1972
  252TMC3     C 3823   0.477   4.089   9.192  0.2892 -0.0871  0.1059
  252TMC3     O 3824   0.458   4.011   9.102 -0.1186 -0.1525 -0.2360
  252TMC3     H 3825   0.549   4.344   9.299 -0.0852 -1.2511 -1.2582
  252TMC3    H1 3826   0.258   4.123   9.068  0.4045  0.0682 -0.1727
  252TMC3    H2 3827   0.265   4.544   9.059 -0.5792  0.6668  0.0365
  252TMC3    C7 3828   0.128   4.342   8.988  0.2397 -0.4866  0.2881
  252TMC3    C8 3829   0.451   4.579   9.242 -0.0754 -0.2594  0.1185
  252TMC3    O1 3830   0.117   4.424   8.901 -0.0066  0.0632 -0.1328
  252TMC3    O2 3831   0.430   4.674   9.174 -0.1377  0.7084 -0.3479
  253MPD2     C 3832   1.261   3.391  15.451  0.3653 -0.2159 -0.1216
  253MPD2    C1 3833   1.131   3.363  15.491  0.1469 -0.5028  1.0155
  253MPD2    C2 3834   1.111   3.275  15.591  0.0052  0.1299  0.4324
  253MPD2    C3 3835   1.209   3.217  15.668 -0.6197 -0.0632 -0.3460
  253MPD2    C4 3836   1.334   3.248  15.632  0.5608 -0.3775 -0.4628
  253MPD2    C5 3837   1.363   3.334  15.523 -0.1225 -0.4396  0.4328
  253MPD2     H 3838   1.007   3.272  15.623 -0.1712 -0.3562 -0.1816
  253MPD2    H1 3839   1.419   3.213  15.689 -0.6156 -0.3780  1.2953
  253MPD2    H2 3840   1.285   3.471  15.382  0.1066  0.8634  1.0368
  253MPD2    H3 3841   1.463   3.369  15.504 -0.7163  1.0388 -0.0103
  253MPD2     N 3842   1.186   3.128  15.779 -0.3433 -0.2812 -0.0767
  253MPD2    H5 3843   1.268   3.103  15.834 -0.2713 -0.1063 -0.1051
  253MPD2    N1 3844   1.017   3.403  15.418 -0.3180  0.2924 -0.1562
  253MPD2    H7 3845   0.928   3.361  15.445 -1.0112  2.1236  0.4229
  254TMC3    C1 3846   1.094   2.983  15.930 -0.3529 -0.0196  0.4505
  254TMC3    C2 3847   1.019   2.869  15.948  0.0861 -0.5977 -0.1922
  254TMC3    C3 3848   1.010   2.815  16.072  0.5558 -0.1404  0.6224
  254TMC3    C4 3849   1.144   3.053  16.039 -0.4666  0.3574 -0.7768
  254TMC3    C5 3850   1.142   2.987  16.159  0.8797  0.2192  0.6140
  254TMC3    C6 3851   1.073   2.869  16.181  0.3368 -0.0769  0.1298
  254TMC3     C 3852   1.069   3.067  15.816 -0.3277 -1.0536 -1.0341
  254TMC3     O 3853   0.955   3.078  15.772  0.4835  0.5391  0.3697
  254TMC3     H 3854   0.973   2.826  15.860 -2.4884 -1.0321  1.3701
  254TMC3    H1 3855   1.161   3.159  16.023 -0.7574  0.8996  2.6051
  254TMC3    H2 3856   1.059   2.823  16.279  0.0451 -1.8916 -0.7541
  254TMC3    C7 3857   1.169   3.065  16.271  0.7522  0.1941 -0.7662
  254TMC3    C8 3858   0.871   2.780  16.101  0.0418 -0.3001  0.2610
  254TMC3    O1 3859   1.124   3.025  16.380  0.5045 -0.1350 -0.2804
  254TMC3    O2 3860   0.830   2.769  16.217 -0.6864 -0.3643 -0.0083
  255MPD2     C 3861   3.354   2.077  10.140  0.2496  0.3990  0.4306
  255MPD2    C1 3862   3.445   2.150  10.071 -0.7715 -0.1450  0.2338
  255MPD2    C2 3863   3.577   2.111  10.071  0.1313 -0.7712 -0.0523
  255MPD2    C3 3864   3.612   1.994  10.136 -0.0273  0.0772  0.5870
  255MPD2    C4 3865   3.516   1.906  10.190 -0.2594  0.1855 -0.2288
  255MPD2    C5 3866   3.388   1.960  10.207  0.4997  0.5602  0.3888
  255MPD2     H 3867   3.652   2.175  10.025  1.1027 -1.3535  0.7490
  255MPD2    H1 3868   3.534   1.813  10.244  0.0112 -0.2442 -1.0572
  255MPD2    H2 3869   3.253   2.114  10.155  0.8125  1.8300  0.6801
  255MPD2    H3 3870   3.323   1.905  10.274  0.9174 -2.0988 -1.3622
  255MPD2     N 3871   3.750   1.964  10.137 -0.0920  0.4375  0.0606
  255MPD2    H5 3872   3.807   2.018  10.073  0.1864 -0.0740 -0.1269
  255MPD2    N1 3873   3.400   2.268  10.013 -0.1567 -0.0521  0.5273
  255MPD2    H7 3874   3.300   2.286  10.013 -0.3336 -1.1074  1.9399
  256TMC3    C1 3875   3.392   2.470   9.907 -0.1073 -0.2387  0.1161
  256TMC3    C2 3876   3.428   2.522   9.786 -0.9405  0.5641  0.3838
  256TMC3    C3 3877   3.331   2.557   9.703 -0.8367  0.1032 -0.7498
  256TMC3    C4 3878   3.257   2.458   9.937 -0.3660  0.4503 -0.3168
  256TMC3    C5 3879   3.160   2.496   9.855 -0.2170 -0.2024 -0.2941
  256TMC3    C6 3880   3.195   2.545   9.735 -0.2484  0.1753  0.5313
  256TMC3     C 3881   3.476   2.360   9.947 -0.3386  0.2966  0.7668
  256TMC3     O 3882   3.591   2.350   9.907  0.3116 -0.5003 -0.4252
  256TMC3     H 3883   3.532   2.521   9.757 -1.5451 -2.6958 -1.6139
  256TMC3    H1 3884   3.222   2.433  10.036  0.0686  2.2249  0.2807
  256TMC3    H2 3885   3.115   2.574   9.668 -0.1816 -0.0085  0.3734
  256TMC3    C7 3886   3.061   2.391   9.841  0.1204  0.2524  0.7869
  256TMC3    C8 3887   3.365   2.605   9.571 -0.2245 -0.1900 -0.2867
  256TMC3    O1 3888   3.092   2.307   9.758 -0.3905 -0.1378 -0.5760
  256TMC3    O2 3889   3.284   2.691   9.541  0.5601 -0.2466 -0.3227
  257MPD2     C 3890   2.962   3.974  13.264 -0.4605  0.2429 -0.2437
  257MPD2    C1 3891   2.949   3.865  13.192 -0.4630  1.2201 -0.1778
  257MPD2    C2 3892   2.918   3.745  13.259 -0.0645 -0.3531  0.0398
  257MPD2    C3 3893   2.892   3.743  13.392  0.3833  0.2317  0.1670
  257MPD2    C4 3894   2.901   3.861  13.466  0.3192 -0.6126  0.4817
  257MPD2    C5 3895   2.935   3.976  13.398 -0.5944  0.5683 -0.0400
  257MPD2     H 3896   2.925   3.648  13.211  2.0536 -0.4963  0.6350
  257MPD2    H1 3897   2.888   3.879  13.572  0.3923 -2.1266  0.7458
  257MPD2    H2 3898   3.001   4.063  13.216  3.2812 -1.9604 -1.3180
  257MPD2    H3 3899   2.932   4.067  13.458  1.7832  1.3833 -1.1497
  257MPD2     N 3900   2.885   3.621  13.455 -0.7060 -0.1104 -0.2118
  257MPD2    H5 3901   2.884   3.543  13.391 -0.0808 -0.2504 -0.0552
  257MPD2    N1 3902   2.962   3.867  13.054 -0.2454  0.0035 -0.3555
  257MPD2    H7 3903   2.986   3.959  13.018  0.7831  0.0481  0.4579
  258TMC3    C1 3904   2.819   3.465  13.614  0.2490  0.3918 -0.0772
  258TMC3    C2 3905   2.775   3.396  13.506  0.4965 -0.0976  0.0946
  258TMC3    C3 3906   2.763   3.260  13.536  0.5822  0.2804  0.6387
  258TMC3    C4 3907   2.846   3.416  13.739 -0.0751  0.3575  0.7714
  258TMC3    C5 3908   2.828   3.282  13.758  0.2371  0.1427  0.1643
  258TMC3    C6 3909   2.793   3.201  13.655  0.7046 -0.1627  0.8516
  258TMC3     C 3910   2.854   3.603  13.587 -0.6362 -0.5230  0.2149
  258TMC3     O 3911   2.852   3.680  13.682 -0.3343  0.1954 -0.0314
  258TMC3     H 3912   2.747   3.439  13.410  2.0745 -1.7296 -1.0892
  258TMC3    H1 3913   2.874   3.485  13.817  0.5411  1.7537 -0.6801
  258TMC3    H2 3914   2.768   3.096  13.672  0.1661  0.0447  1.3543
  258TMC3    C7 3915   2.925   3.219  13.852 -0.0127  0.6125  0.5006
  258TMC3    C8 3916   2.700   3.170  13.440 -0.9982  0.5430 -0.0563
  258TMC3    O1 3917   2.977   3.119  13.806  0.0832  0.0157 -0.4476
  258TMC3    O2 3918   2.660   3.062  13.479 -0.4702 -0.0404  0.2846
  259MPD2     C 3919   2.782   4.422   1.742  0.3416 -0.2903 -0.2312
  259MPD2    C1 3920   2.667   4.400   1.663 -0.4559 -1.3595  0.6361
  259MPD2    C2 3921   2.669   4.418   1.527  0.2289  0.3365  0.0748
  259MPD2    C3 3922   2.791   4.455   1.460 -0.1019  0.1576 -0.0014
  259MPD2    C4 3923   2.907   4.469   1.538 -0.1811  0.0682 -0.2673
  259MPD2    C5 3924   2.898   4.456   1.675 -0.2647  0.2213 -0.2651
  259MPD2     H 3925   2.578   4.419   1.468  1.3481  1.3023 -1.6044
  259MPD2    H1 3926   3.004   4.502   1.502 -0.8557  1.5596 -0.7435
  259MPD2    H2 3927   2.787   4.419   1.851 -2.4397 -0.8856 -0.1304
  259MPD2    H3 3928   2.994   4.475   1.721 -0.9525  0.0997  1.2086
  259MPD2     N 3929   2.790   4.479   1.318 -0.1878 -0.6999 -0.0671
  259MPD2    H5 3930   2.702   4.456   1.273  1.2666 -1.4359 -2.5873
  259MPD2    N1 3931   2.548   4.376   1.734 -0.2652  0.5678 -0.4617
  259MPD2    H7 3932   2.558   4.370   1.835  0.5083  0.2301 -0.5527
  260TMC3    C1 3933   2.896   4.557   1.115 -0.6172  0.0241 -0.2184
  260TMC3    C2 3934   3.011   4.575   1.046 -0.0139  0.0201 -0.6292
  260TMC3    C3 3935   3.002   4.606   0.907  0.1308 -0.4006  0.3568
  260TMC3    C4 3936   2.776   4.590   1.056 -0.3007 -0.0410 -0.9858
  260TMC3    C5 3937   2.769   4.618   0.923 -1.0843 -0.4167  0.4834
  260TMC3    C6 3938   2.880   4.621   0.841 -0.0189  0.1971  0.3239
  260TMC3     C 3939   2.905   4.518   1.252  0.3538  0.2553 -0.1390
  260TMC3     O 3940   3.019   4.508   1.293 -0.2196 -0.2697 -0.3993
  260TMC3     H 3941   3.108   4.536   1.078  0.0010  0.1059 -0.5695
  260TMC3    H1 3942   2.688   4.593   1.121  0.1979 -1.4244 -0.2619
  260TMC3    H2 3943   2.878   4.633   0.733  2.2431 -2.3997 -0.0309
  260TMC3    C7 3944   2.638   4.605   0.859 -0.5487 -0.5598  0.5862
  260TMC3    C8 3945   3.127   4.605   0.832 -0.1993 -0.6853  0.4994
  260TMC3    O1 3946   2.641   4.653   0.745 -0.6024  0.6071  0.0512
  260TMC3    O2 3947   3.230   4.607   0.897  0.5645 -0.2304  0.4446
  261MPD2     C 3948   3.442   3.208  11.791 -0.0223 -0.4032 -0.3634
  261MPD2    C1 3949   3.477   3.265  11.908 -0.4888  0.1880 -0.4108
  261MPD2    C2 3950   3.571   3.367  11.909  0.1933 -0.0294  0.4484
  261MPD2    C3 3951   3.639   3.408  11.793 -0.0721 -0.1919  0.2203
  261MPD2    C4 3952   3.590   3.355  11.668 -0.2721  0.2793  0.2932
  261MPD2    C5 3953   3.496   3.258  11.674  0.2847  0.2470 -0.3832
  261MPD2     H 3954   3.594   3.417  12.002 -0.5464  0.6672  0.2539
  261MPD2    H1 3955   3.642   3.382  11.577  0.8903 -0.7120  0.6552
  261MPD2    H2 3956   3.379   3.120  11.781 -0.8725  0.1430  0.1298
  261MPD2    H3 3957   3.461   3.216  11.580  0.4204 -0.3969 -0.1464
  261MPD2     N 3958   3.747   3.503  11.804 -0.1104  0.0481  0.2806
  261MPD2    H5 3959   3.762   3.546  11.895  1.4456  0.8493 -0.3687
  261MPD2    N1 3960   3.418   3.222  12.029  0.7726  0.2242 -0.0619
  261MPD2    H7 3961   3.360   3.139  12.022  0.7341  0.1173  1.4828
  262TMC3    C1 3962   3.929   3.637  11.729 -0.3743  0.1273  0.3113
  262TMC3    C2 3963   3.889   3.746  11.793 -0.2698  0.0155  0.4870
  262TMC3    C3 3964   3.975   3.851  11.816  0.4064  0.3112  0.0854
  262TMC3    C4 3965   4.038   3.634  11.652 -0.2170 -0.1715 -0.6150
  262TMC3    C5 3966   4.125   3.737  11.678  0.4054  0.9503  0.2836
  262TMC3    C6 3967   4.100   3.840  11.768  0.0877 -0.2292 -0.5308
  262TMC3     C 3968   3.838   3.528  11.703 -0.2037 -0.7098  0.2006
  262TMC3     O 3969   3.850   3.467  11.597  0.2422  0.5615 -0.0037
  262TMC3     H 3970   3.786   3.750  11.825 -0.5060  0.0491 -0.2963
  262TMC3    H1 3971   4.052   3.552  11.581  1.7790  0.7243 -1.2524
  262TMC3    H2 3972   4.174   3.919  11.781  1.2163 -0.9840 -2.3133
  262TMC3    C7 3973   4.247   3.735  11.597 -0.3069 -0.4028  0.5251
  262TMC3    C8 3974   3.934   3.979  11.870  0.9707 -0.8592 -0.9295
  262TMC3    O1 3975   4.261   3.636  11.529  0.3678 -0.3572 -0.1658
  262TMC3    O2 3976   4.001   4.077  11.840 -0.6670 -0.8857 -0.0107
  263MPD2     C 3977   0.051   2.566  10.757 -0.0555  0.1454 -0.6375
  263MPD2    C1 3978   0.133   2.638  10.836 -0.3351  0.4764  0.3575
  263MPD2    C2 3979   0.209   2.737  10.781 -0.1084 -0.1202  0.0259
  263MPD2    C3 3980   0.213   2.752  10.643  0.0916 -0.4959 -0.7596
  263MPD2    C4 3981   0.139   2.668  10.561  0.1858  0.3130 -0.3885
  263MPD2    C5 3982   0.056   2.576  10.620  0.4995 -0.0229  0.5792
  263MPD2     H 3983   0.264   2.804  10.846 -2.1887  0.0207  1.6393
  263MPD2    H1 3984   0.136   2.686  10.454 -0.5378  0.3664 -0.3576
  263MPD2    H2 3985   4.723   2.481  10.799 -1.9092  2.4892  1.7531
  263MPD2    H3 3986   4.724   2.503  10.564 -1.6108  1.8285  0.3762
  263MPD2     N 3987   0.296   2.859  10.583  0.1561  0.7275 -0.8469
  263MPD2    H5 3988   0.340   2.925  10.646  0.9552 -1.1794  0.5852
  263MPD2    N1 3989   0.137   2.607  10.973  0.4756  0.8533  0.1724
  263MPD2    H7 3990   0.081   2.531  11.010 -0.4478  0.9786 -0.9646
  264TMC3    C1 3991   0.413   2.993  10.437  0.3920  0.6334  0.1226
  264TMC3    C2 3992   0.383   3.097  10.520 -0.5107  0.4893  0.1026
  264TMC3    C3 3993   0.441   3.216  10.493  0.6587  0.5602 -0.9583
  264TMC3    C4 3994   0.500   3.003  10.338  0.7553 -0.3743  0.2137
  264TMC3    C5 3995   0.563   3.125  10.316  0.1606 -0.3663 -0.0142
  264TMC3    C6 3996   0.537   3.230  10.393 -0.4333  0.0235 -0.2018
  264TMC3     C 3997   0.338   2.870  10.456 -0.0792 -0.6216  0.2165
  264TMC3     O 3998   0.317   2.801  10.355 -0.6006 -0.4175  0.1498
  264TMC3     H 3999   0.298   3.095  10.587 -0.8449  0.0006 -0.3364
  264TMC3    H1 4000   0.517   2.931  10.259 -0.6932 -0.5512  0.0526
  264TMC3    H2 4001   0.581   3.329  10.387  1.3206 -0.8651 -1.7793
  264TMC3    C7 4002   0.653   3.135  10.209 -0.3945 -0.2335 -0.6622
  264TMC3    C8 4003   0.458   3.309  10.600  1.1464  0.6063 -0.8842
  264TMC3    O1 4004   0.726   3.038  10.184  0.1301 -0.2623 -0.5718
  264TMC3    O2 4005   0.566   3.370  10.607 -0.9992  0.6765  0.1592
  265MPD2     C 4006   1.823   3.467  15.559 -0.1612  0.0486  0.3120
  265MPD2    C1 4007   1.926   3.554  15.541 -0.4130  0.6303 -0.5124
  265MPD2    C2 4008   2.016   3.518  15.440 -0.5235 -0.0002 -0.5150
  265MPD2    C3 4009   2.011   3.402  15.367 -0.5046  0.6343 -0.3278
  265MPD2    C4 4010   1.899   3.318  15.388  0.8296  0.3193  0.1494
  265MPD2    C5 4011   1.811   3.351  15.492 -0.3510 -0.2267 -0.7409
  265MPD2     H 4012   2.100   3.584  15.420  0.4044 -1.1308 -0.3810
  265MPD2    H1 4013   1.881   3.220  15.346 -1.1973  0.6207  0.3332
  265MPD2    H2 4014   1.742   3.492  15.627 -1.2993 -1.2597 -0.5679
  265MPD2    H3 4015   1.723   3.293  15.519  0.7999  0.1001  3.8391
  265MPD2     N 4016   2.115   3.360  15.282 -0.0318 -0.2501  0.3422
  265MPD2    H5 4017   2.113   3.259  15.269  1.0800 -0.1839 -0.3039
  265MPD2    N1 4018   1.956   3.659  15.625 -0.3761  0.6103 -0.5971
  265MPD2    H7 4019   2.040   3.712  15.607  0.2083  0.5769  2.0097
  266TMC3    C1 4020   1.895   3.813  15.790  0.7479 -0.1623  0.2938
  266TMC3    C2 4021   1.849   3.835  15.917 -0.1356  0.3360  0.1549
  266TMC3    C3 4022   1.823   3.967  15.954  0.7533 -0.1527  0.4393
  266TMC3    C4 4023   1.914   3.913  15.704 -0.2691  0.2810 -0.3972
  266TMC3    C5 4024   1.888   4.040  15.744  0.4181 -0.5083  1.1152
  266TMC3    C6 4025   1.841   4.074  15.870  0.4682  0.2787  0.6751
  266TMC3     C 4026   1.886   3.681  15.739 -0.1996 -0.8614 -0.1647
  266TMC3     O 4027   1.808   3.609  15.808 -0.0558 -0.0722 -0.5806
  266TMC3     H 4028   1.827   3.754  15.985 -3.1065 -0.3981 -1.6871
  266TMC3    H1 4029   1.926   3.889  15.599 -1.6256 -2.5577  0.1161
  266TMC3    H2 4030   1.819   4.178  15.889  0.3155  0.6039 -1.1986
  266TMC3    C7 4031   1.910   4.138  15.643 -0.5363  0.4358  0.0584
  266TMC3    C8 4032   1.787   3.996  16.096 -0.2491 -0.0809 -0.1262
  266TMC3    O1 4033   1.974   4.094  15.549  0.0627 -0.2845 -0.1273
  266TMC3    O2 4034   1.710   3.922  16.152 -0.2240 -0.3565  0.2442
  267MPD2     C 4035   0.086   4.516  17.359 -0.0543 -0.5634 -0.0464
  267MPD2    C1 4036   0.059   4.640  17.411  0.2103  0.1172 -0.1494
  267MPD2    C2 4037   4.715   0.007  17.341 -0.2458  0.6190 -0.2443
  267MPD2    C3 4038   4.661   4.703  17.216  0.1760  0.0482  0.0432
  267MPD2    C4 4039   4.691   4.575  17.166  0.1251  0.3886 -0.2684
  267MPD2    C5 4040   0.043   4.490  17.232 -0.0995  0.1352  0.1971
  267MPD2     H 4041   4.682   0.102  17.383  1.6067  0.4734  1.5693
  267MPD2    H1 4042   4.653   4.533  17.074 -3.3535 -1.3534  1.9798
  267MPD2    H2 4043   0.131   4.437  17.419  0.1745 -1.1362 -0.9758
  267MPD2    H3 4044   0.071   4.397  17.184  3.5047  2.3713 -1.9845
  267MPD2     N 4045   4.586   0.063  17.133  0.0102 -0.2059 -0.0985
  267MPD2    H5 4046   4.561   0.032  17.039 -0.4103 -2.2327  0.6796
  267MPD2    N1 4047   0.113   4.660  17.538 -0.2280 -0.0147  0.6880
  267MPD2    H7 4048   0.150   4.575  17.579  1.3674 -0.9015 -2.6176
  268TMC3    C1 4049   0.204   0.059   0.013 -0.4086  0.2179  0.8730
  268TMC3    C2 4050   0.263   0.174   0.043 -0.3448 -0.0606  0.0755
  268TMC3    C3 4051   0.256   0.213   0.173  0.0443  0.2390  0.2429
  268TMC3    C4 4052   0.134   4.704   0.103  0.2210  0.4002  1.1873
  268TMC3    C5 4053   0.141   0.022   0.232 -0.7944 -0.0700  0.0179
  268TMC3    C6 4054   0.200   0.140   0.271  0.6731  0.3489 -0.8907
  268TMC3     C 4055   0.135   0.062  17.588 -0.0829 -0.3612 -0.5533
  268TMC3     O 4056   0.098   0.171  17.555  0.3561  0.4268  0.8220
  268TMC3     H 4057   0.315   0.227  17.668 -0.5465 -0.3491 -0.2472
  268TMC3    H1 4058   0.079   4.615   0.072  2.1365 -0.2021 -0.4454
  268TMC3    H2 4059   0.185   0.168   0.375  1.9064 -2.9681  0.1866
  268TMC3    C7 4060   0.094   4.667   0.341 -0.6149  0.3154 -0.0923
  268TMC3    C8 4061   0.310   0.346   0.209 -0.2996  0.5521  0.2382
  268TMC3    O1 4062   0.155   4.671   0.453 -0.4780 -0.0242  0.6613
  268TMC3    O2 4063   0.292   0.373   0.327 -0.3248  0.6573  0.0798
  269MPD2     C 4064   0.102   3.671  15.855  1.1016  0.2657  0.1072
  269MPD2    C1 4065   4.704   3.709  15.883 -0.1030  0.9360  0.2379
  269MPD2    C2 4066   4.658   3.841  15.865  0.1031  0.0428 -0.0762
  269MPD2    C3 4067   0.027   3.930  15.817 -0.0072 -0.2392  0.5624
  269MPD2    C4 4068   0.155   3.888  15.789 -0.1069 -0.0047  0.1501
  269MPD2    C5 4069   0.193   3.757  15.812  0.2155  0.2422  0.2677
  269MPD2     H 4070   4.561   3.877  15.899 -0.3141 -1.7495  0.6319
  269MPD2    H1 4071   0.228   3.960  15.755 -0.5152  1.6755  2.9307
  269MPD2    H2 4072   0.140   3.571  15.872  0.7611 -0.0834 -1.1657
  269MPD2    H3 4073   0.298   3.732  15.802  0.8847  2.6801  1.2515
  269MPD2     N 4074   4.711   4.062  15.792 -0.3428  0.2459 -0.3046
  269MPD2    H5 4075   4.618   4.087  15.823 -0.0157  1.7071 -0.4767
  269MPD2    N1 4076   4.618   3.602  15.914  0.8084 -0.5420  0.2878
  269MPD2    H7 4077   4.666   3.513  15.923  1.5630 -0.0749  0.9285
  270TMC3    C1 4078   4.425   3.484  15.985 -0.6071 -0.1568  0.4349
  270TMC3    C2 4079   4.314   3.444  15.930 -1.0559  0.6297 -0.5818
  270TMC3    C3 4080   4.276   3.312  15.909 -0.3009  0.5251 -0.0797
  270TMC3    C4 4081   4.513   3.393  16.028 -0.8796 -0.8482 -0.1103
  270TMC3    C5 4082   4.480   3.255  16.009 -0.2260  0.9462  0.1052
  270TMC3    C6 4083   4.359   3.217  15.956 -0.6678  0.3202  0.0111
  270TMC3     C 4084   4.483   3.609  15.934 -0.8183  0.0458  0.1103
  270TMC3     O 4085   4.406   3.703  15.922 -0.0271  0.5758  0.2556
  270TMC3     H 4086   4.258   3.525  15.884 -1.8706  2.0662  2.9365
  270TMC3    H1 4087   4.606   3.416  16.079 -0.9063  1.3919 -1.0624
  270TMC3    H2 4088   4.346   3.113  15.927 -0.4319  0.2410  0.1904
  270TMC3    C7 4089   4.589   3.165  15.968 -0.4344 -0.7492 -1.0332
  270TMC3    C8 4090   4.215   3.291  15.783 -0.1543  0.1925 -0.3821
  270TMC3    O1 4091   4.697   3.212  15.934 -0.7291 -0.3397 -0.0370
  270TMC3    O2 4092   4.199   3.391  15.709 -0.2901  0.4988 -0.1877
  271MPD2     C 4093   3.600   3.646  14.242  0.6441 -0.0827  0.4104
  271MPD2    C1 4094   3.565   3.638  14.375  0.3386  0.4875  0.1086
  271MPD2    C2 4095   3.455   3.715  14.413  0.2936  0.9552  0.8566
  271MPD2    C3 4096   3.376   3.791  14.319 -0.0311 -0.5243  0.1281
  271MPD2    C4 4097   3.423   3.799  14.195 -0.2568 -0.1390  0.3299
  271MPD2    C5 4098   3.533   3.726  14.157  0.2138  0.6248  0.7548
  271MPD2     H 4099   3.426   3.707  14.517  2.3263  1.7013  1.4744
  271MPD2    H1 4100   3.370   3.846  14.114  0.4293 -0.7569 -0.4848
  271MPD2    H2 4101   3.675   3.581  14.198  1.1150  0.5378  0.2837
  271MPD2    H3 4102   3.558   3.724  14.052 -0.2358  2.0493  0.6062
  271MPD2     N 4103   3.267   3.873  14.352  0.3543 -0.3750  0.1523
  271MPD2    H5 4104   3.241   3.938  14.278  2.4416  1.5289  1.0811
  271MPD2    N1 4105   3.628   3.550  14.468 -0.4420  0.0051  0.1132
  271MPD2    H7 4106   3.606   3.570  14.565 -0.4119  2.0135 -0.2913
  272TMC3    C1 4107   3.789   3.378  14.534 -0.7379  0.0949 -0.4479
  272TMC3    C2 4108   3.896   3.303  14.494 -0.1052  0.7286  0.2137
  272TMC3    C3 4109   3.972   3.236  14.586 -0.0673  0.9489  0.0574
  272TMC3    C4 4110   3.760   3.392  14.669 -0.2377 -0.7455  0.0427
  272TMC3    C5 4111   3.834   3.311  14.753 -0.1974 -0.3051  0.2748
  272TMC3    C6 4112   3.944   3.242  14.717  0.2609  0.3596 -0.6042
  272TMC3     C 4113   3.715   3.448  14.430  0.4020 -0.1582  0.0016
  272TMC3     O 4114   3.734   3.400  14.321  0.2702 -0.2689 -0.1237
  272TMC3     H 4115   3.922   3.288  14.390 -0.1763 -0.3049  0.3434
  272TMC3    H1 4116   3.686   3.461  14.708 -0.4154 -1.2466  0.5956
  272TMC3    H2 4117   3.992   3.169  14.781  0.4562  1.3074  0.3288
  272TMC3    C7 4118   3.791   3.284  14.888 -0.2894  0.3435 -0.4457
  272TMC3    C8 4119   4.086   3.161  14.536 -0.0251  0.0533 -1.0427
  272TMC3    O1 4120   3.674   3.252  14.924 -0.0733  0.2666 -0.5726
  272TMC3    O2 4121   4.093   3.151  14.413  0.0235  0.3070  0.7165
  273MPD2     C 4122   0.303   1.212  11.926  0.5278  0.0047  0.6495
  273MPD2    C1 4123   0.403   1.306  11.910  0.2727  1.0222  0.4198
  273MPD2    C2 4124   0.415   1.366  11.779 -0.3407  0.4961 -0.2731
  273MPD2    C3 4125   0.335   1.324  11.671 -0.6181  0.0290 -0.0372
  273MPD2    C4 4126   0.246   1.225  11.698 -0.3027  0.6794 -0.6407
  273MPD2    C5 4127   0.225   1.174  11.824 -0.2543  0.9653 -0.3436
  273MPD2     H 4128   0.472   1.457  11.767  0.6644 -0.1281 -0.1906
  273MPD2    H1 4129   0.197   1.172  11.618 -1.3166  0.7127 -0.0480
  273MPD2    H2 4130   0.286   1.163  12.021 -0.6406 -0.6077  0.1187
  273MPD2    H3 4131   0.146   1.100  11.837  1.6669 -1.4782 -2.6281
  273MPD2     N 4132   0.329   1.399  11.553  0.2757 -0.3009 -0.3897
  273MPD2    H5 4133   0.383   1.484  11.552 -2.2087  1.3305  2.6298
  273MPD2    N1 4134   0.478   1.351  12.020 -0.6124 -0.0473  0.0563
  273MPD2    H7 4135   0.465   1.322  12.117  2.7715 -1.3318  0.1428
  274TMC3    C1 4136   0.276   1.476  11.332 -0.5609 -0.4289 -0.1796
  274TMC3    C2 4137   0.184   1.480  11.233  0.3652 -0.1605  0.3427
  274TMC3    C3 4138   0.178   1.589  11.146  0.4192 -0.5764  0.2664
  274TMC3    C4 4139   0.363   1.580  11.346 -0.2638  0.0261  0.1737
  274TMC3    C5 4140   0.360   1.683  11.248 -1.0963  0.8984 -0.0429
  274TMC3    C6 4141   0.282   1.672  11.144  0.3092  0.1114 -0.1269
  274TMC3     C 4142   0.248   1.373  11.440 -0.8050  0.2152  0.4676
  274TMC3     O 4143   0.187   1.268  11.424 -0.5436  0.0620 -0.6779
  274TMC3     H 4144   0.111   1.400  11.228 -0.5040  0.7246 -1.1264
  274TMC3    H1 4145   0.430   1.580  11.431 -1.8991  1.4241  1.4815
  274TMC3    H2 4146   0.258   1.760  11.085  0.5485 -1.0440 -1.9693
  274TMC3    C7 4147   0.406   1.817  11.285 -0.4087  0.2835 -0.0345
  274TMC3    C8 4148   0.078   1.614  11.043  0.9947 -0.0685  0.9010
  274TMC3    O1 4149   0.428   1.895  11.196  0.1102  0.2815  0.0470
  274TMC3    O2 4150   0.106   1.681  10.941 -0.0501 -0.2550  0.4703
  275MPD2     C 4151   0.474   4.423  14.658 -0.6596  0.1970  0.2115
  275MPD2    C1 4152   0.393   4.414  14.773  0.3146  0.2502  0.4908
  275MPD2    C2 4153   0.263   4.373  14.761  0.2510  0.2525 -0.2991
  275MPD2    C3 4154   0.213   4.334  14.637 -0.3697 -0.3707 -0.4404
  275MPD2    C4 4155   0.295   4.334  14.525 -0.8708 -0.2623  0.4429
  275MPD2    C5 4156   0.427   4.378  14.535  0.5866  0.4938  0.4607
  275MPD2     H 4157   0.204   4.351  14.849 -2.0653  0.4681 -1.8176
  275MPD2    H1 4158   0.257   4.313  14.425 -1.5802 -0.7320  0.8093
  275MPD2    H2 4159   0.578   4.455  14.666 -0.2407 -1.2928  0.8073
  275MPD2    H3 4160   0.486   4.388  14.445  0.4997 -0.7293  0.2638
  275MPD2     N 4161   0.073   4.311  14.618 -0.0211  0.7417 -0.0940
  275MPD2    H5 4162   0.055   4.276  14.524  1.4230 -1.2957  0.3833
  275MPD2    N1 4163   0.428   4.458  14.900  0.0382 -0.3178  0.9775
  275MPD2    H7 4164   0.371   4.433  14.980 -1.7705  0.0280 -0.1951
  276TMC3    C1 4165   0.538   4.558  15.069 -0.2280  0.5143  0.2191
  276TMC3    C2 4166   0.484   4.459  15.151 -0.6740  0.0422  0.3722
  276TMC3    C3 4167   0.428   4.496  15.271 -0.3544 -0.1402 -0.7250
  276TMC3    C4 4168   0.534   4.685  15.101 -0.2998 -0.3834  0.6555
  276TMC3    C5 4169   0.473   4.726  15.218 -0.6378 -0.0353 -0.1767
  276TMC3    C6 4170   0.430   4.627  15.308 -0.3449  0.2101  0.0503
  276TMC3     C 4171   0.536   4.538  14.929 -0.3457 -0.1238  0.4092
  276TMC3     O 4172   0.617   4.600  14.862  0.0306 -0.0933 -0.2582
  276TMC3     H 4173   0.472   4.359  15.110 -2.0166 -0.5308  2.1511
  276TMC3    H1 4174   0.573   0.036  15.035 -3.6459  1.3830  0.7225
  276TMC3    H2 4175   0.374   4.650  15.398 -0.1856 -0.0142  0.2077
  276TMC3    C7 4176   0.540   0.110  15.279  0.2186  0.2093 -0.6335
  276TMC3    C8 4177   0.443   4.405  15.387  0.0700 -0.0788 -0.0073
  276TMC3    O1 4178   0.553   0.113  15.400  0.0251  0.9142  0.4163
  276TMC3    O2 4179   0.418   4.441  15.502 -0.0477 -0.0587 -0.3190
  277MPD2     C 4180   2.095   3.478  13.935  0.1167 -0.4525 -0.1849
  277MPD2    C1 4181   1.972   3.483  13.868  0.0262  0.5529  0.0553
  277MPD2    C2 4182   1.882   3.385  13.900  0.1154 -0.0553  0.1207
  277MPD2    C3 4183   1.910   3.282  13.990 -0.7097 -0.1358 -0.0682
  277MPD2    C4 4184   2.032   3.285  14.055 -0.2546 -0.1599  0.1064
  277MPD2    C5 4185   2.123   3.379  14.020  0.2558 -0.1198 -0.0097
  277MPD2     H 4186   1.780   3.392  13.863 -0.2546 -0.4595  1.0877
  277MPD2    H1 4187   2.069   3.204  14.117 -2.6110 -0.3026  1.3271
  277MPD2    H2 4188   2.170   3.555  13.923 -1.1086  0.5997 -1.0424
  277MPD2    H3 4189   2.223   3.377  14.062  0.5827 -1.3415 -0.8600
  277MPD2     N 4190   1.813   3.183  14.002  0.1545 -0.0463  0.1758
  277MPD2    H5 4191   1.730   3.201  13.945  0.0269 -1.1515  0.0155
  277MPD2    N1 4192   1.944   3.604  13.795  0.3091 -0.5795 -0.1241
  277MPD2    H7 4193   2.012   3.678  13.803 -0.3458  0.3024 -2.6418
  278TMC3    C1 4194   1.693   3.006  14.035 -0.1550 -0.2578 -0.1543
  278TMC3    C2 4195   1.717   2.903  13.953 -0.2317 -0.2685  0.2552
  278TMC3    C3 4196   1.605   2.858  13.879  0.3306 -0.3272 -0.0917
  278TMC3    C4 4197   1.566   3.064  14.045  0.6271  0.0195  0.3649
  278TMC3    C5 4198   1.460   3.015  13.974 -0.3631  0.0706 -0.7679
  278TMC3    C6 4199   1.482   2.912  13.893  0.3658 -0.2725 -0.0249
  278TMC3     C 4200   1.812   3.071  14.081 -0.1041 -0.2982 -0.9283
  278TMC3     O 4201   1.892   3.006  14.147  0.2671 -0.3013  0.0535
  278TMC3     H 4202   1.817   2.863  13.941 -0.4388 -0.4961 -0.7203
  278TMC3    H1 4203   1.552   3.151  14.108 -1.0902  2.8158 -3.9027
  278TMC3    H2 4204   1.398   2.873  13.836 -0.3663 -0.5049  1.2125
  278TMC3    C7 4205   1.328   3.081  13.985 -0.0828  0.8593 -0.5192
  278TMC3    C8 4206   1.627   2.759  13.773 -0.4275 -0.9279  0.0531
  278TMC3    O1 4207   1.335   3.203  13.996 -0.3005 -0.3832  0.0317
  278TMC3    O2 4208   1.728   2.690  13.779  0.2149 -0.2471  0.0243
  279MPD2     C 4209   1.744   3.516   0.176  0.1109  0.2246  0.5119
  279MPD2    C1 4210   1.690   3.625   0.237 -0.3658 -0.5077  0.0929
  279MPD2    C2 4211   1.664   3.740   0.163 -0.4674  0.5817  0.0011
  279MPD2    C3 4212   1.685   3.736   0.024 -0.6205 -0.2409  0.7514
  279MPD2    C4 4213   1.743   3.623  17.683  0.0222  0.1135  0.3236
  279MPD2    C5 4214   1.769   3.509   0.045  0.4765  0.3144  0.7898
  279MPD2     H 4215   1.599   3.819   0.200 -0.9831  1.1069 -2.0120
  279MPD2    H1 4216   1.767   3.622  17.577 -3.0117  1.7776 -0.3724
  279MPD2    H2 4217   1.758   3.424   0.230  0.4747  0.5252  0.9335
  279MPD2    H3 4218   1.802   3.418  17.702  0.5185 -0.5333  2.3984
  279MPD2     N 4219   1.644   3.834  17.642  0.4739  0.0312  0.3766
  279MPD2    H5 4220   1.640   3.821  17.542 -0.3349  0.5713  0.3361
  279MPD2    N1 4221   1.644   3.615   0.375 -0.1729  0.0568  0.3327
  279MPD2    H7 4222   1.626   3.523   0.414 -0.1541 -0.7033 -1.4062
  280TMC3    C1 4223   1.487   3.686   0.531 -0.7461  0.0557 -0.0052
  280TMC3    C2 4224   1.396   3.593   0.491  0.3272 -0.0060 -0.2743
  280TMC3    C3 4225   1.269   3.602   0.543 -0.5949  0.6296  0.6698
  280TMC3    C4 4226   1.448   3.785   0.627  0.2305 -0.0035 -0.1569
  280TMC3    C5 4227   1.315   3.796   0.658 -0.0357  0.0204 -0.1748
  280TMC3    C6 4228   1.224   3.697   0.632  0.8126  0.3940 -0.6610
  280TMC3     C 4229   1.594   3.720   0.446  0.2312 -0.0733 -0.0670
  280TMC3     O 4230   1.626   3.837   0.443  0.5812  0.3332  0.1462
  280TMC3     H 4231   1.409   3.541   0.397 -0.5622 -0.9911  0.1519
  280TMC3    H1 4232   1.513   3.870   0.643  0.1371  0.2029 -0.8699
  280TMC3    H2 4233   1.120   3.713   0.659  1.2165 -0.1037  1.1664
  280TMC3    C7 4234   1.270   3.903   0.740 -0.0572 -0.1513 -0.6917
  280TMC3    C8 4235   1.173   3.528   0.464 -0.6798 -0.9457 -0.1805
  280TMC3    O1 4236   1.317   3.922   0.850 -0.9289 -0.6625 -0.1701
  280TMC3    O2 4237   1.169   3.535   0.339 -0.2183 -0.6814  0.1930
  281TMC3    C1 4238   0.147   4.257  13.198  0.0002 -0.1322 -0.5053
  281TMC3    C2 4239   0.043   4.204  13.122 -0.0053  0.2612 -0.0888
  281TMC3    C3 4240   0.050   4.074  13.096 -0.3550 -0.2085 -0.0537
  281TMC3    C4 4241   0.247   4.177  13.241 -0.5818  0.0253  0.0670
  281TMC3    C5 4242   0.248   4.043  13.215  0.0646  0.3698  0.4174
  281TMC3    C6 4243   0.148   3.988  13.138 -0.0191 -0.8797 -0.1594
  281TMC3     C 4244   0.143   4.392  13.265 -0.4486  0.3108  0.2393
  281TMC3     O 4245   0.244   4.432  13.319  0.0506  0.2060  0.1635
  281TMC3     H 4246   4.700   4.275  13.078  0.3539  0.8895  0.3668
  281TMC3    H1 4247   0.332   4.220  13.292  1.0887 -1.9462 -1.0573
  281TMC3    H2 4248   0.168   3.891  13.095  2.3542 -0.0272 -0.9699
  281TMC3    C7 4249   0.325   3.959  13.305 -0.1391  0.3268 -0.5010
  281TMC3    C8 4250   4.657   4.028  13.015 -0.5225  0.7043  0.2252
  281TMC3    O1 4251   0.445   3.986  13.316  0.4038  0.3011  0.0821
  281TMC3    O2 4252   4.576   4.114  12.987 -0.1770 -0.1832  0.3784
  282MPD2     C 4253   2.150   0.407  15.145 -0.2619  0.5327 -0.4221
  282MPD2    C1 4254   2.054   0.508  15.135 -0.3887  0.1609 -0.4377
  282MPD2    C2 4255   2.022   0.563  15.013 -0.1876  0.2951 -0.8094
  282MPD2    C3 4256   2.088   0.529  14.896 -0.9000 -0.1683  0.0979
  282MPD2    C4 4257   2.185   0.433  14.911 -0.8230 -0.3018 -0.7500
  282MPD2    C5 4258   2.210   0.367  15.030  0.5641 -0.2987  0.5509
  282MPD2     H 4259   1.942   0.637  15.013 -0.4312  0.0323 -0.2085
  282MPD2    H1 4260   2.242   0.402  14.824 -3.0838  2.7878 -3.3648
  282MPD2    H2 4261   2.173   0.348  15.232  0.4875  2.7103  0.8605
  282MPD2    H3 4262   2.281   0.286  15.037 -1.3552 -2.0373  0.0545
  282MPD2     N 4263   2.043   0.585  14.772  0.7575  0.8749  0.7297
  282MPD2    H5 4264   1.976   0.661  14.782 -0.0293  0.0409  1.7720
  282MPD2    N1 4265   1.973   0.542  15.242  0.3275  0.2613 -1.0983
  282MPD2    H7 4266   1.888   0.594  15.224 -0.0477  0.7379  1.9818
  283TMC3    C1 4267   1.930   0.590  15.471 -0.5202 -0.1896 -0.1618
  283TMC3    C2 4268   1.993   0.676  15.551  0.0490 -0.2113 -0.1905
  283TMC3    C3 4269   1.942   0.690  15.676 -0.2529  1.0592 -0.3283
  283TMC3    C4 4270   1.814   0.518  15.500  0.1639  0.6202  0.4778
  283TMC3    C5 4271   1.765   0.538  15.625  0.3850  0.8225 -0.5208
  283TMC3    C6 4272   1.826   0.632  15.715 -0.2466 -0.7320 -0.0615
  283TMC3     C 4273   2.018   0.528  15.369  0.0310 -0.2864  0.2927
  283TMC3     O 4274   2.134   0.511  15.403 -0.0401 -0.0558 -0.2616
  283TMC3     H 4275   2.088   0.721  15.525 -0.6504  0.2950 -1.8535
  283TMC3    H1 4276   1.785   0.438  15.433  0.5263  0.2913  0.7188
  283TMC3    H2 4277   1.776   0.653  15.808 -0.3135 -1.4556  0.0652
  283TMC3    C7 4278   1.683   0.437  15.685 -0.2147  0.1585 -0.7481
  283TMC3    C8 4279   2.009   0.777  15.771  0.2102  0.5589  0.1293
  283TMC3    O1 4280   1.710   0.426  15.801  0.4354  0.0409  0.2745
  283TMC3    O2 4281   1.991   0.753  15.887  0.4703  0.1088  0.3877
  284MPD2     C 4282   0.633   4.471  11.968 -0.3230  0.4002 -0.4051
  284MPD2    C1 4283   0.540   4.482  11.866  0.1915 -0.8226  0.7267
  284MPD2    C2 4284   0.424   4.404  11.873  0.2435  0.1018  0.1108
  284MPD2    C3 4285   0.404   4.317  11.976 -0.3140  0.4188 -0.8026
  284MPD2    C4 4286   0.496   4.309  12.073  0.4073 -0.1277 -0.1987
  284MPD2    C5 4287   0.615   4.378  12.061 -0.2181  0.3768  0.1263
  284MPD2     H 4288   0.346   4.422  11.800  0.5010  0.1196 -0.1620
  284MPD2    H1 4289   0.502   4.238  12.155  0.6397  2.4751  2.0554
  284MPD2    H2 4290   0.722   4.533  11.978 -0.3058  0.0613  1.5073
  284MPD2    H3 4291   0.687   4.359  12.140 -0.5484  1.6702  0.7570
  284MPD2     N 4292   0.290   4.230  11.994  0.2069  0.9220  0.1354
  284MPD2    H5 4293   0.295   4.148  12.054  0.9227  0.0345 -1.1375
  284MPD2    N1 4294   0.560   4.553  11.745  0.1125 -0.6187  0.7242
  284MPD2    H7 4295   0.487   4.547  11.674  1.3058 -0.9774 -0.4910
  285TMC3    C1 4296   0.699   4.649  11.577  0.1308 -0.1737  0.0337
  285TMC3    C2 4297   0.681   4.543  11.489 -0.0818  0.2709  0.3193
  285TMC3    C3 4298   0.739   4.558  11.366  1.0623  0.2124  0.3528
  285TMC3    C4 4299   0.733   0.049  11.544  1.0699 -0.2433  0.4749
  285TMC3    C5 4300   0.778   0.055  11.412 -0.0991 -0.2095  0.6909
  285TMC3    C6 4301   0.784   4.678  11.323  0.4587 -0.9253 -0.1389
  285TMC3     C 4302   0.679   4.621  11.717  0.4236 -0.1622  0.5548
  285TMC3     O 4303   0.757   4.669  11.800  0.9001  0.2873  0.0775
  285TMC3     H 4304   0.688   4.446  11.538  3.3134  1.4046  2.0960
  285TMC3    H1 4305   0.721   0.134  11.610 -0.1110 -0.3067  0.3407
  285TMC3    H2 4306   0.814   4.687  11.219  2.5962  1.1248  0.6702
  285TMC3    C7 4307   0.759   0.184  11.350 -0.9609 -0.2236 -0.4793
  285TMC3    C8 4308   0.778   4.439  11.287  0.3502 -0.1307  0.0424
  285TMC3    O1 4309   0.811   0.278  11.403  0.4943  0.3339  0.0662
  285TMC3    O2 4310   0.717   4.334  11.304  0.3293 -0.5260  0.3823
  286MPD2     C 4311   0.815   3.368   1.568 -0.7245 -0.0569 -0.2509
  286MPD2    C1 4312   0.739   3.299   1.475  0.1599 -0.1410  0.3106
  286MPD2    C2 4313   0.795   3.199   1.403 -1.2310 -0.8742  0.0522
  286MPD2    C3 4314   0.926   3.161   1.420 -0.7308 -0.0141 -0.2944
  286MPD2    C4 4315   1.008   3.226   1.508  0.8484  0.4487 -0.2885
  286MPD2    C5 4316   0.954   3.332   1.582  0.2197 -0.1576  1.5095
  286MPD2     H 4317   0.720   3.141   1.351  0.0214 -1.7457 -0.7748
  286MPD2    H1 4318   1.109   3.188   1.520  0.7190  1.3452  3.7051
  286MPD2    H2 4319   0.773   3.447   1.629 -0.2524 -0.4446  0.5841
  286MPD2    H3 4320   1.023   3.372   1.656 -1.0053  0.2030  2.4629
  286MPD2     N 4321   0.986   3.050   1.361 -0.0029  0.0077 -0.4140
  286MPD2    H5 4322   1.081   3.030   1.389 -0.1935 -1.3141 -0.7082
  286MPD2    N1 4323   0.605   3.342   1.450  0.6524 -0.1199  0.5306
  286MPD2    H7 4324   0.566   3.297   1.368  2.7092 -1.0351  0.0310
  287TMC3    C1 4325   0.999   2.850   1.235 -0.6025 -0.0706  0.2933
  287TMC3    C2 4326   0.975   2.801   1.108  0.1212  0.1941  0.1069
  287TMC3    C3 4327   1.075   2.729   1.056 -0.1783  0.8922  0.0917
  287TMC3    C4 4328   1.110   2.824   1.309 -0.4586  0.7134 -0.2757
  287TMC3    C5 4329   1.211   2.746   1.251  0.5085 -0.1982 -0.2723
  287TMC3    C6 4330   1.192   2.694   1.124 -0.0864  0.0933 -0.4375
  287TMC3     C 4331   0.917   2.961   1.279 -0.0669 -0.3927 -0.1524
  287TMC3     O 4332   0.805   2.973   1.235 -0.0428  0.2947  0.0896
  287TMC3     H 4333   0.894   2.834   1.044 -0.5097 -0.8124  0.3714
  287TMC3    H1 4334   1.137   2.846   1.412  0.6796  2.1161 -0.8727
  287TMC3    H2 4335   1.268   2.645   1.065 -0.0768  1.5330 -1.5983
  287TMC3    C7 4336   1.322   2.698   1.330  0.4658  0.1483 -0.4325
  287TMC3    C8 4337   1.069   2.665   0.926  0.1660 -0.5809  1.5790
  287TMC3    O1 4338   1.299   2.695   1.448  0.3553  0.1377  0.9935
  287TMC3    O2 4339   1.124   2.558   0.919 -0.7602  0.3977 -0.1007
  288TMC3    C1 4340   2.566   3.153  14.576 -0.1109  0.5418 -0.5609
  288TMC3    C2 4341   2.500   3.238  14.662  0.2191 -0.2916  0.3538
  288TMC3    C3 4342   2.414   3.327  14.608  0.4795 -0.6400 -0.5867
  288TMC3    C4 4343   2.552   3.168  14.444  0.6337  0.1731  0.1143
  288TMC3    C5 4344   2.448   3.258  14.394 -0.3377  0.5102  0.5088
  288TMC3    C6 4345   2.388   3.341  14.480 -0.3998 -0.0647  0.8794
  288TMC3     C 4346   2.696   3.102  14.610  0.2782  0.2196 -0.2764
  288TMC3     O 4347   2.731   2.999  14.555 -0.2479 -0.0708  0.5741
  288TMC3     H 4348   2.510   3.235  14.770  0.9176 -0.4274  0.2874
  288TMC3    H1 4349   2.599   3.095  14.379 -0.0518 -0.7748  0.6955
  288TMC3    H2 4350   2.324   3.418  14.438  0.7580  1.5578  2.0785
  288TMC3    C7 4351   2.449   3.294  14.252 -0.1226  1.0913  0.1402
  288TMC3    C8 4352   2.301   3.345  14.697  0.2656  0.3022  0.1530
  288TMC3    O1 4353   2.458   3.412  14.227 -0.0481 -0.4163 -0.7203
  288TMC3    O2 4354   2.246   3.453  14.706 -0.2822 -0.6280 -0.6379
  289MPD2     C 4355   2.320   2.301  14.793  0.0045 -0.1659  0.4211
  289MPD2    C1 4356   2.356   2.381  14.688  0.4681  0.4024 -0.0125
  289MPD2    C2 4357   2.286   2.383  14.569  0.4902 -0.0351 -0.2409
  289MPD2    C3 4358   2.183   2.292  14.553  0.0494  0.5006  0.1667
  289MPD2    C4 4359   2.153   2.204  14.656  0.0832  0.1399  0.4580
  289MPD2    C5 4360   2.223   2.208  14.767 -0.3161  0.4078  0.3945
  289MPD2     H 4361   2.324   2.438  14.483  1.6426  0.0937  0.3578
  289MPD2    H1 4362   2.069   2.138  14.644  1.1676 -0.8715 -1.6773
  289MPD2    H2 4363   2.368   2.304  14.890  1.5788  1.4036 -0.4040
  289MPD2    H3 4364   2.200   2.133  14.842 -3.0067  1.0563  0.2276
  289MPD2     N 4365   2.105   2.282  14.433  0.4122 -0.1713 -0.3052
  289MPD2    H5 4366   2.050   2.197  14.428 -2.1424  1.4574  0.1156
  289MPD2    N1 4367   2.466   2.472  14.710 -0.2016 -0.0088  0.0018
  289MPD2    H7 4368   2.528   2.453  14.788 -0.7760  2.3731  1.0416
  290TMC3    C1 4369   2.015   2.332  14.216  0.0026  0.4766  0.3705
  290TMC3    C2 4370   1.960   2.429  14.145  0.1073 -0.0641  0.4295
  290TMC3    C3 4371   1.852   2.398  14.072 -0.6629 -0.1816 -0.3110
  290TMC3    C4 4372   1.975   2.201  14.208 -0.4576 -0.1834  0.1558
  290TMC3    C5 4373   1.874   2.169  14.119  1.0179 -0.1978 -0.0289
  290TMC3    C6 4374   1.817   2.269  14.048  0.0025 -0.2061  0.0204
  290TMC3     C 4375   2.090   2.374  14.333 -0.0599  0.8844 -0.7225
  290TMC3     O 4376   2.148   2.480  14.327 -0.0600  0.4530  0.1067
  290TMC3     H 4377   1.984   2.530  14.177  0.5029 -0.2131  0.6092
  290TMC3    H1 4378   2.046   2.133  14.253 -0.8680  0.8844  2.4449
  290TMC3    H2 4379   1.733   2.237  13.987 -0.7804  0.2690  0.8459
  290TMC3    C7 4380   1.809   2.038  14.133 -0.8415  0.2637 -1.0034
  290TMC3    C8 4381   1.736   2.481  14.058 -0.7448 -0.2067 -0.6576
  290TMC3    O1 4382   1.713   2.011  14.061 -0.2249  0.2698 -0.1359
  290TMC3    O2 4383   1.643   2.445  13.992  0.1406 -0.3312  0.6622
  291MPD2     C 4384   2.111   2.172   0.940 -0.5111  0.4248 -0.3109
  291MPD2    C1 4385   2.056   2.094   0.840  0.1814  0.8078 -1.0825
  291MPD2    C2 4386   2.006   2.166   0.737 -1.0734 -0.1912  0.4343
  291MPD2    C3 4387   2.008   2.305   0.724 -0.0209 -0.2076 -0.7807
  291MPD2    C4 4388   2.070   2.376   0.821  0.7177 -0.0549 -0.1267
  291MPD2    C5 4389   2.112   2.311   0.935 -0.0230  0.8670 -0.1307
  291MPD2     H 4390   1.952   2.109   0.662  0.6573 -0.5477 -0.5337
  291MPD2    H1 4391   2.071   2.485   0.821 -0.3692 -0.0432  0.2877
  291MPD2    H2 4392   2.150   2.138   1.035  0.6626  0.1644 -0.8983
  291MPD2    H3 4393   2.158   2.363   1.018 -1.1547  1.0687  0.3794
  291MPD2     N 4394   1.954   2.383   0.623  0.0852 -0.2216  0.0770
  291MPD2    H5 4395   1.969   2.483   0.615 -0.8835 -0.2777 -2.6653
  291MPD2    N1 4396   2.045   1.950   0.830 -0.0657  0.6503  0.3517
  291MPD2    H7 4397   2.006   1.913   0.744 -0.4864  1.2492  0.2841
  292TMC3    C1 4398   2.015   1.730   0.906  0.4843 -0.1183 -0.6904
  292TMC3    C2 4399   2.029   1.636   1.000 -0.0485  0.4748 -0.4257
  292TMC3    C3 4400   1.953   1.523   0.982  0.0819  0.3539  0.2181
  292TMC3    C4 4401   1.948   1.718   0.789  0.3196  0.2559  1.0005
  292TMC3    C5 4402   1.870   1.602   0.776 -0.0665 -0.8587  0.1186
  292TMC3    C6 4403   1.881   1.501   0.862 -0.1129  0.5230  0.1150
  292TMC3     C 4404   2.075   1.863   0.926 -0.3054  0.5002 -0.2761
  292TMC3     O 4405   2.148   1.869   1.031 -0.2342 -0.0612 -0.3374
  292TMC3     H 4406   2.090   1.652   1.088  0.1009  0.3977 -0.5147
  292TMC3    H1 4407   1.919   1.800   0.726  1.7326 -0.2490 -0.2995
  292TMC3    H2 4408   1.815   1.415   0.852  0.4659  0.2940 -1.6589
  292TMC3    C7 4409   1.811   1.572   0.644 -0.0822  0.0152 -0.2326
  292TMC3    C8 4410   1.967   1.413   1.079  0.9475 -0.6465 -0.2802
  292TMC3    O1 4411   1.753   1.670   0.595 -0.5019 -0.1856  0.6508
  292TMC3    O2 4412   1.984   1.444   1.197  0.2916 -0.3625  0.3973
  293MPD2     C 4413   3.304   3.600  12.550 -0.0415  0.6446 -0.1807
  293MPD2    C1 4414   3.205   3.547  12.635  0.4187 -0.2947  0.3244
  293MPD2    C2 4415   3.201   3.577  12.767  0.3197  0.2704 -0.0400
  293MPD2    C3 4416   3.296   3.654  12.824 -0.6279 -0.0721  0.0822
  293MPD2    C4 4417   3.398   3.707  12.741  0.6302 -0.1792  0.0633
  293MPD2    C5 4418   3.405   3.672  12.609 -0.5283 -0.1591 -0.1552
  293MPD2     H 4419   3.122   3.537  12.829  0.6793 -1.9109 -0.9562
  293MPD2    H1 4420   3.484   3.766  12.770  1.0951 -0.0581 -1.5957
  293MPD2    H2 4421   3.318   3.584  12.444  2.5106 -3.4578  0.7453
  293MPD2    H3 4422   3.485   3.721  12.554 -1.6613  2.2830  0.3403
  293MPD2     N 4423   3.289   3.679  12.962  0.0790 -0.1372  0.0441
  293MPD2    H5 4424   3.232   3.615  13.016 -2.0577 -0.1086 -2.1671
  293MPD2    N1 4425   3.108   3.470  12.569  0.4591  0.8008 -0.4257
  293MPD2    H7 4426   3.121   3.462  12.469  0.4866 -2.2347 -0.1806
  294TMC3    C1 4427   2.909   3.348  12.519  0.5051  0.4993 -0.5629
  294TMC3    C2 4428   2.774   3.332  12.543  0.2131 -0.1216  0.2674
  294TMC3    C3 4429   2.700   3.264  12.447  0.3072  0.1210  0.2553
  294TMC3    C4 4430   2.965   3.292  12.408 -0.4541 -0.2634  0.1545
  294TMC3    C5 4431   2.886   3.237  12.309  0.2765 -0.0137  0.1937
  294TMC3    C6 4432   2.755   3.211  12.332 -0.0611 -0.0663  0.2980
  294TMC3     C 4433   2.995   3.409  12.619  0.3999  0.0608  0.4570
  294TMC3     O 4434   2.951   3.418  12.731  0.7222  0.0761  0.4277
  294TMC3     H 4435   2.728   3.389  12.623 -1.8560  0.3005 -1.2185
  294TMC3    H1 4436   3.072   3.300  12.391 -0.4265  1.4589  1.2285
  294TMC3    H2 4437   2.697   3.166  12.253  0.2657 -0.6058  0.3668
  294TMC3    C7 4438   2.952   3.194  12.178  0.1473 -0.7335  0.8640
  294TMC3    C8 4439   2.558   3.252  12.468  0.4712 -0.4850 -0.2802
  294TMC3    O1 4440   3.068   3.240  12.166 -0.1401  0.1744 -0.0440
  294TMC3    O2 4441   2.506   3.329  12.544  0.3994 -0.9709  0.0361
  295MPD2     C 4442   3.388   1.685   1.185  0.1792 -0.1434 -0.2553
  295MPD2    C1 4443   3.513   1.657   1.146 -0.0435  0.1891 -0.4748
  295MPD2    C2 4444   3.579   1.561   1.220  0.0551 -0.1810 -0.0506
  295MPD2    C3 4445   3.518   1.489   1.322 -0.1945  0.5321 -0.0917
  295MPD2    C4 4446   3.389   1.517   1.348  0.1603 -0.7657  0.0354
  295MPD2    C5 4447   3.324   1.612   1.279  0.3987  0.7325 -1.0301
  295MPD2     H 4448   3.676   1.533   1.180 -0.8762 -1.2972 -1.5519
  295MPD2    H1 4449   3.331   1.474   1.428 -0.1162  0.3009  0.4157
  295MPD2    H2 4450   3.311   1.743   1.134 -2.2923 -1.8237  1.5758
  295MPD2    H3 4451   3.220   1.628   1.307  0.7632  2.3788 -0.6190
  295MPD2     N 4452   3.583   1.389   1.400  0.2482  0.0378  0.3944
  295MPD2    H5 4453   3.522   1.341   1.465 -0.2896  0.4477  0.1919
  295MPD2    N1 4454   3.569   1.710   1.027  0.1653  0.0991 -0.0080
  295MPD2    H7 4455   3.657   1.672   0.993  0.5763  0.7892  0.2806
  296TMC3    C1 4456   3.759   1.284   1.513  0.1667  0.6116 -0.4190
  296TMC3    C2 4457   3.890   1.253   1.522  0.0860 -0.0289  0.0121
  296TMC3    C3 4458   3.928   1.163   1.624 -0.0322 -0.0194 -0.6168
  296TMC3    C4 4459   3.673   1.249   1.613 -0.5483 -0.3218  0.1997
  296TMC3    C5 4460   3.710   1.160   1.709  0.7282 -0.1602  0.0557
  296TMC3    C6 4461   3.845   1.121   1.722  0.0996  0.7389 -0.5669
  296TMC3     C 4462   3.720   1.362   1.399 -0.8592 -1.0155  0.2434
  296TMC3     O 4463   3.806   1.413   1.337  0.4972 -0.2692 -0.1747
  296TMC3     H 4464   3.952   1.284   1.439 -2.0952  0.4382 -1.4391
  296TMC3    H1 4465   3.574   1.292   1.626 -0.1019  0.8410 -0.2238
  296TMC3    H2 4466   3.875   1.055   1.803  1.2982  3.4841  1.1900
  296TMC3    C7 4467   3.600   1.084   1.768  0.2806 -0.2811 -1.1176
  296TMC3    C8 4468   4.067   1.130   1.653  0.1285  0.1269 -0.0406
  296TMC3    O1 4469   3.488   1.101   1.721 -0.1473 -0.1215 -0.3200
  296TMC3    O2 4470   4.091   1.036   1.730 -0.5140  0.0500  0.5199
  297MPD2     C 4471   1.269   4.040  16.765  0.0973  0.4893  0.2177
  297MPD2    C1 4472   1.229   4.099  16.650  0.6395  0.6016 -0.1032
  297MPD2    C2 4473   1.296   4.209  16.596  0.9565 -0.4325  0.1440
  297MPD2    C3 4474   1.414   4.257  16.652  0.3039 -0.8198 -0.7361
  297MPD2    C4 4475   1.458   4.195  16.771  0.3561  0.1052 -0.0453
  297MPD2    C5 4476   1.383   4.096  16.827 -0.3395  0.2396  0.1870
  297MPD2     H 4477   1.265   4.269  16.512  1.6948  1.1321  0.9912
  297MPD2    H1 4478   1.550   4.215  16.825  0.4833 -0.1120 -0.1777
  297MPD2    H2 4479   1.225   3.960  16.823 -1.7637  1.6556  0.4284
  297MPD2    H3 4480   1.410   4.042  16.918  0.1776  3.8918  2.1781
  297MPD2     N 4481   1.479   4.367  16.598 -0.3621 -0.2187  0.2158
  297MPD2    H5 4482   1.445   4.406  16.510 -2.3979 -1.0310  0.6323
  297MPD2    N1 4483   1.111   4.055  16.586 -0.0630  0.1162 -0.8119
  297MPD2    H7 4484   1.075   4.112  16.510 -0.5739  2.8900  1.4789
  298TMC3    C1 4485   0.930   3.908  16.585  0.4195 -0.2877 -0.3246
  298TMC3    C2 4486   0.896   3.809  16.499 -0.9379  0.0508 -0.3105
  298TMC3    C3 4487   0.762   3.802  16.456  0.1730  0.3811 -0.4698
  298TMC3    C4 4488   0.844   4.012  16.603  0.4199 -0.0917  0.0848
  298TMC3    C5 4489   0.713   4.003  16.548  0.4148 -0.6761  0.1803
  298TMC3    C6 4490   0.672   3.902  16.469 -0.3029  0.2444  0.7377
  298TMC3     C 4491   1.068   3.925  16.604 -0.0948 -0.3499  0.5161
  298TMC3     O 4492   1.122   3.828  16.654 -0.1940 -0.7635  0.1471
  298TMC3     H 4493   0.974   3.739  16.471 -1.4023 -0.7305  0.3471
  298TMC3    H1 4494   0.871   4.093  16.670 -1.6861  1.3311 -0.7942
  298TMC3    H2 4495   0.569   3.890  16.437 -0.0427  0.7400 -0.2907
  298TMC3    C7 4496   0.621   4.106  16.590 -0.0577  0.0215 -0.2480
  298TMC3    C8 4497   0.731   3.699  16.353 -0.3835  0.0634  0.4089
  298TMC3    O1 4498   0.655   4.166  16.685 -0.2262 -0.0079  0.8297
  298TMC3    O2 4499   0.636   3.714  16.274  0.2584 -0.2273 -0.1368
  299MPD2     C 4500   2.128   3.675  11.162  0.0541  0.4951 -0.3865
  299MPD2    C1 4501   2.061   3.626  11.278 -0.9186 -0.4642  1.6402
  299MPD2    C2 4502   2.022   3.496  11.290 -0.0123 -0.0335  0.7866
  299MPD2    C3 4503   2.016   3.413  11.178  0.1054 -0.6129  0.0765
  299MPD2    C4 4504   2.073   3.463  11.063  0.3832 -0.5438 -0.2397
  299MPD2    C5 4505   2.121   3.593  11.060 -0.2783  0.6176 -0.5542
  299MPD2     H 4506   2.000   3.457  11.389  1.0382 -0.7565  0.7316
  299MPD2    H1 4507   2.065   3.420  10.963  0.6154 -3.2428  0.8815
  299MPD2    H2 4508   2.166   3.776  11.150 -0.0809  0.5388 -0.4444
  299MPD2    H3 4509   2.158   3.627  10.964  0.7651  0.1271 -0.3250
  299MPD2     N 4510   1.954   3.288  11.174 -0.2548 -0.6311  0.2048
  299MPD2    H5 4511   1.940   3.246  11.082 -0.8742 -2.6739  1.2407
  299MPD2    N1 4512   2.053   3.715  11.386  0.1142 -0.3181 -0.2694
  299MPD2    H7 4513   2.090   3.808  11.369  1.1630 -0.9106 -1.2537
  300TMC3    C1 4514   1.818   3.117  11.232  0.2349 -0.1418 -0.7278
  300TMC3    C2 4515   1.817   3.081  11.099  0.1595 -0.3782  0.1678
  300TMC3    C3 4516   1.699   3.032  11.059  0.2850 -0.5217  0.0830
  300TMC3    C4 4517   1.725   3.066  11.319 -0.0214  0.3956 -0.2606
  300TMC3    C5 4518   1.614   3.011  11.276  0.1276  0.4021 -0.0391
  300TMC3    C6 4519   1.591   3.004  11.145  0.2886  0.4275  0.7485
  300TMC3     C 4520   1.904   3.224  11.282 -0.1864  0.3359  0.3986
  300TMC3     O 4521   1.914   3.250  11.402  0.1746 -0.7316  0.3947
  300TMC3     H 4522   1.893   3.105  11.026 -1.6446  0.8395 -1.3178
  300TMC3    H1 4523   1.739   3.100  11.421 -0.0860 -1.7511  0.4677
  300TMC3    H2 4524   1.500   2.958  11.108  2.5308 -0.2784 -3.9687
  300TMC3    C7 4525   1.507   3.027  11.367  0.1689  0.3297 -0.1885
  300TMC3    C8 4526   1.670   3.062  10.916 -0.4620  0.3497 -1.1288
  300TMC3    O1 4527   1.516   2.963  11.472 -0.2770  0.5282 -0.2705
  300TMC3    O2 4528   1.752   3.125  10.858 -0.0072  0.3417 -0.3065
  301MPD2     C 4529   4.587   0.540   1.775  0.0284 -0.1007  0.0217
  301MPD2    C1 4530   4.579   0.507   1.643  0.0153 -0.2077  0.2661
  301MPD2    C2 4531   4.644   0.391   1.603  0.3770 -0.3112  0.0161
  301MPD2    C3 4532   0.005   0.321   1.683 -0.5140  0.1430 -0.0164
  301MPD2    C4 4533   0.026   0.368   1.814 -0.7842  0.7756  0.8853
  301MPD2    C5 4534   4.680   0.474   1.854  0.7816 -0.7429  0.3938
  301MPD2     H 4535   4.635   0.356   1.501  2.7673 -0.5286 -0.1338
  301MPD2    H1 4536   0.081   0.311   1.888  0.8271  0.2734 -0.7018
  301MPD2    H2 4537   4.534   0.619   1.827  3.5260  1.9769  0.4386
  301MPD2    H3 4538   4.690   0.507   1.957 -1.5140  0.5650  0.2034
  301MPD2     N 4539   0.071   0.199   1.650 -0.0384  0.2881  0.0016
  301MPD2    H5 4540   0.096   0.140   1.729  1.6294  0.4204 -0.4239
  301MPD2    N1 4541   4.506   0.575   1.542 -0.1713 -0.4007 -0.6181
  301MPD2    H7 4542   4.490   0.522   1.456  1.4919 -0.4795 -0.8893
  302TMC3    C1 4543   0.104   0.004   1.528 -0.1928  0.1982  0.6215
  302TMC3    C2 4544   0.181   4.675   1.623 -0.4309  0.7201  0.7070
  302TMC3    C3 4545   0.193   4.538   1.618 -0.2784  0.0335 -0.8480
  302TMC3    C4 4546   0.033   4.657   1.434  0.0140  0.5312  0.0546
  302TMC3    C5 4547   0.050   4.515   1.429 -0.4304 -0.0487 -1.1597
  302TMC3    C6 4548   0.129   4.457   1.527 -0.3425 -0.1028  0.0880
  302TMC3     C 4549   0.071   0.141   1.527  0.6901 -0.0554 -0.1042
  302TMC3     O 4550   0.040   0.195   1.417 -0.9664 -0.6856  0.2134
  302TMC3     H 4551   0.245   0.009   1.686  0.2431  1.9175 -1.1250
  302TMC3    H1 4552   4.710   4.709   1.353  1.8048 -1.2946 -2.1819
  302TMC3    H2 4553   0.129   4.349   1.534 -1.3978 -0.1899 -1.1895
  302TMC3    C7 4554   4.692   4.435   1.343 -0.2260  0.3194  0.2466
  302TMC3    C8 4555   0.251   4.479   1.731 -0.0289 -0.0122 -0.1481
  302TMC3    O1 4556   4.667   4.318   1.371  0.1905  0.1059 -0.0709
  302TMC3    O2 4557   0.192   4.376   1.761 -0.2493  0.1156  0.3150
  303MPD2     C 4558   4.185   3.020  10.246  0.1281 -0.0021  0.3103
  303MPD2    C1 4559   4.128   3.071  10.356 -0.6866  0.6618 -0.0409
  303MPD2    C2 4560   4.037   3.177  10.344 -0.3175 -0.1367 -0.5350
  303MPD2    C3 4561   3.999   3.226  10.224  0.1140 -0.5576  0.4470
  303MPD2    C4 4562   4.066   3.181  10.113  0.1879 -0.2048  0.3158
  303MPD2    C5 4563   4.154   3.078  10.120 -0.5319  0.0458 -0.5351
  303MPD2     H 4564   3.989   3.210  10.436 -0.0485  0.0420 -0.4583
  303MPD2    H1 4565   4.052   3.224  10.014 -0.7515 -1.1193  0.0477
  303MPD2    H2 4566   4.256   2.941  10.266 -0.6112 -0.7738 -0.0711
  303MPD2    H3 4567   4.220   3.053  10.037  0.2766 -1.4397  0.5619
  303MPD2     N 4568   3.894   3.316  10.196 -0.2105  1.1197  0.1680
  303MPD2    H5 4569   3.895   3.350  10.100 -0.6765 -1.9208 -0.9295
  303MPD2    N1 4570   4.167   3.020  10.476  0.1616  0.3334  0.0781
  303MPD2    H7 4571   4.216   2.931  10.478  1.5004  1.0757  0.3719
  304TMC3    C1 4572   4.131   2.993  10.718 -0.5815  0.8308  1.0061
  304TMC3    C2 4573   4.162   3.031  10.844 -0.5777  0.6146  0.4521
  304TMC3    C3 4574   4.129   2.960  10.957  0.0271  0.0293 -1.4707
  304TMC3    C4 4575   4.075   2.872  10.698  0.2105 -0.2331 -0.7940
  304TMC3    C5 4576   4.052   2.795  10.807 -1.2125 -0.3316  1.2719
  304TMC3    C6 4577   4.073   2.839  10.933  0.5188 -0.5408  0.4997
  304TMC3     C 4578   4.151   3.084  10.597 -0.4661  0.1414  0.2119
  304TMC3     O 4579   4.153   3.200  10.629 -0.3006  0.8535  0.4865
  304TMC3     H 4580   4.200   3.132  10.859  1.3686 -0.0937  0.2043
  304TMC3    H1 4581   4.044   2.832  10.602 -0.7504  0.8704 -0.9351
  304TMC3    H2 4582   4.056   2.772  11.017 -1.8504  1.6687  1.7876
  304TMC3    C7 4583   3.913   2.749  10.806 -0.6544 -0.2932  0.2943
  304TMC3    C8 4584   4.066   3.044  11.055  0.0304  0.3435 -0.8698
  304TMC3    O1 4585   3.853   2.809  10.891  0.4274  0.5416  0.1534
  304TMC3    O2 4586   4.136   3.127  11.104  0.4955  0.4020 -0.1541
  305MPD2     C 4587   2.546   0.916  13.991 -0.6887 -0.8893 -0.2708
  305MPD2    C1 4588   2.430   0.864  14.029  0.7266  0.4056 -0.1659
  305MPD2    C2 4589   2.340   0.819  13.934 -0.1721 -0.8531  0.0933
  305MPD2    C3 4590   2.375   0.830  13.798 -1.0778 -0.0299  0.2221
  305MPD2    C4 4591   2.489   0.889  13.756 -0.6410 -0.0508  0.0292
  305MPD2    C5 4592   2.574   0.932  13.852  0.0764  0.4477  0.7618
  305MPD2     H 4593   2.243   0.784  13.966 -0.2676 -0.3063  0.4011
  305MPD2    H1 4594   2.517   0.907  13.653 -1.0051 -0.0820 -0.0758
  305MPD2    H2 4595   2.623   0.930  14.067 -0.6200  1.2310 -0.7353
  305MPD2    H3 4596   2.665   0.978  13.814  0.1477  0.7342  1.2712
  305MPD2     N 4597   2.285   0.790  13.689 -0.0350 -0.1184 -0.3510
  305MPD2    H5 4598   2.330   0.769  13.600  1.3403  1.8985 -0.1335
  305MPD2    N1 4599   2.415   0.851  14.163 -0.1697 -0.4559 -0.5440
  305MPD2    H7 4600   2.497   0.878  14.217 -2.0613  0.1138  2.0349
  306TMC3    C1 4601   2.341   0.781  14.375  0.0476 -0.4727 -0.4389
  306TMC3    C2 4602   2.349   0.657  14.434 -0.6307  0.3538  0.2539
  306TMC3    C3 4603   2.406   0.647  14.556  0.0988 -0.2362  1.0789
  306TMC3    C4 4604   2.395   0.897  14.429  0.0889 -0.1305 -0.1590
  306TMC3    C5 4605   2.464   0.879  14.547  0.5887 -1.5392  0.5660
  306TMC3    C6 4606   2.470   0.757  14.614 -0.0840 -1.0424 -0.4343
  306TMC3     C 4607   2.316   0.787  14.232 -0.3374 -0.6252  0.7986
  306TMC3     O 4608   2.212   0.724  14.205 -0.6993  0.0816 -0.5759
  306TMC3     H 4609   2.295   0.571  14.397  2.1506 -0.5931 -1.5227
  306TMC3    H1 4610   2.378   0.991  14.379  0.2886  0.7228  1.3606
  306TMC3    H2 4611   2.523   0.765  14.709  0.7627 -0.3026 -0.9622
  306TMC3    C7 4612   2.532   0.993  14.599 -0.5233  0.0491  0.4143
  306TMC3    C8 4613   2.455   0.516  14.588  0.1386 -1.0660 -0.5402
  306TMC3    O1 4614   2.496   1.105  14.555  0.0228  0.3938  0.3729
  306TMC3    O2 4615   2.455   0.436  14.494  0.3010 -0.2142  0.0983
  307MPD2     C 4616   0.058   2.920   0.586 -0.2722  0.6356  0.0500
  307MPD2    C1 4617   0.041   3.021   0.488 -0.1033  0.1531  1.1500
  307MPD2    C2 4618   4.690   3.134   0.519  0.5495  0.3095  0.5165
  307MPD2    C3 4619   4.631   3.149   0.643 -0.2573  0.6168  0.3685
  307MPD2    C4 4620   4.660   3.047   0.738  0.5860  0.2975 -0.0601
  307MPD2    C5 4621   4.725   2.932   0.709 -0.1963  0.8445  0.0581
  307MPD2     H 4622   4.666   3.207   0.443  0.2181  0.0753  0.3979
  307MPD2    H1 4623   4.627   3.058   0.841 -1.8723 -1.3201 -0.6730
  307MPD2    H2 4624   0.110   2.827   0.568 -0.4646  0.6640 -0.6316
  307MPD2    H3 4625   4.726   2.855   0.785  0.5018 -0.3601 -1.1690
  307MPD2     N 4626   4.539   3.252   0.675  0.1719 -0.2245  0.1730
  307MPD2    H5 4627   4.525   3.316   0.597 -0.1793 -2.3930 -1.5615
  307MPD2    N1 4628   0.099   3.004   0.363 -0.1207 -0.1021 -0.1673
  307MPD2    H7 4629   0.076   3.076   0.296  1.2375  0.6220  0.1491
  308TMC3    C1 4630   4.153   3.468   0.832 -0.1851 -0.1173  0.3888
  308TMC3    C2 4631   4.190   3.579   0.764 -0.3241  0.8757  0.2249
  308TMC3    C3 4632   4.320   3.590   0.724  0.4085 -0.1643 -0.2416
  308TMC3    C4 4633   4.241   3.360   0.840  0.3189  0.0245 -0.6496
  308TMC3    C5 4634   4.366   3.366   0.779  0.0953  0.2402  0.0807
  308TMC3    C6 4635   4.406   3.479   0.721 -0.2424  0.2760  0.0625
  308TMC3     C 4636   4.012   3.443   0.859 -0.3036  0.2543  0.1438
  308TMC3     O 4637   3.982   3.329   0.893 -0.0708 -0.2512  0.5545
  308TMC3     H 4638   4.126   3.663   0.738 -1.6006  0.4177  1.9192
  308TMC3    H1 4639   4.208   3.268   0.886 -0.2232 -0.1736 -1.4414
  308TMC3    H2 4640   4.506   3.489   0.680 -0.0865 -1.0863  0.1127
  308TMC3    C7 4641   4.447   3.249   0.776  0.2084 -0.5344  0.4304
  308TMC3    C8 4642   4.357   3.720   0.658 -0.0755  0.0605 -0.8922
  308TMC3    O1 4643   4.420   3.153   0.847  0.6994 -0.0163 -0.0855
  308TMC3    O2 4644   4.304   3.822   0.696 -0.3469 -0.1043 -0.3028
  309MPD2     C 4645   3.950   4.063  17.014 -0.6671  0.2582 -0.3586
  309MPD2    C1 4646   3.865   4.010  16.923 -0.8484 -0.1899 -0.2881
  309MPD2    C2 4647   3.746   3.949  16.953 -0.1148  0.3473  0.1239
  309MPD2    C3 4648   3.691   3.954  17.083  0.3154  0.2302  0.3803
  309MPD2    C4 4649   3.775   4.000  17.181  0.0996  0.4948 -0.4643
  309MPD2    C5 4650   3.902   4.047  17.146  0.5908  0.5371 -0.7290
  309MPD2     H 4651   3.707   3.909  16.860  0.4674 -0.9059  0.4112
  309MPD2    H1 4652   3.738   4.007  17.283  0.3267 -1.2432 -0.2730
  309MPD2    H2 4653   4.049   4.105  16.996 -0.3070 -0.6624 -0.4979
  309MPD2    H3 4654   3.968   4.083  17.224  0.8509  1.1878 -1.2494
  309MPD2     N 4655   3.552   3.938  17.109 -0.2308  1.0404  0.2637
  309MPD2    H5 4656   3.524   3.950  17.206 -0.8260 -2.0949  0.4791
  309MPD2    N1 4657   3.928   3.997  16.794  0.1397 -0.8089  0.7044
  309MPD2    H7 4658   3.885   3.934  16.727 -0.6078  0.3256  0.1219
  310TMC3    C1 4659   4.068   4.022  16.609 -0.4088  0.1995  0.4748
  310TMC3    C2 4660   4.098   4.115  16.514  0.2915 -0.1508  0.0224
  310TMC3    C3 4661   4.124   4.072  16.388  0.2693 -0.0725 -1.1555
  310TMC3    C4 4662   4.073   3.886  16.588  0.0000  0.4189 -0.1163
  310TMC3    C5 4663   4.102   3.849  16.460 -0.1710 -0.0321 -0.1292
  310TMC3    C6 4664   4.132   3.938  16.359  0.3192  0.3057  0.7023
  310TMC3     C 4665   4.023   4.074  16.740 -0.3151 -0.0706 -0.0946
  310TMC3     O 4666   4.095   4.168  16.784  0.9252  0.2314  0.6057
  310TMC3     H 4667   4.089   4.221  16.536 -1.4203 -0.3153  0.1373
  310TMC3    H1 4668   4.037   3.818  16.665  1.8285 -1.2262 -0.7064
  310TMC3    H2 4669   4.133   3.901  16.257  1.3930  1.4918  0.2753
  310TMC3    C7 4670   4.178   3.727  16.460 -0.1958  0.3568  0.5963
  310TMC3    C8 4671   4.054   4.157  16.299 -0.2093  0.4369  0.1147
  310TMC3    O1 4672   4.138   3.634  16.534 -0.7043 -0.2007 -0.4558
  310TMC3    O2 4673   3.971   4.228  16.352 -0.6949  0.3077 -0.1387
  311MPD2     C 4674   1.227   0.351  13.222  0.4504 -0.2028  0.1647
  311MPD2    C1 4675   1.157   0.402  13.114  0.1455  0.2979 -0.7175
  311MPD2    C2 4676   1.013   0.406  13.117 -0.7100 -0.9680 -0.4833
  311MPD2    C3 4677   0.954   0.345  13.225 -0.1563 -0.3523  0.1742
  311MPD2    C4 4678   1.028   0.302  13.333  0.5663  0.2052  1.2235
  311MPD2    C5 4679   1.161   0.309  13.337 -0.4288  0.3489 -0.2296
  311MPD2     H 4680   0.957   0.436  13.030 -0.4042 -0.1048 -0.3841
  311MPD2    H1 4681   0.988   0.269  13.429 -0.4865 -1.2534  0.2875
  311MPD2    H2 4682   1.335   0.352  13.219  0.4015  0.6141 -1.0517
  311MPD2    H3 4683   1.211   0.279  13.428  0.8643  1.0448 -0.7115
  311MPD2     N 4684   0.821   0.325  13.233  0.2710  0.5385 -0.1941
  311MPD2    H5 4685   0.780   0.303  13.323 -0.5115 -0.4677 -0.7890
  311MPD2    N1 4686   1.224   0.464  13.000  0.2193  0.6342  0.0114
  311MPD2    H7 4687   1.166   0.503  12.926  1.4676  1.6619 -0.4217
  312TMC3    C1 4688   0.597   0.334  13.162 -0.3233 -0.1309  0.6551
  312TMC3    C2 4689   0.517   0.246  13.087  0.5320 -0.1229  0.1853
  312TMC3    C3 4690   0.392   0.215  13.139 -0.1330  0.1278  0.2165
  312TMC3    C4 4691   0.571   0.374  13.287 -0.9256  0.2185 -1.1301
  312TMC3    C5 4692   0.454   0.327  13.342 -0.4537 -0.4027  0.1784
  312TMC3    C6 4693   0.363   0.247  13.274  0.5657  0.1639  0.8542
  312TMC3     C 4694   0.733   0.336  13.124 -0.1395  0.9614 -0.9395
  312TMC3     O 4695   0.753   0.342  13.004  0.1642 -0.0135  0.0434
  312TMC3     H 4696   0.535   0.210  12.987 -1.7221 -0.6061 -0.0441
  312TMC3    H1 4697   0.628   0.452  13.336 -0.2303 -0.0084 -1.5682
  312TMC3    H2 4698   0.271   0.219  13.323 -0.3346  1.2017 -0.2249
  312TMC3    C7 4699   0.404   0.401  13.460  0.4026 -0.1280  0.8279
  312TMC3    C8 4700   0.298   0.131  13.062 -0.3132 -0.3711 -0.1268
  312TMC3    O1 4701   0.290   0.441  13.467  0.1435 -0.1429 -0.3339
  312TMC3    O2 4702   0.204   0.101  13.133 -0.5385  0.3762 -0.0586
  313MPD2     C 4703   0.872   3.799  10.259  0.2709  0.3108  0.1320
  313MPD2    C1 4704   0.748   3.731  10.288 -0.3116  0.0835  0.4145
  313MPD2    C2 4705   0.658   3.725  10.180 -0.4149 -0.1317  0.0120
  313MPD2    C3 4706   0.682   3.784  10.062 -0.6742 -0.4443  0.3649
  313MPD2    C4 4707   0.788   3.863  10.044  0.0615  0.2766 -0.0832
  313MPD2    C5 4708   0.890   3.860  10.138 -0.2089 -0.1559 -0.6113
  313MPD2     H 4709   0.576   3.655  10.186 -1.9239  1.6757  0.5118
  313MPD2    H1 4710   0.816   3.916   9.953 -1.0523 -0.0829 -0.6311
  313MPD2    H2 4711   0.953   3.815  10.328  2.0114  0.6292 -1.9801
  313MPD2    H3 4712   0.978   3.922  10.128  1.4228 -2.3665 -0.0107
  313MPD2     N 4713   0.587   3.758   9.959 -0.3388  0.1269 -0.0992
  313MPD2    H5 4714   0.525   3.679   9.972  1.8456 -1.4023  1.0360
  313MPD2    N1 4715   0.716   3.685  10.419 -0.1677  0.2626 -0.4787
  313MPD2    H7 4716   0.619   3.656  10.430 -0.0630 -0.1220 -0.5791
  314TMC3    C1 4717   0.738   3.661  10.648  0.5833 -0.0388 -0.3849
  314TMC3    C2 4718   0.812   3.747  10.730 -0.1567 -0.4182  0.0473
  314TMC3    C3 4719   0.754   3.859  10.779  0.0527  0.2103  0.3709
  314TMC3    C4 4720   0.605   3.679  10.641  0.5918  0.3566  0.3786
  314TMC3    C5 4721   0.541   3.777  10.708  0.7337  0.6288 -0.1269
  314TMC3    C6 4722   0.620   3.874  10.773 -0.0880 -0.2198  0.8954
  314TMC3     C 4723   0.801   3.655  10.515  0.1667  0.1290 -0.6020
  314TMC3     O 4724   0.923   3.655  10.514 -0.0487 -0.3718 -0.3362
  314TMC3     H 4725   0.920   3.744  10.732 -0.1792  0.3747  2.4723
  314TMC3    H1 4726   0.544   3.607  10.586 -0.4841  0.1711  1.8081
  314TMC3    H2 4727   0.575   3.959  10.823 -1.2372  0.6749 -1.6661
  314TMC3    C7 4728   0.433   3.839  10.630  0.2217 -0.5782 -1.4056
  314TMC3    C8 4729   0.825   3.984  10.780  0.8367 -0.2138  0.0642
  314TMC3    O1 4730   0.348   3.772  10.568  0.2375 -0.1302 -0.1449
  314TMC3    O2 4731   0.757   4.080  10.746  0.5902  0.1560  0.5355
  315MPD2     C 4732   0.161   3.699   0.275  0.3461 -0.2897  0.2972
  315MPD2    C1 4733   0.201   3.729   0.407  0.0858  0.4069 -0.0542
  315MPD2    C2 4734   0.287   3.839   0.418 -0.4120  0.1314 -0.2708
  315MPD2    C3 4735   0.318   3.922   0.313  0.7139  0.4629  0.1557
  315MPD2    C4 4736   0.274   3.888   0.183 -0.3653  0.2246  0.0252
  315MPD2    C5 4737   0.212   3.772   0.168  0.6248 -0.0107 -0.5172
  315MPD2     H 4738   0.321   3.863   0.519 -1.1574  0.2796 -0.0560
  315MPD2    H1 4739   0.311   3.950   0.102 -0.7827  0.5953  0.1245
  315MPD2    H2 4740   0.100   3.610   0.260 -0.5383  0.6512 -1.7543
  315MPD2    H3 4741   0.170   3.757   0.069  0.0909  0.0732 -0.3035
  315MPD2     N 4742   0.411   4.031   0.330  0.2465 -0.2126 -0.3646
  315MPD2    H5 4743   0.453   4.043   0.422  0.6631  0.0382 -0.5886
  315MPD2    N1 4744   0.191   3.640   0.515 -0.1510 -0.1654 -0.0209
  315MPD2    H7 4745   0.255   3.668   0.589 -0.2507 -1.2266  0.4684
  316TMC3    C1 4746   0.536   4.236   0.302  0.9230 -0.2302  0.0987
  316TMC3    C2 4747   0.588   4.228   0.429  0.5062  0.4006  0.1420
  316TMC3    C3 4748   0.628   4.347   0.485  0.3378 -0.0997 -0.4240
  316TMC3    C4 4749   0.523   4.355   0.229 -0.5254  0.1760  0.1653
  316TMC3    C5 4750   0.554   4.471   0.296 -0.2879  0.0477  0.1600
  316TMC3    C6 4751   0.609   4.469   0.423  0.2382 -0.0015  0.1747
  316TMC3     C 4752   0.434   4.143   0.248  0.1874  0.6414 -0.3809
  316TMC3     O 4753   0.378   4.168   0.144  0.5299  0.0813 -0.3582
  316TMC3     H 4754   0.585   4.137   0.487  1.3550 -0.2660 -0.8711
  316TMC3    H1 4755   0.508   4.354   0.122 -0.7527 -0.3693  0.2041
  316TMC3    H2 4756   0.650   4.555   0.476  1.9988  0.9876 -2.7737
  316TMC3    C7 4757   0.550   4.601   0.228  0.4776 -0.2031 -0.0123
  316TMC3    C8 4758   0.717   4.347   0.605  0.0200 -0.2170 -0.1014
  316TMC3    O1 4759   0.579   4.698   0.294 -0.2974 -0.0710 -0.3082
  316TMC3    O2 4760   0.728   4.445   0.674  0.4122 -0.6049  0.0848
  317MPD2     C 4761   2.085   1.580  11.686  0.6095 -0.0382 -0.2384
  317MPD2    C1 4762   2.202   1.627  11.739  0.5401  0.0251 -0.2686
  317MPD2    C2 4763   2.202   1.672  11.869  0.2422  0.0367  0.2209
  317MPD2    C3 4764   2.090   1.660  11.945 -0.9114  0.5706 -0.0188
  317MPD2    C4 4765   1.967   1.624  11.889 -0.3029 -0.4468 -0.0935
  317MPD2    C5 4766   1.966   1.582  11.753 -0.7474 -0.0475 -0.1771
  317MPD2     H 4767   2.296   1.711  11.906 -0.6914  1.9301  0.6030
  317MPD2    H1 4768   1.873   1.617  11.944 -0.6701  0.2732 -0.6333
  317MPD2    H2 4769   2.065   1.560  11.582  1.6889 -2.5305  0.0327
  317MPD2    H3 4770   1.875   1.566  11.697 -1.1174  0.5599  0.2591
  317MPD2     N 4771   2.099   1.721  12.077  0.3453 -0.1571 -0.4342
  317MPD2    H5 4772   2.192   1.755  12.098  1.0795 -2.9983  0.9818
  317MPD2    N1 4773   2.316   1.660  11.665  0.4611  0.1883 -0.0464
  317MPD2    H7 4774   2.382   1.729  11.701  1.2485 -0.4569 -0.2422
  318TMC3    C1 4775   2.052   1.807  12.287  0.0308 -0.3538  0.6005
  318TMC3    C2 4776   1.994   1.777  12.401  0.6639  0.3354 -0.2867
  318TMC3    C3 4777   2.072   1.790  12.518 -0.1601  0.1636 -0.2524
  318TMC3    C4 4778   2.187   1.837  12.281 -0.3674 -0.8140  0.1845
  318TMC3    C5 4779   2.258   1.855  12.396  0.1730  0.5795  0.2924
  318TMC3    C6 4780   2.202   1.820  12.521 -0.0457  0.1338 -0.6021
  318TMC3     C 4781   2.004   1.742  12.171 -0.3085  0.4182 -0.0226
  318TMC3     O 4782   1.887   1.709  12.167  0.5244  0.4120  0.2088
  318TMC3     H 4783   1.893   1.740  12.389  0.3062  1.0904  0.3487
  318TMC3    H1 4784   2.229   1.874  12.188  0.7223 -3.0569 -0.1980
  318TMC3    H2 4785   2.251   1.829  12.618 -2.5541  1.2556  0.5730
  318TMC3    C7 4786   2.368   1.954  12.391  0.3113 -0.6737 -0.8685
  318TMC3    C8 4787   2.005   1.791  12.650  0.3797  0.0631  0.0072
  318TMC3    O1 4788   2.365   2.041  12.305 -0.2791  0.0627 -0.4485
  318TMC3    O2 4789   2.055   1.845  12.742  0.0964  0.3359  0.2367
  319MPD2     C 4790   3.294   3.678  16.789  0.3300  0.4635 -0.1627
  319MPD2    C1 4791   3.224   3.578  16.861 -0.4277  0.1460 -0.4521
  319MPD2    C2 4792   3.110   3.520  16.816  0.0575 -0.4442 -0.4949
  319MPD2    C3 4793   3.046   3.568  16.698  0.4763 -0.1284  0.1479
  319MPD2    C4 4794   3.111   3.670  16.627  0.0153 -0.1273 -0.2438
  319MPD2    C5 4795   3.237   3.720  16.672  0.3332  0.0010 -0.4962
  319MPD2     H 4796   3.067   3.447  16.883 -1.3772  1.6295  0.8471
  319MPD2    H1 4797   3.063   3.708  16.538 -0.6842  2.8242  1.4085
  319MPD2    H2 4798   3.386   3.721  16.826  1.3405  0.0749 -2.2096
  319MPD2    H3 4799   3.285   3.803  16.622 -0.7954 -0.2833 -2.0430
  319MPD2     N 4800   2.919   3.526  16.650  0.1722  0.0255  0.6960
  319MPD2    H5 4801   2.889   3.580  16.569  2.0876  0.4022  0.2349
  319MPD2    N1 4802   3.260   3.550  16.998  0.0818  0.1111  0.3104
  319MPD2    H7 4803   3.179   3.513  17.046  0.5879  2.8818  3.2696
  320TMC3    C1 4804   2.705   3.414  16.645  0.0699 -0.3470  0.6320
  320TMC3    C2 4805   2.684   3.456  16.516 -0.1120  0.4436 -0.0824
  320TMC3    C3 4806   2.560   3.434  16.468  0.0054  0.0013 -0.1205
  320TMC3    C4 4807   2.611   3.344  16.725  0.4698 -0.1934  0.2568
  320TMC3    C5 4808   2.494   3.315  16.660  0.1241  0.0428  0.8779
  320TMC3    C6 4809   2.463   3.362  16.540  0.2017 -0.7486  0.6824
  320TMC3     C 4810   2.836   3.438  16.714 -1.0693  0.1922  0.2456
  320TMC3     O 4811   2.859   3.374  16.816 -0.4368  0.2084 -0.5887
  320TMC3     H 4812   2.764   3.502  16.458  0.5557  0.3998  0.8041
  320TMC3    H1 4813   2.641   3.318  16.825 -0.1710 -0.1682  0.4572
  320TMC3    H2 4814   2.371   3.339  16.487  0.2797  0.8815 -0.1796
  320TMC3    C7 4815   2.445   3.183  16.682 -0.8744  0.1166 -0.1779
  320TMC3    C8 4816   2.510   3.549  16.398 -0.1534  0.1516 -0.9796
  320TMC3    O1 4817   2.364   3.134  16.600 -0.1214  0.1352  0.0108
  320TMC3    O2 4818   2.513   3.550  16.275 -0.1363 -0.1044 -0.2252
  321TMC3    C1 4819   3.354   3.532  17.205  0.2272 -0.2761  0.8059
  321TMC3    C2 4820   3.226   3.512  17.247 -0.4417 -0.0262  0.0193
  321TMC3    C3 4821   3.205   3.533  17.380 -0.5666  0.1584  0.3081
  321TMC3    C4 4822   3.457   3.569  17.283 -0.1930 -0.4532 -0.2452
  321TMC3    C5 4823   3.438   3.576  17.421 -0.4737 -0.9266  0.1032
  321TMC3    C6 4824   3.305   3.573  17.464 -0.0382 -0.9809 -0.1580
  321TMC3     C 4825   3.373   3.569  17.066 -0.2866  0.5905 -0.2060
  321TMC3     O 4826   3.477   3.617  17.024  0.2040  0.0714 -0.0218
  321TMC3     H 4827   3.149   3.461  17.190 -1.5884  2.1732 -0.4287
  321TMC3    H1 4828   3.555   3.570  17.236  1.1849  1.0648  2.6262
  321TMC3    H2 4829   3.282   3.577  17.570 -0.8317 -2.1437 -0.2820
  321TMC3    C7 4830   3.524   3.519  17.517  0.5468 -0.0545 -0.0708
  321TMC3    C8 4831   3.134   3.418  17.428 -0.3659 -0.0022 -0.3896
  321TMC3    O1 4832   3.461   3.470  17.612 -0.3636 -0.5271  0.4587
  321TMC3    O2 4833   3.035   3.378  17.365 -0.7115 -0.4435 -0.8970
  322MPD2     C 4834   1.853   0.006  13.735  0.3084  0.1203  0.4897
  322MPD2    C1 4835   1.870   4.687  13.862 -0.0798  0.6785  0.0015
  322MPD2    C2 4836   1.870   4.552  13.892  0.6576 -0.3184 -0.5835
  322MPD2    C3 4837   1.865   4.452  13.794  0.5739 -0.5070 -0.0474
  322MPD2    C4 4838   1.846   4.506  13.666  0.5548  0.4229 -0.1588
  322MPD2    C5 4839   1.848   4.639  13.638 -0.2372 -0.3102 -0.2362
  322MPD2     H 4840   1.887   4.513  13.992 -3.3597 -0.1668  0.1495
  322MPD2    H1 4841   1.845   4.439  13.581  1.8559  0.0815  0.1028
  322MPD2    H2 4842   1.857   0.109  13.702 -3.7724 -0.1032 -0.7529
  322MPD2    H3 4843   1.850   4.676  13.536 -3.6019 -0.5710 -0.3859
  322MPD2     N 4844   1.885   4.317  13.829 -1.0728 -0.0382  0.6680
  322MPD2    H5 4845   1.904   4.289  13.925  0.0072 -2.5016 -0.2570
  322MPD2    N1 4846   1.915   0.052  13.956 -0.0168 -0.6837  0.1716
  322MPD2    H7 4847   1.946   0.143  13.921 -1.5204 -0.4139 -0.5050
  323TMC3    C1 4848   1.975   0.121  14.177  0.2668  0.6276 -0.5056
  323TMC3    C2 4849   2.080   0.192  14.122 -0.3400  0.3189  0.0780
  323TMC3    C3 4850   2.177   0.232  14.214  0.7533  0.4672  0.6145
  323TMC3    C4 4851   1.962   0.115  14.313  0.2611 -0.0473 -0.1035
  323TMC3    C5 4852   2.054   0.162  14.392  0.2577 -0.7903  0.0534
  323TMC3    C6 4853   2.170   0.224  14.348 -0.1739  0.2828  0.4858
  323TMC3     C 4854   1.898   0.036  14.094 -0.3692 -0.2908 -0.3792
  323TMC3     O 4855   1.821   4.688  14.152  0.0463  0.0728 -0.3636
  323TMC3     H 4856   2.102   0.202  14.016 -2.6595 -0.3152 -0.4547
  323TMC3    H1 4857   1.886   0.053  14.357  0.3118 -0.2972 -0.3625
  323TMC3    H2 4858   2.239   0.280  14.410  1.1354 -1.9464  1.0480
  323TMC3    C7 4859   2.061   0.100  14.525 -0.2791  0.1022 -0.3352
  323TMC3    C8 4860   2.304   0.272  14.161  0.3918 -0.7786 -0.4373
  323TMC3    O1 4861   2.007   4.717  14.530 -0.4600  0.8803  0.2975
  323TMC3    O2 4862   2.397   0.240  14.234  0.0834  0.1347  0.0842
  324MPD2     C 4863   4.243   1.582  14.347 -0.2444 -0.8437  0.8797
  324MPD2    C1 4864   4.258   1.518  14.470  0.3160 -0.0063 -0.2659
  324MPD2    C2 4865   4.143   1.468  14.533 -0.0987 -0.0711 -0.2780
  324MPD2    C3 4866   4.021   1.478  14.471 -0.5914  0.7988  0.1390
  324MPD2    C4 4867   4.011   1.531  14.347  0.6756 -0.3386  0.1086
  324MPD2    C5 4868   4.121   1.591  14.291  0.5122  0.1320 -0.1361
  324MPD2     H 4869   4.142   1.415  14.628 -0.9177 -1.6666 -1.1619
  324MPD2    H1 4870   3.916   1.543  14.295 -0.0271 -1.7023  1.0791
  324MPD2    H2 4871   4.324   1.623  14.288 -2.7789  2.8342  0.0073
  324MPD2    H3 4872   4.119   1.627  14.188 -1.0686  1.7928  0.4645
  324MPD2     N 4873   3.903   1.437  14.533  0.4778 -0.0210  0.0460
  324MPD2    H5 4874   3.816   1.443  14.480  0.6581 -0.4508 -0.3007
  324MPD2    N1 4875   4.380   1.497  14.530  0.2206  0.6058  0.2428
  324MPD2    H7 4876   4.389   1.447  14.618  0.1727  2.0222  1.0647
  325TMC3    C1 4877   3.748   1.386  14.702  0.5219  0.2130  0.0718
  325TMC3    C2 4878   3.678   1.312  14.613  0.5142  0.6168 -0.0420
  325TMC3    C3 4879   3.540   1.328  14.618 -0.1801  0.1499 -0.0659
  325TMC3    C4 4880   3.694   1.491  14.760 -0.3281 -0.0112  0.1529
  325TMC3    C5 4881   3.561   1.519  14.758  0.0607  0.1147  0.5991
  325TMC3    C6 4882   3.479   1.436  14.690 -0.0084  0.2637 -0.0893
  325TMC3     C 4883   3.888   1.397  14.667  0.1880 -0.9089 -0.6879
  325TMC3     O 4884   3.971   1.404  14.763  0.4995 -0.6036  0.6906
  325TMC3     H 4885   3.718   1.239  14.544  1.2111 -0.2570  1.2981
  325TMC3    H1 4886   3.764   1.559  14.807  2.0705 -2.3563 -0.0184
  325TMC3    H2 4887   3.370   1.430  14.691  0.0437 -0.7304 -0.7690
  325TMC3    C7 4888   3.522   1.653  14.755 -0.3429 -0.1681  0.3354
  325TMC3    C8 4889   3.461   1.235  14.537 -0.7304  0.3625 -0.2497
  325TMC3    O1 4890   3.604   1.743  14.758  0.1620  0.1250  0.1824
  325TMC3    O2 4891   3.494   1.204  14.420 -0.5283 -0.1181  0.2306
  326MPD2     C 4892   0.099   2.164  10.923 -0.3813 -0.4426 -0.4045
  326MPD2    C1 4893   0.081   2.210  10.799 -0.0210 -0.0639  0.2914
  326MPD2    C2 4894   0.172   2.290  10.742  0.2810 -0.1112 -0.4361
  326MPD2    C3 4895   0.289   2.320  10.816  0.4789  0.9540 -0.6631
  326MPD2    C4 4896   0.296   2.290  10.948 -0.4559 -0.4650 -0.5205
  326MPD2    C5 4897   0.206   2.203  10.999  0.1459  0.2194  0.4989
  326MPD2     H 4898   0.160   2.331  10.643  2.0331 -0.2902 -0.7246
  326MPD2    H1 4899   0.391   2.316  10.993 -0.0528 -2.1979 -0.3507
  326MPD2    H2 4900   0.040   2.081  10.959 -1.4123  0.8872  0.9440
  326MPD2    H3 4901   0.209   2.174  11.104  1.8934 -1.4660 -0.0326
  326MPD2     N 4902   0.397   2.397  10.761  0.1474  0.3559  0.0763
  326MPD2    H5 4903   0.448   2.451  10.830  0.3449 -0.1931  0.3653
  326MPD2    N1 4904   4.694   2.167  10.737  0.3959 -0.0555 -0.5815
  326MPD2    H7 4905   4.637   2.109  10.799 -1.2865  0.5527 -1.5663
  327TMC3    C1 4906   4.516   2.148  10.592  0.6507  0.2023  1.0082
  327TMC3    C2 4907   4.431   2.235  10.527 -0.4560 -0.4337 -0.5723
  327TMC3    C3 4908   4.298   2.190  10.519 -0.3251 -0.6774 -0.2678
  327TMC3    C4 4909   4.483   2.027  10.635  0.3086  0.1895  0.2157
  327TMC3    C5 4910   4.351   1.979  10.614  0.4814 -0.1211 -1.4357
  327TMC3    C6 4911   4.257   2.063  10.563 -0.2875  0.4158 -0.1188
  327TMC3     C 4912   4.656   2.192  10.609 -0.0780 -0.4183 -0.3327
  327TMC3     O 4913   4.704   2.264  10.523 -0.4061 -0.4095 -0.1461
  327TMC3     H 4914   4.455   2.327  10.476  1.7335 -1.8705 -2.1877
  327TMC3    H1 4915   4.559   1.965  10.681 -1.0069 -0.9518  0.8704
  327TMC3    H2 4916   4.156   2.022  10.562 -0.0759 -0.1332  0.5779
  327TMC3    C7 4917   4.314   1.850  10.687 -0.0115 -0.5036  1.2064
  327TMC3    C8 4918   4.206   2.290  10.466  0.0186  0.5755 -0.0371
  327TMC3    O1 4919   4.195   1.817  10.697 -0.0125  0.6152 -0.3936
  327TMC3    O2 4920   4.256   2.395  10.426 -0.1410  0.1907  0.1141
  328MPD2     C 4921   2.438   2.431  17.696  0.3753  0.2410  0.5245
  328MPD2    C1 4922   2.463   2.380  17.570  0.1749 -0.1461 -0.1851
  328MPD2    C2 4923   2.456   2.469  17.462  0.0032 -0.3629 -0.7160
  328MPD2    C3 4924   2.449   2.605  17.485 -0.4417 -0.9724 -0.1868
  328MPD2    C4 4925   2.438   2.653  17.618 -0.0641 -0.3762  0.2414
  328MPD2    C5 4926   2.442   2.569   0.019  1.1238 -0.1806  0.2799
  328MPD2     H 4927   2.467   2.431  17.361 -1.6101 -2.8532  0.0458
  328MPD2    H1 4928   2.407   2.752  17.647  1.1316 -0.2025  0.9269
  328MPD2    H2 4929   2.427   2.361   0.073  2.6621 -1.6782 -0.7855
  328MPD2    H3 4930   2.428   2.620   0.114 -0.1004  0.1668 -0.0853
  328MPD2     N 4931   2.438   2.700  17.377  0.6603  0.0155  0.9076
  328MPD2    H5 4932   2.403   2.791  17.405  0.5256 -0.1384  1.2290
  328MPD2    N1 4933   2.462   2.241  17.553 -0.4632  0.0893  0.3352
  328MPD2    H7 4934   2.429   2.188  17.633  1.3155 -2.5793 -0.7414
  329TMC3    C1 4935   2.453   2.053  17.417 -0.5869 -0.9295  0.2000
  329TMC3    C2 4936   2.322   2.029  17.459 -0.0613 -0.0394 -0.6292
  329TMC3    C3 4937   2.227   1.980  17.371 -0.3626  0.0840  0.3668
  329TMC3    C4 4938   2.497   1.988  17.307  0.1790  0.0825 -0.0121
  329TMC3    C5 4939   2.401   1.921  17.231 -0.4959  0.2293 -0.3532
  329TMC3    C6 4940   2.268   1.921  17.259 -0.1817  0.3564 -0.7362
  329TMC3     C 4941   2.513   2.182  17.440 -0.3184  0.0354  0.3886
  329TMC3     O 4942   2.587   2.226  17.348  0.3895 -0.1415 -0.1746
  329TMC3     H 4943   2.291   2.067  17.556  1.2713 -0.5288 -0.0125
  329TMC3    H1 4944   2.599   2.009  17.275  1.4262  0.7853  4.4050
  329TMC3    H2 4945   2.201   1.879  17.185  0.4940 -0.2976 -0.9675
  329TMC3    C7 4946   2.442   1.860  17.104 -0.1742 -0.5771 -0.1655
  329TMC3    C8 4947   2.089   2.025  17.372  0.2255  0.1049 -0.0915
  329TMC3    O1 4948   2.353   1.839  17.019 -0.3038 -0.1816  0.5166
  329TMC3    O2 4949   2.009   1.988  17.286  0.7218  0.1721  0.3339
  330TMC3    C1 4950   0.085   1.175   9.694  0.4502 -0.2019 -0.4444
  330TMC3    C2 4951   0.038   1.071   9.613 -0.7087  0.4140 -0.8622
  330TMC3    C3 4952   0.110   0.953   9.598 -0.5221  0.1497  0.0461
  330TMC3    C4 4953   0.196   1.167   9.773 -0.4554  0.0514  0.3571
  330TMC3    C5 4954   0.260   1.047   9.757  0.0417  0.0976  0.3332
  330TMC3    C6 4955   0.233   0.946   9.667  0.1924  0.6790 -0.1127
  330TMC3     C 4956   4.716   1.279   9.742  0.6888  0.0101  0.0204
  330TMC3     O 4957   0.002   1.311   9.857  0.2045 -0.0634  0.2707
  330TMC3     H 4958   4.672   1.091   9.559 -2.2316  0.2289  1.6186
  330TMC3    H1 4959   0.215   1.244   9.847  1.7098  0.1209 -0.2814
  330TMC3    H2 4960   0.298   0.860   9.652 -0.4373  0.3673 -1.0438
  330TMC3    C7 4961   0.371   1.022   9.847 -0.1312 -0.7657  0.2584
  330TMC3    C8 4962   0.077   0.862   9.488  0.1861 -0.0100 -0.2153
  330TMC3    O1 4963   0.406   1.122   9.909  0.1112 -0.6048 -0.3074
  330TMC3    O2 4964   0.023   0.911   9.388 -0.3721  0.5694  0.0923
  331MPD2     C 4965   2.868   0.657  12.347  0.3630 -0.2324  0.0940
  331MPD2    C1 4966   2.925   0.587  12.241  0.2814  0.0122 -0.5446
  331MPD2    C2 4967   3.003   0.477  12.263 -0.6761 -0.3880  0.0071
  331MPD2    C3 4968   3.021   0.430  12.387 -0.3635 -0.2216  0.0656
  331MPD2    C4 4969   2.962   0.495  12.490 -0.1096 -0.5713  0.3503
  331MPD2    C5 4970   2.882   0.603  12.468 -0.6043 -0.0161 -0.0168
  331MPD2     H 4971   3.048   0.425  12.179  1.6735  0.2218  0.9027
  331MPD2    H1 4972   2.955   0.448  12.587  0.5835 -0.1002  0.6295
  331MPD2    H2 4973   2.799   0.739  12.333 -0.0417 -1.2087 -3.6710
  331MPD2    H3 4974   2.842   0.653  12.556  0.0568 -0.2329  0.4036
  331MPD2     N 4975   3.102   0.311  12.403  0.2904  0.4172  0.0797
  331MPD2    H5 4976   3.129   0.270  12.314  0.5132 -2.6370  1.5551
  331MPD2    N1 4977   2.899   0.639  12.116 -0.6031 -0.0511 -0.6942
  331MPD2    H7 4978   2.873   0.737  12.113  2.9057  0.9614  1.9450
  332TMC3    C1 4979   3.223   0.138  12.495  0.3422 -1.0284 -0.0036
  332TMC3    C2 4980   3.310   0.141  12.392 -0.4154 -0.6095 -0.2180
  332TMC3    C3 4981   3.399   0.039  12.371  0.6002  0.5359  0.2807
  332TMC3    C4 4982   3.228   0.039  12.586 -0.2586  0.0242 -0.2238
  332TMC3    C5 4983   3.324   4.665  12.569 -0.1289  1.0296 -0.5356
  332TMC3    C6 4984   3.413   4.662  12.465  0.4139  0.3257 -0.0279
  332TMC3     C 4985   3.140   0.250  12.518  0.1399  0.2083 -0.3842
  332TMC3     O 4986   3.112   0.267  12.638 -0.0460 -0.0148 -0.4674
  332TMC3     H 4987   3.316   0.223  12.322  3.2142 -0.3527  0.3752
  332TMC3    H1 4988   3.172   0.041  12.679  3.1188 -1.2692  1.8500
  332TMC3    H2 4989   3.469   4.576  12.432  0.7417  0.6725 -0.3753
  332TMC3    C7 4990   3.380   4.622  12.694 -0.4649 -0.4109  0.0592
  332TMC3    C8 4991   3.450   0.024  12.239  0.7498  0.3229  0.9463
  332TMC3    O1 4992   3.307   4.614  12.793 -0.3468  0.2263  0.4792
  332TMC3    O2 4993   3.424   4.648  12.171  0.4148  0.3047  0.0745
  333MPD2     C 4994   3.376   0.153  11.334 -0.5009  0.8358  0.3948
  333MPD2    C1 4995   3.452   0.046  11.291  0.8552  0.5230  0.8757
  333MPD2    C2 4996   3.476   4.664  11.373 -0.0543  0.2675 -0.1900
  333MPD2    C3 4997   3.402   4.652  11.491 -0.4619  0.1542 -0.1421
  333MPD2    C4 4998   3.318   0.022  11.531 -0.1368  0.6486  0.5232
  333MPD2    C5 4999   3.306   0.143  11.456  0.3442 -0.8908  0.4933
  333MPD2     H 5000   3.539   4.584  11.338 -0.1481 -0.6830  1.7934
  333MPD2    H1 5001   3.267   0.014  11.626  2.9251  1.0459  2.2151
  333MPD2    H2 5002   3.376   0.242  11.272 -1.0677  0.8191  0.3719
  333MPD2    H3 5003   3.254   0.226  11.502 -0.3957 -1.8388  1.3682
  333MPD2     N 5004   3.435   4.542  11.581  0.1979 -0.1709  0.5483
  333MPD2    H5 5005   3.496   4.465  11.553  0.9272  0.2736  0.9220
  333MPD2    N1 5006   3.525   0.079  11.173 -0.2262  0.7768 -0.2132
  333MPD2    H7 5007   3.510   0.169  11.129  0.8498  0.3033 -1.5443
  334TMC3    C1 5008   3.677   0.034  11.001 -0.2222  0.1253 -0.7888
  334TMC3    C2 5009   3.725   4.675  10.910 -0.0172  0.3117  0.3771
  334TMC3    C3 5010   3.794   0.001  10.806  1.1941 -0.3185 -0.5100
  334TMC3    C4 5011   3.691   0.172  10.996  0.4470 -0.2243 -0.1266
  334TMC3    C5 5012   3.777   0.215  10.900 -0.5129 -0.0813 -0.4327
  334TMC3    C6 5013   3.827   0.134  10.804 -0.2667 -0.2884 -0.4152
  334TMC3     C 5014   3.603   4.707  11.109  0.4264 -0.0596  0.0761
  334TMC3     O 5015   3.600   4.586  11.126  0.9080 -0.1721 -0.3236
  334TMC3     H 5016   3.696   4.571  10.918  0.1802  0.1103 -1.5401
  334TMC3    H1 5017   3.661   0.232  11.081  1.1962  1.0809 -0.7872
  334TMC3    H2 5018   3.897   0.177  10.733  0.7914  0.8239  1.3114
  334TMC3    C7 5019   3.811   0.357  10.903 -0.2780 -0.1476  0.2837
  334TMC3    C8 5020   3.899   4.634  10.754 -0.0861 -0.0110 -0.1496
  334TMC3    O1 5021   3.768   0.424  10.997  0.0972  0.2712  0.1465
  334TMC3    O2 5022   3.888   4.519  10.792  0.0751 -0.4367 -0.1011
  335TMC3    C1 5023   3.480   1.984   0.194  0.2308  1.1447  0.1713
  335TMC3    C2 5024   3.462   1.951   0.066 -0.0925 -0.2130  0.3413
  335TMC3    C3 5025   3.545   2.013  17.680  1.2310  0.3362  0.0646
  335TMC3    C4 5026   3.566   2.084   0.223 -0.1419  0.0526 -0.3171
  335TMC3    C5 5027   3.649   2.138   0.130 -0.3524  0.3624  0.4137
  335TMC3    C6 5028   3.645   2.104   0.001 -0.3000 -0.4125 -0.0834
  335TMC3     C 5029   3.408   1.910   0.298 -0.2746  0.4235  0.0338
  335TMC3     O 5030   3.374   1.796   0.268 -0.1373  0.1318  0.1431
  335TMC3     H 5031   3.373   1.896   0.036  1.2747 -2.0775 -0.2573
  335TMC3    H1 5032   3.568   2.121   0.325  2.7979 -1.4787  0.1763
  335TMC3    H2 5033   3.714   2.147  17.634  0.0632 -1.6210 -0.4510
  335TMC3    C7 5034   3.767   2.222   0.163  0.3346 -0.5440  1.0168
  335TMC3    C8 5035   3.521   1.971  17.540 -0.4227  0.7747  0.3028
  335TMC3    O1 5036   3.825   2.265   0.063  0.3933  0.0684  0.1939
  335TMC3    O2 5037   3.533   2.049  17.444  0.0443 -0.2598  0.7306
  336MPD2     C 5038   2.900   0.010  16.094 -0.9682 -0.5719 -0.1878
  336MPD2    C1 5039   2.865   4.646  15.996 -0.0097  0.2758 -0.3360
  336MPD2    C2 5040   2.853   4.509  16.031 -0.3201  0.1706 -0.7730
  336MPD2    C3 5041   2.872   4.470  16.161 -0.5898  0.7314  0.3884
  336MPD2    C4 5042   2.902   4.571  16.255 -0.5258 -0.0206  0.0481
  336MPD2    C5 5043   2.923   4.699  16.223 -0.7441 -0.1115 -0.0713
  336MPD2     H 5044   2.822   4.437  15.956  0.5159 -2.2098  1.1458
  336MPD2    H1 5045   2.902   4.551  16.361  0.4132  1.2578  0.2912
  336MPD2    H2 5046   2.891   0.117  16.080  0.3310 -0.3634  0.5135
  336MPD2    H3 5047   2.931   0.048  16.300 -1.8017 -0.7312  0.6441
  336MPD2     N 5048   2.848   4.338  16.210  0.4529 -0.2575  0.1456
  336MPD2    H5 5049   2.842   4.334  16.311  2.5909  0.8244  0.3194
  336MPD2    N1 5050   2.834   4.691  15.866  0.3523  0.3334  0.1598
  336MPD2    H7 5051   2.794   4.627  15.799  0.7589 -2.0110  2.1842
  337TMC3    C1 5052   2.778   0.148  15.701  0.1536 -0.7530  0.2934
  337TMC3    C2 5053   2.649   0.101  15.693  0.0012  0.0152  0.2087
  337TMC3    C3 5054   2.562   0.191  15.636 -0.4143  0.0212  0.6303
  337TMC3    C4 5055   2.823   0.267  15.651 -0.5070  0.0908  0.2047
  337TMC3    C5 5056   2.730   0.349  15.597  0.9880 -0.6695 -0.1390
  337TMC3    C6 5057   2.597   0.312  15.590  0.2588  0.4864 -0.0189
  337TMC3     C 5058   2.859   0.097  15.817  0.0670  0.8089 -0.1334
  337TMC3     O 5059   2.941   0.169  15.862  0.1391 -0.0469  0.1976
  337TMC3     H 5060   2.629   4.724  15.718 -0.5256 -0.6964 -3.0767
  337TMC3    H1 5061   2.928   0.289  15.638 -1.0920  0.7980 -3.0949
  337TMC3    H2 5062   2.521   0.356  15.528  0.5805  3.5215  1.7517
  337TMC3    C7 5063   2.787   0.418  15.482 -0.8070  0.0770 -0.9472
  337TMC3    C8 5064   2.428   0.144  15.612  0.0645 -0.2127 -0.7623
  337TMC3    O1 5065   2.900   0.398  15.443  0.0900 -0.3229  0.2406
  337TMC3    O2 5066   2.404   0.027  15.576  0.3347  0.2981 -0.1169
  338MPD2     C 5067   3.117   4.217   0.912  0.4373  0.5591 -0.0605
  338MPD2    C1 5068   3.067   4.212   0.779 -0.0018  0.2224  0.2601
  338MPD2    C2 5069   2.928   4.199   0.765  0.1166 -0.4128  0.3455
  338MPD2    C3 5070   2.845   4.199   0.875 -0.3611 -0.7226 -0.1049
  338MPD2    C4 5071   2.901   4.226   1.002 -0.3718  0.0950  0.0251
  338MPD2    C5 5072   3.043   4.239   1.018  0.2325 -0.8222 -0.2892
  338MPD2     H 5073   2.887   4.185   0.665  4.3527  0.2104 -1.4845
  338MPD2    H1 5074   2.836   4.252   1.085 -1.2881  0.0674 -0.6913
  338MPD2    H2 5075   3.222   4.217   0.937  0.8352 -0.9700 -1.7993
  338MPD2    H3 5076   3.086   4.267   1.113  3.7348  0.5324 -2.2664
  338MPD2     N 5077   2.711   4.182   0.851 -0.1686 -0.0485  0.3067
  338MPD2    H5 5078   2.682   4.174   0.754 -2.1912 -2.5349  1.1401
  338MPD2    N1 5079   3.156   4.188   0.674 -0.5663 -0.0229 -0.1394
  338MPD2    H7 5080   3.124   4.171   0.579  0.3003 -1.3146 -0.2011
  339TMC3    C1 5081   2.484   4.161   0.889  0.6198  0.3194 -0.4392
  339TMC3    C2 5082   2.432   4.036   0.912  0.8894 -0.7817  0.1286
  339TMC3    C3 5083   2.388   3.961   0.806 -1.1528 -0.2176 -0.3838
  339TMC3    C4 5084   2.478   4.218   0.761 -0.2413 -0.0767  0.1348
  339TMC3    C5 5085   2.432   4.142   0.661  0.1201  0.4583 -0.5118
  339TMC3    C6 5086   2.396   4.011   0.680  0.6702 -0.2219  0.5370
  339TMC3     C 5087   2.617   4.168   0.950  0.4562 -0.4738  0.0631
  339TMC3     O 5088   2.628   4.137   1.069 -0.6616 -0.3297  0.2768
  339TMC3     H 5089   2.435   4.014   1.018  0.9315 -0.8050  0.1226
  339TMC3    H1 5090   2.516   4.317   0.740 -1.5504  0.5262  0.6207
  339TMC3    H2 5091   2.377   3.942   0.599 -0.1566 -0.1789  0.6905
  339TMC3    C7 5092   2.457   4.198   0.531 -0.1184  0.0506  0.6114
  339TMC3    C8 5093   2.478   3.839   0.805  0.1108  0.1434  0.7095
  339TMC3    O1 5094   2.542   4.282   0.522  0.2852 -0.0347  0.2950
  339TMC3    O2 5095   2.541   3.810   0.704 -0.3972  0.1974  0.0954
  340MPD2     C 5096   2.888   2.016  10.151  0.4645 -0.7394  0.3392
  340MPD2    C1 5097   2.969   2.011  10.041  0.2169  0.0286  0.0771
  340MPD2    C2 5098   2.994   2.121   9.962 -0.5794 -0.0352 -0.5854
  340MPD2    C3 5099   2.943   2.242  10.001 -0.0897 -0.7439 -0.3896
  340MPD2    C4 5100   2.865   2.251  10.118  0.2846 -0.3138 -0.3989
  340MPD2    C5 5101   2.830   2.135  10.185  0.1996 -0.1811  0.4037
  340MPD2     H 5102   3.038   2.119   9.863 -0.7657  0.8304 -0.6823
  340MPD2    H1 5103   2.838   2.348  10.159 -0.3415  0.1737 -1.9511
  340MPD2    H2 5104   2.867   1.930  10.213 -0.6463  0.4380  1.5981
  340MPD2    H3 5105   2.778   2.164  10.275  1.0052  1.2336  0.4128
  340MPD2     N 5106   2.990   2.368   9.957  0.1070 -0.5003  0.3770
  340MPD2    H5 5107   2.975   2.446  10.019  0.6129 -0.8314  0.9187
  340MPD2    N1 5108   3.037   1.889  10.015 -0.7898 -0.3727  0.1233
  340MPD2    H7 5109   3.032   1.814  10.084 -0.2714 -1.1691 -0.6969
  341TMC3    C1 5110   3.221   1.763   9.933 -0.7934  0.5102  0.0313
  341TMC3    C2 5111   3.194   1.656  10.015  0.2805  0.6848 -0.0799
  341TMC3    C3 5112   3.299   1.575  10.050  0.5749 -0.3825  0.5091
  341TMC3    C4 5113   3.345   1.798   9.887  0.3387 -0.9419 -0.1494
  341TMC3    C5 5114   3.448   1.707   9.921  0.4282 -0.4890 -0.3560
  341TMC3    C6 5115   3.422   1.601  10.006 -0.3051  0.1530 -0.0316
  341TMC3     C 5116   3.127   1.872   9.910  0.2914  0.2391  0.6885
  341TMC3     O 5117   3.143   1.940   9.813  0.3723  0.0349 -0.1178
  341TMC3     H 5118   3.093   1.644  10.052  0.5734 -0.7580  0.2586
  341TMC3    H1 5119   3.362   1.887   9.828 -0.1137 -0.6479  0.1572
  341TMC3    H2 5120   3.486   1.514  10.005 -0.4137  0.1009 -3.9640
  341TMC3    C7 5121   3.540   1.670   9.814  0.2670  0.1562  0.4449
  341TMC3    C8 5122   3.263   1.456  10.126  0.2636 -0.0625 -0.1323
  341TMC3    O1 5123   3.638   1.608   9.852 -0.1704 -0.1211 -0.0450
  341TMC3    O2 5124   3.145   1.427  10.115  0.5913  0.4180  0.0754
  342MPD2     C 5125   1.555   0.067   0.238  0.4208 -0.7413 -0.0653
  342MPD2    C1 5126   1.513   0.155   0.142 -0.1314  0.2905 -0.6919
  342MPD2    C2 5127   1.568   0.282   0.145  0.3014  0.3389  0.5682
  342MPD2    C3 5128   1.670   0.314   0.236  0.2771  0.5090 -0.0348
  342MPD2    C4 5129   1.707   0.230   0.337  1.4505 -0.0040 -0.0832
  342MPD2    C5 5130   1.645   0.105   0.339 -0.3400 -1.0854 -0.2276
  342MPD2     H 5131   1.533   0.350   0.068  1.6334  1.9026  1.3606
  342MPD2    H1 5132   1.782   0.260   0.410  0.9339 -0.6052  0.6871
  342MPD2    H2 5133   1.501   4.699   0.242 -0.2482 -0.4716 -2.5292
  342MPD2    H3 5134   1.689   0.030   0.404 -1.4241 -0.7135  0.9165
  342MPD2     N 5135   1.729   0.444   0.215  0.5187  0.5426  0.0133
  342MPD2    H5 5136   1.707   0.497   0.131 -3.2577  0.1020  0.7263
  342MPD2    N1 5137   1.404   0.140   0.058 -0.1475  0.4724 -0.2221
  342MPD2    H7 5138   1.391   0.215  17.695  1.2808 -0.7587 -1.8464
  343TMC3    C1 5139   1.253   4.719  17.634  0.1280 -0.2622  0.5001
  343TMC3    C2 5140   1.294   0.057  17.516 -0.3557  0.1357  0.1814
  343TMC3    C3 5141   1.254   0.006  17.394  0.2517  0.8301  0.1691
  343TMC3    C4 5142   1.185   4.597  17.627 -0.0135  0.6735 -0.0951
  343TMC3    C5 5143   1.145   4.553  17.502  0.5089  0.2566 -0.0367
  343TMC3    C6 5144   1.188   4.616  17.382 -0.2268 -0.8635  0.2059
  343TMC3     C 5145   1.322   0.027   0.055  0.7596  1.2608 -0.0377
  343TMC3     O 5146   1.308   4.661   0.136 -0.2166 -0.2083  0.8665
  343TMC3     H 5147   1.364   0.138  17.525  1.4656 -1.2513 -1.4208
  343TMC3    H1 5148   1.149   4.539   0.006 -1.0894  2.2796  0.5334
  343TMC3    H2 5149   1.154   4.587  17.284  2.4290 -0.3200 -0.8924
  343TMC3    C7 5150   1.095   4.417  17.475 -0.1951  0.4587  0.5285
  343TMC3    C8 5151   1.332   0.043  17.279  0.4153  0.8132 -0.2967
  343TMC3    O1 5152   1.058   4.390  17.362  0.0243 -0.3942 -0.3170
  343TMC3    O2 5153   1.346   0.164  17.259  0.2691  0.4840  0.6885
  344MPD2     C 5154   2.377   4.327  11.622 -0.2183  0.5495  0.1505
  344MPD2    C1 5155   2.297   4.255  11.536  0.3192  0.1023  0.5630
  344MPD2    C2 5156   2.290   4.295  11.408 -0.2377 -0.2661  0.1971
  344MPD2    C3 5157   2.357   4.409  11.371  0.1629  0.5833  0.1671
  344MPD2    C4 5158   2.440   4.478  11.461  0.2507 -0.2762 -0.5543
  344MPD2    C5 5159   2.447   4.436  11.586  0.1781 -0.0032  0.3531
  344MPD2     H 5160   2.232   4.236  11.338  0.2581  1.1916 -1.4392
  344MPD2    H1 5161   2.505   4.558  11.429 -1.2229  1.3446  0.5508
  344MPD2    H2 5162   2.383   4.317  11.729 -0.1490 -0.2898  0.0696
  344MPD2    H3 5163   2.499   4.501  11.656  1.2741  1.5027 -1.8590
  344MPD2     N 5164   2.345   4.458  11.232  0.5360 -0.4828  0.3342
  344MPD2    H5 5165   2.392   4.546  11.209  0.1947 -0.2815  0.4101
  344MPD2    N1 5166   2.224   4.138  11.572  0.0383  0.3152 -0.6802
  344MPD2    H7 5167   2.166   4.100  11.498  0.2137  0.2696 -0.7946
  345TMC3    C1 5168   2.335   4.460  10.997  0.1322 -0.5722 -0.9497
  345TMC3    C2 5169   2.322   4.599  11.003 -0.0125  0.2931  0.0205
  345TMC3    C3 5170   2.360   4.659  10.887 -0.1624 -0.5692 -0.4010
  345TMC3    C4 5171   2.367   4.387  10.881  0.1854 -0.1722 -0.7054
  345TMC3    C5 5172   2.400   4.467  10.772 -0.4512  0.1333  0.2977
  345TMC3    C6 5173   2.398   4.600  10.770 -0.2231 -0.0455 -0.2148
  345TMC3     C 5174   2.303   4.385  11.125  0.1159  0.0430 -0.0047
  345TMC3     O 5175   2.246   4.272  11.113 -0.3012 -0.0007  0.4574
  345TMC3     H 5176   2.283   4.658  11.086  0.2102  1.4450 -0.6982
  345TMC3    H1 5177   2.353   4.280  10.886  0.7168 -0.2515 -0.9322
  345TMC3    H2 5178   2.443   4.658  10.689  0.6802  0.2886  0.5185
  345TMC3    C7 5179   2.414   4.398  10.646  0.5194 -0.5489 -0.3753
  345TMC3    C8 5180   2.328   0.075  10.868 -0.0817 -0.3947  0.2643
  345TMC3    O1 5181   2.407   4.467  10.547  0.3926  0.3184 -0.2600
  345TMC3    O2 5182   2.296   0.093  10.755 -0.1298  0.4374  0.2521
  346MPD2     C 5183   2.656   1.274  13.927 -0.0679 -0.0740 -0.1353
  346MPD2    C1 5184   2.597   1.399  13.902  0.1763 -0.1598  0.1281
  346MPD2    C2 5185   2.589   1.479  14.014 -0.0186  0.5892  0.5461
  346MPD2    C3 5186   2.615   1.430  14.140  0.1416 -0.1311  0.1438
  346MPD2    C4 5187   2.672   1.306  14.158 -0.7995  0.0774  0.3404
  346MPD2    C5 5188   2.693   1.230  14.051 -0.1127 -0.2973  0.1589
  346MPD2     H 5189   2.582   1.585  13.992  2.1926  0.7628  0.6882
  346MPD2    H1 5190   2.713   1.268  14.251 -0.1731  0.8593  0.3859
  346MPD2    H2 5191   2.671   1.213  13.838 -0.2139  0.9622 -0.8753
  346MPD2    H3 5192   2.728   1.129  14.066  0.7867 -0.1200 -0.7527
  346MPD2     N 5193   2.620   1.510  14.256 -0.3086 -0.0673 -0.5454
  346MPD2    H5 5194   2.691   1.486  14.325  0.7856  0.0793 -1.6078
  346MPD2    N1 5195   2.570   1.452  13.770  0.0768 -0.6040 -0.7626
  346MPD2    H7 5196   2.532   1.543  13.746 -0.0847 -0.5270 -0.2177
  347TMC3    C1 5197   2.581   1.699  14.396  0.8891 -0.2125 -0.7792
  347TMC3    C2 5198   2.716   1.694  14.427  0.9650  0.6052  0.0620
  347TMC3    C3 5199   2.764   1.795  14.505 -0.3057  0.1622  0.2524
  347TMC3    C4 5200   2.494   1.796  14.444  0.4755  0.3920  0.3915
  347TMC3    C5 5201   2.549   1.874  14.541  0.4959 -0.9503  0.6390
  347TMC3    C6 5202   2.683   1.882  14.565 -0.4852  0.4170  0.4425
  347TMC3     C 5203   2.543   1.626  14.274  0.0928 -0.4941  0.3325
  347TMC3     O 5204   2.435   1.653  14.223  0.6680 -0.2391  0.3753
  347TMC3     H 5205   2.781   1.622  14.380 -0.5739 -1.3824  0.9801
  347TMC3    H1 5206   2.388   1.777  14.431  0.7441 -0.5903 -0.3245
  347TMC3    H2 5207   2.718   1.930  14.656  3.0935 -0.8724 -0.2523
  347TMC3    C7 5208   2.458   1.895  14.657  0.0328 -0.4563  0.1387
  347TMC3    C8 5209   2.894   1.770  14.568 -0.2776  0.1597 -0.8243
  347TMC3    O1 5210   2.362   1.823  14.653  0.1773 -0.1349  0.0448
  347TMC3    O2 5211   2.926   1.654  14.578  0.1213 -0.3489  0.7995
  348MPD2     C 5212   0.398   0.888  12.108 -0.5891  0.0430 -0.2304
  348MPD2    C1 5213   0.516   0.885  12.027 -0.0215 -0.1361  0.1739
  348MPD2    C2 5214   0.504   0.872  11.893  1.0600  0.1247  0.0889
  348MPD2    C3 5215   0.379   0.869  11.830  0.6618 -0.1264 -0.3158
  348MPD2    C4 5216   0.265   0.868  11.907  1.0422  0.0634 -0.5611
  348MPD2    C5 5217   0.281   0.876  12.043  0.7796  0.1828  0.3466
  348MPD2     H 5218   0.595   0.885  11.836  1.7680  1.7549  1.5832
  348MPD2    H1 5219   0.168   0.881  11.862 -0.8778  0.3251  3.5890
  348MPD2    H2 5220   0.401   0.898  12.216 -1.4656  1.8981 -0.3953
  348MPD2    H3 5221   0.190   0.888  12.099  0.3104 -0.9600 -0.1528
  348MPD2     N 5222   0.381   0.881  11.692  0.5229 -0.1998  1.3087
  348MPD2    H5 5223   0.471   0.904  11.650 -0.4558  0.9907 -0.1744
  348MPD2    N1 5224   0.647   0.902  12.075 -0.1938  0.5483 -0.4859
  348MPD2    H7 5225   0.714   0.891  12.000  0.4386  0.3333  0.1143
  349TMC3    C1 5226   0.832   0.918  12.214  0.2254 -0.3152  0.0838
  349TMC3    C2 5227   0.887   0.816  12.271  0.2141  0.2617 -0.2242
  349TMC3    C3 5228   1.010   0.779  12.231  0.4332  0.6317  0.1240
  349TMC3    C4 5229   0.885   0.985  12.110 -0.2269  0.1765 -0.4859
  349TMC3    C5 5230   1.004   0.940  12.060 -0.6769  0.2799  0.7479
  349TMC3    C6 5231   1.069   0.835  12.118 -0.6332 -0.9040  1.0466
  349TMC3     C 5232   0.689   0.904  12.204  1.0771 -0.0821  0.2977
  349TMC3     O 5233   0.622   0.876  12.304 -0.9364 -0.5073  0.5935
  349TMC3     H 5234   0.830   0.751  12.337  1.1891 -2.2147 -1.8051
  349TMC3    H1 5235   0.826   1.061  12.059 -2.8180 -1.0404  0.6771
  349TMC3    H2 5236   1.153   0.778  12.079  1.3783  1.4527  1.9562
  349TMC3    C7 5237   1.036   0.977  11.929  0.9564 -0.1473 -0.2272
  349TMC3    C8 5238   1.076   0.678  12.308  0.1727  0.0949  0.4012
  349TMC3    O1 5239   1.091   0.895  11.856  0.1864 -0.2410 -0.2249
  349TMC3    O2 5240   1.012   0.614  12.389  0.4953 -0.5381 -0.7476
  350MPD2     C 5241   4.441   3.748   9.590 -0.2066 -0.5488  0.8623
  350MPD2    C1 5242   4.503   3.630   9.617 -0.3535  0.1263 -0.0167
  350MPD2    C2 5243   4.643   3.634   9.609 -0.3192  0.3285  0.1692
  350MPD2    C3 5244   4.714   3.750   9.581 -0.2662  0.0770 -0.5631
  350MPD2    C4 5245   4.646   3.868   9.555 -0.9153 -0.6942  0.7534
  350MPD2    C5 5246   4.510   3.865   9.553  0.5386  0.1967 -0.3689
  350MPD2     H 5247   4.692   3.541   9.637  0.6626 -0.0870 -2.8790
  350MPD2    H1 5248   4.693   3.963   9.529 -2.1743 -0.0151  0.9307
  350MPD2    H2 5249   4.333   3.756   9.594 -0.2206  0.7350 -1.8521
  350MPD2    H3 5250   4.450   3.949   9.522  0.8761  0.1117 -1.2683
  350MPD2     N 5251   0.129   3.745   9.568  0.0872 -0.6470  0.4705
  350MPD2    H5 5252   0.171   3.655   9.589  0.8999 -0.0605  1.3156
  350MPD2    N1 5253   4.443   3.504   9.628 -0.0332  0.4800  0.4964
  350MPD2    H7 5254   4.500   3.423   9.604  0.9349  1.3909 -0.3085
  351TMC3    C1 5255   4.287   3.346   9.644 -0.0580  0.0087 -0.3633
  351TMC3    C2 5256   4.385   3.250   9.605  0.1630  0.1594  0.5361
  351TMC3    C3 5257   4.340   3.127   9.583 -0.3453  0.3055 -0.8696
  351TMC3    C4 5258   4.160   3.307   9.681  0.4642  0.2321 -0.3089
  351TMC3    C5 5259   4.121   3.182   9.672  0.5412  0.1596  0.0555
  351TMC3    C6 5260   4.214   3.090   9.623 -0.2993  0.6112  0.4815
  351TMC3     C 5261   4.311   3.482   9.649  0.3405  0.4610 -0.3323
  351TMC3     O 5262   4.218   3.561   9.673  0.1481  0.2972 -0.4866
  351TMC3     H 5263   4.479   3.283   9.564 -0.2029  1.2333  0.5591
  351TMC3    H1 5264   4.088   3.381   9.715 -0.9642 -1.4293  0.2721
  351TMC3    H2 5265   4.193   2.985   9.639 -0.6082  0.1155 -3.1471
  351TMC3    C7 5266   3.998   3.145   9.725  0.3575 -0.1116  0.1205
  351TMC3    C8 5267   4.424   3.008   9.566  0.1414  0.5302 -0.3694
  351TMC3    O1 5268   3.947   3.220   9.807 -0.3675  0.4870 -0.6782
  351TMC3    O2 5269   4.379   2.897   9.548 -0.1749 -0.2182 -0.2141
  352MPD2     C 5270   3.608   0.844   1.583  0.0266  0.2256  0.0443
  352MPD2    C1 5271   3.639   0.905   1.464  1.3109 -0.2489 -0.1541
  352MPD2    C2 5272   3.768   0.920   1.428 -0.1179 -1.0455  0.3148
  352MPD2    C3 5273   3.867   0.846   1.497 -0.1360  0.3383  0.3086
  352MPD2    C4 5274   3.839   0.783   1.619 -0.1175  0.7979 -0.8773
  352MPD2    C5 5275   3.707   0.783   1.657  0.3439 -0.3824 -0.0723
  352MPD2     H 5276   3.798   0.961   1.333  1.9464 -1.3619  0.8168
  352MPD2    H1 5277   3.906   0.718   1.674  0.6429 -0.0014 -2.7723
  352MPD2    H2 5278   3.507   0.833   1.620  0.7120 -1.3240  1.4615
  352MPD2    H3 5279   3.681   0.718   1.739  2.9026 -1.3586 -0.0311
  352MPD2     N 5280   4.009   0.850   1.467  0.0049 -0.2371 -0.2065
  352MPD2    H5 5281   4.068   0.796   1.529 -1.7781 -0.9530  0.8841
  352MPD2    N1 5282   3.523   0.954   1.396  0.5915 -0.6158 -0.1053
  352MPD2    H7 5283   3.430   0.949   1.437  0.6112 -2.4431 -0.2830
  353TMC3    C1 5284   4.204   0.861   1.342  0.4083  0.6006 -0.7776
  353TMC3    C2 5285   4.257   0.807   1.455  0.0482  0.4782  0.6035
  353TMC3    C3 5286   4.363   0.730   1.437 -0.6723 -0.7225 -0.4387
  353TMC3    C4 5287   4.227   0.813   1.218  0.4087 -0.1346  0.0875
  353TMC3    C5 5288   4.322   0.715   1.206 -0.0101 -0.3001 -0.1447
  353TMC3    C6 5289   4.397   0.676   1.312  0.0983  0.0246 -0.4957
  353TMC3     C 5290   4.071   0.901   1.354 -0.0135  0.5237  0.3337
  353TMC3     O 5291   4.008   0.943   1.256  0.3673 -1.0660 -0.3410
  353TMC3     H 5292   4.237   0.841   1.555  1.2744  0.5952  0.8124
  353TMC3    H1 5293   4.167   0.844   1.134  1.2565  1.6109  0.1335
  353TMC3    H2 5294   4.480   0.607   1.303 -0.9347 -1.1416 -0.9776
  353TMC3    C7 5295   4.370   0.667   1.080 -0.2805 -0.0798 -0.1938
  353TMC3    C8 5296   4.434   0.691   1.559 -1.0736  0.1717 -0.7509
  353TMC3    O1 5297   4.455   0.577   1.073 -0.0819 -0.5971 -0.1009
  353TMC3    O2 5298   4.423   0.750   1.666  0.2556  0.3725  0.1621
  354TMC3    C1 5299   4.305   2.552  13.026  0.4775 -0.6626 -1.1111
  354TMC3    C2 5300   4.190   2.621  12.983 -0.5468  0.1416 -0.2382
  354TMC3    C3 5301   4.145   2.591  12.857 -0.4016 -0.4093 -0.6151
  354TMC3    C4 5302   4.364   2.454  12.961 -0.5123 -0.1405 -0.0501
  354TMC3    C5 5303   4.295   2.414  12.854  0.2287  0.4904  0.5756
  354TMC3    C6 5304   4.193   2.479  12.791 -0.0437 -0.0959  0.1211
  354TMC3     C 5305   4.338   2.577  13.173 -0.4648 -0.0052 -0.3108
  354TMC3     O 5306   4.248   2.611  13.245  0.3759 -0.0136  0.1552
  354TMC3     H 5307   4.163   2.712  13.035  2.6477 -0.9831  3.4135
  354TMC3    H1 5308   4.420   2.375  13.011 -1.2235 -1.0639 -0.7318
  354TMC3    H2 5309   4.152   2.460  12.692 -0.5970  0.9082  0.1531
  354TMC3    C7 5310   4.362   2.316  12.766  0.3741 -0.4151  0.4763
  354TMC3    C8 5311   4.131   2.693  12.760 -0.5376 -0.2505 -0.0852
  354TMC3    O1 5312   4.313   2.285  12.657  0.1178  0.6468  0.4696
  354TMC3    O2 5313   4.215   2.679  12.672  0.4827 -0.8776  0.3116
  355MPD2     C 5314   4.653   3.016  11.773  0.4530 -0.1050 -0.6276
  355MPD2    C1 5315   0.027   3.044  11.682  0.0834  0.3052 -0.2027
  355MPD2    C2 5316   0.151   3.086  11.738 -0.4934  0.8221  0.0681
  355MPD2    C3 5317   0.170   3.103  11.878  0.3039  0.5020  0.2469
  355MPD2    C4 5318   0.065   3.088  11.960  0.5201 -0.1838 -0.1639
  355MPD2    C5 5319   4.677   3.034  11.908  0.1614 -0.3708  0.7986
  355MPD2     H 5320   0.233   3.094  11.668 -0.8046  0.7490 -0.3100
  355MPD2    H1 5321   0.067   3.104  12.067 -1.0953  0.0077 -0.1672
  355MPD2    H2 5322   4.554   2.985  11.741  0.0169 -0.0985  0.7395
  355MPD2    H3 5323   4.592   3.022  11.974 -1.4500  3.4010 -0.5997
  355MPD2     N 5324   0.292   3.159  11.934  0.1530 -1.1377  0.0764
  355MPD2    H5 5325   0.288   3.188  12.031 -0.4575  1.4497 -0.7253
  355MPD2    N1 5326   0.002   3.016  11.543 -0.0339 -0.3743 -0.8787
  355MPD2    H7 5327   4.647   2.958  11.521  0.3371 -0.8895 -0.8877
  356TMC3    C1 5328   0.503   3.272  11.930 -0.9671 -0.1235  0.0703
  356TMC3    C2 5329   0.607   3.315  11.852  0.2660  0.1218  0.5431
  356TMC3    C3 5330   0.710   3.355  11.918 -0.4613 -0.2409 -0.3685
  356TMC3    C4 5331   0.510   3.256  12.067  0.0418 -0.7505 -0.7865
  356TMC3    C5 5332   0.633   3.281  12.129  0.5408  0.2974  0.7652
  356TMC3    C6 5333   0.736   3.331  12.053  0.4123  0.4111  0.3144
  356TMC3     C 5334   0.396   3.200  11.857  0.0061  0.4020  0.4011
  356TMC3     O 5335   0.413   3.197  11.734 -0.0317 -0.0791 -0.2741
  356TMC3     H 5336   0.601   3.330  11.744  1.3314 -0.8176  0.3441
  356TMC3    H1 5337   0.422   3.225  12.122 -1.9617 -0.8257 -4.0268
  356TMC3    H2 5338   0.837   3.336  12.091  0.6513  1.8944 -0.5393
  356TMC3    C7 5339   0.677   3.197  12.233  0.6639  0.1273 -0.3007
  356TMC3    C8 5340   0.829   3.378  11.838  0.0452 -0.3490 -0.5050
  356TMC3    O1 5341   0.619   3.090  12.247 -0.0802 -0.5231 -0.1414
  356TMC3    O2 5342   0.839   3.318  11.730 -0.1060  0.1924 -0.4031
  357MPD2     C 5343   0.497   2.816   0.743  0.1953  0.3663  0.7665
  357MPD2    C1 5344   0.577   2.775   0.845 -0.0547  0.3178 -0.1318
  357MPD2    C2 5345   0.584   2.846   0.962  0.2057  0.7284  0.0615
  357MPD2    C3 5346   0.511   2.961   0.980 -0.5270 -0.4004 -0.0760
  357MPD2    C4 5347   0.446   3.015   0.869 -1.2788 -0.5746 -0.3110
  357MPD2    C5 5348   0.435   2.944   0.754  0.7180  0.7758 -0.4501
  357MPD2     H 5349   0.643   2.812   1.046  0.1748 -1.1014 -0.6579
  357MPD2    H1 5350   0.397   3.112   0.874 -0.0190 -0.0427  1.7284
  357MPD2    H2 5351   0.485   2.763   0.649  1.4372  1.3706  0.0248
  357MPD2    H3 5352   0.374   2.981   0.672  0.9323  0.2473 -0.8513
  357MPD2     N 5353   0.528   3.032   1.104 -0.2339 -0.2127  0.1107
  357MPD2    H5 5354   0.610   3.007   1.159 -1.0083 -2.6677  0.1441
  357MPD2    N1 5355   0.639   2.650   0.825  0.3508 -0.1713 -0.5688
  357MPD2    H7 5356   0.634   2.613   0.731  2.2297  1.0974 -1.1707
  358TMC3    C1 5357   0.766   2.450   0.882  0.0058  0.0137  0.7514
  358TMC3    C2 5358   0.734   2.397   0.758  0.1170  0.1496  0.1114
  358TMC3    C3 5359   0.787   2.277   0.728  0.8035  0.5382  0.0105
  358TMC3    C4 5360   0.836   2.385   0.980 -0.5316  0.2132 -0.5089
  358TMC3    C5 5361   0.895   2.272   0.938 -0.2795  0.0270 -0.4457
  358TMC3    C6 5362   0.886   2.223   0.807  0.0820  0.2652 -0.2271
  358TMC3     C 5363   0.721   2.581   0.921 -0.0633  0.0948  0.8765
  358TMC3     O 5364   0.760   2.620   1.025 -0.0686  0.1105 -0.7578
  358TMC3     H 5365   0.657   2.448   0.701  0.9242  1.6272  0.3433
  358TMC3    H1 5366   0.851   2.429   1.077  0.2735  2.5219 -1.7013
  358TMC3    H2 5367   0.937   2.137   0.765 -1.6937 -1.1095  0.4517
  358TMC3    C7 5368   0.960   2.196   1.046  0.1492 -0.1851  0.6243
  358TMC3    C8 5369   0.752   2.227   0.601 -0.0675 -0.6952 -0.2155
  358TMC3    O1 5370   0.934   2.231   1.164 -0.0018 -0.4114  0.5596
  358TMC3    O2 5371   0.663   2.291   0.551 -0.4870  0.4251 -0.2073
  359MPD2     C 5372   0.194   1.795  12.296 -0.2523 -0.3158  0.8492
  359MPD2    C1 5373   0.250   1.696  12.379 -0.0770  0.0460  0.0163
  359MPD2    C2 5374   0.170   1.627  12.466 -0.1897 -0.1823  0.1386
  359MPD2    C3 5375   0.031   1.660  12.473  0.0859 -0.2079  0.1875
  359MPD2    C4 5376   4.706   1.754  12.390  0.2526  0.3432 -0.0840
  359MPD2    C5 5377   0.058   1.818  12.302 -0.5115  0.1393 -0.4805
  359MPD2     H 5378   0.205   1.543  12.526 -0.0106  2.5623  3.8727
  359MPD2    H1 5379   4.601   1.782  12.387  0.0175 -0.5551 -0.2049
  359MPD2    H2 5380   0.251   1.864  12.235  0.3142 -0.1662  1.5422
  359MPD2    H3 5381   0.020   1.889  12.230  0.3989  0.6804 -0.4288
  359MPD2     N 5382   4.680   1.588  12.571  0.0523  0.1595  0.1093
  359MPD2    H5 5383   4.723   1.511  12.622  0.7624  1.0058  0.7887
  359MPD2    N1 5384   0.378   1.659  12.370 -0.5751  0.6882  0.4637
  359MPD2    H7 5385   0.406   1.578  12.426 -0.2403 -0.3784 -1.2514
  360TMC3    C1 5386   0.593   1.637  12.294  0.0780  0.0334 -0.5441
  360TMC3    C2 5387   0.717   1.693  12.280 -0.5297  0.3748 -0.1230
  360TMC3    C3 5388   0.802   1.625  12.197  0.2265  0.4709  0.0424
  360TMC3    C4 5389   0.554   1.533  12.220 -0.1008  0.5387  0.0180
  360TMC3    C5 5390   0.644   1.469  12.132  0.1642  0.0980  0.3683
  360TMC3    C6 5391   0.768   1.511  12.123 -0.2867 -0.3916 -0.1354
  360TMC3     C 5392   0.483   1.729  12.321 -0.4043 -0.7045 -0.2569
  360TMC3     O 5393   0.489   1.849  12.295  0.5482 -0.3494 -0.0908
  360TMC3     H 5394   0.739   1.796  12.304  1.3380 -0.5307  2.0278
  360TMC3    H1 5395   0.450   1.508  12.202  0.4951 -0.0655 -2.6279
  360TMC3    H2 5396   0.827   1.468  12.043 -1.9271 -0.1001 -1.5209
  360TMC3    C7 5397   0.588   1.434  12.003 -0.7094 -0.0075  0.3846
  360TMC3    C8 5398   0.930   1.687  12.165  0.0237  0.2231  0.5464
  360TMC3    O1 5399   0.655   1.461  11.905  0.7329 -0.6592 -0.0168
  360TMC3    O2 5400   0.939   1.808  12.155  0.2134  0.3159  0.1912
  361MPD2     C 5401   2.813   1.067  17.455 -0.5813 -0.3141  0.2159
  361MPD2    C1 5402   2.733   0.988  17.375 -0.4477  0.1192 -0.5235
  361MPD2    C2 5403   2.740   0.849  17.379  0.4671 -0.7469  0.4088
  361MPD2    C3 5404   2.848   0.795  17.443 -0.0512  0.4599  0.3321
  361MPD2    C4 5405   2.921   0.867  17.531 -0.3267  0.5207 -0.0957
  361MPD2    C5 5406   2.907   1.001  17.529 -0.0832 -0.1852  0.3519
  361MPD2     H 5407   2.687   0.786  17.308  0.9523  0.6144 -1.1592
  361MPD2    H1 5408   2.998   0.820  17.591  1.4924  3.3394 -0.2048
  361MPD2    H2 5409   2.793   1.173  17.464  3.3878  0.2917  1.7170
  361MPD2    H3 5410   2.972   1.047  17.603 -0.7198 -2.3652  2.2589
  361MPD2     N 5411   2.893   0.660  17.435 -1.0041 -0.8220 -0.3711
  361MPD2    H5 5412   2.966   0.634  17.500  0.3923 -1.1292 -2.0675
  361MPD2    N1 5413   2.628   1.052  17.305 -0.4886 -0.5517 -0.1015
  361MPD2    H7 5414   2.551   0.992  17.277 -1.0319 -0.3306  0.8893
  362TMC3    C1 5415   2.493   1.211  17.204  0.7495 -1.0169  0.1749
  362TMC3    C2 5416   2.382   1.168  17.265  0.2700 -0.3582 -1.0609
  362TMC3    C3 5417   2.259   1.205  17.211  0.2515 -0.3430  1.0584
  362TMC3    C4 5418   2.485   1.293  17.094 -0.1936 -0.1403 -0.5771
  362TMC3    C5 5419   2.363   1.338  17.050  0.4786 -0.3134 -1.2586
  362TMC3    C6 5420   2.248   1.297  17.112 -0.6126  0.6602 -0.2234
  362TMC3     C 5421   2.622   1.179  17.268 -1.1507 -0.0105  0.0100
  362TMC3     O 5422   2.704   1.270  17.272  0.6608  0.1545 -0.5920
  362TMC3     H 5423   2.389   1.121  17.362 -1.4663  2.7184  0.5418
  362TMC3    H1 5424   2.582   1.310  17.050 -0.3293 -0.1679 -0.8863
  362TMC3    H2 5425   2.156   1.337  17.070 -0.1772  0.3941 -1.4544
  362TMC3    C7 5426   2.358   1.421  16.935 -0.3588 -0.3588  0.2874
  362TMC3    C8 5427   2.152   1.208  17.306  0.1135 -0.0816  0.5558
  362TMC3    O1 5428   2.258   1.490  16.928 -0.1187 -0.7268 -0.2388
  362TMC3    O2 5429   2.062   1.286  17.287 -0.1548 -0.0938 -0.0307
  363TMC3    C1 5430   0.054   2.249   8.864 -0.4713  0.2065 -0.4901
  363TMC3    C2 5431   0.135   2.239   8.970 -0.0347 -0.6799  0.2115
  363TMC3    C3 5432   0.125   2.338   9.064  0.0737  0.7141 -0.4141
  363TMC3    C4 5433   4.692   2.354   8.842 -0.2683  0.3249  0.7474
  363TMC3    C5 5434   4.688   2.450   8.940  0.3160  0.1311 -0.0752
  363TMC3    C6 5435   0.042   2.445   9.052 -0.0341 -0.0975 -0.0498
  363TMC3     C 5436   0.046   2.136   8.774  0.0395 -0.8706  0.3196
  363TMC3     O 5437   0.102   2.039   8.823  0.7352 -0.1628  0.4601
  363TMC3     H 5438   0.197   2.151   8.988  2.2726  1.2146  1.5364
  363TMC3    H1 5439   4.607   2.349   8.775  1.0431  1.3716 -1.0030
  363TMC3    H2 5440   0.049   2.528   9.122  2.3546  0.2329 -0.6901
  363TMC3    C7 5441   4.631   2.580   8.913 -0.0610  0.0095  0.5723
  363TMC3    C8 5442   0.223   2.352   9.162 -0.3660  0.1103 -0.0186
  363TMC3    O1 5443   4.588   2.650   9.003  0.4213 -0.4969 -0.0325
  363TMC3    O2 5444   0.214   2.454   9.226 -0.6096 -0.7268  0.4431
  364MPD2     C 5445   3.810   2.398  10.173  0.0883  0.1734  1.1031
  364MPD2    C1 5446   3.942   2.440  10.162  0.3511  1.0565 -0.3084
  364MPD2    C2 5447   4.033   2.391  10.262  0.0017 -0.2488  0.0304
  364MPD2    C3 5448   3.990   2.305  10.360 -0.6102 -0.7373 -0.3131
  364MPD2    C4 5449   3.858   2.264  10.363  0.0786  0.4817 -0.1954
  364MPD2    C5 5450   3.768   2.301  10.260 -0.4399  0.6003 -0.5248
  364MPD2     H 5451   4.137   2.413  10.241 -0.2413 -0.3979 -1.3451
  364MPD2    H1 5452   3.841   2.183  10.433  0.0802  0.3624 -0.3327
  364MPD2    H2 5453   3.741   2.421  10.093  0.8451  0.1033  0.4192
  364MPD2    H3 5454   3.665   2.268  10.257  0.8233 -3.1067 -2.1177
  364MPD2     N 5455   4.084   2.240  10.443  0.0422 -0.8191 -0.4549
  364MPD2    H5 5456   4.044   2.153  10.477  0.1073 -1.0853 -1.0757
  364MPD2    N1 5457   3.981   2.524  10.053  0.2064  0.1261 -0.2493
  364MPD2    H7 5458   3.919   2.513   9.974  0.5105 -0.1897 -0.4427
  365TMC3    C1 5459   4.126   2.657   9.922  0.0684 -0.0331  0.4441
  365TMC3    C2 5460   4.162   2.549   9.849 -0.0552  0.2602 -0.0949
  365TMC3    C3 5461   4.287   2.550   9.787 -0.3645 -0.2240  0.3591
  365TMC3    C4 5462   4.204   2.770   9.931  0.2419 -0.6408 -0.4808
  365TMC3    C5 5463   4.325   2.772   9.862  0.9973  0.6924  0.0283
  365TMC3    C6 5464   4.367   2.661   9.791  0.5789  1.0459  0.3990
  365TMC3     C 5465   4.086   2.614  10.060  0.0102 -0.2673 -0.6774
  365TMC3     O 5466   4.137   2.669  10.156 -0.0182  0.7132  0.6144
  365TMC3     H 5467   4.106   2.456   9.846  1.6340 -0.7590  0.3158
  365TMC3    H1 5468   4.186   2.854   9.997  1.9611 -0.4156 -0.2807
  365TMC3    H2 5469   4.466   2.656   9.748  0.3761  2.7037 -0.2529
  365TMC3    C7 5470   4.438   2.824   9.931  0.2232 -0.1493 -0.4773
  365TMC3    C8 5471   4.334   2.425   9.730  0.3581 -0.1373  0.2494
  365TMC3    O1 5472   4.536   2.847   9.863  0.5835  0.4688 -0.0384
  365TMC3    O2 5473   4.272   2.380   9.634 -0.2409  0.1523 -0.1873
  366MPD2     C 5474   2.292   3.540  15.606 -0.7630 -0.5263  0.1398
  366MPD2    C1 5475   2.377   3.622  15.527  0.7753  0.3048 -0.0370
  366MPD2    C2 5476   2.484   3.557  15.466 -0.0019  0.1408  0.0695
  366MPD2    C3 5477   2.507   3.420  15.479  0.5772 -0.8681 -0.2067
  366MPD2    C4 5478   2.417   3.347  15.547 -0.2307  0.2838  0.2699
  366MPD2    C5 5479   2.304   3.403  15.601  0.5639  0.0648  0.5586
  366MPD2     H 5480   2.552   3.614  15.403  0.0303  0.3669  0.3077
  366MPD2    H1 5481   2.419   3.239  15.554  1.1791  0.3182  0.3122
  366MPD2    H2 5482   2.212   3.579  15.668 -0.5222  2.8875 -1.7141
  366MPD2    H3 5483   2.235   3.333  15.646 -0.4913  2.4569  2.6666
  366MPD2     N 5484   2.623   3.376  15.416  0.5172  0.0393 -0.0447
  366MPD2    H5 5485   2.689   3.441  15.375  1.7394 -1.4040 -0.4031
  366MPD2    N1 5486   2.362   3.763  15.514 -0.0450  0.3461  0.5360
  366MPD2    H7 5487   2.438   3.806  15.462  0.2674  0.7241  1.3142
  367TMC3    C1 5488   2.315   3.971  15.552 -0.4118 -0.4651  0.0785
  367TMC3    C2 5489   2.435   4.012  15.606 -0.0908 -0.6410 -0.0388
  367TMC3    C3 5490   2.496   4.123  15.553 -0.2140 -0.0517 -0.0751
  367TMC3    C4 5491   2.267   4.020  15.434 -0.4621 -0.2323 -0.5389
  367TMC3    C5 5492   2.338   4.120  15.371 -0.0476 -0.3015  0.5796
  367TMC3    C6 5493   2.446   4.179  15.437  0.1089 -0.4195  0.4258
  367TMC3     C 5494   2.283   3.837  15.595  0.4965 -0.6065  0.1440
  367TMC3     O 5495   2.191   3.805  15.671 -0.1226  0.0202  0.4249
  367TMC3     H 5496   2.479   3.955  15.687 -1.1434 -1.3184  0.0626
  367TMC3    H1 5497   2.180   3.982  15.381  0.4195 -0.9416 -1.4710
  367TMC3    H2 5498   2.490   4.264  15.387 -1.3879  0.0554 -0.0635
  367TMC3    C7 5499   2.279   4.203  15.266  0.2593  1.0289 -0.9540
  367TMC3    C8 5500   2.630   4.169  15.616 -0.5466  0.3053  0.3210
  367TMC3    O1 5501   2.296   4.325  15.267 -0.4295 -0.4104 -0.4189
  367TMC3    O2 5502   2.715   4.093  15.664  0.3123 -0.0290  0.1877
  368MPD2     C 5503   3.742   0.607  13.173 -0.7090  0.3192 -0.1498
  368MPD2    C1 5504   3.710   0.621  13.041 -0.3993  0.9145 -0.2137
  368MPD2    C2 5505   3.805   0.605  12.947 -0.6441 -0.6560  0.1898
  368MPD2    C3 5506   3.936   0.573  12.981 -0.3103 -0.5543 -0.9605
  368MPD2    C4 5507   3.967   0.574  13.115  0.4290  0.6038  0.4600
  368MPD2    C5 5508   3.870   0.583  13.207 -0.4011 -0.8987 -0.4401
  368MPD2     H 5509   3.770   0.611  12.845  0.8029 -2.5923 -0.4281
  368MPD2    H1 5510   4.064   0.551  13.158  0.6751 -0.1906 -0.5321
  368MPD2    H2 5511   3.662   0.597  13.246 -0.3400  0.4316  0.2675
  368MPD2    H3 5512   3.891   0.563  13.311  1.3531 -1.0006 -0.8209
  368MPD2     N 5513   4.037   0.540  12.884  0.2530  0.2143 -0.2980
  368MPD2    H5 5514   4.130   0.532  12.924 -0.1076  0.9395  0.6776
  368MPD2    N1 5515   3.574   0.649  13.014 -0.1265  0.0469  0.1943
  368MPD2    H7 5516   3.519   0.648  13.099  0.8251  1.4307  0.8271
  369TMC3    C1 5517   3.378   0.732  12.916 -0.5916  0.4510 -0.1207
  369TMC3    C2 5518   3.342   0.843  12.844 -0.1895 -0.2040 -0.2700
  369TMC3    C3 5519   3.235   0.913  12.884 -0.3755  0.0375  0.5516
  369TMC3    C4 5520   3.309   0.695  13.034 -0.3618  0.1018 -0.2388
  369TMC3    C5 5521   3.200   0.767  13.064  0.2282  0.0152  0.5569
  369TMC3    C6 5522   3.161   0.879  12.995  0.2633 -0.4079  0.5592
  369TMC3     C 5523   3.517   0.691  12.895  0.0431 -0.3322 -0.5451
  369TMC3     O 5524   3.563   0.713  12.784  0.1418 -0.1820 -0.4263
  369TMC3     H 5525   3.408   0.877  12.765  1.2756  0.0482  1.0623
  369TMC3    H1 5526   3.345   0.614  13.097  0.8602  1.0031  0.2147
  369TMC3    H2 5527   3.068   0.931  13.011  0.2013 -0.6069  0.8568
  369TMC3    C7 5528   3.136   0.778  13.197  0.3855 -0.4588 -0.3990
  369TMC3    C8 5529   3.233   1.051  12.840 -0.1818 -0.4194  1.0350
  369TMC3    O1 5530   3.111   0.896  13.229 -0.2778  0.1028 -0.2906
  369TMC3    O2 5531   3.302   1.069  12.738  0.9441  0.5193  0.2057
  370TMC3    C1 5532   3.482   1.609  16.399  0.1640 -0.4696  0.2636
  370TMC3    C2 5533   3.420   1.522  16.482 -0.6104 -0.7163 -0.2552
  370TMC3    C3 5534   3.439   1.388  16.459  0.2467 -0.4694  0.4095
  370TMC3    C4 5535   3.553   1.567  16.292  0.5220  0.6083  0.9096
  370TMC3    C5 5536   3.570   1.431  16.274 -0.1649 -0.2329 -0.3352
  370TMC3    C6 5537   3.511   1.339  16.355 -0.3579 -0.3006  0.0570
  370TMC3     C 5538   3.455   1.752  16.411  0.1548 -0.8255 -0.2739
  370TMC3     O 5539   3.349   1.779  16.466  0.0570  0.2943  0.5131
  370TMC3     H 5540   3.351   1.550  16.560 -1.7206  0.0038 -1.4910
  370TMC3    H1 5541   3.601   1.631  16.219  1.1997  1.1785  1.8579
  370TMC3    H2 5542   3.507   1.233  16.330  0.4254 -0.6992  1.6149
  370TMC3    C7 5543   3.592   1.382  16.141  0.4530 -0.8349 -0.5041
  370TMC3    C8 5544   3.425   1.296  16.564 -0.2009  1.4149 -0.6953
  370TMC3    O1 5545   3.552   1.460  16.056  0.3600  0.0558 -0.0796
  370TMC3    O2 5546   3.423   1.174  16.544  0.4027 -0.5167  0.0295
  371TMC3    C1 5547   4.703   4.261  15.664  0.0686 -0.2031  0.1909
  371TMC3    C2 5548   4.581   4.287  15.725 -1.1019  0.0136 -0.5250
  371TMC3    C3 5549   4.551   4.412  15.763  0.0372 -0.4393 -0.0665
  371TMC3    C4 5550   0.061   4.369  15.645  0.6779 -0.5422  0.7041
  371TMC3    C5 5551   0.016   4.498  15.668 -0.2531 -0.5601  0.0253
  371TMC3    C6 5552   4.624   4.523  15.733  0.6252 -0.2093 -0.7908
  371TMC3     C 5553   0.052   4.147  15.708  0.6550  0.8874 -0.0379
  371TMC3     O 5554   0.165   4.141  15.660 -0.6670  0.0238  0.1582
  371TMC3     H 5555   4.507   4.211  15.747 -1.0231  0.1259  0.1334
  371TMC3    H1 5556   0.157   4.358  15.594  1.2305 -0.8057  1.8082
  371TMC3    H2 5557   4.598   4.626  15.757 -1.5745 -1.0344  0.3525
  371TMC3    C7 5558   0.061   4.589  15.563 -0.4711 -0.1902  0.5205
  371TMC3    C8 5559   4.406   4.431  15.764  0.3869 -0.3030 -0.1127
  371TMC3    O1 5560   0.049   4.708  15.579 -0.1673  0.1311 -0.0837
  371TMC3    O2 5561   4.331   4.341  15.725 -0.2007  0.0824 -0.4055
  372MPD2     C 5562   3.678   1.076  13.401 -0.6658 -0.4482  0.7704
  372MPD2    C1 5563   3.773   0.978  13.429  0.3014 -0.2837  0.0946
  372MPD2    C2 5564   3.777   0.917  13.549 -0.4479 -0.5700 -0.4043
  372MPD2    C3 5565   3.685   0.942  13.646  0.9700  0.7560 -0.1902
  372MPD2    C4 5566   3.597   1.048  13.625  0.5384 -0.1289  0.3406
  372MPD2    C5 5567   3.596   1.113  13.503  0.3975  0.1211  0.0664
  372MPD2     H 5568   3.856   0.849  13.580  0.4292  0.7359  0.2094
  372MPD2    H1 5569   3.526   1.092  13.694  1.0229  1.2951 -0.0764
  372MPD2    H2 5570   3.682   1.125  13.304  0.4750  0.6177  1.3605
  372MPD2    H3 5571   3.528   1.194  13.478 -1.5782 -1.2922  0.8735
  372MPD2     N 5572   3.688   0.876  13.777  0.7167  0.1795 -0.0395
  372MPD2    H5 5573   3.747   0.794  13.784  0.7873  0.1268 -1.2281
  372MPD2    N1 5574   3.862   0.934  13.332  0.1384  0.4836 -0.0005
  372MPD2    H7 5575   3.935   0.871  13.360  1.0305  0.7799 -1.6632
  373TMC3    C1 5576   3.646   0.829  14.012  0.1969  1.4052 -0.0626
  373TMC3    C2 5577   3.685   0.897  14.129  0.1927  0.0779 -0.0726
  373TMC3    C3 5578   3.715   0.818  14.236 -0.1900 -0.2436 -0.2589
  373TMC3    C4 5579   3.679   0.703  13.995 -0.0065 -0.8193 -0.1218
  373TMC3    C5 5580   3.728   0.631  14.099 -0.2753 -0.1100  0.7620
  373TMC3    C6 5581   3.744   0.683  14.222 -0.2339  0.7189 -0.3454
  373TMC3     C 5582   3.627   0.915  13.893  0.0228 -0.6619 -0.5703
  373TMC3     O 5583   3.572   1.025  13.920 -0.0948 -0.6031  0.3503
  373TMC3     H 5584   3.645   0.997  14.145 -0.4199 -0.0232 -0.9444
  373TMC3    H1 5585   3.652   0.662  13.898 -1.5291  0.3920 -0.2108
  373TMC3    H2 5586   3.754   0.610  14.302  0.6681 -0.1511 -1.2527
  373TMC3    C7 5587   3.786   0.501  14.065 -0.2623  0.4880  0.7027
  373TMC3    C8 5588   3.786   0.887  14.340  0.5101  0.2566  0.1473
  373TMC3    O1 5589   3.742   0.439  13.971  0.1065 -0.1464  0.0735
  373TMC3    O2 5590   3.784   0.846  14.453  0.2984 -0.1287 -0.2499
  374TMC3    C1 5591   4.551   0.233   9.574  0.8361 -0.1598 -0.0551
  374TMC3    C2 5592   4.519   0.360   9.635  0.3399  0.3636  0.2596
  374TMC3    C3 5593   4.510   0.468   9.549  0.2999  0.1310 -1.1307
  374TMC3    C4 5594   4.531   0.216   9.438  0.4888  0.2945 -0.3130
  374TMC3    C5 5595   4.518   0.329   9.358 -0.9705 -0.3505  0.4784
  374TMC3    C6 5596   4.500   0.453   9.411  0.0676 -0.0921  0.4842
  374TMC3     C 5597   4.571   0.119   9.658  0.1955  0.4019  0.0228
  374TMC3     O 5598   4.612   0.019   9.608  0.1280 -0.3791  0.2636
  374TMC3     H 5599   4.542   0.369   9.741 -3.0206  0.5236  0.9492
  374TMC3    H1 5600   4.516   0.114   9.405 -0.1641  1.1055 -2.5427
  374TMC3    H2 5601   4.498   0.539   9.346  1.0816 -2.2547 -2.4301
  374TMC3    C7 5602   4.457   0.316   9.223 -0.5232 -0.8042 -0.2720
  374TMC3    C8 5603   4.485   0.594   9.604  0.4238 -0.0011  0.5516
  374TMC3    O1 5604   4.378   0.400   9.198 -0.0395  0.3883  0.2349
  374TMC3    O2 5605   4.387   0.648   9.560 -0.4622  0.4486 -0.4561
  375MPD2     C 5606   0.134   1.961  17.572  0.4997  0.0451 -0.2117
  375MPD2    C1 5607   0.094   2.075  17.507  0.0372  0.0148 -0.4871
  375MPD2    C2 5608   0.121   2.084  17.371 -0.6139  0.6310  0.2591
  375MPD2    C3 5609   0.187   1.985  17.302 -0.1928 -0.4670 -0.2977
  375MPD2    C4 5610   0.235   1.875  17.378 -0.0290 -0.6387  0.4270
  375MPD2    C5 5611   0.204   1.858  17.509  0.1125 -0.1665 -0.0464
  375MPD2     H 5612   0.096   2.177  17.322  0.7686  1.1381  0.5000
  375MPD2    H1 5613   0.294   1.799  17.329  1.0777  0.8923 -0.6126
  375MPD2    H2 5614   0.115   1.953  17.679 -1.8111  0.8580 -0.5670
  375MPD2    H3 5615   0.234   1.764  17.554  0.4895  0.7989  1.7277
  375MPD2     N 5616   0.231   1.992  17.166  0.3803 -0.2592  0.0856
  375MPD2    H5 5617   0.294   1.920  17.133 -1.0612 -0.8501 -1.3408
  375MPD2    N1 5618   0.012   2.179  17.562  0.4180  0.4553 -0.1329
  375MPD2    H7 5619   4.712   2.255  17.500 -2.4877 -0.1858  0.2612
  376TMC3    C1 5620   0.217   2.041  16.940  0.5819  0.5691  0.1352
  376TMC3    C2 5621   0.351   2.018  16.919  0.0093 -0.6199 -0.0927
  376TMC3    C3 5622   0.396   2.020  16.789 -0.2593 -0.1278 -0.5529
  376TMC3    C4 5623   0.127   2.075  16.844 -0.1762 -0.6551 -0.2951
  376TMC3    C5 5624   0.178   2.080  16.716  0.2906 -0.4054  0.6711
  376TMC3    C6 5625   0.310   2.063  16.691  0.4857 -1.5229  0.0239
  376TMC3     C 5626   0.178   2.079  17.073 -0.7671  0.4280  0.1685
  376TMC3     O 5627   0.088   2.162  17.090 -0.0633 -0.6920 -0.2427
  376TMC3     H 5628   0.408   2.008  17.011  1.4907 -2.7881 -1.2526
  376TMC3    H1 5629   0.021   2.081  16.865  0.0167  0.4262  0.3232
  376TMC3    H2 5630   0.343   2.074  16.588 -0.0638 -1.4603 -0.1468
  376TMC3    C7 5631   0.101   2.076  16.599  0.3177  0.6088  0.1159
  376TMC3    C8 5632   0.541   1.995  16.747 -0.5945  0.3689  0.1741
  376TMC3    O1 5633   0.131   2.150  16.505  0.1513 -0.1370 -0.0290
  376TMC3    O2 5634   0.567   2.046  16.639 -0.7161  0.0289  0.2985
  377MPD2     C 5635   2.480   1.431  12.172 -0.1276 -0.3389  0.0311
  377MPD2    C1 5636   2.582   1.481  12.260  0.3989 -0.5999 -0.3854
  377MPD2    C2 5637   2.540   1.515  12.392  0.1836 -0.2715  0.1400
  377MPD2    C3 5638   2.404   1.506  12.431  0.2429  0.0983 -0.3027
  377MPD2    C4 5639   2.313   1.460  12.338  0.4189 -0.2008  0.0677
  377MPD2    C5 5640   2.346   1.426  12.209  0.3113  0.0546 -0.2254
  377MPD2     H 5641   2.612   1.526  12.473 -0.6267 -0.2840  0.8578
  377MPD2    H1 5642   2.211   1.472  12.374  0.5911 -0.3304  0.5945
  377MPD2    H2 5643   2.494   1.405  12.067  0.3586 -1.2752  0.3216
  377MPD2    H3 5644   2.273   1.393  12.136  1.8536  1.9732 -2.6004
  377MPD2     N 5645   2.355   1.512  12.562 -0.3673  0.0260  0.1923
  377MPD2    H5 5646   2.269   1.466  12.588 -0.4670 -0.9413 -1.8350
  377MPD2    N1 5647   2.712   1.476  12.216  0.3191 -0.5264  0.2562
  377MPD2    H7 5648   2.725   1.435  12.124  3.1493 -1.2661  0.9944
  378TMC3    C1 5649   3.038   1.521  11.977  0.3148  0.3283  0.2902
  378TMC3    C2 5650   2.931   1.533  12.057 -0.6041  0.4464  0.0180
  378TMC3    C3 5651   2.946   1.506  12.196  0.1172 -0.3528 -0.2935
  378TMC3    C4 5652   3.161   1.512  12.034  0.0339 -0.3346 -0.0115
  378TMC3    C5 5653   3.174   1.490  12.170  0.2312  0.5672 -0.1532
  378TMC3    C6 5654   3.066   1.486  12.252 -0.3069  0.4632 -0.1249
  378TMC3     C 5655   3.021   1.516  11.834 -0.0832 -0.2391 -0.3409
  378TMC3     O 5656   3.120   1.534  11.763  0.2094 -0.5287 -0.5411
  378TMC3     H 5657   2.836   1.563  12.014 -0.6389 -0.1126 -0.2928
  378TMC3    H1 5658   3.249   1.498  11.972  0.1857  0.2870  0.0676
  378TMC3    H2 5659   3.074   1.479  12.360 -0.6013 -1.7257 -0.2516
  378TMC3    C7 5660   3.291   1.446  12.231 -0.4969 -0.7588 -0.8015
  378TMC3    C8 5661   2.830   1.501  12.289  0.3740  0.1886  0.5890
  378TMC3    O1 5662   3.274   1.395  12.339  0.3017  0.0899  0.4382
  378TMC3    O2 5663   2.845   1.505  12.409  0.0663 -0.4445  0.1260
  379MPD2     C 5664   3.879   4.336  15.873 -0.2064  0.3678 -0.0186
  379MPD2    C1 5665   3.812   4.290  15.986 -0.2107  0.0256 -0.1386
  379MPD2    C2 5666   3.882   4.212  16.072 -1.0498 -0.2898 -0.3802
  379MPD2    C3 5667   4.016   4.198  16.058  0.4300  0.4693 -0.0834
  379MPD2    C4 5668   4.089   4.234  15.946 -0.3067 -0.5979  0.1367
  379MPD2    C5 5669   4.013   4.299  15.850  0.2545  1.1390 -0.1446
  379MPD2     H 5670   3.833   4.157  16.152 -0.1233 -1.3395 -0.5388
  379MPD2    H1 5671   4.194   4.218  15.926  0.3042  1.2530  1.9547
  379MPD2    H2 5672   3.818   4.387  15.799  0.5982  0.5980 -0.5282
  379MPD2    H3 5673   4.051   4.325  15.752 -0.6335 -0.3565 -0.8808
  379MPD2     N 5674   4.092   4.139  16.160  0.3972 -0.3514 -0.0986
  379MPD2    H5 5675   4.173   4.088  16.126  0.1275  0.3763 -1.8516
  379MPD2    N1 5676   3.674   4.318  15.999  0.3827 -0.0302  0.3959
  379MPD2    H7 5677   3.629   4.368  15.923 -1.0951 -1.8511  0.0712
  380TMC3    C1 5678   3.455   4.301  16.110  0.3381 -0.9777 -0.3573
  380TMC3    C2 5679   3.382   4.220  16.194  0.0330 -0.3944  0.2860
  380TMC3    C3 5680   3.247   4.206  16.171 -0.5359 -0.0797  0.3022
  380TMC3    C4 5681   3.399   4.369  16.011 -0.6182  0.4699  0.1450
  380TMC3    C5 5682   3.266   4.354  15.993  0.9205  0.1328  0.2797
  380TMC3    C6 5683   3.185   4.282  16.078 -0.6306  0.2049 -0.0922
  380TMC3     C 5684   3.595   4.269  16.109  0.4156 -0.3045  0.2060
  380TMC3     O 5685   3.639   4.206  16.201 -0.3900 -0.0988 -0.5342
  380TMC3     H 5686   3.419   4.165  16.280 -0.1552 -0.3347  0.4050
  380TMC3    H1 5687   3.450   4.437  15.944 -1.5664  1.2208  0.1944
  380TMC3    H2 5688   3.077   4.278  16.068 -0.5499 -0.8241 -0.5901
  380TMC3    C7 5689   3.202   4.420  15.884 -0.1921  0.3625 -0.2785
  380TMC3    C8 5690   3.165   4.166  16.284 -0.2375  0.3962 -0.3166
  380TMC3    O1 5691   3.258   4.519  15.836 -0.2796  0.3153 -0.6209
  380TMC3    O2 5692   3.103   4.258  16.336 -0.6115 -0.1674  0.2579
  381TMC3    C1 5693   3.476   0.548  16.295 -0.0569  0.3634  0.3672
  381TMC3    C2 5694   3.535   0.666  16.261  0.3104 -0.0955  0.4791
  381TMC3    C3 5695   3.526   0.764  16.349  0.3303 -0.1161 -0.0459
  381TMC3    C4 5696   3.410   0.523  16.407  0.1101  0.6350  0.3145
  381TMC3    C5 5697   3.398   0.632  16.491 -0.2392 -0.3020 -0.7374
  381TMC3    C6 5698   3.459   0.748  16.466  0.1019  0.4604  0.6809
  381TMC3     C 5699   3.479   0.433  16.213  0.5274  0.2721 -0.5845
  381TMC3     O 5700   3.430   0.328  16.243 -0.3090 -0.5370  0.5843
  381TMC3     H 5701   3.589   0.683  16.169  0.9547 -2.7765  0.3776
  381TMC3    H1 5702   3.352   0.433  16.424 -1.8954  1.9696  0.5754
  381TMC3    H2 5703   3.423   0.829  16.528 -1.2542  2.0341 -2.1642
  381TMC3    C7 5704   3.339   0.589  16.617  0.6974  0.3796  0.8257
  381TMC3    C8 5705   3.600   0.889  16.328 -0.0372  0.6462  0.2745
  381TMC3    O1 5706   3.363   0.472  16.647  0.6826  0.3114  0.2125
  381TMC3    O2 5707   3.657   0.894  16.218  0.2999 -0.4195 -0.6041
  382MPD2     C 5708   1.898   3.430  17.251  0.5676  0.2276  0.6012
  382MPD2    C1 5709   2.001   3.402  17.340 -0.2438  0.6573 -0.5650
  382MPD2    C2 5710   2.024   3.272  17.370 -0.1133  0.0947  0.1450
  382MPD2    C3 5711   1.946   3.169  17.318 -0.7632  0.0471  0.1354
  382MPD2    C4 5712   1.856   3.194  17.218 -0.0111 -0.1609 -0.7489
  382MPD2    C5 5713   1.840   3.324  17.186  1.0562 -0.7424  0.3824
  382MPD2     H 5714   2.099   3.247  17.444 -1.7031 -0.8585  1.4311
  382MPD2    H1 5715   1.794   3.122  17.167 -0.2451 -0.8529  0.5018
  382MPD2    H2 5716   1.881   3.531  17.216 -2.2024 -0.8542 -1.2045
  382MPD2    H3 5717   1.767   3.347  17.109  1.3168  2.7080  1.1516
  382MPD2     N 5718   1.956   3.037  17.364 -0.7795 -0.6175  0.5051
  382MPD2    H5 5719   1.928   2.965  17.298  2.1790 -1.7199  0.4580
  382MPD2    N1 5720   2.095   3.497  17.393  1.0085 -0.5992 -0.7423
  382MPD2    H7 5721   2.176   3.454  17.437  0.7038 -0.6132 -0.1945
  383TMC3    C1 5722   2.043   2.862  17.506 -0.0211 -0.1542  0.2469
  383TMC3    C2 5723   2.052   2.782  17.404 -0.1886 -0.3551 -0.0453
  383TMC3    C3 5724   2.087   2.652  17.417  0.3902 -0.0912  0.4787
  383TMC3    C4 5725   2.038   2.815  17.636 -0.4843  0.5017 -0.1299
  383TMC3    C5 5726   2.056   2.679  17.647  0.1779  0.7122 -0.4692
  383TMC3    C6 5727   2.080   2.591  17.538 -0.0761 -1.0268  0.5255
  383TMC3     C 5728   2.023   3.006  17.488 -0.8254 -0.2901  0.4969
  383TMC3     O 5729   2.044   3.077  17.586  0.6844 -0.0332  0.1711
  383TMC3     H 5730   2.058   2.820  17.303 -1.9240  0.1356  0.0410
  383TMC3    H1 5731   2.017   2.880   0.016  0.8723  0.9856 -0.1640
  383TMC3    H2 5732   2.093   2.484  17.546  2.0525 -0.6414  2.1785
  383TMC3    C7 5733   2.078   2.632   0.077 -0.2554  0.1080 -0.2795
  383TMC3    C8 5734   2.050   2.564  17.312  0.2383  0.4358  0.5810
  383TMC3    O1 5735   2.126   2.520   0.076 -0.3295 -0.1123 -0.3704
  383TMC3    O2 5736   1.961   2.604  17.234 -0.2053  0.3740 -0.6095
  384MPD2     C 5737   4.356   3.985  12.006  0.0325 -0.4338 -0.2460
  384MPD2    C1 5738   4.308   3.873  12.068 -0.6662  1.0341 -0.1386
  384MPD2    C2 5739   4.345   3.746  12.026  0.6112 -0.1795  0.3023
  384MPD2    C3 5740   4.436   3.738  11.925 -0.4707  0.3887  0.3937
  384MPD2    C4 5741   4.497   3.846  11.870 -0.0183  0.4254  0.1872
  384MPD2    C5 5742   4.451   3.967  11.912 -0.0903 -0.2940  0.2252
  384MPD2     H 5743   4.299   3.661  12.075 -0.2525  1.7580  2.8210
  384MPD2    H1 5744   4.562   3.833  11.785 -1.2250 -0.0250 -0.6597
  384MPD2    H2 5745   4.329   4.085  12.036 -0.1170 -0.2665 -0.9352
  384MPD2    H3 5746   4.495   4.056  11.869 -1.5875  0.4066  0.1571
  384MPD2     N 5747   4.474   3.613  11.867  0.0515  0.5298 -0.2097
  384MPD2    H5 5748   4.536   3.613  11.787  1.2709  0.8695  0.7359
  384MPD2    N1 5749   4.203   3.874  12.171 -0.8501 -0.6131  0.3739
  384MPD2    H7 5750   4.183   3.784  12.214  0.5868 -0.4492  1.3867
  385TMC3    C1 5751   4.467   3.381  11.809  0.0149  0.8119 -0.3514
  385TMC3    C2 5752   4.467   3.404  11.675 -0.5153 -0.1763  0.2587
  385TMC3    C3 5753   4.397   3.323  11.592 -0.8118 -0.0794  0.0505
  385TMC3    C4 5754   4.397   3.269  11.850  0.3453 -0.1662  0.6536
  385TMC3    C5 5755   4.302   3.211  11.775 -0.0938  0.6035 -0.0841
  385TMC3    C6 5756   4.305   3.228  11.635  0.6654  0.1595 -0.0793
  385TMC3     C 5757   4.442   3.482  11.910 -0.0550 -0.2093 -0.3053
  385TMC3     O 5758   4.373   3.451  12.009  0.1130  0.2892  0.4418
  385TMC3     H 5759   4.526   3.486  11.636  0.0900  0.1868  1.9440
  385TMC3    H1 5760   4.408   3.240  11.954  4.1955  0.5081  0.4381
  385TMC3    H2 5761   4.230   3.180  11.573 -1.5594  1.9231  1.2685
  385TMC3    C7 5762   4.177   3.194  11.839 -0.8713  0.2360 -0.2440
  385TMC3    C8 5763   4.429   3.336  11.455  0.0707  0.0144 -0.0090
  385TMC3    O1 5764   4.084   3.140  11.777  0.2155 -0.2984  0.9825
  385TMC3    O2 5765   4.489   3.441  11.439  0.2132 -0.9101 -0.8729
  386TMC3    C1 5766   4.473   1.409  12.153  0.5824 -0.3894 -0.3983
  386TMC3    C2 5767   4.520   1.404  12.020  0.6393 -0.6463  0.3425
  386TMC3    C3 5768   4.493   1.510  11.939  0.5208  0.5905 -0.4093
  386TMC3    C4 5769   4.391   1.512  12.201 -0.3782 -0.1460  0.1090
  386TMC3    C5 5770   4.359   1.615  12.112  0.5324 -0.2896 -0.4166
  386TMC3    C6 5771   4.412   1.612  11.987 -0.7346  0.6704  1.1692
  386TMC3     C 5772   4.503   1.299  12.246 -0.2029 -0.1953 -0.5520
  386TMC3     O 5773   4.508   1.330  12.364 -0.3823 -0.8995  0.1793
  386TMC3     H 5774   4.576   1.320  11.983 -0.3648 -0.9021 -0.6191
  386TMC3    H1 5775   4.362   1.516  12.305 -1.2810 -0.2729 -0.1414
  386TMC3    H2 5776   4.373   1.685  11.917 -1.1162  0.6172  1.3270
  386TMC3    C7 5777   4.220   1.649  12.130  0.0484 -0.2317 -0.1185
  386TMC3    C8 5778   4.452   1.473  11.807 -0.2229  0.1607 -0.5506
  386TMC3    O1 5779   4.172   1.675  12.238 -0.3442 -0.1114  0.2641
  386TMC3    O2 5780   4.356   1.529  11.754 -0.4017  0.1432  0.7253
  387MPD2     C 5781   2.297   0.263   9.721  0.0346 -0.1026  0.2988
  387MPD2    C1 5782   2.428   0.217   9.708 -0.7015  0.4663 -0.0128
  387MPD2    C2 5783   2.456   0.088   9.724 -0.2731 -0.1826  0.3332
  387MPD2    C3 5784   2.363   4.720   9.762  0.3911  0.2312 -0.2420
  387MPD2    C4 5785   2.238   0.044   9.799 -0.2990  0.3508  0.3809
  387MPD2    C5 5786   2.208   0.176   9.770  1.1629  0.5448  0.2213
  387MPD2     H 5787   2.556   0.062   9.691  0.2507  0.1886  1.6298
  387MPD2    H1 5788   2.168   4.703   9.848 -1.5281  2.2314  1.1986
  387MPD2    H2 5789   2.265   0.365   9.710 -0.9813 -0.3085  1.3127
  387MPD2    H3 5790   2.109   0.205   9.804  1.2043 -0.6274  1.3383
  387MPD2     N 5791   2.418   4.595   9.782 -1.0902  0.1301  0.3248
  387MPD2    H5 5792   2.517   4.586   9.764 -0.9086  2.0423  0.3416
  387MPD2    N1 5793   2.532   0.303   9.668  0.1635  0.1343  0.0909
  387MPD2    H7 5794   2.625   0.264   9.665  0.1852  0.3875 -2.6662
  388TMC3    C1 5795   2.675   0.488   9.672  0.0241  0.5397 -0.4478
  388TMC3    C2 5796   2.716   0.599   9.737  0.0667  0.0377  0.0084
  388TMC3    C3 5797   2.849   0.616   9.757  0.8061  0.0454  0.0662
  388TMC3    C4 5798   2.766   0.389   9.632 -0.2989 -0.0637 -0.2244
  388TMC3    C5 5799   2.894   0.413   9.653  0.4941  0.1563  0.3219
  388TMC3    C6 5800   2.939   0.522   9.718  0.0982  0.3014 -0.7729
  388TMC3     C 5801   2.535   0.439   9.671  0.1832 -0.9395  0.5432
  388TMC3     O 5802   2.446   0.519   9.680  0.0511  0.1426  0.0482
  388TMC3     H 5803   2.639   0.675   9.746 -0.9254 -0.9685  0.0748
  388TMC3    H1 5804   2.743   0.307   9.564 -1.3612 -0.6374  0.8343
  388TMC3    H2 5805   3.044   0.534   9.742  0.3107  1.2520 -2.1562
  388TMC3    C7 5806   2.988   0.300   9.646 -0.1697 -0.1422 -0.4783
  388TMC3    C8 5807   2.886   0.741   9.817 -0.4664 -0.0893 -0.4977
  388TMC3    O1 5808   3.104   0.311   9.601  0.0483 -0.1597 -0.1701
  388TMC3    O2 5809   2.800   0.811   9.874  0.3739  0.2091  0.1581
  389MPD2     C 5810   1.608   4.120  11.127  0.1065  0.2394  0.0132
  389MPD2    C1 5811   1.512   4.023  11.107  0.1639 -0.9615 -0.1696
  389MPD2    C2 5812   1.413   3.991  11.193 -0.3821  0.5172 -0.9559
  389MPD2    C3 5813   1.414   4.064  11.316  0.6911  0.0935  0.8370
  389MPD2    C4 5814   1.514   4.157  11.345 -0.1563 -0.2571 -0.4850
  389MPD2    C5 5815   1.612   4.184  11.250 -0.1227  0.2568  0.2298
  389MPD2     H 5816   1.334   3.919  11.176  1.7946 -1.9015 -0.8322
  389MPD2    H1 5817   1.508   4.210  11.439 -1.8504 -1.8699  0.3212
  389MPD2    H2 5818   1.678   4.138  11.046 -1.1755 -3.5865 -1.9257
  389MPD2    H3 5819   1.693   4.253  11.268 -0.7992  1.4686 -1.4053
  389MPD2     N 5820   1.307   4.047  11.412  0.7658 -0.4319 -0.2707
  389MPD2    H5 5821   1.301   4.117  11.486 -0.4030 -0.4772 -0.3159
  389MPD2    N1 5822   1.528   3.948  10.984 -0.3611 -0.6260 -0.0248
  389MPD2    H7 5823   1.594   3.986  10.917  0.1609 -2.0543 -0.3273
  390TMC3    C1 5824   1.101   3.983  11.504 -0.0284  0.2255  0.3114
  390TMC3    C2 5825   1.039   3.866  11.541 -0.1880 -0.5000 -0.0190
  390TMC3    C3 5826   0.936   3.870  11.633 -0.3041 -0.2483 -0.0085
  390TMC3    C4 5827   1.059   4.102  11.550 -0.3956  0.6901 -0.2132
  390TMC3    C5 5828   0.943   4.107  11.625 -0.1363 -0.5373  0.0244
  390TMC3    C6 5829   0.897   3.991  11.676 -0.0631  0.2233  0.1251
  390TMC3     C 5830   1.205   3.961  11.403 -0.1962 -0.3899  0.3290
  390TMC3     O 5831   1.209   3.852  11.343 -0.0704  0.1063 -0.4740
  390TMC3     H 5832   1.067   3.773  11.493  0.0601 -0.4192 -0.0273
  390TMC3    H1 5833   1.090   4.197  11.507 -0.4265  1.1982  0.8813
  390TMC3    H2 5834   0.810   4.007  11.740  0.0199  0.0890  0.2707
  390TMC3    C7 5835   0.880   4.236  11.646  0.2741 -0.6856 -0.4450
  390TMC3    C8 5836   0.831   3.768  11.627  0.0538 -0.3437 -0.3239
  390TMC3    O1 5837   0.960   4.321  11.688 -0.2221  0.2062 -0.6178
  390TMC3    O2 5838   0.834   3.691  11.535  0.0470  0.0693  0.2599
  391MPD2     C 5839   0.185   0.539  11.029 -0.3626  0.8009  0.5889
  391MPD2    C1 5840   0.256   0.658  11.015  0.1916 -0.4052  0.3846
  391MPD2    C2 5841   0.281   0.706  10.890  0.0298 -0.3358 -0.5114
  391MPD2    C3 5842   0.249   0.640  10.781  0.6094 -0.2579 -0.6430
  391MPD2    C4 5843   0.173   0.518  10.791 -0.2571 -0.5203 -0.7199
  391MPD2    C5 5844   0.142   0.472  10.917  0.7455  0.1145 -0.5166
  391MPD2     H 5845   0.330   0.802  10.876 -1.5534  0.5489 -0.0121
  391MPD2    H1 5846   0.149   0.454  10.708 -1.2045  0.2586 -1.0505
  391MPD2    H2 5847   0.165   0.487  11.123 -0.0014  0.6393  0.5758
  391MPD2    H3 5848   0.108   0.370  10.929  1.5561 -0.0548  0.3176
  391MPD2     N 5849   0.291   0.699  10.663  0.0718  0.3247  0.2719
  391MPD2    H5 5850   0.354   0.774  10.687  0.2477  0.4427 -0.5412
  391MPD2    N1 5851   0.303   0.710  11.139  0.0036 -0.6039  0.2552
  391MPD2    H7 5852   0.275   0.673  11.230 -1.7184  2.1176  0.8476
  392TMC3    C1 5853   0.277   0.767  10.427 -0.7442 -0.4810  0.4961
  392TMC3    C2 5854   0.204   0.756  10.315 -0.5581  0.4309  0.1361
  392TMC3    C3 5855   0.206   0.852  10.220 -0.5563 -0.1954  0.0917
  392TMC3    C4 5856   0.340   0.887  10.451  0.7175 -0.8360 -0.4210
  392TMC3    C5 5857   0.350   0.973  10.343 -0.0233  0.8420  0.8890
  392TMC3    C6 5858   0.289   0.961  10.228 -0.2573 -0.2771  0.7612
  392TMC3     C 5859   0.229   0.689  10.538  0.3268 -0.3752  0.1722
  392TMC3     O 5860   0.132   0.614  10.519 -0.7839 -0.4172  0.0581
  392TMC3     H 5861   0.139   0.669  10.303 -0.4624  0.3085  0.5067
  392TMC3    H1 5862   0.376   0.901  10.553 -1.4420  0.0153  0.2218
  392TMC3    H2 5863   0.282   1.038  10.152  1.1015 -0.9092 -0.0096
  392TMC3    C7 5864   0.409   1.101  10.382  0.8272  0.3615 -0.1776
  392TMC3    C8 5865   0.138   0.803  10.102 -0.2567 -0.0232  0.0795
  392TMC3    O1 5866   0.433   1.109  10.503  0.6704 -0.1326 -0.3844
  392TMC3    O2 5867   0.162   0.693  10.058 -0.4238  0.0757  0.5195
  393TMC3    C1 5868   4.329   3.378  10.122 -0.1839 -0.3255  0.1601
  393TMC3    C2 5869   4.345   3.330  10.248 -0.6903 -0.3680 -0.3720
  393TMC3    C3 5870   4.458   3.246  10.266  0.5990 -0.2330 -0.5327
  393TMC3    C4 5871   4.424   3.354  10.015 -0.1536  0.1687 -0.3980
  393TMC3    C5 5872   4.525   3.266  10.040  0.1576 -0.2624 -0.5422
  393TMC3    C6 5873   4.551   3.216  10.168 -0.7611  0.1966 -0.2449
  393TMC3     C 5874   4.227   3.480  10.101 -0.5387  0.1847  0.4527
  393TMC3     O 5875   4.209   3.499   9.983  0.0950  0.2278 -0.0058
  393TMC3     H 5876   4.263   3.327  10.319 -1.1103  1.3204 -0.7793
  393TMC3    H1 5877   4.414   3.407   9.921 -0.7457  2.0653  0.7180
  393TMC3    H2 5878   4.633   3.149  10.191 -0.9613  0.2112  0.5011
  393TMC3    C7 5879   4.639   3.272   9.947  0.5742  0.5208  0.0460
  393TMC3    C8 5880   4.502   3.243  10.402 -0.9927  0.0522 -0.1334
  393TMC3    O1 5881   4.620   3.345   9.853  0.3855 -0.2375 -0.1213
  393TMC3    O2 5882   4.564   3.147  10.440  0.0878  0.4659 -0.4073
  394TMC3    C1 5883   1.500   3.800  10.798 -0.0960  0.0795 -0.3592
  394TMC3    C2 5884   1.431   3.693  10.744  0.4892  0.1867  0.5781
  394TMC3    C3 5885   1.478   3.620  10.633 -0.2625 -0.4619  0.0080
  394TMC3    C4 5886   1.606   3.861  10.739  0.7622  0.2292  0.2362
  394TMC3    C5 5887   1.651   3.789  10.631  0.2917  0.4749 -0.0259
  394TMC3    C6 5888   1.588   3.675  10.580  0.0160  0.0063 -0.4982
  394TMC3     C 5889   1.454   3.851  10.929  0.0499  0.6720  0.5121
  394TMC3     O 5890   1.367   3.788  10.991 -0.0803  0.1316 -0.0735
  394TMC3     H 5891   1.356   3.648  10.808 -0.4106  0.0478 -0.5753
  394TMC3    H1 5892   1.644   3.953  10.781  1.3317  0.5645 -1.0356
  394TMC3    H2 5893   1.624   3.629  10.488 -1.1195 -2.5023  0.3039
  394TMC3    C7 5894   1.744   3.848  10.545  0.3043 -0.0320  0.0273
  394TMC3    C8 5895   1.499   3.487  10.659  0.1802 -0.1408  0.6689
  394TMC3    O1 5896   1.743   3.829  10.426  0.3617  0.2506 -0.0467
  394TMC3    O2 5897   1.616   3.448  10.663  0.5157 -0.1844  0.4677
  395TMC3    C1 5898   1.625   1.491  15.023  0.2973  0.1290  0.1684
  395TMC3    C2 5899   1.529   1.455  14.936 -0.8411 -0.2351 -0.3287
  395TMC3    C3 5900   1.530   1.520  14.809 -0.0259  0.1112  0.1885
  395TMC3    C4 5901   1.709   1.596  15.000  0.0177 -0.0482  0.8944
  395TMC3    C5 5902   1.709   1.648  14.869 -0.0794  0.6568  0.3160
  395TMC3    C6 5903   1.622   1.606  14.770  0.0830  0.2417  0.1915
  395TMC3     C 5904   1.582   1.470  15.162  0.1453  0.7194  0.2249
  395TMC3     O 5905   1.464   1.437  15.176  0.3558  0.3366 -0.0688
  395TMC3     H 5906   1.442   1.399  14.968 -0.8112  0.4196  0.8733
  395TMC3    H1 5907   1.787   1.634  15.064  0.8564 -1.1803  0.5528
  395TMC3    H2 5908   1.619   1.646  14.669  4.6811 -0.2589 -0.1506
  395TMC3    C7 5909   1.752   1.779  14.862  0.3018  0.9127 -0.0005
  395TMC3    C8 5910   1.402   1.563  14.762  0.3360  0.1551 -0.1901
  395TMC3    O1 5911   1.765   1.833  14.969  0.3761  0.1658 -0.0202
  395TMC3    O2 5912   1.388   1.676  14.723  0.3609 -0.3969 -0.1328
  396MPD2     C 5913   1.113   2.666  17.385  0.3764  0.1273  0.3346
  396MPD2    C1 5914   1.083   2.664  17.248 -0.3353 -0.4575  0.1059
  396MPD2    C2 5915   1.090   2.785  17.178 -0.2306  0.5796  0.1036
  396MPD2    C3 5916   1.097   2.899  17.245  0.2337 -0.1421  0.0715
  396MPD2    C4 5917   1.094   2.901  17.378  0.0052  0.1502  0.6253
  396MPD2    C5 5918   1.113   2.785  17.442 -0.0678 -0.5862  0.0649
  396MPD2     H 5919   1.083   2.780  17.070  1.2238 -0.4469  0.0498
  396MPD2    H1 5920   1.083   2.985  17.446  0.2647 -0.1198  1.0057
  396MPD2    H2 5921   1.100   2.581  17.451 -0.1643  0.8838  1.1991
  396MPD2    H3 5922   1.106   2.787  17.550  1.1420 -1.0874  0.1469
  396MPD2     N 5923   1.103   3.020  17.169 -0.1264 -0.2547  0.4237
  396MPD2    H5 5924   1.099   3.005  17.069  0.0172  0.0533  0.3720
  396MPD2    N1 5925   1.061   2.538  17.192  0.1890  0.0976 -0.0292
  396MPD2    H7 5926   1.059   2.453  17.247 -0.6013  1.1815  1.6167
  397TMC3    C1 5927   0.992   2.377  17.046 -0.6546 -0.3974  0.2926
  397TMC3    C2 5928   0.944   2.356  16.922  0.6069  0.2314  0.3194
  397TMC3    C3 5929   0.938   2.225  16.869  0.4484 -0.3925 -0.4018
  397TMC3    C4 5930   1.083   2.276  17.085 -0.0200  0.1442 -0.6834
  397TMC3    C5 5931   1.078   2.149  17.035 -0.0608 -0.2584 -1.0734
  397TMC3    C6 5932   1.014   2.120  16.916 -0.2858 -0.2545  0.1848
  397TMC3     C 5933   1.024   2.520  17.066  0.2322 -0.0470 -0.1922
  397TMC3     O 5934   0.987   2.601  16.981  0.2014  0.0207  0.7021
  397TMC3     H 5935   0.863   2.418  16.886  0.0299 -0.8283 -0.2171
  397TMC3    H1 5936   1.152   2.298  17.166  1.1319  1.2968 -1.9947
  397TMC3    H2 5937   1.011   2.021  16.872 -1.1774 -0.1899  0.0851
  397TMC3    C7 5938   1.143   2.040  17.102 -1.0046  0.4451 -0.1523
  397TMC3    C8 5939   0.901   2.220  16.725 -0.3711 -0.1800 -0.4909
  397TMC3    O1 5940   1.155   1.933  17.045 -0.2376  0.5517  0.0142
  397TMC3    O2 5941   0.809   2.285  16.682 -0.0510  0.4483 -0.0988
  398MPD2     C 5942   3.849   3.972  17.567  0.0786 -0.1405 -0.1032
  398MPD2    C1 5943   3.905   3.869  17.633  1.0569 -1.0043 -0.1108
  398MPD2    C2 5944   4.044   3.836  17.623  0.0168  0.5772  0.2924
  398MPD2    C3 5945   4.116   3.907  17.530 -0.2974  0.0157 -0.2486
  398MPD2    C4 5946   4.058   4.015  17.466  0.5864 -0.4490 -0.6554
  398MPD2    C5 5947   3.929   4.037  17.484  0.0684  0.1564  0.3580
  398MPD2     H 5948   4.092   3.754  17.675 -1.6093 -0.1248  0.6809
  398MPD2    H1 5949   4.119   4.086  17.412  0.3394  2.0788  2.3490
  398MPD2    H2 5950   3.748   4.006  17.591  0.2821  0.1670  0.3193
  398MPD2    H3 5951   3.890   4.124  17.433 -1.4314 -0.1252  1.0153
  398MPD2     N 5952   4.247   3.873  17.505 -0.0317 -0.7770 -0.9264
  398MPD2    H5 5953   4.277   3.792  17.557  3.0022  0.9451 -0.0007
  398MPD2    N1 5954   3.836   3.791   0.020 -0.0696  0.4189  0.1731
  398MPD2    H7 5955   3.878   3.718   0.076 -1.0908  0.2856  0.7739
  399TMC3    C1 5956   3.673   3.720   0.161  0.2814  0.4671  0.2212
  399TMC3    C2 5957   3.763   3.712   0.258  0.4367 -0.4291  0.2465
  399TMC3    C3 5958   3.749   3.604   0.352 -0.3156  0.1087  0.1814
  399TMC3    C4 5959   3.561   3.642   0.156 -0.0508 -0.7177 -0.2746
  399TMC3    C5 5960   3.557   3.534   0.244 -0.2178 -0.0335  0.3943
  399TMC3    C6 5961   3.648   3.516   0.343 -0.5303 -0.5135 -0.0048
  399TMC3     C 5962   3.704   3.793   0.041 -0.7490  0.3205  0.0047
  399TMC3     O 5963   3.610   3.831  17.674 -0.0921  0.4654  0.3997
  399TMC3     H 5964   3.844   3.783   0.266  0.9108 -0.7946 -1.2687
  399TMC3    H1 5965   3.479   3.663   0.089 -2.0814 -0.8241  2.1568
  399TMC3    H2 5966   3.639   3.437   0.417 -0.7634 -1.2125 -0.7839
  399TMC3    C7 5967   3.449   3.431   0.247 -0.5899  0.1901  0.2782
  399TMC3    C8 5968   3.880   3.546   0.385  0.0759 -0.9431  0.5384
  399TMC3    O1 5969   3.487   3.318   0.271  0.3298  0.5281 -0.1179
  399TMC3    O2 5970   3.969   3.580   0.305 -0.1978 -0.1838 -0.2072
  400TMC3    C1 5971   2.359   2.755  17.164  0.3290  0.1004  0.3700
  400TMC3    C2 5972   2.260   2.695  17.088 -0.5655 -0.6261  0.7479
  400TMC3    C3 5973   2.177   2.777  17.017 -0.7985 -0.4528  0.2488
  400TMC3    C4 5974   2.362   2.882  17.197 -0.0310 -0.8254 -0.5441
  400TMC3    C5 5975   2.271   2.965  17.128  0.0222  0.1599 -0.1150
  400TMC3    C6 5976   2.172   2.916  17.043 -0.7659  0.2851  0.6967
  400TMC3     C 5977   2.426   2.664  17.247 -0.4995  0.3431 -0.4928
  400TMC3     O 5978   2.445   2.558  17.194 -0.9502 -0.5320  0.3313
  400TMC3     H 5979   2.259   2.588  17.069 -1.8416 -0.7959  1.7451
  400TMC3    H1 5980   2.426   2.932  17.269 -0.1038 -0.1184 -0.9696
  400TMC3    H2 5981   2.097   2.978  16.994 -1.7786 -0.9453  0.7076
  400TMC3    C7 5982   2.295   3.105  17.134 -0.0917 -0.4299 -0.1655
  400TMC3    C8 5983   2.060   2.731  16.939  0.4397 -0.3886  0.0571
  400TMC3    O1 5984   2.372   3.146  17.219  0.8419 -0.2224 -0.1716
  400TMC3    O2 5985   1.970   2.812  16.931  0.1091 -0.3412 -0.1397
  401MPD2     C 5986   1.371   0.496   0.289  0.3302 -0.1851  0.3790
  401MPD2    C1 5987   1.374   0.433   0.408  0.5336 -0.8481 -0.3270
  401MPD2    C2 5988   1.294   0.319   0.432 -0.3400 -0.1222  0.7307
  401MPD2    C3 5989   1.208   0.285   0.328  0.4561 -0.3911  0.2858
  401MPD2    C4 5990   1.201   0.358   0.208  1.3131 -0.6441  0.1325
  401MPD2    C5 5991   1.283   0.459   0.189 -0.0347 -0.7937 -0.5918
  401MPD2     H 5992   1.295   0.261   0.524  0.5126  0.5746  1.1646
  401MPD2    H1 5993   1.139   0.327   0.124 -1.2728 -0.1966  1.8893
  401MPD2    H2 5994   1.441   0.576   0.271 -0.3199  0.4833  0.8180
  401MPD2    H3 5995   1.290   0.522   0.101  1.2026  0.2235  0.2272
  401MPD2     N 5996   1.123   0.180   0.360 -0.3403 -0.2523  0.5960
  401MPD2    H5 5997   1.158   0.115   0.430  0.1024  0.9948  1.5399
  401MPD2    N1 5998   1.463   0.468   0.509  0.2126 -0.2228  0.1350
  401MPD2    H7 5999   1.465   0.409   0.591 -2.0998  2.6924  2.2912
  402TMC3    C1 6000   0.941   0.033   0.362  0.3117  0.4747 -0.2524
  402TMC3    C2 6001   0.933   0.067   0.496  0.0604  0.3002 -0.1316
  402TMC3    C3 6002   0.955   4.691   0.590 -0.3920  0.0547  0.0855
  402TMC3    C4 6003   0.991   4.644   0.322 -0.1259  0.5232 -0.3588
  402TMC3    C5 6004   1.013   4.548   0.411  0.7348 -0.3616 -0.2946
  402TMC3    C6 6005   0.988   4.568   0.545 -0.2244 -0.0075 -0.9787
  402TMC3     C 6006   1.010   0.141   0.295 -0.1940 -0.2986  0.4757
  402TMC3     O 6007   0.959   0.183   0.190  0.1860  0.2405 -0.0282
  402TMC3     H 6008   0.929   0.173   0.517 -2.9712  0.9137 -3.6628
  402TMC3    H1 6009   1.021   4.637   0.218 -0.4583 -0.8739 -0.3636
  402TMC3    H2 6010   0.986   4.487   0.617 -0.8285 -0.3482 -1.3787
  402TMC3    C7 6011   1.090   4.432   0.360  0.0407 -0.2888  0.5208
  402TMC3    C8 6012   0.950   4.713   0.735  0.3259 -0.5679  0.1156
  402TMC3    O1 6013   1.069   4.397   0.246 -0.3794  0.4081 -0.3463
  402TMC3    O2 6014   0.996   4.627   0.808 -0.9739 -0.2208  0.2683
  403MPD2     C 6015   3.215   4.179  13.695 -0.1231 -0.9172  0.0580
  403MPD2    C1 6016   3.326   4.126  13.635 -0.7265  0.3040  0.0244
  403MPD2    C2 6017   3.451   4.157  13.686 -0.1020  0.0697 -0.3533
  403MPD2    C3 6018   3.467   4.249  13.789 -0.2843 -0.1199 -0.4799
  403MPD2    C4 6019   3.357   4.305  13.845  0.0044  0.0374  0.8146
  403MPD2    C5 6020   3.231   4.267  13.795  0.3291  0.2246 -0.1206
  403MPD2     H 6021   3.544   4.123  13.642  0.5559  0.8881  0.3994
  403MPD2    H1 6022   3.350   4.374  13.928 -0.0319  0.0842  0.7730
  403MPD2    H2 6023   3.113   4.156  13.665 -0.6400 -0.4040  1.4010
  403MPD2    H3 6024   3.137   4.293  13.842  0.9689  0.1956  1.1854
  403MPD2     N 6025   3.600   4.286  13.828  0.3382 -0.5851 -0.0700
  403MPD2    H5 6026   3.678   4.234  13.788  0.3190  0.0853 -0.9798
  403MPD2    N1 6027   3.303   4.034  13.528 -0.6817  0.2225 -0.4837
  403MPD2    H7 6028   3.208   4.012  13.502 -0.6457 -3.1026  2.1577
  404TMC3    C1 6029   3.342   3.866  13.376 -0.7441 -0.1482 -0.4328
  404TMC3    C2 6030   3.247   3.782  13.430  0.3848  0.7573 -0.2270
  404TMC3    C3 6031   3.230   3.663  13.364  0.1340  0.4661  0.6311
  404TMC3    C4 6032   3.397   3.854  13.255 -0.1596  0.4697 -0.2826
  404TMC3    C5 6033   3.355   3.742  13.184  0.2051  0.4667 -0.2923
  404TMC3    C6 6034   3.280   3.642  13.238  0.1390  0.4651 -1.2906
  404TMC3     C 6035   3.401   3.962  13.467  0.2737 -0.4939  0.5455
  404TMC3     O 6036   3.522   3.955  13.492  0.1929  0.3465  0.4838
  404TMC3     H 6037   3.204   3.801  13.528 -0.5023  1.9767 -0.8418
  404TMC3    H1 6038   3.470   3.924  13.216 -1.7566  1.6815 -1.1015
  404TMC3    H2 6039   3.249   3.555  13.183  0.2642  0.2237 -0.9770
  404TMC3    C7 6040   3.378   3.751  13.040  0.6726  0.3135 -0.8734
  404TMC3    C8 6041   3.205   3.543  13.432  0.3760  0.2670  1.0905
  404TMC3    O1 6042   3.441   3.852  13.002 -0.5698  0.1240 -0.6371
  404TMC3    O2 6043   3.226   3.438  13.372 -0.3837 -0.4424  0.4679
  405MPD2     C 6044   4.156   4.611  14.952 -0.3713  0.2095 -0.1739
  405MPD2    C1 6045   4.086   4.499  14.994  0.5556 -0.4855 -0.2234
  405MPD2    C2 6046   4.026   4.424  14.895 -0.6461  0.4808  0.5014
  405MPD2    C3 6047   4.038   4.445  14.764 -0.4879 -0.0743 -0.3489
  405MPD2    C4 6048   4.112   4.553  14.720  0.1374 -0.4263  0.0670
  405MPD2    C5 6049   4.171   4.633  14.815  0.3926 -0.0287  0.0895
  405MPD2     H 6050   3.977   4.329  14.914  2.1752 -1.0008  0.5190
  405MPD2    H1 6051   4.132   4.574  14.616  1.0073 -1.7630 -0.0413
  405MPD2    H2 6052   4.212   4.675  15.020 -0.1478 -0.8889  0.6747
  405MPD2    H3 6053   4.229   4.721  14.789  1.5003 -0.3021  1.6415
  405MPD2     N 6054   3.960   4.356  14.680 -1.3016  0.8594  0.6168
  405MPD2    H5 6055   3.898   4.289  14.724 -1.3575  0.3278 -0.2732
  405MPD2    N1 6056   4.097   4.458  15.127  0.0582  0.5801  0.4532
  405MPD2    H7 6057   4.151   4.514  15.192 -0.7116  0.5169  1.1372
  406TMC3    C1 6058   3.779   4.123  14.348  0.0127  0.1071  0.7661
  406TMC3    C2 6059   3.813   4.005  14.405  0.0543 -0.1138  0.3073
  406TMC3    C3 6060   3.889   4.016  14.521 -0.1043 -1.0142  0.2197
  406TMC3    C4 6061   3.815   4.249  14.385 -0.7212  0.4584 -0.0767
  406TMC3    C5 6062   3.897   4.248  14.488 -0.0964  0.5704  0.3624
  406TMC3    C6 6063   3.941   4.137  14.555 -0.3086  0.7714 -0.1805
  406TMC3     C 6064   3.673   4.118  14.250  0.5989  0.1988 -0.0361
  406TMC3     O 6065   3.686   4.058  14.144 -0.9082  1.0728 -0.0710
  406TMC3     H 6066   3.769   3.911  14.373  1.2822 -1.0971  1.5423
  406TMC3    H1 6067   3.778   4.340  14.340 -2.1699 -0.3612 -0.5198
  406TMC3    H2 6068   4.035   4.143  14.608 -1.4568  1.2198  1.7807
  406TMC3    C7 6069   3.953   4.369  14.543  0.1198  0.0196 -0.0906
  406TMC3    C8 6070   3.908   3.902  14.615  0.1223 -0.7929  0.3557
  406TMC3    O1 6071   3.981   4.465  14.469  0.2826  0.4526 -0.1735
  406TMC3    O2 6072   3.861   3.789  14.605 -0.2943 -0.0210 -0.1347
  407MPD2     C 6073   1.649   0.668   9.710  0.3592  0.3886 -0.4065
  407MPD2    C1 6074   1.713   0.742   9.810 -0.5061 -0.2817 -0.4406
  407MPD2    C2 6075   1.642   0.779   9.923 -0.2003 -0.0664  0.8226
  407MPD2    C3 6076   1.515   0.737   9.951  0.0249 -0.3296  0.8963
  407MPD2    C4 6077   1.452   0.669   9.849  0.1939  0.1941 -0.1168
  407MPD2    C5 6078   1.518   0.635   9.738 -0.1764 -0.1532 -0.1030
  407MPD2     H 6079   1.700   0.839   9.992 -1.1048 -0.5310  1.9972
  407MPD2    H1 6080   1.347   0.639   9.851  0.3688 -0.4978 -1.0712
  407MPD2    H2 6081   1.690   0.642   9.614  0.5205 -0.8468  0.0065
  407MPD2    H3 6082   1.450   0.585   9.670 -1.5745  1.7332 -0.1011
  407MPD2     N 6083   1.433   0.785  10.055  0.4412 -0.1189  0.0661
  407MPD2    H5 6084   1.337   0.754  10.064  0.1088  0.9118  0.0751
  407MPD2    N1 6085   1.841   0.804   9.799  0.1742 -0.1859  0.6022
  407MPD2    H7 6086   1.873   0.868   9.870 -2.1647  1.1057  0.4805
  408TMC3    C1 6087   2.049   0.879   9.702  0.4579  0.4423 -0.5978
  408TMC3    C2 6088   2.154   0.848   9.622  0.0998  0.5305 -0.2427
  408TMC3    C3 6089   2.260   0.933   9.605 -0.5777 -0.5291  0.9908
  408TMC3    C4 6090   2.035   1.010   9.751  0.4993 -0.0324 -1.5074
  408TMC3    C5 6091   2.137   1.094   9.724  0.3589 -0.4600  0.4342
  408TMC3    C6 6092   2.252   1.061   9.651  0.5787 -0.6317 -0.6633
  408TMC3     C 6093   1.929   0.789   9.696 -0.4094  0.3276 -0.4525
  408TMC3     O 6094   1.926   0.696   9.616  0.7023  0.5433 -0.0680
  408TMC3     H 6095   2.174   0.744   9.597 -1.0783 -0.0907  1.3186
  408TMC3    H1 6096   1.943   1.041   9.798  0.9151 -2.5683  0.9636
  408TMC3    H2 6097   2.326   1.139   9.638 -1.4348  1.3799 -0.0547
  408TMC3    C7 6098   2.122   1.225   9.776  0.0855 -0.0694 -0.0128
  408TMC3    C8 6099   2.371   0.895   9.522  0.3775 -0.3141  0.5885
  408TMC3    O1 6100   2.201   1.307   9.729 -0.7137 -0.0757  0.1028
  408TMC3    O2 6101   2.348   0.804   9.441  0.0555 -0.5125 -0.0000
  409MPD2     C 6102   1.293   1.454  17.241 -0.6126 -0.2049  0.3858
  409MPD2    C1 6103   1.384   1.546  17.304  0.1353  0.8870 -0.8757
  409MPD2    C2 6104   1.440   1.644  17.223  0.3122 -1.0163  0.0061
  409MPD2    C3 6105   1.396   1.671  17.092  0.1856  0.0840  0.2501
  409MPD2    C4 6106   1.300   1.592  17.037  0.3487  0.2140  0.5124
  409MPD2    C5 6107   1.262   1.478  17.105  0.3643 -0.1762 -0.8520
  409MPD2     H 6108   1.523   1.695  17.270 -1.3446 -0.5300  2.4148
  409MPD2    H1 6109   1.265   1.612  16.936  0.7143 -0.4084  0.2647
  409MPD2    H2 6110   1.247   1.366  17.284  0.6746 -0.1485  1.8909
  409MPD2    H3 6111   1.191   1.411  17.058 -0.0799  0.7517 -1.5014
  409MPD2     N 6112   1.441   1.781  17.020 -0.4671 -0.1754 -0.3170
  409MPD2    H5 6113   1.407   1.790  16.925 -2.1109  0.9049  0.3741
  409MPD2    N1 6114   1.431   1.537  17.436  0.1870  0.0511  0.2140
  409MPD2    H7 6115   1.499   1.601  17.476 -1.3016  0.5531  1.9337
  410TMC3    C1 6116   1.557   1.988  16.976 -0.0448  0.7889 -0.2829
  410TMC3    C2 6117   1.666   2.059  17.007  0.9250  0.2288 -0.0817
  410TMC3    C3 6118   1.693   2.162  16.925  0.4293  0.1316 -0.3720
  410TMC3    C4 6119   1.484   2.009  16.860 -0.7096  0.0288  0.0817
  410TMC3    C5 6120   1.523   2.117  16.779 -0.5264  0.0297  0.9020
  410TMC3    C6 6121   1.628   2.200  16.809  0.0263  0.2141 -0.8523
  410TMC3     C 6122   1.522   1.881  17.067 -0.4657 -0.1363  0.2997
  410TMC3     O 6123   1.568   1.894  17.182  0.5748 -0.0716 -0.5207
  410TMC3     H 6124   1.720   2.039  17.099 -0.4150 -0.7457  0.4937
  410TMC3    H1 6125   1.393   1.958  16.833  0.0942 -1.4278  0.1215
  410TMC3    H2 6126   1.670   2.276  16.745  0.7378  2.4695  2.2753
  410TMC3    C7 6127   1.509   2.085  16.639 -0.1293  0.2328 -0.3828
  410TMC3    C8 6128   1.794   2.247  16.978 -0.7467  0.5034  0.5049
  410TMC3    O1 6129   1.465   1.975  16.608  0.1356  1.0637 -0.3753
  410TMC3    O2 6130   1.755   2.352  17.026 -0.5847  0.2106 -0.3012
  411MPD2     C 6131   1.455   2.248  14.699 -0.4937 -0.4077  0.3844
  411MPD2    C1 6132   1.386   2.239  14.578 -0.4957  0.7801 -0.4764
  411MPD2    C2 6133   1.345   2.116  14.527  0.0852 -0.2447 -0.5874
  411MPD2    C3 6134   1.344   2.001  14.610 -0.3405  0.4229  0.0534
  411MPD2    C4 6135   1.415   2.010  14.729  0.1900  1.0322  0.2320
  411MPD2    C5 6136   1.467   2.131  14.774  0.6403 -0.1711  0.1527
  411MPD2     H 6137   1.308   2.107  14.426  2.2381  1.2655 -1.4972
  411MPD2    H1 6138   1.449   1.917  14.773 -1.4620  0.2069 -0.2702
  411MPD2    H2 6139   1.483   2.343  14.742 -0.9424 -0.7060  1.3330
  411MPD2    H3 6140   1.520   2.140  14.868 -0.1983 -0.0879  0.6163
  411MPD2     N 6141   1.302   1.876  14.557  0.3897 -0.1710  0.3585
  411MPD2    H5 6142   1.328   1.794  14.611 -0.2159  0.1453  1.1362
  411MPD2    N1 6143   1.350   2.363  14.515 -1.2431 -0.2752  0.0722
  411MPD2    H7 6144   1.378   2.444  14.568  1.7810 -0.8402 -0.6501
  412TMC3    C1 6145   1.148   1.742  14.434 -0.6952  0.0530  0.4186
  412TMC3    C2 6146   1.029   1.748  14.365 -0.1000 -0.2641  0.1612
  412TMC3    C3 6147   0.995   1.635  14.295 -0.2945  0.3625 -0.1716
  412TMC3    C4 6148   1.227   1.634  14.439  0.0833  0.6613  0.0971
  412TMC3    C5 6149   1.196   1.521  14.358  0.6550  0.8210  0.1624
  412TMC3    C6 6150   1.083   1.531  14.285  0.2192  0.4148  0.5621
  412TMC3     C 6151   1.197   1.876  14.469 -0.4161  0.1172  0.1603
  412TMC3     O 6152   1.126   1.969  14.433  0.3437 -0.4978  0.3974
  412TMC3     H 6153   0.960   1.831  14.368  2.0677  1.4356  2.3756
  412TMC3    H1 6154   1.324   1.645  14.487 -0.4182 -1.4722  1.5851
  412TMC3    H2 6155   1.053   1.443  14.231  0.5562  0.0714  0.9273
  412TMC3    C7 6156   1.312   1.492  14.272 -0.5896 -0.1752 -0.3778
  412TMC3    C8 6157   0.961   1.662  14.162  0.6027  0.4523 -0.5749
  412TMC3    O1 6158   1.416   1.455  14.330 -0.1100  0.6382  0.1351
  412TMC3    O2 6159   1.045   1.630  14.084 -0.6909 -0.8708 -0.3879
  413MPD2     C 6160   3.505   0.527  15.569 -0.1568 -0.0080  0.5378
  413MPD2    C1 6161   3.453   0.519  15.436 -0.0227  0.0507  0.1533
  413MPD2    C2 6162   3.488   0.416  15.355 -0.0060 -0.1841 -0.0681
  413MPD2    C3 6163   3.572   0.318  15.397  0.3693  0.0671 -0.2676
  413MPD2    C4 6164   3.624   0.329  15.525  0.1770 -0.1009 -0.2047
  413MPD2    C5 6165   3.601   0.439  15.600 -0.8429 -0.2056 -0.0141
  413MPD2     H 6166   3.453   0.410  15.252 -1.0579 -1.4886  0.3732
  413MPD2    H1 6167   3.686   0.252  15.569  2.5399  1.7867 -0.2119
  413MPD2    H2 6168   3.472   0.608  15.632  2.5344  1.2501  0.3585
  413MPD2    H3 6169   3.634   0.446  15.702 -0.0250  0.8025 -0.3560
  413MPD2     N 6170   3.607   0.212  15.319 -0.1606 -0.3633 -0.4908
  413MPD2    H5 6171   3.587   0.215  15.219 -1.9244  0.6460 -0.0977
  413MPD2    N1 6172   3.357   0.612  15.403  0.4665 -0.4518 -0.1006
  413MPD2    H7 6173   3.334   0.683  15.471  0.1948 -1.3563  0.7590
  414TMC3    C1 6174   3.674   4.718  15.269 -1.0635 -0.1075 -1.4488
  414TMC3    C2 6175   3.654   4.588  15.300  0.3613  0.5482 -0.8670
  414TMC3    C3 6176   3.654   4.499  15.192  0.4091 -0.0983  0.0537
  414TMC3    C4 6177   3.715   0.035  15.146 -0.4363  0.9642  0.0448
  414TMC3    C5 6178   3.739   4.664  15.053  0.2411  0.1226  0.5253
  414TMC3    C6 6179   3.705   4.530  15.073 -0.7515  0.3061 -0.9486
  414TMC3     C 6180   3.661   0.092  15.369 -0.8632 -0.3307  0.0008
  414TMC3     O 6181   3.678   0.049  15.480  0.1742 -0.6277  0.1803
  414TMC3     H 6182   3.637   4.558  15.403  0.4332  2.3043 -0.3428
  414TMC3    H1 6183   3.731   0.141  15.126 -0.0590  1.1856  1.4930
  414TMC3    H2 6184   3.699   4.454  14.996  1.5976  0.2115 -1.0314
  414TMC3    C7 6185   3.772   4.707  14.926  0.3448  0.2380 -1.4143
  414TMC3    C8 6186   3.596   4.374  15.225 -0.4175  0.4478 -0.3025
  414TMC3    O1 6187   3.714   4.648  14.834 -0.2383  0.4965  0.0821
  414TMC3    O2 6188   3.483   4.377  15.268 -0.6432 -0.8005  0.2086
  415TMC3    C1 6189   3.693   3.437  10.246  0.0713 -0.1254  0.1256
  415TMC3    C2 6190   3.702   3.524  10.142  0.3919 -0.3836 -0.1579
  415TMC3    C3 6191   3.582   3.575  10.094 -0.0541 -0.2630  0.0570
  415TMC3    C4 6192   3.576   3.432  10.322 -0.0843  0.4509 -0.6034
  415TMC3    C5 6193   3.468   3.496  10.282 -1.0009  0.5872  0.6099
  415TMC3    C6 6194   3.462   3.573  10.168 -0.2598  0.5084  0.3203
  415TMC3     C 6195   3.801   3.345  10.288  0.2635 -0.9569  0.8212
  415TMC3     O 6196   3.794   3.310  10.406 -0.4265 -0.5570 -0.7663
  415TMC3     H 6197   3.798   3.540  10.094  0.4463 -1.4217 -0.3987
  415TMC3    H1 6198   3.567   3.385  10.419 -2.1835  0.6343 -0.6987
  415TMC3    H2 6199   3.367   3.612  10.133 -0.6762 -0.8422 -0.0639
  415TMC3    C7 6200   3.337   3.460  10.338  0.1483  0.3341 -0.8311
  415TMC3    C8 6201   3.586   3.675   9.988  0.2148 -0.1144 -0.4505
  415TMC3    O1 6202   3.248   3.538  10.319 -0.1950 -0.2529  0.6580
  415TMC3    O2 6203   3.487   3.745   9.976 -0.1967 -0.7500 -0.3286
  416MPD2     C 6204   0.556   2.163  11.626  0.1931  0.1943  0.3580
  416MPD2    C1 6205   0.480   2.175  11.515  0.3194  0.1374 -0.1301
  416MPD2    C2 6206   0.471   2.068  11.431  0.1550 -0.7352  0.1910
  416MPD2    C3 6207   0.498   1.942  11.477 -0.0087  0.2835  0.4683
  416MPD2    C4 6208   0.565   1.924  11.596 -0.8304  0.1984  0.2095
  416MPD2    C5 6209   0.603   2.040  11.664 -0.1784  0.1333 -0.1262
  416MPD2     H 6210   0.414   2.080  11.340 -0.2181  0.2104  0.5477
  416MPD2    H1 6211   0.599   1.831  11.638 -0.5458 -0.5968 -1.7967
  416MPD2    H2 6212   0.567   2.241  11.700 -0.2383 -0.8284  1.4954
  416MPD2    H3 6213   0.664   2.029  11.753  0.8548 -2.7699 -1.1925
  416MPD2     N 6214   0.448   1.826  11.421  0.6771  0.6536 -0.1353
  416MPD2    H5 6215   0.450   1.747  11.485 -1.5113  0.0953 -0.7503
  416MPD2    N1 6216   0.418   2.304  11.479  0.0108  0.1562 -0.4807
  416MPD2    H7 6217   0.408   2.372  11.553  2.1180 -0.1890  0.1254
  417TMC3    C1 6218   0.313   2.464  11.361  1.1098  0.2365 -0.2513
  417TMC3    C2 6219   0.210   2.500  11.445 -0.4497 -0.8175 -0.0109
  417TMC3    C3 6220   0.112   2.585  11.400  0.1116  0.4802  0.4190
  417TMC3    C4 6221   0.314   2.511  11.232  0.0943  0.2369 -0.0389
  417TMC3    C5 6222   0.211   2.600  11.195  0.0757 -0.5158  0.1971
  417TMC3    C6 6223   0.117   2.645  11.275 -0.0376  0.0202 -0.3277
  417TMC3     C 6224   0.369   2.333  11.356 -0.1807 -0.3108  0.0757
  417TMC3     O 6225   0.395   2.278  11.252 -0.0325 -0.4564 -0.3259
  417TMC3     H 6226   0.202   2.449  11.540  1.1325  1.8619  1.5653
  417TMC3    H1 6227   0.372   2.467  11.152  1.7288  2.5484 -0.1473
  417TMC3    H2 6228   0.043   2.714  11.237  1.5274  1.9269  0.1297
  417TMC3    C7 6229   0.227   2.656  11.062 -0.4446 -0.0878 -0.0843
  417TMC3    C8 6230   0.033   2.641  11.509 -0.1048 -0.2098  0.2486
  417TMC3    O1 6231   0.305   2.749  11.051 -0.2896  0.0612 -0.2129
  417TMC3    O2 6232   4.641   2.666  11.490  0.1077 -0.0549 -0.5666
  418TMC3    C1 6233   4.622   3.708  17.397  0.0375  0.2118 -0.0072
  418TMC3    C2 6234   4.525   3.798  17.349  0.1822 -0.0612 -0.0171
  418TMC3    C3 6235   4.468   3.890  17.431  0.0336 -0.4900  0.1892
  418TMC3    C4 6236   4.669   3.725  17.519 -0.5026  0.0131  0.9803
  418TMC3    C5 6237   4.613   3.814  17.607  0.2128  0.2382 -0.2631
  418TMC3    C6 6238   4.508   3.888  17.565 -0.1281  0.2077  0.1373
  418TMC3     C 6239   4.690   3.623  17.301  0.3296  0.4527 -0.3122
  418TMC3     O 6240   4.719   3.667  17.196  0.1281  0.2104  0.3235
  418TMC3     H 6241   4.494   3.786  17.246  2.2420 -1.2968 -0.4878
  418TMC3    H1 6242   0.016   3.653  17.553 -0.3952 -0.6466 -0.6524
  418TMC3    H2 6243   4.458   3.946  17.642 -2.3255  0.4076 -1.4160
  418TMC3    C7 6244   4.616   3.770   0.039 -0.0246 -0.2690  0.2346
  418TMC3    C8 6245   4.331   3.931  17.410 -0.1245  0.5942 -0.6854
  418TMC3    O1 6246   4.621   3.651   0.067  0.0250  0.7969 -0.4198
  418TMC3    O2 6247   4.304   3.996  17.310 -0.6863 -0.3412  0.5069
  419MPD2     C 6248   1.944   2.152  12.721 -0.0092 -0.1840  0.0626
  419MPD2    C1 6249   1.968   2.285  12.693  0.4395  0.2581  0.1338
  419MPD2    C2 6250   1.940   2.388  12.788  0.5327 -0.1488 -0.1609
  419MPD2    C3 6251   1.898   2.350  12.914 -0.2001  0.5806  0.3523
  419MPD2    C4 6252   1.870   2.221  12.938 -0.7452 -0.8402 -0.0871
  419MPD2    C5 6253   1.890   2.124  12.846  0.1566  0.4614 -0.1493
  419MPD2     H 6254   1.953   2.494  12.768  2.0523 -0.5049 -1.0744
  419MPD2    H1 6255   1.827   2.181  13.030  1.5923 -0.6727  1.0663
  419MPD2    H2 6256   1.961   2.073  12.649  3.0703 -0.3134  0.9203
  419MPD2    H3 6257   1.860   2.023  12.867  1.6942  0.2612  1.1088
  419MPD2     N 6258   1.890   2.452  13.012  0.4171 -0.5848 -0.0612
  419MPD2    H5 6259   1.901   2.548  12.981  0.1595  0.2216  2.3224
  419MPD2    N1 6260   2.008   2.332  12.567  0.9584 -0.3494  0.3039
  419MPD2    H7 6261   2.004   2.434  12.565 -0.7479 -0.4188  0.0343
  420TMC3    C1 6262   1.834   2.560  13.218 -0.1366 -0.2759  0.5674
  420TMC3    C2 6263   1.812   2.679  13.146 -0.8154  0.3696  0.1960
  420TMC3    C3 6264   1.814   2.795  13.217 -0.4857  0.8913  0.3509
  420TMC3    C4 6265   1.864   2.557  13.351 -0.0599  0.3758 -0.4702
  420TMC3    C5 6266   1.884   2.679  13.412 -0.6759 -0.4284  0.8070
  420TMC3    C6 6267   1.855   2.794  13.349  0.8502 -0.3042 -0.5460
  420TMC3     C 6268   1.865   2.431  13.148  0.0368 -0.3270 -0.5126
  420TMC3     O 6269   1.884   2.327  13.214  0.4421  0.3446 -0.3720
  420TMC3     H 6270   1.785   2.679  13.041 -3.2585 -1.3509  0.8148
  420TMC3    H1 6271   1.899   2.465  13.397  1.7380  0.7954 -0.9963
  420TMC3    H2 6272   1.890   2.889  13.388  1.3635 -0.1304 -1.4280
  420TMC3    C7 6273   1.963   2.671  13.536 -0.8361  0.6672 -0.3969
  420TMC3    C8 6274   1.771   2.912  13.148 -0.0547 -0.5969  0.3212
  420TMC3    O1 6275   1.999   2.557  13.566 -0.1071 -0.4350 -0.5010
  420TMC3    O2 6276   1.759   2.899  13.028 -0.0159  0.6846  0.0667
  421TMC3    C1 6277   3.772   4.382  13.965 -0.5597 -0.1613  0.4582
  421TMC3    C2 6278   3.823   4.500  14.008 -0.2139 -0.0271 -0.6178
  421TMC3    C3 6279   3.946   4.492  14.060  0.2645  0.1706  0.4298
  421TMC3    C4 6280   3.838   4.258  13.968  0.5906 -0.3052 -0.4009
  421TMC3    C5 6281   3.962   4.258  14.028 -0.7151 -0.3141  0.6115
  421TMC3    C6 6282   4.021   4.379  14.068 -0.5269  0.3157  0.3726
  421TMC3     C 6283   3.630   4.385  13.924  0.6421  0.1218  0.8961
  421TMC3     O 6284   3.563   4.470  13.977 -0.1514  0.5783 -0.3563
  421TMC3     H 6285   3.775   4.596  13.995 -1.8832 -1.1529 -2.6118
  421TMC3    H1 6286   3.792   4.168  13.929 -0.1296 -0.6772  1.2738
  421TMC3    H2 6287   4.120   4.373  14.112 -0.0006 -0.7202 -0.9511
  421TMC3    C7 6288   4.028   4.135  14.064 -0.3111 -0.1424  0.5740
  421TMC3    C8 6289   3.982   4.603  14.151 -0.1115 -0.6236  0.1351
  421TMC3    O1 6290   4.145   4.152  14.096 -0.3288  1.0360 -0.0742
  421TMC3    O2 6291   3.890   4.686  14.165 -0.0260  0.0309  0.1498
  422TMC3    C1 6292   1.555   0.585  12.699  0.2171 -0.3654  0.0126
  422TMC3    C2 6293   1.490   0.694  12.658 -0.9352 -0.9955  0.4392
  422TMC3    C3 6294   1.379   0.731  12.725 -0.2545 -0.3335 -0.2293
  422TMC3    C4 6295   1.509   0.500  12.800 -0.4976  0.8331 -0.0999
  422TMC3    C5 6296   1.389   0.527  12.853  0.3723 -0.5784 -0.2359
  422TMC3    C6 6297   1.330   0.651  12.828 -1.0775  0.1536 -0.0296
  422TMC3     C 6298   1.674   0.554  12.622 -0.2296 -0.6827 -0.5083
  422TMC3     O 6299   1.723   0.649  12.558 -0.1255 -0.3953  0.3872
  422TMC3     H 6300   1.536   0.765  12.590 -1.3610  0.3703  1.5792
  422TMC3    H1 6301   1.560   0.406  12.819 -0.9179  0.4322 -0.9401
  422TMC3    H2 6302   1.246   0.684  12.888  0.1906  2.7049  0.3787
  422TMC3    C7 6303   1.354   0.455  12.970  1.0760  0.0028  0.2559
  422TMC3    C8 6304   1.319   0.857  12.697  0.0814  0.5119  0.0930
  422TMC3    O1 6305   1.447   0.391  13.018 -0.2006  0.5387 -0.7675
  422TMC3    O2 6306   1.396   0.944  12.662  0.0528  1.0948  0.4039
  423MPD2     C 6307   3.344   1.512   0.769  0.4717  0.0193 -0.1801
  423MPD2    C1 6308   3.414   1.392   0.791  0.1366  0.2569  0.3570
  423MPD2    C2 6309   3.488   1.331   0.691 -0.0484 -0.2608 -0.1800
  423MPD2    C3 6310   3.502   1.386   0.565  0.2583 -0.1551  0.2328
  423MPD2    C4 6311   3.430   1.504   0.543 -0.0345  0.2580 -0.8195
  423MPD2    C5 6312   3.359   1.568   0.645  0.5066  0.2606 -0.1340
  423MPD2     H 6313   3.537   1.236   0.709  0.6474  0.1259 -0.0221
  423MPD2    H1 6314   3.430   1.556   0.448  2.7575  1.8882  0.0759
  423MPD2    H2 6315   3.273   1.565   0.831  0.5245 -1.1915  0.9316
  423MPD2    H3 6316   3.310   1.660   0.615  1.7209  0.8401 -0.3661
  423MPD2     N 6317   3.557   1.337   0.452 -0.5635  0.3874 -0.3745
  423MPD2    H5 6318   3.553   1.393   0.367  1.2138  0.3582 -0.4779
  423MPD2    N1 6319   3.403   1.326   0.915  0.1577  0.2841 -0.1340
  423MPD2    H7 6320   3.481   1.264   0.932 -1.0134 -1.9547 -2.8122
  424TMC3    C1 6321   3.292   1.242   1.107 -0.3054 -0.2800 -0.3288
  424TMC3    C2 6322   3.404   1.182   1.150 -0.5528 -0.7652 -0.7343
  424TMC3    C3 6323   3.408   1.071   1.228  1.2406  0.3589 -0.5584
  424TMC3    C4 6324   3.175   1.187   1.151  0.2057 -0.1302 -0.2569
  424TMC3    C5 6325   3.179   1.075   1.227  0.7147  0.2031  0.4508
  424TMC3    C6 6326   3.290   1.013   1.270  0.9248  0.0815  0.0097
  424TMC3     C 6327   3.290   1.338   0.995 -0.1664  0.3396  0.0363
  424TMC3     O 6328   3.180   1.377   0.965 -0.0798 -0.0627  0.2870
  424TMC3     H 6329   3.497   1.231   1.125 -0.1649 -0.7061  0.8336
  424TMC3    H1 6330   3.080   1.229   1.120  0.1881 -0.5860 -0.8212
  424TMC3    H2 6331   3.291   0.916   1.318 -0.7560  0.5223  0.9547
  424TMC3    C7 6332   3.052   1.011   1.264  0.2510  0.1066 -1.0869
  424TMC3    C8 6333   3.534   1.012   1.272 -0.7007 -0.0073  0.3601
  424TMC3    O1 6334   2.955   1.051   1.197  0.9216 -0.2081 -0.2139
  424TMC3    O2 6335   3.636   1.036   1.209  0.1711 -0.5564  0.3937
  425MPD2     C 6336   2.675   0.696   0.250  0.3524 -0.0157  0.0346
  425MPD2    C1 6337   2.604   0.621   0.159  0.7947 -0.4060  0.6101
  425MPD2    C2 6338   2.469   0.635   0.154  0.8497 -0.2550 -0.0509
  425MPD2    C3 6339   2.401   0.720   0.237 -0.2271  0.4788 -0.3609
  425MPD2    C4 6340   2.471   0.798   0.326  0.0387 -0.2688 -0.2627
  425MPD2    C5 6341   2.605   0.795   0.318  0.0359 -0.8836  0.9867
  425MPD2     H 6342   2.414   0.571   0.085  1.7832  0.0387 -1.0836
  425MPD2    H1 6343   2.425   0.860   0.402  0.5487 -1.8611  1.3618
  425MPD2    H2 6344   2.782   0.682   0.261  0.4735  0.5608 -0.4335
  425MPD2    H3 6345   2.658   0.862   0.384  0.3806 -0.2221  0.0455
  425MPD2     N 6346   2.262   0.712   0.235  0.0892 -0.0825  0.4070
  425MPD2    H5 6347   2.213   0.642   0.179  0.5638  0.3044 -0.4957
  425MPD2    N1 6348   2.678   0.533   0.079 -0.6172  0.4391  0.5852
  425MPD2    H7 6349   2.778   0.525   0.098 -0.9084 -1.0408  1.4902
  426TMC3    C1 6350   2.715   0.380  17.598 -0.2244 -0.2158  0.4191
  426TMC3    C2 6351   2.671   0.340  17.482 -0.1940  0.2442  0.0987
  426TMC3    C3 6352   2.713   0.214  17.441 -0.0329 -0.0464  0.0797
  426TMC3    C4 6353   2.816   0.311  17.661  0.0582  0.1343  0.7042
  426TMC3    C5 6354   2.867   0.191  17.609  0.2379  0.8257  0.2653
  426TMC3    C6 6355   2.806   0.139  17.495  0.4875 -0.4686 -0.4422
  426TMC3     C 6356   2.628   0.473  17.668  0.5424  0.4677  0.6361
  426TMC3     O 6357   2.524   0.497  17.613  0.0991  0.1927 -0.0935
  426TMC3     H 6358   2.576   0.372  17.441  0.9677  3.1175 -0.3633
  426TMC3    H1 6359   2.851   0.333   0.056  0.2827 -1.4768  0.9926
  426TMC3    H2 6360   2.844   0.049  17.449  0.4384 -0.0761 -1.2427
  426TMC3    C7 6361   2.958   0.108  17.683 -0.1930 -0.1629  0.1597
  426TMC3    C8 6362   2.619   0.142  17.357  0.4482 -0.1598 -0.1640
  426TMC3    O1 6363   3.034   0.031  17.621  0.1545  0.0242 -0.1914
  426TMC3    O2 6364   2.665   0.093  17.253  0.0739  0.1894 -0.1540
  427MPD2     C 6365   0.682   2.674  14.592  0.4837 -0.2613  0.1391
  427MPD2    C1 6366   0.664   2.622  14.711  0.5459 -0.1314 -0.6599
  427MPD2    C2 6367   0.541   2.643  14.777  0.6793  0.3277  0.2291
  427MPD2    C3 6368   0.436   2.704  14.711 -0.1723  0.3408  0.2673
  427MPD2    C4 6369   0.456   2.754  14.585  0.0806 -0.0961 -0.9662
  427MPD2    C5 6370   0.580   2.746  14.529 -0.0850 -0.3946  0.4828
  427MPD2     H 6371   0.535   2.603  14.877 -1.7085 -0.5954 -0.2898
  427MPD2    H1 6372   0.370   2.784  14.526  0.3481 -0.6533 -1.6349
  427MPD2    H2 6373   0.772   2.653  14.535 -0.5855  0.0647 -1.6820
  427MPD2    H3 6374   0.587   2.771  14.424 -0.8675  1.7706  0.9385
  427MPD2     N 6375   0.311   2.727  14.782  0.0637  0.3746  0.1781
  427MPD2    H5 6376   0.235   2.763  14.725  0.8663 -1.8248 -2.2871
  427MPD2    N1 6377   0.759   2.539  14.782  0.1413  0.3566  0.2348
  427MPD2    H7 6378   0.730   2.499  14.871  2.9353 -2.6081 -0.1825
  428TMC3    C1 6379   0.954   2.437  14.859 -0.4199  0.1415 -0.3262
  428TMC3    C2 6380   0.888   2.355  14.949 -0.3907  0.1124  0.2571
  428TMC3    C3 6381   0.967   2.295  15.049 -0.6529  0.0074  0.2914
  428TMC3    C4 6382   1.091   2.447  14.862  0.4752 -0.5124 -0.3764
  428TMC3    C5 6383   1.159   2.382  14.960 -0.8054  0.8312  0.1332
  428TMC3    C6 6384   1.103   2.311  15.060  0.4860 -0.1133 -0.2440
  428TMC3     C 6385   0.889   2.507  14.748  0.1740  0.0857 -0.5799
  428TMC3     O 6386   0.949   2.535  14.645  0.0410 -0.1849  0.4157
  428TMC3     H 6387   0.779   2.352  14.954 -0.3391 -4.3495 -1.5461
  428TMC3    H1 6388   1.144   2.488  14.776  0.4290  2.2364  0.8810
  428TMC3    H2 6389   1.163   2.269  15.141  0.5605  0.0921 -0.1937
  428TMC3    C7 6390   1.296   2.416  14.984 -0.0429  0.0995 -0.6477
  428TMC3    C8 6391   0.919   2.190  15.140  0.8151  0.0896 -0.5209
  428TMC3    O1 6392   1.343   2.341  15.063 -0.0461 -0.0862 -0.1182
  428TMC3    O2 6393   0.992   2.158  15.233 -0.0109 -0.0306 -0.3115
  429MPD2     C 6394   1.395   3.025  17.428  0.0898 -0.1709  0.4710
  429MPD2    C1 6395   1.458   2.968  17.319 -0.3788  0.0816 -0.0036
  429MPD2    C2 6396   1.494   3.052  17.212 -0.1939  0.0766 -0.3967
  429MPD2    C3 6397   1.453   3.188  17.209  0.4020  0.6969  1.1479
  429MPD2    C4 6398   1.389   3.247  17.315  0.1611  1.1375  0.5301
  429MPD2    C5 6399   1.363   3.158  17.422  0.1623  0.4357 -1.2252
  429MPD2     H 6400   1.538   3.002  17.126 -0.8242 -3.1042  1.1570
  429MPD2    H1 6401   1.351   3.348  17.308  0.9897  1.5521  2.0323
  429MPD2    H2 6402   1.345   2.968  17.506 -0.6345  1.4948  1.2265
  429MPD2    H3 6403   1.309   3.199  17.507  2.8948 -0.2275  0.8242
  429MPD2     N 6404   1.495   3.252  17.092 -0.1901 -0.0042 -0.0716
  429MPD2    H5 6405   1.562   3.208  17.030 -1.5476 -0.6400 -1.0829
  429MPD2    N1 6406   1.470   2.830  17.297  0.2683  0.2721  0.3762
  429MPD2    H7 6407   1.495   2.805  17.202 -0.9854  0.4653 -0.0124
  430TMC3    C1 6408   1.510   3.415  16.930 -0.5087 -0.2673  0.0218
  430TMC3    C2 6409   1.505   3.327  16.828 -0.0069 -0.6691 -0.7419
  430TMC3    C3 6410   1.603   3.336  16.721 -0.0680  0.2620 -0.5172
  430TMC3    C4 6411   1.613   3.502  16.934  0.0011 -0.0806 -0.0453
  430TMC3    C5 6412   1.710   3.503  16.836  0.0224 -0.4915 -0.2074
  430TMC3    C6 6413   1.702   3.426  16.723  0.4417  0.1922  0.3389
  430TMC3     C 6414   1.450   3.378  17.055  0.1791  0.0868  0.4415
  430TMC3     O 6415   1.396   3.466  17.123 -0.0452  0.0299  0.1074
  430TMC3     H 6416   1.429   3.250  16.827 -1.2258  0.5448 -0.9663
  430TMC3    H1 6417   1.640   3.549  17.028 -0.8359 -1.3954  0.8521
  430TMC3    H2 6418   1.769   3.434  16.637 -0.3113 -1.6354 -0.4309
  430TMC3    C7 6419   1.837   3.566  16.870  0.4356  0.4275  0.6267
  430TMC3    C8 6420   1.585   3.258  16.607 -0.4747 -0.6017  0.3074
  430TMC3    O1 6421   1.834   3.651  16.956  0.6502 -0.5249  0.3499
  430TMC3    O2 6422   1.542   3.144  16.629 -0.0109 -0.0691 -0.2331
  431MPD2     C 6423   2.314   3.101  12.571 -0.3267  0.0907  0.0811
  431MPD2    C1 6424   2.399   3.057  12.465  0.3295 -0.0515 -0.1567
  431MPD2    C2 6425   2.365   2.937  12.407 -0.4597 -0.7960  0.5026
  431MPD2    C3 6426   2.256   2.865  12.443 -0.1898  0.0492 -0.1156
  431MPD2    C4 6427   2.175   2.916  12.541 -0.0844  1.2251 -0.8488
  431MPD2    C5 6428   2.201   3.032  12.594 -0.6222 -1.0134  0.8309
  431MPD2     H 6429   2.428   2.908  12.324  0.9761  1.5026  0.7785
  431MPD2    H1 6430   2.085   2.865  12.573  0.2178 -0.1508 -2.1975
  431MPD2    H2 6431   2.326   3.198  12.617 -0.1663 -0.1575  0.5567
  431MPD2    H3 6432   2.138   3.079  12.669 -0.9770  0.0350 -0.1229
  431MPD2     N 6433   2.226   2.731  12.392  0.7267 -0.0422  0.4011
  431MPD2    H5 6434   2.151   2.687  12.445  0.3534  1.4954  1.1431
  431MPD2    N1 6435   2.513   3.135  12.418  0.4246 -0.5811  0.5460
  431MPD2    H7 6436   2.579   3.089  12.356  0.3249  1.6705 -1.2140
  432TMC3    C1 6437   2.221   2.529  12.278  0.0801 -0.4865 -0.3451
  432TMC3    C2 6438   2.239   2.462  12.156 -0.2459 -0.3280  0.2331
  432TMC3    C3 6439   2.188   2.336  12.132  0.3276  0.0901 -1.1492
  432TMC3    C4 6440   2.156   2.458  12.378  0.5190  0.4151 -0.8816
  432TMC3    C5 6441   2.115   2.329  12.360 -0.8256  0.3503  0.6758
  432TMC3    C6 6442   2.132   2.267  12.236 -0.2754 -0.3381  0.0194
  432TMC3     C 6443   2.278   2.664  12.290 -0.4292  0.1368  0.0489
  432TMC3     O 6444   2.372   2.689  12.214 -0.0434 -0.1308 -0.7599
  432TMC3     H 6445   2.289   2.517  12.077 -0.0724 -1.2639 -0.3104
  432TMC3    H1 6446   2.157   2.508  12.474 -0.2245 -1.6748  0.2142
  432TMC3    H2 6447   2.094   2.167  12.217 -0.6374 -0.3244  0.6517
  432TMC3    C7 6448   2.044   2.252  12.462 -0.2571 -0.0378  0.1363
  432TMC3    C8 6449   2.300   2.261  12.069  0.4353 -0.7741 -0.0728
  432TMC3    O1 6450   2.021   2.131  12.445 -0.4560  0.1937 -0.0391
  432TMC3    O2 6451   2.406   2.294  12.104 -0.0752 -0.0882 -0.2961
  433MPD2     C 6452   1.243   1.115  10.845  0.0132  0.4462  0.4942
  433MPD2    C1 6453   1.238   0.997  10.920 -0.1727  0.2283  0.0709
  433MPD2    C2 6454   1.247   1.002  11.060 -0.1530 -0.3080 -0.3683
  433MPD2    C3 6455   1.264   1.119  11.123  0.5171 -0.3450 -0.1874
  433MPD2    C4 6456   1.270   1.240  11.052 -0.3290 -0.0404  0.2311
  433MPD2    C5 6457   1.256   1.240  10.911 -0.8770  0.4494  0.4347
  433MPD2     H 6458   1.253   0.912  11.120 -0.2217 -1.6346 -2.3261
  433MPD2    H1 6459   1.301   1.335  11.093 -0.8723  1.0541 -1.8690
  433MPD2    H2 6460   1.245   1.123  10.737  0.6946 -1.9361  0.3416
  433MPD2    H3 6461   1.263   1.333  10.856 -0.9732  0.0809 -0.1963
  433MPD2     N 6462   1.278   1.103  11.263  0.1668 -0.1250 -0.8408
  433MPD2    H5 6463   1.290   1.012  11.306  1.2016 -0.1274 -1.1384
  433MPD2    N1 6464   1.251   0.878  10.845  0.4438 -0.2293 -0.0379
  433MPD2    H7 6465   1.244   0.890  10.745  1.7791  0.3322 -0.0559
  434TMC3    C1 6466   1.312   0.658  10.804  0.3648 -0.2113 -0.7049
  434TMC3    C2 6467   1.376   0.557  10.874 -0.4538  0.1026 -0.1465
  434TMC3    C3 6468   1.481   0.491  10.821 -0.2768 -0.3744  0.1933
  434TMC3    C4 6469   1.359   0.688  10.682 -0.8062  1.0209 -0.2783
  434TMC3    C5 6470   1.453   0.607  10.627 -0.2004  0.0753  0.1423
  434TMC3    C6 6471   1.529   0.519  10.695  0.0097  0.4380 -0.3153
  434TMC3     C 6472   1.267   0.757  10.893  0.4404  1.1848 -0.3765
  434TMC3     O 6473   1.242   0.718  11.005  0.2457  0.0079  0.6385
  434TMC3     H 6474   1.360   0.543  10.981 -0.5805  0.8717 -0.0649
  434TMC3    H1 6475   1.303   0.765  10.631  0.5970  0.1911 -3.1202
  434TMC3    H2 6476   1.627   0.481  10.667 -1.0060 -0.7591 -2.2495
  434TMC3    C7 6477   1.454   0.602  10.483 -0.2347  0.0600 -0.3449
  434TMC3    C8 6478   1.570   0.444  10.922  0.3287 -0.2683 -0.4226
  434TMC3    O1 6479   1.362   0.654  10.421 -0.2682 -0.7311 -0.0798
  434TMC3    O2 6480   1.531   0.363  11.010 -0.2124 -0.2516  0.0814
  435MPD2     C 6481   3.677   1.774  15.728  0.1158 -0.0268  0.1221
  435MPD2    C1 6482   3.666   1.716  15.844  0.4122  0.9051 -0.4087
  435MPD2    C2 6483   3.761   1.631  15.885  0.2548  0.1041  0.1322
  435MPD2    C3 6484   3.862   1.592  15.809 -0.1941  0.4434  0.0444
  435MPD2    C4 6485   3.880   1.650  15.681 -0.1392  0.1680  0.3593
  435MPD2    C5 6486   3.787   1.743  15.642  0.4212 -0.2869 -0.2195
  435MPD2     H 6487   3.749   1.575  15.977  0.2339 -1.0150 -0.5524
  435MPD2    H1 6488   3.962   1.625  15.614 -0.1783  0.2914  0.2647
  435MPD2    H2 6489   3.607   1.846  15.689  0.4071 -0.6857 -1.6349
  435MPD2    H3 6490   3.792   1.791  15.545 -2.1121  3.3862  1.4488
  435MPD2     N 6491   3.937   1.486  15.866 -0.4243 -0.0090  0.3545
  435MPD2    H5 6492   3.923   1.465  15.965 -0.6818 -1.0322  0.1035
  435MPD2    N1 6493   3.558   1.731  15.931  0.5099  0.4353  0.6290
  435MPD2    H7 6494   3.542   1.655  15.995 -1.4587  1.2319  1.0889
  436TMC3    C1 6495   3.197   1.885  16.158 -0.3944  0.7063  0.6676
  436TMC3    C2 6496   3.279   1.915  16.053 -0.7246  0.0216  0.1988
  436TMC3    C3 6497   3.340   1.805  15.998 -0.3658  0.6281 -0.0526
  436TMC3    C4 6498   3.172   1.760  16.207  0.1003  0.4752 -0.3994
  436TMC3    C5 6499   3.230   1.655  16.143 -0.3037  0.6611 -0.6798
  436TMC3    C6 6500   3.312   1.678  16.033  1.6000 -0.3685 -0.1272
  436TMC3     C 6501   3.158   2.005  16.234 -0.0278  0.4279 -0.2761
  436TMC3     O 6502   3.203   2.112  16.194  0.0253  0.1375 -0.5133
  436TMC3     H 6503   3.314   2.012  16.020  0.1409  0.0437  1.2149
  436TMC3    H1 6504   3.121   1.745  16.301 -1.9900  2.0633 -1.2940
  436TMC3    H2 6505   3.357   1.596  15.979 -0.1519 -0.7489 -0.9933
  436TMC3    C7 6506   3.199   1.520  16.184 -0.2059  0.0486 -0.5737
  436TMC3    C8 6507   3.460   1.829  15.928 -0.6305 -0.0402  0.0552
  436TMC3    O1 6508   3.107   1.509  16.267  0.3154 -0.6229 -0.0696
  436TMC3    O2 6509   3.471   1.938  15.874 -0.6854 -0.1801  0.1140
  437TMC3    C1 6510   2.121   3.348  12.380 -0.8409  0.0639  0.5798
  437TMC3    C2 6511   2.028   3.282  12.309  1.0473  0.5141 -0.5362
  437TMC3    C3 6512   2.059   3.247  12.184  0.7977  0.4081  0.1157
  437TMC3    C4 6513   2.245   3.372  12.330  0.4461  0.2580 -0.2975
  437TMC3    C5 6514   2.272   3.338  12.202  0.5396  0.3057  0.5698
  437TMC3    C6 6515   2.184   3.272  12.123 -0.1083  0.4881 -0.5689
  437TMC3     C 6516   2.077   3.394  12.510  0.0966 -0.0506 -0.3561
  437TMC3     O 6517   1.979   3.334  12.547  0.0659  0.0294  0.0214
  437TMC3     H 6518   1.933   3.249  12.350  1.1208  0.6401 -0.2623
  437TMC3    H1 6519   2.318   3.425  12.390 -0.5656  1.2818  0.0272
  437TMC3    H2 6520   2.213   3.271  12.019  1.6789 -3.0733 -0.0391
  437TMC3    C7 6521   2.398   3.379  12.143  0.3763  0.4586 -0.4452
  437TMC3    C8 6522   1.968   3.162  12.105  0.2397 -0.2131 -0.2937
  437TMC3    O1 6523   2.430   3.316  12.044  0.1465  0.0382  0.8069
  437TMC3    O2 6524   1.861   3.129  12.148  0.3367 -0.3358  0.2074
  438MPD2     C 6525   0.151   3.809  16.227  0.9643  0.5556 -0.6201
  438MPD2    C1 6526   0.172   3.753  16.350 -0.2093  0.4022 -0.2221
  438MPD2    C2 6527   0.098   3.804  16.455 -0.0450 -0.8994  0.1041
  438MPD2    C3 6528   0.004   3.898  16.442  0.0563 -0.6063  0.6463
  438MPD2    C4 6529   4.708   3.956  16.325 -0.0428 -0.4623 -0.0073
  438MPD2    C5 6530   0.056   3.908  16.216 -0.3682 -0.0827 -0.3670
  438MPD2     H 6531   0.125   3.770  16.554  2.0822 -0.9186 -0.4810
  438MPD2    H1 6532   4.644   4.042  16.316 -0.3943 -0.6316  0.9236
  438MPD2    H2 6533   0.204   3.765  16.143 -1.7213  2.9125 -3.5026
  438MPD2    H3 6534   0.031   3.945  16.118 -2.4861  0.7295  0.4702
  438MPD2     N 6535   4.676   3.951  16.563  0.6668 -0.6400  0.6317
  438MPD2    H5 6536   4.713   3.917  16.651  0.7688  3.2479  2.0895
  438MPD2    N1 6537   0.258   3.647  16.377  0.1644 -0.4191 -0.6947
  438MPD2    H7 6538   0.259   3.635  16.478  0.4430  0.9232 -0.5386
  439TMC3    C1 6539   0.399   3.458  16.343  0.4582  0.5780 -1.0976
  439TMC3    C2 6540   0.426   3.342  16.273 -0.2586  0.1744 -0.1638
  439TMC3    C3 6541   0.498   3.251  16.343 -0.0003 -0.2720 -0.8557
  439TMC3    C4 6542   0.456   3.492  16.462 -0.3881 -0.1297  0.5552
  439TMC3    C5 6543   0.534   3.392  16.522 -0.4403  0.1120  0.2731
  439TMC3    C6 6544   0.554   3.270  16.464  0.4350 -0.5059  0.4306
  439TMC3     C 6545   0.308   3.550  16.288 -0.4055 -0.5181  0.5246
  439TMC3     O 6546   0.284   3.539  16.168 -0.2717  0.1865  0.1098
  439TMC3     H 6547   0.378   3.337  16.176  0.0782  3.9114 -0.5515
  439TMC3    H1 6548   0.459   3.593  16.501  2.1187 -0.5047  1.2970
  439TMC3    H2 6549   0.644   3.214  16.486  1.2859  0.1567 -1.3349
  439TMC3    C7 6550   0.570   3.413  16.661  0.0743 -0.0816  0.2533
  439TMC3    C8 6551   0.532   3.127  16.277  0.0369  0.0716 -0.5975
  439TMC3    O1 6552   0.578   3.527  16.705  0.5251  0.5070 -0.3017
  439TMC3    O2 6553   0.613   3.068  16.341  0.8428  0.2032  0.4081
  440MPD2     C 6554   2.783   4.426  15.178  0.6432  0.0788 -0.3277
  440MPD2    C1 6555   2.912   4.420  15.230 -0.4163 -0.7435  0.0917
  440MPD2    C2 6556   2.953   4.313  15.295 -0.5163 -0.7663 -0.0500
  440MPD2    C3 6557   2.865   4.213  15.315  0.5812 -0.5169  0.7157
  440MPD2    C4 6558   2.738   4.213  15.263 -0.5018  0.0329 -0.0713
  440MPD2    C5 6559   2.696   4.318  15.194  0.1280 -0.2118 -0.1907
  440MPD2     H 6560   3.045   4.324  15.351  0.0963 -1.1665 -0.9784
  440MPD2    H1 6561   2.676   4.125  15.272  0.4205 -0.5959  0.1399
  440MPD2    H2 6562   2.739   4.506  15.119 -0.3870  1.2312  2.0411
  440MPD2    H3 6563   2.590   4.324  15.169 -0.1333  1.6637  1.4526
  440MPD2     N 6564   2.910   4.090  15.378  1.1877 -0.0911  0.7153
  440MPD2    H5 6565   2.844   4.013  15.387  0.3198  0.8102  1.9839
  440MPD2    N1 6566   3.003   4.529  15.225 -0.3894 -0.5429  0.4393
  440MPD2    H7 6567   3.088   4.521  15.280  0.4140  0.0797 -0.7281
  441TMC3    C1 6568   3.059   3.931  15.475  0.2024 -0.0532 -0.0647
  441TMC3    C2 6569   3.171   3.880  15.425  0.1502  0.3962 -0.0409
  441TMC3    C3 6570   3.249   3.819  15.521 -0.5339  0.1004 -0.3404
  441TMC3    C4 6571   3.013   3.922  15.605 -0.1142  0.2815 -0.5448
  441TMC3    C5 6572   3.100   3.862  15.691  0.7371  0.1500  0.1574
  441TMC3    C6 6573   3.223   3.814  15.654 -0.6624 -0.1144  0.1443
  441TMC3     C 6574   3.045   4.059  15.402 -0.5072  0.6745 -0.0483
  441TMC3     O 6575   3.148   4.119  15.374 -0.6110  0.0871  0.4197
  441TMC3     H 6576   3.201   3.895  15.323  1.6501 -0.8207  0.2224
  441TMC3    H1 6577   2.930   3.982  15.639 -1.4323 -1.5139 -0.6110
  441TMC3    H2 6578   3.297   3.797  15.732 -0.4277  0.6983  0.0969
  441TMC3    C7 6579   3.078   3.889  15.831 -0.1412  0.0186  0.6464
  441TMC3    C8 6580   3.387   3.830  15.496  0.7571  0.6863  0.2318
  441TMC3    O1 6581   3.041   4.002  15.870  0.3878 -0.3476  0.4552
  441TMC3    O2 6582   3.445   3.724  15.514 -0.4060 -0.3241 -0.2656
  442MPD2     C 6583   1.758   0.534  16.901 -0.2590 -0.2914  0.3140
  442MPD2    C1 6584   1.626   0.520  16.864  0.1624  0.0797  0.4635
  442MPD2    C2 6585   1.591   0.410  16.795  0.2677  0.5996  0.4061
  442MPD2    C3 6586   1.688   0.319  16.748 -0.0975 -0.3157 -0.3945
  442MPD2    C4 6587   1.820   0.344  16.791  0.5894  0.0755 -0.4153
  442MPD2    C5 6588   1.852   0.443  16.874  0.1704  0.4270 -0.7479
  442MPD2     H 6589   1.488   0.392  16.769  0.5062 -0.7088  0.3943
  442MPD2    H1 6590   1.906   0.284  16.764  0.0366 -0.2917 -1.3601
  442MPD2    H2 6591   1.788   0.616  16.966  2.0894  0.9109 -2.2775
  442MPD2    H3 6592   1.950   0.452  16.919  0.0968  0.6662 -0.6363
  442MPD2     N 6593   1.664   0.202  16.676  0.3447 -0.1402  0.3605
  442MPD2    H5 6594   1.741   0.137  16.667  0.2514  0.3148 -3.9128
  442MPD2    N1 6595   1.522   0.604  16.903  0.2744 -0.2449  0.2715
  442MPD2    H7 6596   1.426   0.573  16.897 -0.2359  0.7279  3.0695
  443TMC3    C1 6597   1.400   0.781  16.982  0.3206 -0.1240  0.5243
  443TMC3    C2 6598   1.337   0.808  16.867  0.0268  0.2696 -0.1440
  443TMC3    C3 6599   1.203   0.826  16.866 -0.4170 -0.4091 -0.5581
  443TMC3    C4 6600   1.329   0.756  17.096  0.1509  0.0475  0.2933
  443TMC3    C5 6601   1.189   0.773  17.096  0.6515  0.4145  0.7663
  443TMC3    C6 6602   1.132   0.817  16.981  0.0112  0.2579  0.2243
  443TMC3     C 6603   1.535   0.723  16.966 -0.0331 -0.7222  0.7463
  443TMC3     O 6604   1.630   0.778  17.010  0.6695 -0.1463  0.4811
  443TMC3     H 6605   1.399   0.829  16.781 -1.7119  1.5253 -1.1040
  443TMC3    H1 6606   1.379   0.704  17.177 -3.1943 -2.6642  0.6266
  443TMC3    H2 6607   1.029   0.853  16.985  0.0548  0.3040  0.8971
  443TMC3    C7 6608   1.107   0.668  17.166  0.0159 -0.5882  0.6558
  443TMC3    C8 6609   1.140   0.768  16.749  0.2834  0.0629 -0.5468
  443TMC3    O1 6610   1.008   0.624  17.103 -0.2355 -0.2094  0.1868
  443TMC3    O2 6611   1.208   0.755  16.649  0.1711  0.2379 -0.0568
  444MPD2     C 6612   1.561   0.052  17.094  0.9051  0.4888 -0.0970
  444MPD2    C1 6613   1.523   4.658  17.157 -0.1863 -0.3432 -0.2131
  444MPD2    C2 6614   1.601   4.546  17.142 -0.8650 -0.4168  0.3708
  444MPD2    C3 6615   1.720   4.551  17.077 -0.6791 -0.2301  0.0778
  444MPD2    C4 6616   1.758   4.673  17.020  0.0997  0.5088 -0.8287
  444MPD2    C5 6617   1.676   0.055  17.022 -0.5001  0.2672 -0.4282
  444MPD2     H 6618   1.572   4.454  17.192  2.2707 -1.3634  0.4286
  444MPD2    H1 6619   1.854   4.677  16.969  0.2093  0.1492 -0.6498
  444MPD2    H2 6620   1.504   0.144  17.097 -0.3196 -0.2688  0.0269
  444MPD2    H3 6621   1.700   0.148  16.972  1.0340  0.6957  1.1213
  444MPD2     N 6622   1.795   4.438  17.070  0.3682 -0.0734  0.5211
  444MPD2    H5 6623   1.738   4.358  17.095 -1.5703  2.0172  2.7972
  444MPD2    N1 6624   1.403   4.654  17.236  0.4895  0.0673 -0.0922
  444MPD2    H7 6625   1.383   4.571  17.290 -1.8957  0.8251  0.1906
  445TMC3    C1 6626   1.973   4.298  16.995  0.5312  0.0380  0.5106
  445TMC3    C2 6627   1.885   4.201  16.964 -0.0038 -0.6173 -0.5162
  445TMC3    C3 6628   1.939   4.078  16.938 -0.3974  0.0615  0.3448
  445TMC3    C4 6629   2.111   4.277  16.995 -0.1402  0.1969  0.0818
  445TMC3    C5 6630   2.152   4.147  16.989  0.3142 -0.1606 -0.6214
  445TMC3    C6 6631   2.067   4.044  16.967  0.1635 -0.6002 -0.2605
  445TMC3     C 6632   1.928   4.430  17.032 -0.1576  0.0535  0.0495
  445TMC3     O 6633   2.012   4.521  17.019  0.3977  0.1457 -0.0969
  445TMC3     H 6634   1.778   4.217  16.960  0.0510 -0.0172  0.3454
  445TMC3    H1 6635   2.181   4.360  16.999 -2.4154  2.1113  0.1694
  445TMC3    H2 6636   2.103   3.942  16.965  0.4700 -0.5328  1.4690
  445TMC3    C7 6637   2.283   4.139  16.928  0.8711 -0.1505 -0.2429
  445TMC3    C8 6638   1.868   4.007  16.829  0.4510  0.6721 -0.3074
  445TMC3    O1 6639   2.286   4.058  16.836  0.3876 -0.2183  0.1697
  445TMC3    O2 6640   1.743   4.010  16.819  0.1632 -0.1115  0.3840
  446MPD2     C 6641   1.239   0.170  11.361 -0.2217 -0.6690 -0.0093
  446MPD2    C1 6642   1.208   0.255  11.253 -0.2854 -0.0537  0.6037
  446MPD2    C2 6643   1.285   0.369  11.236  0.4491 -0.6131  0.3425
  446MPD2    C3 6644   1.387   0.402  11.325 -0.5252 -0.3694  1.0749
  446MPD2    C4 6645   1.408   0.319  11.438 -0.1273  0.1675  0.4573
  446MPD2    C5 6646   1.334   0.205  11.452 -0.3791  0.3072  0.1043
  446MPD2     H 6647   1.270   0.429  11.147 -0.1663 -0.8971  0.2461
  446MPD2    H1 6648   1.472   0.345  11.521 -0.1548  1.7642 -0.0184
  446MPD2    H2 6649   1.176   0.083  11.379  0.4790 -1.5095 -1.5401
  446MPD2    H3 6650   1.346   0.151  11.545  0.1458  0.2195 -0.0145
  446MPD2     N 6651   1.470   0.516  11.304 -0.5220  0.2111 -0.6036
  446MPD2    H5 6652   1.454   0.560  11.214 -0.5811  0.5135 -0.4451
  446MPD2    N1 6653   1.116   0.219  11.152  0.3316  0.1189 -0.2690
  446MPD2    H7 6654   1.099   0.283  11.075  0.0714  0.4651  0.0745
  447TMC3    C1 6655   1.639   0.690  11.327  0.0778 -0.4907 -0.0951
  447TMC3    C2 6656   1.616   0.725  11.196  0.4004 -0.2040 -0.3557
  447TMC3    C3 6657   1.705   0.799  11.125  0.2609  0.2283 -0.0389
  447TMC3    C4 6658   1.762   0.722  11.378 -0.6041  0.2332 -0.3044
  447TMC3    C5 6659   1.857   0.779  11.308 -0.6632  0.2072 -0.1860
  447TMC3    C6 6660   1.824   0.827  11.186  0.1938 -0.6971  0.3443
  447TMC3     C 6661   1.570   0.567  11.381 -0.8523 -0.2064 -0.1069
  447TMC3     O 6662   1.623   0.516  11.477  0.1510  0.0466  0.1272
  447TMC3     H 6663   1.519   0.698  11.156  0.1466  0.6239 -0.2959
  447TMC3    H1 6664   1.792   0.674  11.470  0.3663 -2.9837 -2.2870
  447TMC3    H2 6665   1.887   0.897  11.132 -0.3855  0.1136  0.7161
  447TMC3    C7 6666   1.997   0.788  11.366  0.7557 -0.3100  0.8043
  447TMC3    C8 6667   1.671   0.842  10.989  0.0094  0.2226 -0.1053
  447TMC3    O1 6668   2.084   0.835  11.289 -0.2062 -0.8927 -0.3545
  447TMC3    O2 6669   1.561   0.807  10.948  0.7020  0.7150 -0.6383
  448TMC3    C1 6670   0.323   1.112  17.191  0.0514  0.2089  0.1221
  448TMC3    C2 6671   0.254   1.025  17.119 -1.0470  0.0856 -0.6887
  448TMC3    C3 6672   0.207   0.907  17.186  0.0515  0.3764 -0.1788
  448TMC3    C4 6673   0.341   1.095  17.333  0.0403 -0.2057  0.4528
  448TMC3    C5 6674   0.276   0.985  17.388 -0.9217 -0.2007  0.3925
  448TMC3    C6 6675   0.213   0.884  17.320 -0.4561  0.6705 -0.0018
  448TMC3     C 6676   0.408   1.208  17.123  0.1421  0.5829 -0.0886
  448TMC3     O 6677   0.513   1.225  17.181 -0.1428  0.3015 -0.6227
  448TMC3     H 6678   0.252   1.027  17.011  0.5219  2.2350 -0.6773
  448TMC3    H1 6679   0.405   1.167  17.383 -0.7149 -0.2668  1.5021
  448TMC3    H2 6680   0.167   0.798  17.367  1.5610 -1.9441 -2.7214
  448TMC3    C7 6681   0.286   0.969  17.530  0.4208 -0.1885  0.4434
  448TMC3    C8 6682   0.182   0.788  17.116 -0.2567  0.0796 -0.4967
  448TMC3    O1 6683   0.282   1.072  17.596 -0.2921 -0.4776  0.4188
  448TMC3    O2 6684   0.192   0.697  17.195 -0.2510  0.1835  0.5111
  449MPD2     C 6685   0.840   3.918  14.382  0.0104  0.4304 -0.1691
  449MPD2    C1 6686   0.823   3.978  14.256 -0.5572  0.0792 -0.1383
  449MPD2    C2 6687   0.730   3.918  14.166 -0.0420 -0.0664 -0.7571
  449MPD2    C3 6688   0.654   3.808  14.199  0.5537 -0.3402 -0.3509
  449MPD2    C4 6689   0.669   3.755  14.326  0.0277  0.5525 -0.3542
  449MPD2    C5 6690   0.764   3.804  14.412  1.0552  0.1090 -0.7265
  449MPD2     H 6691   0.689   3.970  14.080 -2.9415  0.6445  1.0566
  449MPD2    H1 6692   0.599   3.675  14.347  2.3087 -1.2332  0.4182
  449MPD2    H2 6693   0.907   3.964  14.454  0.6753  2.1180 -1.8616
  449MPD2    H3 6694   0.788   3.752  14.504  2.1775 -1.1098 -1.7115
  449MPD2     N 6695   0.560   3.754  14.100  0.4261  0.0330 -0.2616
  449MPD2    H5 6696   0.566   3.800  14.010 -0.2315  0.7749  0.0684
  449MPD2    N1 6697   0.871   4.095  14.207  0.1602 -0.4803 -0.0349
  449MPD2    H7 6698   0.835   4.129  14.118 -0.2975  0.4355  0.5027
  450TMC3    C1 6699   0.950   4.318  14.217 -0.2027  0.5132  1.2868
  450TMC3    C2 6700   1.056   4.364  14.149  0.2507  0.4761  0.6114
  450TMC3    C3 6701   1.028   4.411  14.022  0.2886  0.1382 -0.5251
  450TMC3    C4 6702   0.830   4.328  14.155 -0.6207  0.4640 -0.0308
  450TMC3    C5 6703   0.806   4.393  14.039 -1.1373 -0.0184  0.4206
  450TMC3    C6 6704   0.913   4.424  13.958  0.0343 -0.3113 -0.4060
  450TMC3     C 6705   0.951   4.185  14.276 -0.8225  0.8405 -0.2601
  450TMC3     O 6706   1.004   4.168  14.387  0.1670 -0.1444  0.2111
  450TMC3     H 6707   1.154   4.342  14.190  0.3303  2.3078  1.3846
  450TMC3    H1 6708   0.737   4.297  14.201 -0.2487 -2.1397 -1.0930
  450TMC3    H2 6709   0.905   4.482  13.867  2.0698  0.0997 -0.3059
  450TMC3    C7 6710   0.679   4.369  13.976  0.0943 -0.2362 -0.6212
  450TMC3    C8 6711   1.139   4.456  13.945  0.1730  0.4525 -0.5824
  450TMC3    O1 6712   0.596   4.302  14.035 -0.1044  0.0656 -0.1026
  450TMC3    O2 6713   1.125   4.567  13.893 -0.0654  0.2043  0.8361
  451MPD2     C 6714   2.324   2.265   1.656  0.6495 -0.4520 -1.0433
  451MPD2    C1 6715   2.366   2.322   1.544  0.4920  0.4696 -0.2156
  451MPD2    C2 6716   2.457   2.248   1.476  0.3482 -0.1351 -0.2833
  451MPD2    C3 6717   2.495   2.126   1.508  0.4252 -0.5419 -0.1133
  451MPD2    C4 6718   2.453   2.068   1.626  0.4061 -0.6046 -0.0419
  451MPD2    C5 6719   2.368   2.141   1.697  0.5290  0.2696 -0.0010
  451MPD2     H 6720   2.504   2.294   1.389 -1.8422 -0.2206 -1.5131
  451MPD2    H1 6721   2.483   1.970   1.662  2.1386  0.2104  0.7154
  451MPD2    H2 6722   2.257   2.316   1.724 -0.4507 -0.3504 -2.2178
  451MPD2    H3 6723   2.332   2.099   1.790 -1.0161  3.2270  0.7370
  451MPD2     N 6724   2.589   2.050   1.428  0.7286  0.0027 -0.5093
  451MPD2    H5 6725   2.616   1.959   1.463  0.8818 -0.9562 -3.0788
  451MPD2    N1 6726   2.330   2.454   1.518  0.2827  0.2840 -0.7178
  451MPD2    H7 6727   2.265   2.495   1.584 -0.6885 -2.1330 -0.1929
  452TMC3    C1 6728   2.765   2.012   1.260  0.1693  0.5135 -0.4659
  452TMC3    C2 6729   2.833   1.919   1.337  0.2531 -0.3031  0.0885
  452TMC3    C3 6730   2.972   1.910   1.304 -0.8116 -0.2645  0.1485
  452TMC3    C4 6731   2.822   2.072   1.151  0.5852 -0.0535 -0.6983
  452TMC3    C5 6732   2.955   2.050   1.133  0.0358 -0.2452 -0.3205
  452TMC3    C6 6733   3.038   1.979   1.209 -0.0427  0.1020  0.4081
  452TMC3     C 6734   2.637   2.084   1.305 -0.0038  0.0704  0.0471
  452TMC3     O 6735   2.598   2.171   1.225 -0.0994 -0.0046 -0.4730
  452TMC3     H 6736   2.781   1.875   1.421  0.4649  1.3988  1.1309
  452TMC3    H1 6737   2.768   2.136   1.082 -1.7625 -0.5537  0.6437
  452TMC3    H2 6738   3.139   1.947   1.183 -0.6128 -1.4318  0.0818
  452TMC3    C7 6739   3.018   2.138   1.035 -0.3250 -0.5099  0.3069
  452TMC3    C8 6740   3.054   1.839   1.401 -0.9342  0.3750  0.6853
  452TMC3    O1 6741   2.945   2.179   0.951  0.0689  0.1479 -0.5891
  452TMC3    O2 6742   3.175   1.866   1.410 -0.0026  0.5735 -0.0772
  453TMC3    C1 6743   3.965   0.135  11.961 -0.5397 -0.2943 -0.3615
  453TMC3    C2 6744   3.897   0.055  12.048  0.5487 -0.4231 -0.9739
  453TMC3    C3 6745   3.817   4.684  11.996  0.1518  0.1066  0.1256
  453TMC3    C4 6746   3.946   0.121  11.827  0.8179 -0.0046 -0.6660
  453TMC3    C5 6747   3.851   0.036  11.787  0.1769  0.0050 -0.2769
  453TMC3    C6 6748   3.796   4.667  11.866 -0.2861  0.3792 -0.3740
  453TMC3     C 6749   4.101   0.173  12.000  0.0059 -0.0108  0.1832
  453TMC3     O 6750   4.183   0.186  11.910 -0.2490 -0.0562 -0.0289
  453TMC3     H 6751   3.917   0.052  12.154  0.2697  0.7988 -0.8843
  453TMC3    H1 6752   4.005   0.172  11.752  0.9901  1.1419  0.2544
  453TMC3    H2 6753   3.727   4.590  11.834  0.3558 -0.4560  0.2321
  453TMC3    C7 6754   3.851   0.004  11.642  0.4247  0.2256  0.0675
  453TMC3    C8 6755   3.809   4.568  12.081  0.2191 -0.4155  1.0596
  453TMC3    O1 6756   3.827   4.620  11.596  0.3588  0.0354 -0.4517
  453TMC3    O2 6757   3.776   4.584  12.202  0.4988  0.1051  0.1009
  454MPD2     C 6758   2.532   4.718  16.046  0.3122  0.0558 -0.5003
  454MPD2    C1 6759   2.545   4.588  16.094 -1.0964  0.5141  0.0504
  454MPD2    C2 6760   2.561   4.561  16.230 -0.4137 -0.4466 -1.1838
  454MPD2    C3 6761   2.560   4.665  16.325  0.5788  0.8075 -0.8155
  454MPD2    C4 6762   2.552   0.066  16.272 -0.0054 -0.1043  0.2798
  454MPD2    C5 6763   2.549   0.095  16.136  0.0299  0.1863 -0.4431
  454MPD2     H 6764   2.586   4.457  16.250 -0.2600 -0.3081 -0.6499
  454MPD2    H1 6765   2.550   0.155  16.335 -0.5481  0.8610 -1.1060
  454MPD2    H2 6766   2.509   0.020  15.944  0.8351  1.6779 -0.1758
  454MPD2    H3 6767   2.546   0.198  16.102 -0.0072  0.8829  1.7325
  454MPD2     N 6768   2.531   4.634  16.461  0.2169  0.1439 -0.2626
  454MPD2    H5 6769   2.515   4.708  16.529 -3.3429  0.2705 -1.2377
  454MPD2    N1 6770   2.532   4.476  16.004 -0.1463  0.6025  0.2794
  454MPD2    H7 6771   2.519   4.392  16.060 -1.2914  0.8463  0.3706
  455TMC3    C1 6772   2.421   4.488  16.619 -0.2231 -0.3769  0.0621
  455TMC3    C2 6773   2.435   4.577  16.725  0.6009  0.4798  0.5373
  455TMC3    C3 6774   2.326   4.599  16.809 -0.2111  0.3436  0.2472
  455TMC3    C4 6775   2.300   4.423  16.600 -0.6064  0.3575 -0.4898
  455TMC3    C5 6776   2.196   4.453  16.676 -0.3455  0.3967  0.5711
  455TMC3    C6 6777   2.203   4.536  16.785 -0.3969 -0.0715  0.4954
  455TMC3     C 6778   2.508   4.500  16.503  0.5242  0.0208  0.2962
  455TMC3     O 6779   2.507   4.392  16.441 -0.1852  0.0926 -0.2115
  455TMC3     H 6780   2.523   4.640  16.733  1.0539  0.2547 -2.6371
  455TMC3    H1 6781   2.293   4.350  16.520  2.2578  0.3805 -0.7699
  455TMC3    H2 6782   2.122   4.585  16.836 -1.2879 -1.3467  0.2911
  455TMC3    C7 6783   2.062   4.414  16.633 -0.1241 -1.2545 -0.0151
  455TMC3    C8 6784   2.355   4.665  16.934  0.4338 -0.2463 -0.0149
  455TMC3    O1 6785   1.966   4.449  16.702 -0.3467  0.4273 -0.0839
  455TMC3    O2 6786   2.455   0.008  16.931  0.2269 -0.0261  0.0386
  456MPD2     C 6787   0.267   4.159  16.512  0.5283 -0.4392  0.3817
  456MPD2    C1 6788   0.385   4.184  16.577  0.3278 -0.0285 -0.0979
  456MPD2    C2 6789   0.391   4.280  16.671 -0.2840  0.1316 -0.3841
  456MPD2    C3 6790   0.280   4.354  16.714  0.3859 -0.0536  0.3581
  456MPD2    C4 6791   0.163   4.332  16.644  0.7348 -0.0728  1.0174
  456MPD2    C5 6792   0.154   4.232  16.545  0.6085  0.6142 -0.2590
  456MPD2     H 6793   0.484   4.310  16.717  0.5201 -0.7002 -1.4588
  456MPD2    H1 6794   0.071   4.386  16.663  1.0970  0.6967  0.5845
  456MPD2    H2 6795   0.254   4.066  16.458 -1.6782  0.9822 -1.5611
  456MPD2    H3 6796   0.058   4.213  16.497 -1.4524 -0.5036  4.2256
  456MPD2     N 6797   0.297   4.448  16.812 -0.0913 -0.1827  0.3549
  456MPD2    H5 6798   0.386   4.451  16.860  0.0614  1.3879 -0.0168
  456MPD2    N1 6799   0.494   4.112  16.530  0.0786  0.5991 -0.4501
  456MPD2    H7 6800   0.480   4.056  16.446  0.2041  0.1218 -0.1561
  457TMC3    C1 6801   0.247   4.626  16.959 -0.7578  0.5767  0.7990
  457TMC3    C2 6802   0.196   0.026  16.942  0.3480  0.3828 -0.4571
  457TMC3    C3 6803   0.222   0.123  17.034  0.6605  0.2901  0.1112
  457TMC3    C4 6804   0.307   4.592  17.075  0.8037 -0.5677  0.3475
  457TMC3    C5 6805   0.320   4.687  17.170  0.5508  0.3225 -0.4778
  457TMC3    C6 6806   0.280   0.088  17.149 -0.1282 -0.3367  0.2704
  457TMC3     C 6807   0.200   4.536  16.850  0.6510  0.3547 -1.2047
  457TMC3     O 6808   0.085   4.555  16.815 -0.1361  0.1255 -0.2820
  457TMC3     H 6809   0.145   0.046  16.849  0.2103  1.2375 -0.1950
  457TMC3    H1 6810   0.339   4.490  17.097  0.7845 -0.7369 -0.4139
  457TMC3    H2 6811   0.289   0.166  17.224  1.3914 -1.2442  1.0349
  457TMC3    C7 6812   0.387   4.651  17.299  0.1022  0.1097 -0.2399
  457TMC3    C8 6813   0.209   0.264  17.015  0.5441 -0.0497 -0.2042
  457TMC3    O1 6814   0.416   4.535  17.328  0.5055 -0.3419  0.1858
  457TMC3    O2 6815   0.173   0.336  17.109  0.7366  0.1414 -0.3070
  458MPD2     C 6816   2.868   3.584  12.170  0.0465  0.4440 -0.0034
  458MPD2    C1 6817   2.796   3.616  12.282  0.4456  0.0262  0.2599
  458MPD2    C2 6818   2.659   3.583  12.292 -0.1013  0.0285  0.2417
  458MPD2    C3 6819   2.603   3.511  12.189  0.5915  0.4301  0.6252
  458MPD2    C4 6820   2.683   3.468  12.084 -0.4984  0.2430 -0.1330
  458MPD2    C5 6821   2.813   3.513  12.070  0.3668 -0.4188  0.2169
  458MPD2     H 6822   2.595   3.630  12.365 -1.8067 -1.2550 -0.4201
  458MPD2    H1 6823   2.636   3.409  12.006 -0.1084  0.7642 -0.7611
  458MPD2    H2 6824   2.970   3.611  12.146 -0.1681  1.5367  0.3333
  458MPD2    H3 6825   2.871   3.490  11.982 -1.7495 -1.3009 -0.9425
  458MPD2     N 6826   2.467   3.471  12.218 -0.1797  0.1931 -0.7685
  458MPD2    H5 6827   2.420   3.528  12.288  1.0466 -0.1912  0.3754
  458MPD2    N1 6828   2.864   3.681  12.387 -0.6481  0.1787  0.4041
  458MPD2    H7 6829   2.957   3.715  12.366 -0.5532  0.5064  1.3491
  459TMC3    C1 6830   2.916   3.764  12.601 -0.2687 -0.1268  0.1330
  459TMC3    C2 6831   3.028   3.834  12.555 -0.3926  0.3202 -0.0850
  459TMC3    C3 6832   3.107   3.895  12.658 -0.0051  0.1250  0.4112
  459TMC3    C4 6833   2.890   3.748  12.735  0.1491  0.0765  0.1447
  459TMC3    C5 6834   2.976   3.807  12.827  0.1492  0.3463 -0.1662
  459TMC3    C6 6835   3.079   3.886  12.792 -0.3201 -0.0071 -0.8429
  459TMC3     C 6836   2.818   3.701  12.515 -0.3049 -0.8600  0.3873
  459TMC3     O 6837   2.715   3.665  12.569 -0.0485 -0.5970  0.4014
  459TMC3     H 6838   3.054   3.843  12.450 -1.3688  1.3951 -0.2318
  459TMC3    H1 6839   2.805   3.689  12.766  0.1612  0.1514  0.3214
  459TMC3    H2 6840   3.154   3.921  12.863 -0.4820 -0.9719 -0.1966
  459TMC3    C7 6841   2.949   3.767  12.968  0.5055  0.7483  0.0851
  459TMC3    C8 6842   3.220   3.971  12.600 -1.2586  0.2572  0.4722
  459TMC3    O1 6843   2.890   3.661  12.977 -0.6170 -0.0641  0.3790
  459TMC3    O2 6844   3.243   3.960  12.481  0.1349  0.2522 -0.0092
  460MPD2     C 6845   1.853   1.052  10.738 -0.0623  0.8725 -0.5265
  460MPD2    C1 6846   1.743   1.002  10.808  0.1921  0.0908 -0.0567
  460MPD2    C2 6847   1.622   1.002  10.749  0.3457 -0.1986  0.1742
  460MPD2    C3 6848   1.603   1.072  10.629 -0.3148 -0.1946  0.3672
  460MPD2    C4 6849   1.708   1.132  10.568  0.5030  0.4563 -0.1201
  460MPD2    C5 6850   1.835   1.125  10.624  0.5773  0.2875  0.5392
  460MPD2     H 6851   1.536   0.981  10.812 -1.3082  1.6546 -1.4676
  460MPD2    H1 6852   1.706   1.185  10.473  3.2076  0.8849  0.0648
  460MPD2    H2 6853   1.952   1.054  10.782 -0.4563  1.6860  0.3137
  460MPD2    H3 6854   1.916   1.180  10.578  0.2865  1.3632  1.3152
  460MPD2     N 6855   1.480   1.072  10.567 -0.1013  0.1612 -0.0560
  460MPD2    H5 6856   1.420   0.998  10.602  2.2064 -1.0869  1.2471
  460MPD2    N1 6857   1.763   0.932  10.932  0.3372  0.0024  0.2401
  460MPD2    H7 6858   1.854   0.933  10.977  0.1826  1.6797  0.4896
  461TMC3    C1 6859   1.345   1.091  10.384 -0.1641  0.1157 -0.0572
  461TMC3    C2 6860   1.373   0.963  10.339  0.6870 -0.2484 -0.3184
  461TMC3    C3 6861   1.350   0.939  10.210  0.3064  0.3704 -0.7758
  461TMC3    C4 6862   1.289   1.181  10.307 -0.5975  0.3788 -0.0997
  461TMC3    C5 6863   1.254   1.149  10.184 -0.6051 -0.1000  0.0523
  461TMC3    C6 6864   1.276   1.026  10.135 -0.1933  1.1453  0.3094
  461TMC3     C 6865   1.446   1.154  10.468  0.5609 -0.5818 -0.1757
  461TMC3     O 6866   1.467   1.274  10.460 -0.8295  0.1280 -0.1550
  461TMC3     H 6867   1.456   0.912  10.387  0.3957 -0.2087  0.2340
  461TMC3    H1 6868   1.269   1.277  10.353 -0.2628  0.3902  0.0228
  461TMC3    H2 6869   1.260   1.012  10.028 -2.8464 -0.2215  0.8848
  461TMC3    C7 6870   1.187   1.254  10.098 -0.3067 -0.2814  0.4258
  461TMC3    C8 6871   1.464   0.881  10.149 -0.5443 -0.4755  0.7035
  461TMC3    O1 6872   1.113   1.220  10.009  0.4604 -0.0396 -0.6058
  461TMC3    O2 6873   1.560   0.953  10.166 -0.2164 -0.2412 -0.0921
  462TMC3    C1 6874   1.704   2.645   0.410  0.4469  0.1252  0.2130
  462TMC3    C2 6875   1.693   2.613   0.278  0.2858  0.4452  0.2321
  462TMC3    C3 6876   1.753   2.510   0.235 -0.4635  0.3838  0.0319
  462TMC3    C4 6877   1.768   2.562   0.505  0.2006 -1.0156  0.2971
  462TMC3    C5 6878   1.821   2.453   0.443  0.3552 -0.1716 -0.6880
  462TMC3    C6 6879   1.812   2.412   0.307 -0.0645 -0.8259 -0.2236
  462TMC3     C 6880   1.639   2.766   0.451 -0.1356 -0.5396 -0.3512
  462TMC3     O 6881   1.681   2.827   0.551  0.2967  0.1988  0.4778
  462TMC3     H 6882   1.670   2.689   0.204  1.5776  1.3732  0.7798
  462TMC3    H1 6883   1.792   2.600   0.603 -0.4976 -0.0307  0.0881
  462TMC3    H2 6884   1.861   2.323   0.269  3.3546  1.4353 -1.1069
  462TMC3    C7 6885   1.874   2.340   0.520  0.1204  0.0228 -0.2401
  462TMC3    C8 6886   1.734   2.484   0.091 -0.2917 -0.4435  0.2530
  462TMC3    O1 6887   1.847   2.226   0.487 -0.0201 -0.4633 -0.0055
  462TMC3    O2 6888   1.644   2.537   0.034 -0.5101 -0.2976  0.3220
  463MPD2     C 6889   3.192   0.164   3.051 -0.1873  0.2122 -0.0295
  463MPD2    C1 6890   3.172   0.214   2.927  0.0937 -0.3274 -0.5986
  463MPD2    C2 6891   3.263   0.298   2.871 -0.3926  0.1428  0.5373
  463MPD2    C3 6892   3.377   0.339   2.931  0.4764  0.1837  0.2401
  463MPD2    C4 6893   3.391   0.304   3.062 -0.4886 -0.1283 -0.1757
  463MPD2    C5 6894   3.303   0.211   3.118  0.3462 -0.3356 -0.3272
  463MPD2     H 6895   3.237   0.319   2.768 -0.5763 -1.9909  0.1422
  463MPD2    H1 6896   3.473   0.340   3.123 -0.3511  0.9923 -1.0177
  463MPD2    H2 6897   3.127   0.094   3.103 -2.5063  2.0847 -0.4366
  463MPD2    H3 6898   3.301   0.185   3.224  1.8273 -2.2419 -0.7742
  463MPD2     N 6899   3.472   0.426   2.868 -0.2839 -0.4288 -0.2078
  463MPD2    H5 6900   3.563   0.448   2.908  0.6636 -1.4618 -1.7915
  463MPD2    N1 6901   3.064   0.178   2.842 -0.0889  0.2081 -0.0448
  463MPD2    H7 6902   3.056   0.221   2.751  0.1535  2.6079  1.0662
  464TMC3    C1 6903   2.912   0.019   2.747  0.0517 -0.4708  0.0572
  464TMC3    C2 6904   2.950   0.075   2.630 -0.0010 -0.7700 -0.8091
  464TMC3    C3 6905   2.876   0.055   2.517 -0.2729 -0.6340  0.1567
  464TMC3    C4 6906   2.788   4.685   2.760  0.2486 -0.2899 -0.0920
  464TMC3    C5 6907   2.712   4.675   2.653 -0.3318  1.2206  0.4724
  464TMC3    C6 6908   2.755   4.713   2.531  0.4266  1.1769  0.1413
  464TMC3     C 6909   2.978   0.072   2.868 -0.0947 -0.3195  0.0064
  464TMC3     O 6910   2.961   0.012   2.970 -0.7069  0.1767  0.4595
  464TMC3     H 6911   3.057   0.086   2.614 -0.2645  1.1999 -1.2130
  464TMC3    H1 6912   2.748   4.633   2.847 -0.2827 -0.0026 -0.1670
  464TMC3    H2 6913   2.687   4.714   2.446 -0.1421 -0.5774  0.5801
  464TMC3    C7 6914   2.591   4.599   2.673 -0.7265  0.0513 -0.6691
  464TMC3    C8 6915   2.922   0.088   2.381  0.3670  0.5195 -1.0523
  464TMC3    O1 6916   2.538   4.605   2.781 -0.1034 -0.1491 -0.2716
  464TMC3    O2 6917   2.849   0.059   2.286  0.0291  0.5906 -0.0912
  465MPD2     C 6918   4.505   4.428  16.646  0.0880  0.3912  0.3584
  465MPD2    C1 6919   4.374   4.401  16.674  0.1782  0.4799  0.1350
  465MPD2    C2 6920   4.283   4.414  16.570  0.6568  0.2360 -0.2236
  465MPD2    C3 6921   4.317   4.458  16.444  0.1552 -0.0764  0.1557
  465MPD2    C4 6922   4.452   4.473  16.416  0.9061  0.2687  0.3787
  465MPD2    C5 6923   4.546   4.449  16.514 -0.1070 -1.3193 -0.1337
  465MPD2     H 6924   4.177   4.396  16.585  1.0278 -0.1172  1.9898
  465MPD2    H1 6925   4.494   4.482  16.316  0.3515  0.3029  0.1484
  465MPD2    H2 6926   4.583   4.419  16.721  0.3419 -0.8569 -0.0549
  465MPD2    H3 6927   4.652   4.453  16.496 -0.2511  0.7964 -0.4808
  465MPD2     N 6928   4.216   4.486  16.350  0.2613 -0.0108  0.4984
  465MPD2    H5 6929   4.120   4.460  16.368  1.4646 -3.8381  1.3462
  465MPD2    N1 6930   4.314   4.369  16.800 -0.0730  0.3008  0.1261
  465MPD2    H7 6931   4.214   4.354  16.791  0.2114 -1.0796 -0.7659
  466TMC3    C1 6932   3.883   4.615  16.173  0.2275  0.2204  0.1527
  466TMC3    C2 6933   3.881   0.027  16.150 -0.4198 -0.1576  0.2602
  466TMC3    C3 6934   4.003   0.088  16.140  0.2567  0.0862  0.0797
  466TMC3    C4 6935   3.999   4.547  16.199 -0.1007  0.1410  0.4027
  466TMC3    C5 6936   4.116   4.612  16.173 -1.0785  0.2000 -0.2534
  466TMC3    C6 6937   4.123   0.020  16.145 -0.8061 -0.4197  0.2597
  466TMC3     C 6938   3.763   4.551  16.234 -0.4071  0.1293 -0.0239
  466TMC3     O 6939   3.789   4.458  16.307  0.4088 -0.1028 -0.0849
  466TMC3     H 6940   3.789   0.085  16.148 -0.2145  0.1854  1.1843
  466TMC3    H1 6941   4.005   4.440  16.210  0.7774  0.1992  0.4920
  466TMC3    H2 6942   4.217   0.074  16.134 -1.3338  0.3148 -0.6178
  466TMC3    C7 6943   4.235   4.565  16.237 -1.2991  0.4160 -0.1705
  466TMC3    C8 6944   4.009   0.230  16.158 -0.3986 -0.0177  0.3746
  466TMC3    O1 6945   4.336   4.625  16.202 -0.2135 -0.0642  0.1444
  466TMC3    O2 6946   4.098   0.303  16.119  0.2804  0.0464  0.1811
  467TMC3    C1 6947   4.515   3.256  13.805 -0.0161  0.1956  0.1110
  467TMC3    C2 6948   4.608   3.336  13.736  0.1984 -0.0133 -0.1469
  467TMC3    C3 6949   4.574   3.458  13.708 -0.1891 -0.0712  0.3016
  467TMC3    C4 6950   4.394   3.304  13.849  0.0112 -0.6183 -0.0288
  467TMC3    C5 6951   4.369   3.434  13.814  0.4753  0.7581  0.0323
  467TMC3    C6 6952   4.457   3.522  13.749  0.0271 -0.2311 -1.1462
  467TMC3     C 6953   4.531   3.113  13.800 -0.1301  0.1425  0.4417
  467TMC3     O 6954   4.430   3.053  13.776  0.0015 -0.3576 -0.4032
  467TMC3     H 6955   4.692   3.300  13.677 -0.3234 -0.9921 -0.2915
  467TMC3    H1 6956   4.333   3.233  13.903  1.0811 -1.2943  0.3014
  467TMC3    H2 6957   4.424   3.620  13.718 -2.2584 -0.3520  0.8581
  467TMC3    C7 6958   4.230   3.479  13.807 -0.9945  0.2903 -0.0853
  467TMC3    C8 6959   4.671   3.560  13.653 -0.0416  0.2707 -0.0371
  467TMC3    O1 6960   4.203   3.540  13.707  0.3886  0.2631  0.5404
  467TMC3    O2 6961   4.627   3.672  13.617 -0.6676  0.0663  0.0437
  468MPD2     C 6962   3.983   0.786  10.689  0.1573  1.0145  0.7629
  468MPD2    C1 6963   3.962   0.758  10.824 -0.3383 -0.3161  0.3849
  468MPD2    C2 6964   3.917   0.637  10.857 -0.4038 -0.2896 -0.3330
  468MPD2    C3 6965   3.899   0.538  10.756  0.2029  0.4170 -0.0052
  468MPD2    C4 6966   3.922   0.568  10.623  0.0628 -0.0768 -0.5429
  468MPD2    C5 6967   3.959   0.696  10.587  0.1700 -0.6380 -0.8148
  468MPD2     H 6968   3.900   0.626  10.963  0.8558 -2.0991 -0.3157
  468MPD2    H1 6969   3.892   0.504  10.540  1.4416  0.8083 -1.7285
  468MPD2    H2 6970   4.007   0.886  10.653  4.0488  0.1120  0.7962
  468MPD2    H3 6971   3.970   0.713  10.480  1.1783  2.4131 -0.2460
  468MPD2     N 6972   3.856   0.405  10.777  0.1037 -0.3764  0.5123
  468MPD2    H5 6973   3.850   0.345  10.696  0.8574 -0.5138  0.5530
  468MPD2    N1 6974   3.969   0.863  10.925 -0.4404  0.0179 -0.8096
  468MPD2    H7 6975   3.956   0.832  11.021  1.2283  1.0636 -0.2433
  469TMC3    C1 6976   3.982   1.076  11.019 -0.3432 -0.0357  0.4117
  469TMC3    C2 6977   4.070   1.051  11.113 -0.3409  0.5561  0.4354
  469TMC3    C3 6978   4.105   1.156  11.191 -0.3106  0.0010  0.1334
  469TMC3    C4 6979   3.929   1.197  10.997 -0.0640  0.3032 -0.4013
  469TMC3    C5 6980   3.957   1.304  11.076  0.1342  0.0279  0.1721
  469TMC3    C6 6981   4.057   1.285  11.175 -0.2376  0.2010  0.0496
  469TMC3     C 6982   3.982   0.995  10.899  0.5701 -0.5064  0.1192
  469TMC3     O 6983   3.976   1.051  10.789  0.0792  0.0122 -0.4161
  469TMC3     H 6984   4.140   0.968  11.109  0.8101  1.6329 -1.9734
  469TMC3    H1 6985   3.859   1.203  10.914  3.0643 -1.3758 -3.1255
  469TMC3    H2 6986   4.097   1.357  11.246  0.3660 -0.9107  0.8303
  469TMC3    C7 6987   3.892   1.432  11.044  0.0484  0.4085  0.4214
  469TMC3    C8 6988   4.229   1.135  11.264  0.0600  0.5909  0.1790
  469TMC3    O1 6989   3.809   1.429  10.956 -0.3071 -0.2405 -0.4886
  469TMC3    O2 6990   4.304   1.059  11.213 -0.1492 -0.3357 -0.0351
  470TMC3    C1 6991   1.670   1.991   0.995  0.1930 -0.5174  0.0803
  470TMC3    C2 6992   1.646   2.102   0.907  0.2239  0.1795  0.3763
  470TMC3    C3 6993   1.709   2.218   0.936 -0.5443 -0.1336  0.1153
  470TMC3    C4 6994   1.754   2.005   1.102 -0.8639  0.4777  0.0213
  470TMC3    C5 6995   1.809   2.126   1.118 -0.2333  0.3668  0.3014
  470TMC3    C6 6996   1.790   2.238   1.043 -0.6680 -0.3625  0.2452
  470TMC3     C 6997   1.620   1.864   0.949 -0.4544  0.9352  0.3311
  470TMC3     O 6998   1.560   1.855   0.842  0.1683  0.6197  0.0544
  470TMC3     H 6999   1.571   2.085   0.830  0.4166  0.6636  0.0846
  470TMC3    H1 7000   1.777   1.926   1.173  1.0012  0.8617 -0.1630
  470TMC3    H2 7001   1.841   2.328   1.076  0.8077 -1.0774 -0.0721
  470TMC3    C7 7002   1.863   2.148   1.247  0.2637  0.0925 -0.3663
  470TMC3    C8 7003   1.675   2.347   0.875 -0.2011 -0.4696  0.5120
  470TMC3    O1 7004   1.977   2.196   1.248  0.0536  0.0918 -0.6350
  470TMC3    O2 7005   1.726   2.448   0.926 -0.0865 -0.6878  0.0529
  471MPD2     C 7006   1.645   3.176  16.101  0.3148 -0.0259 -0.4957
  471MPD2    C1 7007   1.572   3.096  16.182 -0.0670  0.5273  0.4172
  471MPD2    C2 7008   1.559   3.135  16.319  0.4710 -0.7152  0.1959
  471MPD2    C3 7009   1.598   3.263  16.355 -0.1329  0.1543 -0.4342
  471MPD2    C4 7010   1.651   3.345  16.257  0.0293 -0.4935 -0.0917
  471MPD2    C5 7011   1.686   3.306  16.132  0.7053 -0.3102  0.6922
  471MPD2     H 7012   1.508   3.073  16.391  0.0464 -2.0202 -1.2254
  471MPD2    H1 7013   1.680   3.445  16.285 -0.4125 -0.5295  0.5054
  471MPD2    H2 7014   1.677   3.148  16.001  0.3174 -0.8192 -0.2668
  471MPD2    H3 7015   1.749   3.362  16.063 -2.4905  1.2950 -0.9449
  471MPD2     N 7016   1.615   3.318  16.488  0.4696  0.0675  0.6797
  471MPD2    H5 7017   1.658   3.409  16.501  0.7271  0.0344  0.0394
  471MPD2    N1 7018   1.529   2.966  16.142 -0.0315 -0.2931  0.1175
  471MPD2    H7 7019   1.504   2.902  16.216  3.3530 -1.9987 -0.1841
  472TMC3    C1 7020   1.435   2.821  15.973 -0.0994  0.4119  0.0051
  472TMC3    C2 7021   1.367   2.823  15.850 -0.0856 -0.5048 -0.1712
  472TMC3    C3 7022   1.340   2.705  15.801  0.1793  0.5352  0.1074
  472TMC3    C4 7023   1.458   2.707  16.045 -0.2996  0.4653 -0.1348
  472TMC3    C5 7024   1.414   2.585  15.989  0.3252  1.0553  0.3350
  472TMC3    C6 7025   1.353   2.589  15.866 -0.2183  0.2474  0.7122
  472TMC3     C 7026   1.505   2.942  16.005 -0.8460  0.0332 -0.0965
  472TMC3     O 7027   1.501   3.021  15.912 -0.4921 -0.1063  0.1067
  472TMC3     H 7028   1.357   2.913  15.791 -0.2869 -0.3156  0.1511
  472TMC3    H1 7029   1.518   2.707  16.136  0.5014 -0.5911 -0.6684
  472TMC3    H2 7030   1.334   2.493  15.818 -3.2334  0.1905  1.9686
  472TMC3    C7 7031   1.482   2.455  16.016  0.6334 -0.1385 -0.1259
  472TMC3    C8 7032   1.235   2.703  15.703  0.2064 -0.0727  0.6732
  472TMC3    O1 7033   1.476   2.373  15.926  0.1639  0.0860  0.2928
  472TMC3    O2 7034   1.225   2.803  15.633  0.3072  0.2045  0.6807
  473MPD2     C 7035   2.146   1.166  13.789  0.1702  0.0447  0.0572
  473MPD2    C1 7036   2.047   1.107  13.860  0.2140 -0.1197 -0.0711
  473MPD2    C2 7037   2.052   1.095  13.996  0.2250 -0.0892 -0.7968
  473MPD2    C3 7038   2.165   1.139  14.062 -0.6716  0.2647 -0.3767
  473MPD2    C4 7039   2.266   1.199  13.995 -0.8624  0.0320  0.3919
  473MPD2    C5 7040   2.255   1.207  13.860  0.8343  0.4929 -0.3595
  473MPD2     H 7041   1.989   1.021  14.044 -0.3741  1.0034  0.1051
  473MPD2    H1 7042   2.359   1.224  14.045 -0.7826  0.2379  0.1420
  473MPD2    H2 7043   2.148   1.180  13.681 -0.4073  0.8095  0.1428
  473MPD2    H3 7044   2.341   1.236  13.801  0.8848 -0.1060 -0.5750
  473MPD2     N 7045   2.180   1.128  14.203 -0.2476  0.0801  0.0837
  473MPD2    H5 7046   2.267   1.166  14.237  0.7997 -2.2787  0.0745
  473MPD2    N1 7047   1.934   1.054  13.789  0.4568  0.4203  0.0027
  473MPD2    H7 7048   1.860   1.000  13.832  0.2998 -0.3764 -1.2756
  474TMC3    C1 7049   2.088   1.171  14.417  0.4137 -0.2667 -0.5748
  474TMC3    C2 7050   1.967   1.220  14.459  0.3018  0.1203 -0.6764
  474TMC3    C3 7051   1.975   1.319  14.548  0.0341 -0.0872 -0.1335
  474TMC3    C4 7052   2.208   1.219  14.456 -0.1451  0.2784  0.4007
  474TMC3    C5 7053   2.213   1.317  14.550 -0.3980 -0.0458  0.6615
  474TMC3    C6 7054   2.093   1.373  14.590 -0.6219  0.0879  0.0712
  474TMC3     C 7055   2.075   1.102  14.292  0.3956  0.5388  0.5462
  474TMC3     O 7056   1.965   1.062  14.262  0.6856 -0.0647 -0.8935
  474TMC3     H 7057   1.870   1.192  14.418  1.0017  0.0915 -2.3100
  474TMC3    H1 7058   2.305   1.177  14.433 -0.0780  0.6681 -0.0317
  474TMC3    H2 7059   2.092   1.456  14.659 -0.8988 -0.6812  1.0047
  474TMC3    C7 7060   2.325   1.394  14.585 -0.7736  0.5052 -0.5820
  474TMC3    C8 7061   1.855   1.412  14.536 -0.5549  0.3669  0.1823
  474TMC3    O1 7062   2.415   1.409  14.501  0.0109 -0.0141  0.3400
  474TMC3    O2 7063   1.750   1.356  14.509 -0.3691 -0.0496 -0.1953
  475MPD2     C 7064   0.424   3.183   9.886 -0.5203  0.4964 -0.0925
  475MPD2    C1 7065   0.344   3.276   9.815 -0.3511  0.3093  0.5467
  475MPD2    C2 7066   0.209   3.276   9.836  0.0746 -0.1855  0.1079
  475MPD2    C3 7067   0.158   3.194   9.931  0.4490  0.4162 -0.0776
  475MPD2    C4 7068   0.234   3.110  10.000  0.5912  0.1342 -0.4189
  475MPD2    C5 7069   0.367   3.093   9.974  0.2814  0.5133  0.4584
  475MPD2     H 7070   0.142   3.350   9.794 -2.2483 -0.9644  2.4122
  475MPD2    H1 7071   0.191   3.036  10.066 -1.1956  0.0577 -1.6709
  475MPD2    H2 7072   0.532   3.182   9.880 -0.5773 -2.8658 -0.4382
  475MPD2    H3 7073   0.433   3.029  10.031  0.2105  0.7977  0.8542
  475MPD2     N 7074   0.023   3.198   9.982 -0.2078 -1.3076  0.8696
  475MPD2    H5 7075   0.000   3.136  10.059  1.4266 -1.3313  1.3448
  475MPD2    N1 7076   0.403   3.361   9.718  0.5085 -0.0450 -0.0605
  475MPD2    H7 7077   0.505   3.363   9.720  0.5292 -1.4648 -0.1034
  476TMC3    C1 7078   0.427   3.567   9.625 -0.0242 -0.5475 -1.0691
  476TMC3    C2 7079   0.362   3.644   9.530  0.4862 -0.3004  0.7335
  476TMC3    C3 7080   0.354   3.779   9.551  0.0307 -0.6153 -0.1605
  476TMC3    C4 7081   0.491   3.617   9.729  0.0887 -0.4857 -0.8091
  476TMC3    C5 7082   0.488   3.752   9.743 -0.0496 -0.2258 -0.4872
  476TMC3    C6 7083   0.424   3.839   9.652  0.5609  0.4824 -0.5411
  476TMC3     C 7084   0.340   3.460   9.657  0.0720 -0.2573 -0.6993
  476TMC3     O 7085   0.222   3.484   9.637 -0.7762 -0.1960 -0.2415
  476TMC3     H 7086   0.308   3.588   9.455  1.7077  2.0964 -1.9275
  476TMC3    H1 7087   0.537   3.556   9.806 -0.0635 -1.3804 -1.4293
  476TMC3    H2 7088   0.411   3.944   9.674  0.3526  0.2694  0.3824
  476TMC3    C7 7089   0.585   3.817   9.835 -0.7057  0.5041  0.1229
  476TMC3    C8 7090   0.226   3.840   9.552  0.4922 -0.0116 -0.8546
  476TMC3    O1 7091   0.644   3.920   9.801  0.6563  0.1728 -0.3042
  476TMC3    O2 7092   0.205   3.961   9.552 -0.3830 -0.3893  0.1449
  477MPD2     C 7093   2.477   0.354  11.788  0.1419  1.0884  0.7248
  477MPD2    C1 7094   2.373   0.311  11.865 -0.3060  0.4616 -0.1908
  477MPD2    C2 7095   2.403   0.270  11.996 -0.1120 -0.1007  0.1538
  477MPD2    C3 7096   2.534   0.275  12.045 -0.1188 -0.3474  0.4874
  477MPD2    C4 7097   2.634   0.315  11.952 -0.6795 -0.5575 -0.3211
  477MPD2    C5 7098   2.605   0.353  11.826  0.2280 -0.7750  0.5222
  477MPD2     H 7099   2.320   0.239  12.058  0.4525  0.4627  1.1855
  477MPD2    H1 7100   2.738   0.319  11.982 -1.1531  3.1177  0.7199
  477MPD2    H2 7101   2.459   0.390  11.687  3.2693 -0.4865 -0.3773
  477MPD2    H3 7102   2.681   0.381  11.755 -0.4714 -0.7752 -0.2261
  477MPD2     N 7103   2.555   0.241  12.182  0.0578 -0.4066 -0.0068
  477MPD2    H5 7104   2.476   0.206  12.236 -1.0746 -0.4324 -1.6742
  477MPD2    N1 7105   2.243   0.321  11.808  0.2856  0.2677  0.2417
  477MPD2    H7 7106   2.237   0.336  11.708 -0.4621 -0.6897  0.1440
  478TMC3    C1 7107   2.027   0.237  11.767  0.3057  0.0894 -0.6618
  478TMC3    C2 7108   1.900   0.212  11.802  0.8221 -0.9438 -0.9388
  478TMC3    C3 7109   1.797   0.234  11.721 -0.9035 -0.3577  0.9821
  478TMC3    C4 7110   2.050   0.274  11.635 -0.4803 -0.2086 -0.5240
  478TMC3    C5 7111   1.949   0.283  11.543 -0.4652  0.4381 -0.1894
  478TMC3    C6 7112   1.813   0.275  11.590  0.2888  0.2861  0.5246
  478TMC3     C 7113   2.126   0.270  11.864 -0.6605  0.6054 -0.0001
  478TMC3     O 7114   2.101   0.246  11.980 -0.1850 -0.1610 -0.4099
  478TMC3     H 7115   1.872   0.187  11.904 -3.0621  0.8912 -1.5520
  478TMC3    H1 7116   2.151   0.292  11.599  0.4949  0.7597  2.6804
  478TMC3    H2 7117   1.734   0.297  11.519  0.0848 -1.5282  0.1989
  478TMC3    C7 7118   1.989   0.351  11.422  0.6123  0.3908 -0.2167
  478TMC3    C8 7119   1.673   0.264  11.790  1.1157  0.8933  0.0203
  478TMC3    O1 7120   2.102   0.388  11.417  0.3426 -0.1370 -0.3746
  478TMC3    O2 7121   1.663   0.218  11.903  0.1763 -0.1018  0.4400
  479MPD2     C 7122   1.477   2.741  14.911 -0.6352 -0.1123 -0.2602
  479MPD2    C1 7123   1.441   2.628  14.981 -0.3015 -0.3437 -0.6533
  479MPD2    C2 7124   1.474   2.614  15.115  0.7902 -0.4873 -0.4266
  479MPD2    C3 7125   1.527   2.719  15.185  0.0601 -0.3440  0.9228
  479MPD2    C4 7126   1.557   2.833  15.114 -0.3178 -0.0177 -0.2513
  479MPD2    C5 7127   1.538   2.844  14.978 -0.4012  0.4139 -0.3241
  479MPD2     H 7128   1.454   2.523  15.170 -4.0360 -0.7110 -2.5039
  479MPD2    H1 7129   1.605   2.923  15.152 -1.1043 -0.2279  1.2291
  479MPD2    H2 7130   1.455   2.759  14.806 -2.5680 -2.0135 -0.1834
  479MPD2    H3 7131   1.573   2.939  14.940  0.2636 -0.1157 -1.0399
  479MPD2     N 7132   1.542   2.712  15.329 -0.4982  0.2881 -0.0822
  479MPD2    H5 7133   1.592   2.789  15.373  1.6186 -0.8025 -0.5941
  479MPD2    N1 7134   1.349   2.537  14.926 -0.2761  0.5163  0.0236
  479MPD2    H7 7135   1.309   2.578  14.843 -2.8395 -0.9832  0.5453
  480TMC3    C1 7136   1.170   2.418  15.448 -0.0931 -0.3316  0.1651
  480TMC3    C2 7137   1.082   2.486  15.373  0.1850  0.4951  0.1141
  480TMC3    C3 7138   1.128   2.599  15.310  0.4406  0.3670  1.1897
  480TMC3    C4 7139   1.302   2.468  15.457 -0.4016  0.2643 -0.2046
  480TMC3    C5 7140   1.345   2.575  15.385 -0.6585  0.2484 -0.0903
  480TMC3    C6 7141   1.256   2.645  15.316 -0.9849 -0.0393  0.2565
  480TMC3     C 7142   1.133   2.325  15.558 -0.8582  0.6362  0.4152
  480TMC3     O 7143   1.217   2.303  15.643 -0.3104 -0.0746  0.6224
  480TMC3     H 7144   0.982   2.446  15.361  0.2808  0.1930  0.2987
  480TMC3    H1 7145   1.370   2.425  15.528  1.3245 -0.8360 -2.5193
  480TMC3    H2 7146   1.274   2.746  15.280  0.2576 -0.4119 -0.1678
  480TMC3    C7 7147   1.476   2.627  15.419  0.0144 -0.7438 -0.5727
  480TMC3    C8 7148   1.035   2.665  15.221 -0.3856  0.5555  0.0778
  480TMC3    O1 7149   1.497   2.620  15.538 -0.1584 -0.0466 -0.0495
  480TMC3    O2 7150   0.918   2.655  15.249  0.4900 -0.5025  1.0092
  481MPD2     C 7151   3.118   2.433  14.206 -0.6908  0.9302  0.1854
  481MPD2    C1 7152   2.999   2.422  14.272  0.3383  0.1714 -0.2838
  481MPD2    C2 7153   3.004   2.397  14.411 -0.2341  0.0125  0.5248
  481MPD2    C3 7154   3.122   2.374  14.478  0.1581 -0.8378 -0.0156
  481MPD2    C4 7155   3.236   2.389  14.408 -0.4285 -0.0985  0.0372
  481MPD2    C5 7156   3.236   2.413  14.277 -0.1607  0.3114 -0.3105
  481MPD2     H 7157   2.912   2.412  14.466  0.5695 -1.5132  2.2656
  481MPD2    H1 7158   3.333   2.365  14.451  0.1863 -0.4873 -1.5572
  481MPD2    H2 7159   3.127   2.464  14.102 -1.9672 -1.2517 -0.5693
  481MPD2    H3 7160   3.328   2.417  14.219  1.6099 -1.3606  2.3455
  481MPD2     N 7161   3.129   2.357  14.619  1.1589  0.6336 -0.3494
  481MPD2    H5 7162   3.221   2.376  14.657  0.5512  1.7028  0.5728
  481MPD2    N1 7163   2.883   2.434  14.198  0.3748 -0.2613 -0.8040
  481MPD2    H7 7164   2.893   2.463  14.102  1.9615  2.5877  0.2326
  482TMC3    C1 7165   2.654   2.451  14.140  0.2157  0.3703 -0.4281
  482TMC3    C2 7166   2.649   2.350  14.047 -0.8819 -0.0689  0.5199
  482TMC3    C3 7167   2.533   2.331  13.976  0.1148  0.0476  0.3848
  482TMC3    C4 7168   2.548   2.535  14.164  0.4421  0.7288 -0.5078
  482TMC3    C5 7169   2.448   2.528  14.071  0.8007  0.6282 -0.0449
  482TMC3    C6 7170   2.432   2.426  13.979  0.4524  0.1602 -0.5060
  482TMC3     C 7171   2.754   2.446  14.247  0.4634  0.5719 -0.4661
  482TMC3     O 7172   2.707   2.415  14.354  0.0477 -0.2373 -0.0608
  482TMC3     H 7173   2.730   2.277  14.042  1.3356  2.4727 -0.8755
  482TMC3    H1 7174   2.546   2.615  14.237  0.6171  2.7154 -2.6691
  482TMC3    H2 7175   2.335   2.406  13.936  0.6577  0.9538 -1.3432
  482TMC3    C7 7176   2.370   2.646  14.054 -0.2782  0.1328  0.7539
  482TMC3    C8 7177   2.536   2.224  13.891 -0.1989  0.3973 -0.1420
  482TMC3    O1 7178   2.401   2.740  14.125 -0.3225  0.2427  0.1828
  482TMC3    O2 7179   2.600   2.124  13.906  0.7654 -0.0301 -0.4253
  483TMC3    C1 7180   1.638   0.568   0.627 -0.6124  0.0339 -0.0483
  483TMC3    C2 7181   1.676   0.696   0.679 -0.0996  0.1658  0.8340
  483TMC3    C3 7182   1.750   0.697   0.796 -0.0717 -0.1823 -0.7775
  483TMC3    C4 7183   1.663   0.454   0.694 -0.6720 -0.7658  0.8354
  483TMC3    C5 7184   1.734   0.474   0.807  0.1770 -0.2220  0.1108
  483TMC3    C6 7185   1.782   0.588   0.863 -0.2243  0.4282 -0.6361
  483TMC3     C 7186   1.555   0.569   0.504 -0.0181  0.2696  0.4270
  483TMC3     O 7187   1.546   0.677   0.436  0.0805 -0.5399 -0.3545
  483TMC3     H 7188   1.662   0.786   0.622  2.7341  0.1292  0.0640
  483TMC3    H1 7189   1.649   0.358   0.647  0.6174 -0.1538 -0.7778
  483TMC3    H2 7190   1.851   0.604   0.945 -0.7859 -1.1618  0.1496
  483TMC3    C7 7191   1.800   0.355   0.874 -0.4491  0.3373 -0.1065
  483TMC3    C8 7192   1.788   0.824   0.852  0.2272 -0.4662  0.0505
  483TMC3    O1 7193   1.905   0.365   0.945  0.1696 -0.4153 -0.0157
  483TMC3    O2 7194   1.774   0.920   0.783 -0.3586 -0.4900 -0.1815
  484MPD2     C 7195   3.442   4.214  12.732 -0.1068  0.1332 -0.0934
  484MPD2    C1 7196   3.405   4.102  12.659  0.6712  0.1673 -0.2699
  484MPD2    C2 7197   3.500   4.051  12.573 -0.0233 -0.0050 -0.0120
  484MPD2    C3 7198   3.628   4.099  12.571  0.1587  0.3577  1.1202
  484MPD2    C4 7199   3.665   4.201  12.649 -0.4048  0.1341  0.2849
  484MPD2    C5 7200   3.566   4.265  12.716 -0.4255  0.3162  0.0632
  484MPD2     H 7201   3.473   3.956  12.527  0.9782 -0.9010  1.2374
  484MPD2    H1 7202   3.761   4.249  12.661  0.0535 -0.6527 -0.3034
  484MPD2    H2 7203   3.376   4.271  12.796  0.9813 -0.4726  1.5791
  484MPD2    H3 7204   3.590   4.354  12.773 -1.6261 -0.9199  2.4582
  484MPD2     N 7205   3.733   4.047  12.500 -0.5793 -0.1978  0.2917
  484MPD2    H5 7206   3.825   4.089  12.516 -0.6738  0.5704 -1.2276
  484MPD2    N1 7207   3.279   4.053  12.692  0.3998 -0.1281 -0.3140
  484MPD2    H7 7208   3.220   4.086  12.767  2.2275  1.4187  0.4231
  485TMC3    C1 7209   3.866   3.883  12.385  0.2502  0.2422 -0.1807
  485TMC3    C2 7210   3.900   3.753  12.413  0.0748 -0.1183 -0.2640
  485TMC3    C3 7211   4.029   3.708  12.406  0.1402  0.2553 -0.0233
  485TMC3    C4 7212   3.960   3.980  12.357 -0.4086  0.3790  0.3119
  485TMC3    C5 7213   4.090   3.941  12.361 -0.2951 -0.0377  0.3209
  485TMC3    C6 7214   4.126   3.811  12.388 -0.6050 -0.3440  0.0963
  485TMC3     C 7215   3.735   3.926  12.434 -0.0953  0.4038  1.6006
  485TMC3     O 7216   3.649   3.839  12.419 -0.4475 -0.3569 -0.4555
  485TMC3     H 7217   3.822   3.685  12.446 -0.5429  0.5467 -0.3503
  485TMC3    H1 7218   3.937   4.077  12.315 -0.2287  0.3431  0.1262
  485TMC3    H2 7219   4.230   3.781  12.392  0.0995  1.9012 -1.5339
  485TMC3    C7 7220   4.167   3.981  12.241 -0.6199 -0.0179  0.5646
  485TMC3    C8 7221   4.060   3.590  12.328 -0.1338 -0.1192 -0.3910
  485TMC3    O1 7222   4.186   4.102  12.218  0.1340 -0.1349 -0.1640
  485TMC3    O2 7223   4.162   3.605  12.264  0.0483 -0.0500  0.1009
  486MPD2     C 7224   0.638   2.774  13.107 -0.0745 -0.5955 -0.2686
  486MPD2    C1 7225   0.627   2.747  12.967 -0.1543 -0.6476 -0.8402
  486MPD2    C2 7226   0.636   2.853  12.877 -0.7881  0.0674  0.4120
  486MPD2    C3 7227   0.636   2.986  12.924  0.2482 -0.2736  0.1841
  486MPD2    C4 7228   0.650   3.006  13.059 -0.0416 -0.1164 -0.7063
  486MPD2    C5 7229   0.637   2.903  13.149  0.3244 -0.3775 -0.2820
  486MPD2     H 7230   0.636   2.841  12.770  1.1931  0.7868  0.3314
  486MPD2    H1 7231   0.657   3.104  13.104  1.9666 -0.3240 -0.5695
  486MPD2    H2 7232   0.659   2.691  13.174 -1.5052  0.4725  1.4832
  486MPD2    H3 7233   0.641   2.913  13.256 -1.4240 -1.8058 -0.0761
  486MPD2     N 7234   0.628   3.093  12.834 -1.0762  0.3876 -0.2757
  486MPD2    H5 7235   0.623   3.077  12.733 -0.0383 -2.5542  0.1315
  486MPD2    N1 7236   0.599   2.615  12.927  0.0330 -0.1601  0.0376
  486MPD2    H7 7237   0.606   2.541  12.996  1.0332 -0.3968 -0.3083
  487TMC3    C1 7238   0.564   2.428  12.776 -0.2369 -0.4389 -0.2765
  487TMC3    C2 7239   0.465   2.383  12.703 -0.1176  0.6248  0.7564
  487TMC3    C3 7240   0.414   2.264  12.719  0.1385  0.2059 -0.5971
  487TMC3    C4 7241   0.626   2.348  12.869 -0.2245 -0.9965  0.1321
  487TMC3    C5 7242   0.568   2.228  12.895 -0.2498 -0.5670  0.4339
  487TMC3    C6 7243   0.469   2.176  12.810 -0.2646  0.2590  0.5543
  487TMC3     C 7244   0.563   2.577  12.796  0.2254 -0.2638  0.2007
  487TMC3     O 7245   0.524   2.644  12.700  0.6109  0.4828  0.5746
  487TMC3     H 7246   0.414   2.451  12.635 -1.0382 -1.3660 -0.5701
  487TMC3    H1 7247   0.704   2.375  12.940  1.3026 -2.9037 -0.8398
  487TMC3    H2 7248   0.411   2.103  12.866 -0.5804 -0.4263 -0.6699
  487TMC3    C7 7249   0.631   2.136  12.988  0.0038  0.1229  0.2860
  487TMC3    C8 7250   0.267   2.262  12.728  0.9650 -0.7938 -0.1074
  487TMC3    O1 7251   0.700   2.187  13.080  0.3390 -0.5534 -0.3920
  487TMC3    O2 7252   0.224   2.363  12.782  0.1990 -0.1498  0.3302
  488MPD2     C 7253   0.962   4.441  16.527 -0.1322 -0.6169  0.2597
  488MPD2    C1 7254   1.021   4.557  16.579  0.0287  0.4451  0.1254
  488MPD2    C2 7255   1.005   4.584  16.713 -0.0880  0.7625 -0.3701
  488MPD2    C3 7256   0.919   4.510  16.792  0.5326 -0.1271 -0.3132
  488MPD2    C4 7257   0.852   4.409  16.732 -0.5206 -0.6961 -0.3388
  488MPD2    C5 7258   0.879   4.369  16.604 -0.3562  0.0725  0.3802
  488MPD2     H 7259   1.056   4.665  16.763 -1.0896 -0.2355  2.2816
  488MPD2    H1 7260   0.770   4.360  16.786 -0.7369 -1.8916 -1.7462
  488MPD2    H2 7261   0.993   4.407  16.429 -1.4652  0.1035 -0.3963
  488MPD2    H3 7262   0.826   4.282  16.568  0.7773 -0.5272  0.1632
  488MPD2     N 7263   0.904   4.555  16.924  0.3557  0.1442  0.2589
  488MPD2    H5 7264   0.965   4.630  16.954  0.6392 -0.0346  0.1262
  488MPD2    N1 7265   1.107   4.648  16.497  0.1383  0.4868 -0.4048
  488MPD2    H7 7266   1.142   4.720  16.560 -0.8140  1.4073 -0.9361
  489TMC3    C1 7267   0.830   4.566  17.149 -0.4197 -0.4575 -0.7757
  489TMC3    C2 7268   0.856   4.699  17.157 -0.9226  0.4097 -0.3971
  489TMC3    C3 7269   0.835   0.042  17.276 -0.3873 -0.3041  0.4830
  489TMC3    C4 7270   0.782   4.500  17.261 -0.0973 -0.9420 -0.2528
  489TMC3    C5 7271   0.744   4.576  17.367  0.3989 -0.5140 -0.1400
  489TMC3    C6 7272   0.780   4.709  17.382 -0.0744 -0.6960 -0.4071
  489TMC3     C 7273   0.828   4.498  17.023  0.3381  0.1394  0.3440
  489TMC3     O 7274   0.776   4.391  17.007  0.3022 -0.1568 -0.3638
  489TMC3     H 7275   0.893   0.023  17.068  2.0691 -1.8902 -0.4185
  489TMC3    H1 7276   0.751   4.397  17.248  1.2154 -1.4206  0.3825
  489TMC3    H2 7277   0.747   0.037  17.470  1.0413  1.0373 -1.0544
  489TMC3    C7 7278   0.749   4.509  17.499  0.3150  0.2463 -0.0062
  489TMC3    C8 7279   0.883   0.179  17.280  0.1346 -0.7375 -0.3434
  489TMC3    O1 7280   0.835   4.544  17.581 -0.4819  0.0208 -0.0420
  489TMC3    O2 7281   0.904   0.235  17.171  0.3563 -0.3298  0.4328
  490MPD2     C 7282   1.633   4.673  17.509 -0.3105 -0.3252  0.6026
  490MPD2    C1 7283   1.665   4.577  17.605 -0.3100 -0.9869  0.0300
  490MPD2    C2 7284   1.754   4.603   0.001 -0.2783  1.0382  0.5476
  490MPD2    C3 7285   1.811   0.001   0.006  0.3198 -0.0031  0.7208
  490MPD2    C4 7286   1.804   0.081  17.598  0.0703  0.4722  0.4638
  490MPD2    C5 7287   1.708   0.059  17.502  0.0101 -0.1034 -0.3739
  490MPD2     H 7288   1.768   4.540   0.087  1.8651  0.8885  0.0796
  490MPD2    H1 7289   1.860   0.174  17.593  0.3960  0.2570  0.1226
  490MPD2    H2 7290   1.560   4.650  17.432 -0.9608 -0.0953  1.1448
  490MPD2    H3 7291   1.688   0.138  17.432  0.6708  1.5658  1.3246
  490MPD2     N 7292   1.904   0.037   0.100  0.8260  0.7545 -0.2547
  490MPD2    H5 7293   1.967   0.113   0.075  2.1488 -0.5035 -0.6886
  490MPD2    N1 7294   1.605   4.443  17.607 -0.0910  0.1279 -0.1294
  490MPD2    H7 7295   1.630   4.377  17.680  2.4006 -0.0184 -1.1243
  491TMC3    C1 7296   1.475   4.260  17.529 -0.6413  0.0788 -0.2661
  491TMC3    C2 7297   1.544   4.179  17.615 -0.1755  0.2156  0.2855
  491TMC3    C3 7298   1.549   4.044  17.588 -0.3461  0.4634 -0.0314
  491TMC3    C4 7299   1.401   4.210  17.428  0.9218  0.1726  0.0912
  491TMC3    C5 7300   1.393   4.075  17.418  0.1472  0.1248 -1.0051
  491TMC3    C6 7301   1.467   3.988  17.494 -0.8602 -0.1727  0.5125
  491TMC3     C 7302   1.509   4.401  17.518 -0.0102  0.4902 -0.6250
  491TMC3     O 7303   1.448   4.465  17.437 -0.1959  0.0229  0.0019
  491TMC3     H 7304   1.616   4.216  17.687  0.2944 -0.3802  0.1179
  491TMC3    H1 7305   1.331   4.273  17.374  0.9664 -0.5803 -0.8587
  491TMC3    H2 7306   1.474   3.882  17.471 -1.1199 -0.2151  0.6272
  491TMC3    C7 7307   1.310   4.006  17.321 -0.1370 -0.2321  0.1089
  491TMC3    C8 7308   1.628   3.962  17.687 -0.0334  0.2876  0.0581
  491TMC3    O1 7309   1.326   3.886  17.318  0.2937 -0.0189 -0.1316
  491TMC3    O2 7310   1.672   4.024   0.080 -0.1830 -0.0217  0.3629
  492MPD2     C 7311   1.874   4.058  12.223 -0.4291 -0.5742 -0.7076
  492MPD2    C1 7312   1.827   3.955  12.148 -0.1001 -0.5627 -0.3131
  492MPD2    C2 7313   1.717   3.876  12.184  0.2463 -0.1089 -0.0308
  492MPD2    C3 7314   1.662   3.896  12.314 -0.3556 -0.3586  0.0122
  492MPD2    C4 7315   1.723   3.991  12.398  0.1267  0.5508  0.0845
  492MPD2    C5 7316   1.822   4.073  12.351 -0.2420  0.3351  0.3055
  492MPD2     H 7317   1.673   3.797  12.126 -1.1428 -1.4683  2.8953
  492MPD2    H1 7318   1.681   4.007  12.496  1.5551  2.7218  0.3378
  492MPD2    H2 7319   1.952   4.124  12.187  0.5299 -1.3353 -0.0176
  492MPD2    H3 7320   1.861   4.148  12.418 -1.5826  1.6386 -0.3785
  492MPD2     N 7321   1.554   3.814  12.365  0.1154  0.5161  0.6235
  492MPD2    H5 7322   1.537   3.819  12.465 -0.6373 -0.6576  0.5569
  492MPD2    N1 7323   1.881   3.949  12.021 -0.2129  0.0473  0.3953
  492MPD2    H7 7324   1.943   4.026  11.997 -0.7627  0.1234 -0.8001
  493TMC3    C1 7325   1.957   3.852  11.825  0.0544  1.0948 -0.5309
  493TMC3    C2 7326   2.030   3.969  11.814 -0.5202  0.4095 -0.1699
  493TMC3    C3 7327   2.100   3.984  11.701 -0.2488 -0.4514  0.3695
  493TMC3    C4 7328   1.935   3.763  11.721 -0.1561 -0.2093  0.1354
  493TMC3    C5 7329   2.013   3.793  11.611  0.3390  0.1700  0.8483
  493TMC3    C6 7330   2.092   3.901  11.597  0.3308  0.2135 -0.6489
  493TMC3     C 7331   1.875   3.836  11.942 -0.4283  0.1099 -0.4124
  493TMC3     O 7332   1.828   3.725  11.966 -0.1880 -0.4084 -0.3352
  493TMC3     H 7333   2.063   4.026  11.901  0.3818 -0.8401  0.2948
  493TMC3    H1 7334   1.888   3.668  11.743 -0.0534 -0.8150 -2.2807
  493TMC3    H2 7335   2.180   3.905  11.534  0.3897  0.0589 -0.5740
  493TMC3    C7 7336   1.988   3.691  11.505 -0.7202  0.0456 -0.9863
  493TMC3    C8 7337   2.198   4.095  11.703  0.0391  0.0677 -0.2652
  493TMC3    O1 7338   1.914   3.598  11.536 -0.2937 -0.2897 -0.3786
  493TMC3    O2 7339   2.235   4.130  11.814  0.0604  0.2683 -0.6209
  494TMC3    C1 7340   3.398   0.655   0.758 -0.4238  0.0867  0.8529
  494TMC3    C2 7341   3.466   0.546   0.716 -0.2822  0.1432  0.0890
  494TMC3    C3 7342   3.481   0.526   0.585 -0.7006  0.1174  0.3172
  494TMC3    C4 7343   3.351   0.742   0.670  0.2602 -0.8110 -0.4427
  494TMC3    C5 7344   3.389   0.730   0.542  0.4527  0.4054 -0.0795
  494TMC3    C6 7345   3.456   0.622   0.497 -0.3036 -0.1913  0.0219
  494TMC3     C 7346   3.357   0.660   0.901  0.4357 -0.1461  0.2351
  494TMC3     O 7347   3.255   0.719   0.924  0.1949 -0.1265 -0.1180
  494TMC3     H 7348   3.498   0.469   0.786 -0.0553  0.7704  0.6828
  494TMC3    H1 7349   3.290   0.828   0.697  1.8742 -0.3276  1.6534
  494TMC3    H2 7350   3.475   0.611   0.391  0.0191 -2.0195  0.2799
  494TMC3    C7 7351   3.370   0.833   0.444 -0.8453  0.4807  0.3043
  494TMC3    C8 7352   3.583   0.436   0.547  0.4391 -0.6563  0.3274
  494TMC3    O1 7353   3.359   0.793   0.330 -0.1756  0.2111 -0.1138
  494TMC3    O2 7354   3.668   0.428   0.636 -0.1436  0.2181  0.0889
  495TMC3    C1 7355   1.233   2.517  14.383  0.3031 -0.1188  0.0900
  495TMC3    C2 7356   1.125   2.527  14.306  0.0478 -0.4791 -0.2864
  495TMC3    C3 7357   1.044   2.636  14.332  0.6364  0.0367 -0.0786
  495TMC3    C4 7358   1.278   2.611  14.469  0.6280 -0.2056  0.3680
  495TMC3    C5 7359   1.193   2.720  14.489 -0.7867 -0.0950  0.5048
  495TMC3    C6 7360   1.077   2.732  14.415 -0.4259  0.2681  0.0730
  495TMC3     C 7361   1.275   2.380  14.401 -0.3771 -0.2949 -0.1602
  495TMC3     O 7362   1.228   2.287  14.332  0.0513  0.5973 -0.6949
  495TMC3     H 7363   1.101   2.448  14.236  1.0389 -1.4449  0.4822
  495TMC3    H1 7364   1.369   2.608  14.528 -0.1322  1.0690  1.6159
  495TMC3    H2 7365   1.010   2.817  14.424 -0.4983 -0.0202  2.2382
  495TMC3    C7 7366   1.197   2.761  14.622  0.4767 -0.5931  0.5136
  495TMC3    C8 7367   0.912   2.648  14.279  0.2479  0.8393 -0.5454
  495TMC3    O1 7368   1.247   2.676  14.693 -0.1991  0.0127  0.3865
  495TMC3    O2 7369   0.846   2.752  14.304 -0.1925  0.1240  0.3731
  496MPD2     C 7370   3.090   2.981  15.276 -0.1209 -0.3127 -0.0340
  496MPD2    C1 7371   3.154   2.989  15.400  0.2466 -0.0335  0.2727
  496MPD2    C2 7372   3.081   2.981  15.516 -0.2796  0.0959 -0.5672
  496MPD2    C3 7373   2.942   2.961  15.510 -0.4154  0.0312 -0.6648
  496MPD2    C4 7374   2.877   2.948  15.387  0.2843  0.1309 -0.0897
  496MPD2    C5 7375   2.952   2.958  15.274  0.8967 -0.0474 -0.7363
  496MPD2     H 7376   3.125   2.976  15.615  0.3692 -1.4660 -0.9478
  496MPD2    H1 7377   2.771   2.934  15.364 -0.1116  1.4049  0.9494
  496MPD2    H2 7378   3.140   2.990  15.180  0.2218 -0.9765  0.0828
  496MPD2    H3 7379   2.914   2.955  15.173 -2.4168 -1.8414  0.5452
  496MPD2     N 7380   2.854   2.952  15.624  0.0177  0.3343 -0.3047
  496MPD2    H5 7381   2.760   2.917  15.606 -0.1951  1.1041 -0.6792
  496MPD2    N1 7382   3.296   3.006  15.399 -0.2989  0.3424 -0.5378
  496MPD2    H7 7383   3.337   3.001  15.306 -2.9308 -0.7092 -1.6349
  497TMC3    C1 7384   2.777   2.990  15.845  0.0291 -0.1658 -0.1597
  497TMC3    C2 7385   2.646   3.011  15.793 -0.2288  0.4770 -0.1808
  497TMC3    C3 7386   2.543   3.037  15.872  0.0580 -0.0811 -0.2882
  497TMC3    C4 7387   2.799   3.016  15.978 -0.0246  0.7616  0.0272
  497TMC3    C5 7388   2.685   3.048  16.056  0.4657 -0.0417  0.7297
  497TMC3    C6 7389   2.557   3.067  16.004  0.3227 -0.0568 -0.3086
  497TMC3     C 7390   2.885   2.989  15.751  0.0480  0.2285  0.2928
  497TMC3     O 7391   2.992   3.034  15.799  0.0101 -0.4373 -0.0750
  497TMC3     H 7392   2.623   3.016  15.687 -1.7491 -1.1711  0.0567
  497TMC3    H1 7393   2.900   3.013  16.017 -0.1922 -2.9321  0.1314
  497TMC3    H2 7394   2.474   3.071  16.074  0.3900  2.4260 -0.3742
  497TMC3    C7 7395   2.703   3.046  16.204  0.3040  0.3761 -0.0556
  497TMC3    C8 7396   2.415   3.075  15.800  0.8208 -0.4198  0.2659
  497TMC3    O1 7397   2.597   3.058  16.268 -0.7113 -0.0388 -0.0656
  497TMC3    O2 7398   2.385   3.037  15.692  0.3704 -0.0861  0.1691
  498MPD2     C 7399   3.762   3.867   9.540  0.1847  0.0362 -0.1134
  498MPD2    C1 7400   3.863   3.786   9.597 -0.1317  0.0238  0.0716
  498MPD2    C2 7401   3.843   3.724   9.724  0.3656  0.4899 -0.1981
  498MPD2    C3 7402   3.719   3.734   9.788 -1.1749 -0.5568  0.0517
  498MPD2    C4 7403   3.620   3.813   9.723 -0.5536  0.1790 -0.2584
  498MPD2    C5 7404   3.644   3.873   9.600 -1.2158 -0.0739  0.1323
  498MPD2     H 7405   3.930   3.676   9.767 -0.1730 -0.4089 -0.1215
  498MPD2    H1 7406   3.517   3.826   9.753 -0.5677 -0.4872 -0.0162
  498MPD2    H2 7407   3.768   3.926   9.449 -1.1455 -2.2289 -1.6589
  498MPD2    H3 7408   3.562   3.927   9.553 -0.6115  0.3895 -0.3884
  498MPD2     N 7409   3.692   3.657   9.907 -0.2865 -0.5711  0.1107
  498MPD2    H5 7410   3.755   3.582   9.932  1.5116  1.1490  0.6726
  498MPD2    N1 7411   3.991   3.769   9.535 -0.9193  0.2643  0.1176
  498MPD2    H7 7412   4.059   3.717   9.589 -0.1980  1.4723  0.3723
  499TMC3    C1 7413   4.149   3.773   9.352  0.2404 -0.4007  0.3960
  499TMC3    C2 7414   4.179   3.644   9.369 -0.1033  0.6145  0.1477
  499TMC3    C3 7415   4.285   3.597   9.294  0.5876 -0.2106 -0.7320
  499TMC3    C4 7416   4.218   3.855   9.259  0.4558 -0.0646 -0.5021
  499TMC3    C5 7417   4.321   3.803   9.187  0.5098  0.9175  0.2108
  499TMC3    C6 7418   4.358   3.668   9.203 -0.4260 -0.4653  0.9852
  499TMC3     C 7419   4.026   3.823   9.412 -0.4206  0.6905 -0.2759
  499TMC3     O 7420   3.977   3.913   9.347 -0.1007  0.3437 -0.1590
  499TMC3     H 7421   4.132   3.577   9.440  1.0479 -1.6040 -1.1764
  499TMC3    H1 7422   4.203   3.962   9.265  0.6800 -0.1907  2.0820
  499TMC3    H2 7423   4.434   3.623   9.140 -0.5585  2.1445 -1.0460
  499TMC3    C7 7424   4.416   3.892   9.131  0.5336 -0.0631  0.1208
  499TMC3    C8 7425   4.287   3.455   9.298 -0.6141  0.1479  0.1647
  499TMC3    O1 7426   4.530   3.860   9.155  0.1559 -0.6621  0.6427
  499TMC3    O2 7427   4.196   3.386   9.331 -0.8211 -0.1083 -0.5614
  500MPD2     C 7428   1.329   4.197  10.387  0.0167  0.0404 -0.2858
  500MPD2    C1 7429   1.330   4.335  10.393  0.0959  0.6566  0.3958
  500MPD2    C2 7430   1.207   4.406  10.367  1.1206 -0.7444 -0.0762
  500MPD2    C3 7431   1.095   4.337  10.327 -0.5214 -0.4159  0.2849
  500MPD2    C4 7432   1.094   4.199  10.334 -0.3110  0.0065 -0.1835
  500MPD2    C5 7433   1.206   4.131  10.372 -0.8144  0.3042 -0.0740
  500MPD2     H 7434   1.211   4.514  10.363 -0.8088 -0.6178  1.9186
  500MPD2    H1 7435   1.008   4.142  10.299  0.9862 -1.4091 -1.1259
  500MPD2    H2 7436   1.419   4.139  10.405  0.9261  0.7392 -2.6111
  500MPD2    H3 7437   1.206   4.024  10.391  4.2853  0.5894  1.4598
  500MPD2     N 7438   0.973   4.400  10.290 -0.0501  0.5470  1.0441
  500MPD2    H5 7439   0.901   4.335  10.261  0.2559  0.1713  1.1269
  500MPD2    N1 7440   1.448   4.417  10.421  0.2881  0.1090 -0.2994
  500MPD2    H7 7441   1.440   4.517  10.409 -1.7696  0.1376  1.2592
  501TMC3    C1 7442   1.676   4.467  10.444  0.5355  0.2830 -0.0340
  501TMC3    C2 7443   1.672   4.565  10.347  0.0146  0.3580  0.0047
  501TMC3    C3 7444   1.781   4.643  10.333 -0.3010 -0.9099 -0.4228
  501TMC3    C4 7445   1.789   4.439  10.517  0.0672 -0.0446 -0.8352
  501TMC3    C5 7446   1.897   4.518  10.501 -0.3011 -0.0504 -0.0867
  501TMC3    C6 7447   1.893   4.621  10.410 -0.3028  0.8060 -0.0775
  501TMC3     C 7448   1.571   4.366  10.448 -0.4565  0.4346  0.1289
  501TMC3     O 7449   1.604   4.252  10.478  0.4143 -0.2597 -0.0722
  501TMC3     H 7450   1.583   4.591  10.291 -0.7170  2.3917  2.0699
  501TMC3    H1 7451   1.793   4.350  10.579 -1.9804  0.2482 -0.2801
  501TMC3    H2 7452   1.979   4.685  10.392  0.7719 -0.9989 -1.3707
  501TMC3    C7 7453   1.940   4.557  10.627  0.2034 -0.3418 -0.1400
  501TMC3    C8 7454   1.749   0.059  10.329  0.1204  0.4462  1.1617
  501TMC3    O1 7455   1.972   4.466  10.703 -0.1044 -0.4791  0.3682
  501TMC3    O2 7456   1.807   0.126  10.412 -0.1493 -0.7948  0.2084
  502TMC3    C1 7457   0.881   3.528  15.272  0.4500 -0.1925  0.1654
  502TMC3    C2 7458   0.854   3.652  15.225 -0.3006 -0.2736  0.2907
  502TMC3    C3 7459   0.726   3.685  15.211 -0.7988 -0.3231  0.4371
  502TMC3    C4 7460   0.776   3.441  15.301 -0.6769  0.1677 -0.1912
  502TMC3    C5 7461   0.648   3.479  15.282  0.0807 -0.7338  0.8939
  502TMC3    C6 7462   0.618   3.604  15.241 -1.3269 -1.0488  0.2553
  502TMC3     C 7463   1.018   3.498  15.322 -0.1704  0.4693  0.0995
  502TMC3     O 7464   1.110   3.575  15.284 -0.3600 -0.1506 -0.2852
  502TMC3     H 7465   0.936   3.723  15.219 -0.1853 -0.3063  1.5353
  502TMC3    H1 7466   0.794   3.344  15.347  0.3566  0.6074  0.3245
  502TMC3    H2 7467   0.519   3.643  15.220 -1.1675  0.1866  1.7693
  502TMC3    C7 7468   0.550   3.410  15.365 -0.0234  0.3838 -1.4795
  502TMC3    C8 7469   0.712   3.816  15.259 -0.5373  0.0790  0.1466
  502TMC3    O1 7470   0.573   3.293  15.398  0.0175 -0.7679 -0.0792
  502TMC3    O2 7471   0.761   3.907  15.195  0.0008  0.4768 -0.2059
  503MPD2     C 7472   3.079   4.708  16.915 -0.3552  0.2248 -0.2126
  503MPD2    C1 7473   3.090   4.676  17.051  0.9143  0.1732 -0.0640
  503MPD2    C2 7474   3.111   4.543  17.087 -0.0348  0.6514  0.4573
  503MPD2    C3 7475   3.099   4.441  16.998 -0.0681 -0.0582 -0.4363
  503MPD2    C4 7476   3.080   4.474  16.863 -0.2357  0.0649  0.0950
  503MPD2    C5 7477   3.066   4.605  16.826  0.8713 -0.1936 -0.1222
  503MPD2     H 7478   3.124   4.527  17.194 -0.1530  0.1579  0.3991
  503MPD2    H1 7479   3.060   4.399  16.788 -2.9201 -0.2264  1.0969
  503MPD2    H2 7480   3.082   0.087  16.888 -0.7962  0.1210 -0.6584
  503MPD2    H3 7481   3.040   4.629  16.724 -1.4870 -1.6445  0.1515
  503MPD2     N 7482   3.096   4.308  17.044  0.2829  0.7051  0.2750
  503MPD2    H5 7483   3.092   4.293  17.144 -1.4116 -0.3468  0.0397
  503MPD2    N1 7484   3.081   0.055  17.153 -0.2097  0.4945  0.2289
  503MPD2    H7 7485   3.110   0.030  17.248 -1.6990 -1.9055  0.0492
  504TMC3    C1 7486   3.139   4.069  17.036  0.2844 -0.3934  0.3947
  504TMC3    C2 7487   3.110   4.052  17.173  0.7573  0.1817 -0.2553
  504TMC3    C3 7488   3.170   3.955  17.249 -0.1959 -0.2843 -0.4224
  504TMC3    C4 7489   3.248   4.008  16.987  0.0357  0.3427 -1.2431
  504TMC3    C5 7490   3.322   3.932  17.069 -0.5099  0.1184  0.1834
  504TMC3    C6 7491   3.287   3.895  17.201 -0.3399 -0.3826  0.7123
  504TMC3     C 7492   3.101   4.194  16.965 -0.6287 -0.2884  0.2716
  504TMC3     O 7493   3.130   4.197  16.848 -0.1571 -0.0839  0.2464
  504TMC3     H 7494   3.027   4.112  17.210  0.6540  0.3189 -0.7083
  504TMC3    H1 7495   3.296   4.041  16.895 -0.5259  2.4471 -0.7689
  504TMC3    H2 7496   3.337   3.821  17.263  1.8780  0.0294 -0.5673
  504TMC3    C7 7497   3.455   3.910  17.012 -0.0743 -0.0477  0.3929
  504TMC3    C8 7498   3.147   3.951  17.392  0.0263 -0.5045 -0.4364
  504TMC3    O1 7499   3.473   3.912  16.890 -0.0061  0.2806 -0.2811
  504TMC3    O2 7500   3.247   3.918  17.461 -0.4269  0.4242  0.3857
  505MPD2     C 7501   3.593   3.213  11.203 -0.2696 -0.1602  0.9415
  505MPD2    C1 7502   3.587   3.087  11.152 -0.3116 -0.4005 -0.2747
  505MPD2    C2 7503   3.705   3.026  11.108  0.1354  0.7899 -0.3676
  505MPD2    C3 7504   3.828   3.094  11.121 -0.7741 -0.0840  0.4775
  505MPD2    C4 7505   3.840   3.216  11.184 -0.9838  1.0256 -0.1690
  505MPD2    C5 7506   3.718   3.274  11.218 -0.0988  0.1693 -0.3050
  505MPD2     H 7507   3.702   2.923  11.076 -1.0771  0.6442  0.2003
  505MPD2    H1 7508   3.935   3.265  11.201 -0.8628 -0.2142  2.7360
  505MPD2    H2 7509   3.504   3.262  11.242 -1.9971 -0.9293 -2.0163
  505MPD2    H3 7510   3.722   3.366  11.274 -0.3539  1.8577 -3.0575
  505MPD2     N 7511   3.934   3.016  11.065  0.4397 -0.2765 -0.3022
  505MPD2    H5 7512   3.899   2.934  11.018 -0.5889  1.0149 -1.8134
  505MPD2    N1 7513   3.457   3.019  11.141 -0.5098  0.3693  0.5696
  505MPD2    H7 7514   3.372   3.074  11.149 -1.3358 -0.8428  0.1403
  506TMC3    C1 7515   3.309   2.850  11.058 -0.3520  0.0855  0.5307
  506TMC3    C2 7516   3.238   2.939  10.990 -0.5082  0.1269 -0.2251
  506TMC3    C3 7517   3.146   2.875  10.908 -0.1728 -0.3134 -0.1011
  506TMC3    C4 7518   3.300   2.714  11.041  0.1772  0.2365 -0.7624
  506TMC3    C5 7519   3.215   2.660  10.951 -0.0965 -0.0514 -0.1779
  506TMC3    C6 7520   3.125   2.743  10.888 -0.3776 -0.4595  0.7991
  506TMC3     C 7521   3.445   2.890  11.097  0.3699 -0.3620 -0.1672
  506TMC3     O 7522   3.528   2.802  11.097 -0.3507  0.3571 -0.4108
  506TMC3     H 7523   3.247   3.047  10.985 -0.5076  0.1308 -0.1358
  506TMC3    H1 7524   3.359   2.652  11.108  0.3912 -1.3102 -2.4038
  506TMC3    H2 7525   3.046   2.719  10.817 -1.2484 -2.7555  2.5384
  506TMC3    C7 7526   3.289   2.575  10.855  0.6012  0.0762  0.3655
  506TMC3    C8 7527   3.077   2.964  10.820 -0.4134  0.3619  1.0348
  506TMC3    O1 7528   3.228   2.533  10.758 -0.1720  0.1779  0.6871
  506TMC3    O2 7529   2.954   2.945  10.804 -0.5090  0.0594  0.6703
  507TMC3    C1 7530   3.906   4.239  15.484  0.1336  0.5385 -1.0069
  507TMC3    C2 7531   3.960   4.116  15.473  0.1451  0.1524 -0.3233
  507TMC3    C3 7532   4.070   4.102  15.392  0.3525 -0.1859 -0.1157
  507TMC3    C4 7533   3.938   4.336  15.398 -0.6073 -0.0982  0.3858
  507TMC3    C5 7534   4.038   4.326  15.315 -0.2234  0.4387 -0.3376
  507TMC3    C6 7535   4.112   4.209  15.316 -0.0883  0.5330  0.0697
  507TMC3     C 7536   3.783   4.253  15.556 -0.3236 -0.2592 -0.3433
  507TMC3     O 7537   3.724   4.360  15.549  0.1640 -0.0668  0.3857
  507TMC3     H 7538   3.937   4.030  15.535  0.2984 -0.0593 -0.5627
  507TMC3    H1 7539   3.886   4.430  15.408 -0.7995 -0.3869  2.1135
  507TMC3    H2 7540   4.199   4.199  15.253  1.2929 -0.0022  2.0455
  507TMC3    C7 7541   4.013   4.364  15.180  0.1068  0.4910  0.8506
  507TMC3    C8 7542   4.058   3.980  15.317  0.7451  1.0261 -0.0822
  507TMC3    O1 7543   3.948   4.270  15.131 -0.1753 -0.0085  0.2636
  507TMC3    O2 7544   4.052   3.871  15.372 -0.1530 -0.2954 -0.3374
  508MPD2     C 7545   4.584   1.818  16.525 -0.2036 -0.1640  0.2569
  508MPD2    C1 7546   4.646   1.935  16.497  0.6967  0.0909  0.0133
  508MPD2    C2 7547   4.628   1.998  16.373 -0.6048  0.7192 -0.0070
  508MPD2    C3 7548   4.552   1.929  16.279  0.3777  0.3185  0.1663
  508MPD2    C4 7549   4.478   1.818  16.311 -0.6318  0.5825  0.4559
  508MPD2    C5 7550   4.492   1.765  16.436 -0.3984 -0.5597  0.0345
  508MPD2     H 7551   4.662   2.100  16.358  1.7235 -0.1166 -0.3378
  508MPD2    H1 7552   4.425   1.754  16.242  0.8910 -1.6321  1.3283
  508MPD2    H2 7553   4.610   1.772  16.620 -1.2753 -1.1384  0.0846
  508MPD2    H3 7554   4.448   1.675  16.478 -0.1045 -1.6781 -2.0571
  508MPD2     N 7555   4.535   1.995  16.153 -0.5840 -0.7148  0.4338
  508MPD2    H5 7556   4.586   2.081  16.136  0.0734 -1.1131  0.3859
  508MPD2    N1 7557   0.004   1.979  16.605  0.2133 -0.1214 -0.3881
  508MPD2    H7 7558   0.001   1.929  16.693  0.6108  0.4274 -0.0660
  509TMC3    C1 7559   4.523   2.207  15.808  0.2076  0.1510 -0.0575
  509TMC3    C2 7560   4.609   2.155  15.713  0.0929 -0.2198  0.0964
  509TMC3    C3 7561   4.631   2.018  15.713 -0.4902 -0.1808 -0.4447
  509TMC3    C4 7562   4.478   2.140  15.914 -0.0299  0.9533  0.1875
  509TMC3    C5 7563   4.503   2.005  15.910 -0.1468  1.1677 -0.3409
  509TMC3    C6 7564   4.577   1.940  15.819 -0.5971  1.1080  0.3229
  509TMC3     C 7565   4.482   2.345  15.788  0.4285 -0.0808  0.4380
  509TMC3     O 7566   4.443   2.399  15.890  0.1923 -0.0724 -0.0199
  509TMC3     H 7567   4.669   2.223  15.655  0.4500 -0.4379  0.2066
  509TMC3    H1 7568   4.408   2.178  15.987  0.1737 -0.0285  0.8957
  509TMC3    H2 7569   4.606   1.838  15.840 -0.8312  1.2389  1.2763
  509TMC3    C7 7570   4.489   1.932  16.037  1.0673 -0.1181 -0.2179
  509TMC3    C8 7571   0.019   1.971  15.637  0.1469  0.0510 -0.1796
  509TMC3    O1 7572   4.462   1.816  16.021  0.0769 -0.4568 -0.8646
  509TMC3    O2 7573   0.078   1.878  15.688  0.1879 -0.9142  0.5714
  510MPD2     C 7574   2.501   3.657  14.632 -0.3635  0.0145 -0.2228
  510MPD2    C1 7575   2.589   3.612  14.734 -0.5356  0.3313  0.6494
  510MPD2    C2 7576   2.724   3.591  14.702  0.9157  0.0952  0.2057
  510MPD2    C3 7577   2.764   3.603  14.569 -0.5347  0.3430 -0.0146
  510MPD2    C4 7578   2.675   3.641  14.468 -0.8467 -0.0988 -0.0135
  510MPD2    C5 7579   2.545   3.672  14.500 -0.3594  0.0977  0.5106
  510MPD2     H 7580   2.799   3.553  14.771  2.1711  1.0067 -0.6408
  510MPD2    H1 7581   2.695   3.660  14.363  0.2820 -2.2460 -0.1825
  510MPD2    H2 7582   2.395   3.667  14.653 -0.7037 -2.9011 -0.5198
  510MPD2    H3 7583   2.483   3.694  14.415 -0.4497 -1.1072  0.2669
  510MPD2     N 7584   2.899   3.579  14.545 -0.4339 -0.0900  0.3846
  510MPD2    H5 7585   2.961   3.558  14.623  2.9622 -0.1573 -2.3200
  510MPD2    N1 7586   2.531   3.564  14.860  1.0327 -0.3003  0.7489
  510MPD2    H7 7587   2.430   3.570  14.868  1.2413 -0.0721  3.1870
  511TMC3    C1 7588   2.513   3.413  15.027 -0.4630 -0.4653 -0.3055
  511TMC3    C2 7589   2.403   3.465  15.086  0.0191 -0.1081  0.2312
  511TMC3    C3 7590   2.319   3.376  15.151 -0.0618 -0.2229  0.5153
  511TMC3    C4 7591   2.543   3.277  15.033 -0.8315 -0.4248 -0.1417
  511TMC3    C5 7592   2.447   3.189  15.084 -0.3632  0.4611  0.2048
  511TMC3    C6 7593   2.335   3.240  15.149 -0.3912 -0.6868 -0.9725
  511TMC3     C 7594   2.603   3.483  14.944  0.2444  0.2743  0.0629
  511TMC3     O 7595   2.714   3.431  14.926  0.1135  0.8583  1.5322
  511TMC3     H 7596   2.398   3.573  15.080  3.5771  0.1554  1.9671
  511TMC3    H1 7597   2.630   3.231  14.987 -0.7105 -0.0310 -0.3035
  511TMC3    H2 7598   2.257   3.178  15.190 -0.4906  0.5949  0.7558
  511TMC3    C7 7599   2.439   3.056  15.029  0.1792 -0.1368  0.0283
  511TMC3    C8 7600   2.205   3.443  15.215 -0.2879 -0.0713 -0.2724
  511TMC3    O1 7601   2.490   3.029  14.920 -0.5464 -0.3835 -0.9670
  511TMC3    O2 7602   2.204   3.564  15.205  0.3841 -0.1591  0.0369
  512TMC3    C1 7603   1.047   2.873  13.029  0.3815 -0.1272 -0.0521
  512TMC3    C2 7604   1.152   2.818  13.103  0.7460 -0.8430 -0.2934
  512TMC3    C3 7605   1.171   2.681  13.083  0.3038  1.1570 -0.2175
  512TMC3    C4 7606   0.978   2.800  12.934 -0.0589  0.5547 -0.4922
  512TMC3    C5 7607   1.010   2.663  12.908 -0.4555  0.3756 -0.3417
  512TMC3    C6 7608   1.106   2.607  12.987  0.3224  0.0917  0.4460
  512TMC3     C 7609   1.005   3.007  13.058 -0.0068 -0.2338 -1.2823
  512TMC3     O 7610   0.968   3.077  12.963 -0.3485 -0.0551  0.4583
  512TMC3     H 7611   1.209   2.884  13.167 -1.5846  0.5866  0.2936
  512TMC3    H1 7612   0.898   2.847  12.877  1.1737  1.8333 -1.1994
  512TMC3    H2 7613   1.116   2.499  12.978 -0.9502  0.0141 -0.0847
  512TMC3    C7 7614   0.951   2.591  12.795 -0.2698  0.3811  0.5833
  512TMC3    C8 7615   1.279   2.612  13.147  0.3050 -0.5548 -0.7151
  512TMC3    O1 7616   0.869   2.655  12.733  0.2997  0.0838  0.0564
  512TMC3    O2 7617   1.314   2.501  13.102 -0.0668 -0.0173  0.2540
  513MPD2     C 7618   2.729   2.536  13.225  0.0061 -0.5768  0.1966
  513MPD2    C1 7619   2.815   2.617  13.148 -0.2806  0.2329 -0.3983
  513MPD2    C2 7620   2.896   2.702  13.221  0.0083 -0.8322 -0.9810
  513MPD2    C3 7621   2.880   2.722  13.356 -0.1264  0.8979 -0.1764
  513MPD2    C4 7622   2.779   2.655  13.425  0.4201 -0.2869 -0.7813
  513MPD2    C5 7623   2.709   2.555  13.360 -0.4571  0.6640  0.1308
  513MPD2     H 7624   2.972   2.768  13.181  0.1785 -1.2287 -1.3041
  513MPD2    H1 7625   2.763   2.687  13.527  1.0638 -2.4102 -0.0148
  513MPD2    H2 7626   2.686   2.450  13.177 -2.8652  2.9166 -3.4480
  513MPD2    H3 7627   2.645   2.494  13.423 -0.0384 -1.0592 -1.1145
  513MPD2     N 7628   2.970   2.812  13.421  0.2301  0.7263  0.1990
  513MPD2    H5 7629   3.025   2.871  13.359  0.2858  0.1752 -0.2720
  513MPD2    N1 7630   2.841   2.576  13.014 -0.1187  0.2913 -0.7816
  513MPD2    H7 7631   2.783   2.502  12.975  0.1562 -1.3852  1.9915
  514TMC3    C1 7632   2.983   2.541  12.826 -0.1693  0.3631 -0.1381
  514TMC3    C2 7633   2.895   2.582  12.727 -0.2057  0.3448 -0.4229
  514TMC3    C3 7634   2.945   2.624  12.608  0.3643  1.1173  0.3540
  514TMC3    C4 7635   3.118   2.558  12.803  0.5559 -0.3740 -0.3850
  514TMC3    C5 7636   3.165   2.624  12.695 -0.8842  0.3427 -0.6002
  514TMC3    C6 7637   3.077   2.641  12.585  0.2080 -0.0847  0.1869
  514TMC3     C 7638   2.943   2.626  12.937 -0.2026 -0.7784  0.1017
  514TMC3     O 7639   3.021   2.711  12.969 -0.1372 -0.1393  0.6495
  514TMC3     H 7640   2.788   2.583  12.746 -0.0319  1.8357  0.4709
  514TMC3    H1 7641   3.182   2.552  12.891  0.0051 -1.7074 -0.0764
  514TMC3    H2 7642   3.129   2.670  12.494  0.1774 -2.6611 -0.6563
  514TMC3    C7 7643   3.256   2.731  12.715  0.3333  0.2595 -0.0052
  514TMC3    C8 7644   2.847   2.631  12.494 -0.1609 -0.0011  0.7579
  514TMC3    O1 7645   3.324   2.780  12.622 -0.1183 -0.2823  0.3356
  514TMC3    O2 7646   2.727   2.648  12.522  0.2834  0.1975 -0.0646
  515MPD2     C 7647   1.175   0.316  14.669 -0.0613  0.6054 -0.2469
  515MPD2    C1 7648   1.207   0.184  14.690 -0.3374 -0.3329 -0.4038
  515MPD2    C2 7649   1.316   0.146  14.759  0.5079  0.7376  0.0498
  515MPD2    C3 7650   1.403   0.249  14.812  0.2672  0.4995  0.0450
  515MPD2    C4 7651   1.379   0.379  14.780  0.1403 -0.5038  0.0700
  515MPD2    C5 7652   1.269   0.408  14.706 -0.5242  0.4902 -0.7052
  515MPD2     H 7653   1.342   0.042  14.777  0.2631  0.4694 -1.1670
  515MPD2    H1 7654   1.438   0.464  14.812  1.8052 -1.5764 -0.1438
  515MPD2    H2 7655   1.085   0.345  14.614 -0.9294 -0.3224  0.6906
  515MPD2    H3 7656   1.250   0.511  14.678 -2.2683  1.0002  2.3296
  515MPD2     N 7657   1.526   0.217  14.879  0.0221 -0.1222  0.5631
  515MPD2    H5 7658   1.582   0.298  14.901 -0.1883  0.8605 -2.4328
  515MPD2    N1 7659   1.112   0.094  14.638  0.5947 -0.0349  0.0433
  515MPD2    H7 7660   1.032   0.126  14.585  0.9573  0.8623  0.0388
  516TMC3    C1 7661   1.003   4.602  14.623 -0.2265 -1.0880 -0.2548
  516TMC3    C2 7662   0.931   4.650  14.521  0.6110 -0.0792  0.0850
  516TMC3    C3 7663   0.836   4.571  14.471 -0.5735 -0.4801  0.1230
  516TMC3    C4 7664   0.989   4.474  14.674  0.1798  0.1104 -0.1184
  516TMC3    C5 7665   0.894   4.399  14.619 -0.1798  0.4248  0.3338
  516TMC3    C6 7666   0.808   4.446  14.525  0.4103 -0.4643  0.2124
  516TMC3     C 7667   1.110   4.687  14.676  0.7830  0.3142 -0.5115
  516TMC3     O 7668   1.176   4.636  14.765  0.0147 -0.1725 -0.1266
  516TMC3     H 7669   0.942   0.021  14.474 -0.8413  0.1017  0.1300
  516TMC3    H1 7670   1.054   4.439  14.753  2.5427  1.1330 -1.6169
  516TMC3    H2 7671   0.737   4.377  14.481 -2.1208  1.4010  1.3400
  516TMC3    C7 7672   0.890   4.261  14.660 -0.5734  0.4145 -0.3988
  516TMC3    C8 7673   0.751   4.598  14.355 -0.1646 -0.0983 -0.3843
  516TMC3    O1 7674   0.991   4.208  14.709  0.5641 -0.0826 -0.4201
  516TMC3    O2 7675   0.636   4.563  14.368  0.4483 -0.7486 -0.1608
  517MPD2     C 7676   1.621   1.232   0.309 -0.1650 -0.0899  0.9639
  517MPD2    C1 7677   1.728   1.174   0.373  0.0332 -0.6128  0.4051
  517MPD2    C2 7678   1.802   1.248   0.469  0.2860  0.2114  0.3995
  517MPD2    C3 7679   1.775   1.380   0.489 -0.4465 -0.4998 -0.2196
  517MPD2    C4 7680   1.674   1.442   0.418  0.6619 -0.2596 -0.3856
  517MPD2    C5 7681   1.596   1.369   0.332  0.3919  0.4823  0.1009
  517MPD2     H 7682   1.880   1.190   0.516  0.3982 -0.3152 -0.4201
  517MPD2    H1 7683   1.652   1.547   0.433  1.8127 -0.0656 -0.0286
  517MPD2    H2 7684   1.578   1.180   0.224  0.2862  0.0418  0.6541
  517MPD2    H3 7685   1.528   1.428   0.271  0.1661  0.1755  0.0525
  517MPD2     N 7686   1.849   1.447   0.591 -0.0580  0.7815 -0.5177
  517MPD2    H5 7687   1.910   1.396   0.654 -0.6346 -1.0528 -1.4333
  517MPD2    N1 7688   1.776   1.045   0.350  0.3230  0.1029 -0.1960
  517MPD2    H7 7689   1.858   1.021   0.404  0.3116  1.4076  0.3969
  518TMC3    C1 7690   1.818   0.850   0.250 -0.7918  0.1505  0.5011
  518TMC3    C2 7691   1.777   0.720   0.226 -0.0418 -0.8111 -0.1194
  518TMC3    C3 7692   1.870   0.629   0.238  0.6455  0.2380  0.1308
  518TMC3    C4 7693   1.948   0.887   0.261 -0.0158  0.1155 -0.0953
  518TMC3    C5 7694   2.036   0.784   0.266  0.6838 -0.5225 -0.0745
  518TMC3    C6 7695   2.001   0.651   0.261 -0.2029  0.0267  0.1440
  518TMC3     C 7696   1.718   0.955   0.269 -0.3101 -0.9552 -0.2549
  518TMC3     O 7697   1.608   0.940   0.217  0.1938  0.0564 -0.0264
  518TMC3     H 7698   1.673   0.689   0.235  0.3780 -1.6947  1.6013
  518TMC3    H1 7699   1.981   0.988   0.238 -1.9065  1.2313  1.9897
  518TMC3    H2 7700   2.067   0.573   0.298 -1.8849 -1.1702  0.6330
  518TMC3    C7 7701   2.178   0.811   0.278 -0.1214 -0.0765 -0.0772
  518TMC3    C8 7702   1.821   0.508   0.295 -0.1500  0.5028 -0.4498
  518TMC3    O1 7703   2.206   0.925   0.307  0.6142  0.3350 -0.0443
  518TMC3    O2 7704   1.877   0.462   0.392  0.4328  0.0102 -0.5997
  519MPD2     C 7705   2.686   4.538  14.715  0.6044  0.0522 -0.4584
  519MPD2    C1 7706   2.624   4.456  14.625  0.7934  0.0501  0.0602
  519MPD2    C2 7707   2.666   4.321  14.609 -0.6010  0.2535  0.2573
  519MPD2    C3 7708   2.777   4.278  14.685 -0.0372 -0.3388 -0.0305
  519MPD2    C4 7709   2.844   4.370  14.762 -0.1306  0.1550 -0.0671
  519MPD2    C5 7710   2.790   4.493  14.782 -1.2054  0.7365 -0.2527
  519MPD2     H 7711   2.626   4.255  14.533 -0.4926 -1.1641  1.4379
  519MPD2    H1 7712   2.937   4.341  14.811  0.3543 -0.0326 -1.0860
  519MPD2    H2 7713   2.647   4.635  14.741  0.1521  0.3154 -2.1407
  519MPD2    H3 7714   2.834   4.558  14.857  0.4996  0.8925 -1.3777
  519MPD2     N 7715   2.838   4.153  14.665 -0.0905  0.3005  0.1809
  519MPD2    H5 7716   2.939   4.141  14.668 -0.1434  0.0313  0.7954
  519MPD2    N1 7717   2.523   4.527  14.549  0.0966  0.0047 -0.0080
  519MPD2    H7 7718   2.519   4.628  14.557 -0.5985 -0.0983  0.9980
  520TMC3    C1 7719   2.852   3.947  14.535  0.2626 -0.5218 -0.2558
  520TMC3    C2 7720   2.787   3.922  14.416 -0.0326  0.4490 -0.2043
  520TMC3    C3 7721   2.872   3.897  14.307  0.5498 -0.6635  0.1180
  520TMC3    C4 7722   2.987   3.957  14.547 -0.8537 -0.0563 -0.0353
  520TMC3    C5 7723   3.067   3.923  14.438  0.5908 -0.0911 -0.6451
  520TMC3    C6 7724   3.008   3.902  14.314 -0.1640  0.3501 -0.5634
  520TMC3     C 7725   2.771   4.046  14.602  0.1882 -0.7620 -0.3636
  520TMC3     O 7726   2.650   4.037  14.586  0.3768 -0.2154 -0.2367
  520TMC3     H 7727   2.681   3.900  14.419  0.2884 -0.4426  4.1941
  520TMC3    H1 7728   3.038   3.972  14.642  0.2623  0.3811 -0.7079
  520TMC3    H2 7729   3.066   3.873  14.228 -0.0515  1.5398 -0.8812
  520TMC3    C7 7730   3.197   3.866  14.468 -0.6222  0.0422  0.1554
  520TMC3    C8 7731   2.822   3.874  14.171  0.2389 -0.0981 -0.1422
  520TMC3    O1 7732   3.205   3.794  14.566  0.1191 -0.5243 -0.3457
  520TMC3    O2 7733   2.904   3.853  14.083  0.6075 -0.2781  0.3777
  521MPD2     C 7734   3.939   2.304   0.477 -0.6443  0.0884 -0.0358
  521MPD2    C1 7735   3.914   2.282   0.343  0.1423  0.1958 -0.2211
  521MPD2    C2 7736   4.026   2.310   0.260  0.1317  0.3462 -0.4377
  521MPD2    C3 7737   4.145   2.353   0.317  0.8639 -0.0022 -0.7034
  521MPD2    C4 7738   4.163   2.371   0.451  0.4236  0.4505  0.5560
  521MPD2    C5 7739   4.055   2.349   0.531  0.0821 -0.2872  1.0117
  521MPD2     H 7740   4.008   2.327   0.155  0.6351 -0.4176 -0.6428
  521MPD2    H1 7741   4.247   2.423   0.497  1.2598 -0.3867 -0.0155
  521MPD2    H2 7742   3.863   2.275   0.548 -0.3429 -0.5237  0.0453
  521MPD2    H3 7743   4.063   2.358   0.639 -2.1875  2.0804  1.0023
  521MPD2     N 7744   4.241   2.387   0.228  0.4987  0.3786 -0.3654
  521MPD2    H5 7745   4.211   2.383   0.131 -0.1720  3.5915 -0.2785
  521MPD2    N1 7746   3.788   2.236   0.298 -0.5002 -0.4636 -0.3930
  521MPD2    H7 7747   3.721   2.211   0.370 -1.1880  1.2123 -0.4512
  522TMC3    C1 7748   4.440   2.410   0.125  0.5168  0.0421  0.3417
  522TMC3    C2 7749   4.545   2.321   0.120  0.1049  0.2338  0.0578
  522TMC3    C3 7750   4.581   2.289  17.699 -0.5496 -0.8275  0.1659
  522TMC3    C4 7751   4.367   2.461   0.018 -0.3621  0.5341  0.7262
  522TMC3    C5 7752   4.404   2.412  17.599  0.4148  0.0317  0.5557
  522TMC3    C6 7753   4.521   2.338  17.586  0.0216 -0.1019  0.0724
  522TMC3     C 7754   4.370   2.413   0.253  0.4056  0.5311 -0.4775
  522TMC3     O 7755   4.429   2.430   0.359  1.0864  0.1796 -0.0882
  522TMC3     H 7756   4.601   2.295   0.209 -0.2364  0.4128  0.3243
  522TMC3    H1 7757   4.289   2.534   0.035  0.8221  2.1786 -0.9482
  522TMC3    H2 7758   4.557   2.311  17.488 -0.8259  0.4467 -0.3864
  522TMC3    C7 7759   4.379   2.501  17.485  0.0832 -0.1331 -0.2709
  522TMC3    C8 7760   4.683   2.183  17.683  0.0852 -0.9974 -0.3010
  522TMC3    O1 7761   4.476   2.512  17.405  0.1871  0.0407 -0.3900
  522TMC3    O2 7762   4.701   2.114   0.076 -0.4932 -0.0887 -0.1569
  523MPD2     C 7763   1.220   1.613  10.135 -0.2490  0.5761  0.1969
  523MPD2    C1 7764   1.168   1.502  10.083 -0.6525  0.3907  0.0768
  523MPD2    C2 7765   1.095   1.510   9.965  0.0443 -0.1066  0.4649
  523MPD2    C3 7766   1.074   1.636   9.911  0.6072  0.6473  0.0547
  523MPD2    C4 7767   1.110   1.752   9.975 -0.3258 -1.4013  0.6174
  523MPD2    C5 7768   1.193   1.741  10.087  0.4170 -0.3733 -0.5667
  523MPD2     H 7769   1.061   1.420   9.915 -0.7810 -0.5558  1.8456
  523MPD2    H1 7770   1.070   1.848   9.945  0.9784 -1.4939 -1.4359
  523MPD2    H2 7771   1.279   1.610  10.226 -1.6981  1.2922  1.1593
  523MPD2    H3 7772   1.243   1.831  10.122 -0.0693  0.1177 -1.1269
  523MPD2     N 7773   0.994   1.654   9.797  0.4984 -0.4018 -0.2888
  523MPD2    H5 7774   0.998   1.747   9.757 -0.1576 -0.1693  0.1909
  523MPD2    N1 7775   1.216   1.380  10.134 -0.4888  0.5294 -0.1571
  523MPD2    H7 7776   1.290   1.392  10.203 -0.7533 -2.7150  0.6632
  524TMC3    C1 7777   0.868   1.621   9.605 -0.3610 -0.0036 -0.2442
  524TMC3    C2 7778   0.804   1.542   9.515  0.2753 -0.0802 -0.2792
  524TMC3    C3 7779   0.706   1.591   9.437 -0.4990 -0.8334  0.7164
  524TMC3    C4 7780   0.839   1.753   9.608  0.3163  0.1738 -0.0479
  524TMC3    C5 7781   0.744   1.802   9.521  0.7659 -0.2773 -0.2911
  524TMC3    C6 7782   0.672   1.721   9.436  0.1432  0.3406  0.3902
  524TMC3     C 7783   0.941   1.561   9.709 -0.3643 -0.5828  0.3074
  524TMC3     O 7784   0.946   1.441   9.717  0.5584  0.1406 -0.2034
  524TMC3     H 7785   0.841   1.441   9.500 -1.5782 -1.0019  1.3582
  524TMC3    H1 7786   0.892   1.823   9.672 -3.0508  1.0297  1.7847
  524TMC3    H2 7787   0.617   1.748   9.347  0.0043 -0.1117  0.3386
  524TMC3    C7 7788   0.726   1.945   9.506  0.5939 -0.0199 -0.0841
  524TMC3    C8 7789   0.660   1.506   9.328  0.6532 -0.3007  0.2570
  524TMC3    O1 7790   0.804   2.025   9.553 -0.8256 -0.4906 -0.1754
  524TMC3    O2 7791   0.730   1.410   9.292  0.3334  0.2233  0.1615
  525MPD2     C 7792   4.192   3.498  14.631 -0.0618  0.0632  0.1596
  525MPD2    C1 7793   4.287   3.554  14.722  0.3308  0.6228 -0.3186
  525MPD2    C2 7794   4.341   3.682  14.688  0.2600  0.9625 -0.6097
  525MPD2    C3 7795   4.286   3.759  14.585  0.0161 -0.4231 -0.2830
  525MPD2    C4 7796   4.179   3.713  14.515  0.0164  0.5822  0.4284
  525MPD2    C5 7797   4.137   3.583  14.536  0.3510  0.9833  0.8601
  525MPD2     H 7798   4.414   3.728  14.753 -0.4713  1.6777 -0.3007
  525MPD2    H1 7799   4.128   3.766  14.436 -1.5289  0.7886  1.5593
  525MPD2    H2 7800   4.165   3.393  14.635  1.2148 -0.2200  1.2462
  525MPD2    H3 7801   4.062   3.552  14.463 -0.4123  2.7248  0.9169
  525MPD2     N 7802   4.331   3.890  14.558  0.1689  0.5065  0.8993
  525MPD2    H5 7803   4.275   3.940  14.489  0.4452  0.2965  0.5223
  525MPD2    N1 7804   4.352   3.484  14.827 -0.1516 -0.2011  0.6814
  525MPD2    H7 7805   4.424   3.526  14.885  1.7600  0.2408 -2.0282
  526TMC3    C1 7806   4.405   3.309  14.962  0.7288 -0.3414  0.2187
  526TMC3    C2 7807   4.356   3.256  15.080  0.4593  0.3209  0.4908
  526TMC3    C3 7808   4.442   3.245  15.185 -0.1092 -0.2353 -0.5819
  526TMC3    C4 7809   4.538   3.341  14.953  0.1779  0.6704 -0.5615
  526TMC3    C5 7810   4.626   3.318  15.055  0.2820 -0.2698 -0.5701
  526TMC3    C6 7811   4.572   3.269  15.172 -0.2219  0.2830 -0.5984
  526TMC3     C 7812   4.306   3.367  14.880  0.1380 -0.2275 -0.4812
  526TMC3     O 7813   4.215   3.295  14.849  0.0570  0.1371  0.1709
  526TMC3     H 7814   4.259   3.211  15.065 -0.1640  2.0539 -0.7893
  526TMC3    H1 7815   4.579   3.363  14.855  0.8734  0.6488 -0.2741
  526TMC3    H2 7816   4.637   3.239  15.253  0.0242 -2.2556 -1.7379
  526TMC3    C7 7817   0.026   3.254  15.020 -0.0299  0.5320  0.0908
  526TMC3    C8 7818   4.394   3.188  15.309  0.3408 -0.0593  0.1125
  526TMC3    O1 7819   0.095   3.218  15.114 -0.2635 -0.1015 -0.3836
  526TMC3    O2 7820   4.445   3.225  15.414  0.3647  0.2490 -0.1761
  527MPD2     C 7821   2.715   0.780   1.572  0.5623  0.0968  0.4379
  527MPD2    C1 7822   2.832   0.800   1.638 -0.0522  0.3758 -0.0274
  527MPD2    C2 7823   2.945   0.842   1.575 -0.3487 -0.1939 -0.4510
  527MPD2    C3 7824   2.938   0.889   1.441 -0.0492  0.2204  0.1223
  527MPD2    C4 7825   2.811   0.873   1.376 -0.4293 -0.5978 -0.3522
  527MPD2    C5 7826   2.706   0.817   1.442  0.5328 -0.8686  0.4768
  527MPD2     H 7827   3.039   0.845   1.629 -0.0465 -0.6993 -0.9508
  527MPD2    H1 7828   2.808   0.894   1.269  0.6191  1.0752 -0.0337
  527MPD2    H2 7829   2.626   0.735   1.616 -0.3953  1.7153  0.1576
  527MPD2    H3 7830   2.615   0.792   1.389  0.0770  3.2614 -0.6864
  527MPD2     N 7831   3.055   0.938   1.382  0.4490 -0.4052 -0.1546
  527MPD2    H5 7832   3.135   0.944   1.445 -1.6412 -1.2542  2.5821
  527MPD2    N1 7833   2.844   0.780   1.779 -0.0701  0.6789  0.2826
  527MPD2    H7 7834   2.934   0.820   1.804  0.7733 -1.3498  0.4970
  528TMC3    C1 7835   2.788   0.745   2.009 -0.4960  0.6632 -0.2085
  528TMC3    C2 7836   2.887   0.839   2.030 -0.3199 -0.1791  0.4097
  528TMC3    C3 7837   2.971   0.816   2.136  0.2002  0.2716 -0.6541
  528TMC3    C4 7838   2.772   0.634   2.089 -0.3990  0.4027 -0.3643
  528TMC3    C5 7839   2.867   0.605   2.187  0.4624 -0.0504 -0.5132
  528TMC3    C6 7840   2.970   0.696   2.206  0.0694  0.4288  0.2662
  528TMC3     C 7841   2.751   0.731   1.867  0.3766 -0.6976  0.0562
  528TMC3     O 7842   2.643   0.680   1.845 -0.1286  0.2590  0.0971
  528TMC3     H 7843   2.895   0.926   1.967 -0.9901 -0.6063 -0.2649
  528TMC3    H1 7844   2.701   0.558   2.057  0.6369 -0.3722 -0.8176
  528TMC3    H2 7845   3.043   0.684   2.285  0.8373  1.3165 -0.3062
  528TMC3    C7 7846   2.833   0.504   2.289  0.4413  0.1091  0.6730
  528TMC3    C8 7847   3.075   0.918   2.160  0.2938  0.1722 -0.2559
  528TMC3    O1 7848   2.748   0.427   2.253 -0.2903 -0.2016 -0.0045
  528TMC3    O2 7849   3.067   1.010   2.082  0.5406  0.4122 -0.7389
  529MPD2     C 7850   4.484   4.330   0.543 -0.0321 -0.1616  0.4332
  529MPD2    C1 7851   4.609   4.374   0.586 -0.6947 -0.4667 -0.7276
  529MPD2    C2 7852   4.669   4.472   0.512 -0.3054 -0.2141 -0.1762
  529MPD2    C3 7853   4.628   4.510   0.390 -0.1910  0.2529 -0.1314
  529MPD2    C4 7854   4.514   4.458   0.345 -0.5727 -0.8117  0.2030
  529MPD2    C5 7855   4.430   4.383   0.424  0.2664  0.1410  0.3280
  529MPD2     H 7856   0.043   4.499   0.545 -0.9697  2.4291 -0.3035
  529MPD2    H1 7857   4.477   4.491   0.249 -1.0465 -4.0863 -0.7265
  529MPD2    H2 7858   4.427   4.265   0.607 -0.9805 -0.0950 -0.3476
  529MPD2    H3 7859   4.330   4.351   0.398  0.1050 -0.3736  1.5715
  529MPD2     N 7860   4.702   4.597   0.305  0.2649  0.2115  0.4946
  529MPD2    H5 7861   4.668   4.618   0.211  1.3887 -1.4889 -0.2839
  529MPD2    N1 7862   4.671   4.330   0.710  0.0859  0.0902 -0.4614
  529MPD2    H7 7863   0.027   4.383   0.738  0.4720 -0.9384  0.3388
  530TMC3    C1 7864   4.717   4.228   0.914  0.4147 -0.1238 -0.7106
  530TMC3    C2 7865   0.073   4.325   0.963 -0.1685  0.5479 -0.4567
  530TMC3    C3 7866   0.143   4.303   1.080 -0.4267  0.2862 -0.1946
  530TMC3    C4 7867   4.709   4.104   0.981 -0.2609  0.3001 -0.3391
  530TMC3    C5 7868   0.046   4.091   1.098 -0.3386  0.4660 -0.4747
  530TMC3    C6 7869   0.129   4.188   1.149  0.5933  0.5432 -0.5435
  530TMC3     C 7870   4.628   4.235   0.796  0.2686 -0.9618 -0.4176
  530TMC3     O 7871   4.536   4.152   0.788 -0.7842 -0.2564  0.2171
  530TMC3     H 7872   0.071   4.423   0.916 -0.1866  2.2068  2.9796
  530TMC3    H1 7873   4.651   4.019   0.947 -1.2705  1.0297 -0.4388
  530TMC3    H2 7874   0.191   4.176   1.237 -2.0183  1.6228  1.4366
  530TMC3    C7 7875   0.006   3.980   1.183 -0.5130 -0.3197  0.2917
  530TMC3    C8 7876   0.220   4.409   1.137 -0.0251  0.6158 -0.3048
  530TMC3    O1 7877   4.625   3.924   1.160  0.1199 -0.3225  0.3786
  530TMC3    O2 7878   0.188   4.524   1.117 -0.1203  0.6537  0.4990
  531MPD2     C 7879   3.528   3.010  13.067 -0.1915 -1.2476  0.1789
  531MPD2    C1 7880   3.402   2.975  13.116 -0.1565 -0.4621 -0.4874
  531MPD2    C2 7881   3.313   2.895  13.038  0.0631 -0.6256  0.4257
  531MPD2    C3 7882   3.347   2.860  12.905  0.0103  0.6365  0.5695
  531MPD2    C4 7883   3.472   2.899  12.854 -0.0638 -1.1615  0.4649
  531MPD2    C5 7884   3.557   2.982  12.932 -0.0821  0.3209 -0.4823
  531MPD2     H 7885   3.217   2.855  13.071 -0.6560 -0.6276 -1.6474
  531MPD2    H1 7886   3.506   2.865  12.757 -0.2969 -1.4688  0.4921
  531MPD2    H2 7887   3.588   3.073  13.132 -0.3406  0.3731 -1.2707
  531MPD2    H3 7888   3.647   3.023  12.888 -0.8813 -0.5642 -2.9063
  531MPD2     N 7889   3.255   2.771  12.842  0.0838 -0.0528 -0.0367
  531MPD2    H5 7890   3.178   2.737  12.898 -1.2357  0.7112 -1.3695
  531MPD2    N1 7891   3.366   3.018  13.244  0.5594 -0.0481  0.3374
  531MPD2    H7 7892   3.433   3.060  13.307  1.1095 -1.5945  0.7673
  532TMC3    C1 7893   3.224   3.035  13.428  0.0788  0.2190  0.1490
  532TMC3    C2 7894   3.097   3.020  13.471  0.2205 -0.0918  0.2665
  532TMC3    C3 7895   3.078   2.938  13.578 -0.4296 -0.2923 -0.1766
  532TMC3    C4 7896   3.332   3.006  13.506  0.6033  0.7076 -0.1359
  532TMC3    C5 7897   3.314   2.938  13.619 -1.0487  1.0408 -0.4924
  532TMC3    C6 7898   3.187   2.896  13.655  0.0998 -0.6965  0.2452
  532TMC3     C 7899   3.233   3.020  13.287  0.5031  0.1005 -0.7607
  532TMC3     O 7900   3.133   3.004  13.223 -0.2081  0.3086 -0.2528
  532TMC3     H 7901   3.012   3.061  13.419  0.7148 -0.2198 -0.6350
  532TMC3    H1 7902   3.436   3.021  13.477  1.0562 -4.0822 -1.0321
  532TMC3    H2 7903   3.171   2.829  13.738 -3.0648 -1.2815 -0.8664
  532TMC3    C7 7904   3.429   2.897  13.692 -0.1464 -0.5570  0.0001
  532TMC3    C8 7905   2.977   2.841  13.556 -0.7843  0.4864 -0.5079
  532TMC3    O1 7906   3.447   2.940  13.805 -0.1291  1.0224  0.4173
  532TMC3    O2 7907   2.924   2.798  13.654 -0.0739 -0.0116  0.2883
  533TMC3    C1 7908   4.446   4.087  14.595 -0.0588  0.3702 -0.3541
  533TMC3    C2 7909   4.562   4.153  14.601  0.1531 -0.2400 -0.0780
  533TMC3    C3 7910   4.570   4.273  14.676 -0.0578 -0.2462  0.1520
  533TMC3    C4 7911   4.333   4.143  14.657 -0.4589  0.5867 -0.4317
  533TMC3    C5 7912   4.338   4.261  14.731  0.2836  0.6907  0.6436
  533TMC3    C6 7913   4.458   4.333  14.729 -0.0193  0.3845 -0.2207
  533TMC3     C 7914   4.447   3.938  14.598  0.4998  0.3157  0.1914
  533TMC3     O 7915   4.540   3.894  14.661  0.0644 -1.0684 -0.5697
  533TMC3     H 7916   4.653   4.104  14.567 -0.1680 -0.7772 -0.1593
  533TMC3    H1 7917   4.235   4.097  14.659 -0.9614  1.5792 -2.0959
  533TMC3    H2 7918   4.464   4.437  14.757  0.5690 -0.3556  2.3569
  533TMC3    C7 7919   4.306   4.234  14.864 -0.2324 -0.1033 -0.0521
  533TMC3    C8 7920   4.702   4.330  14.716  0.0952  0.1028  0.1437
  533TMC3    O1 7921   4.269   4.119  14.884  0.0071 -0.3540  0.0568
  533TMC3    O2 7922   4.706   4.392  14.822 -0.2614 -0.8139 -0.1239
  534MPD2     C 7923   2.305   4.507   2.634 -0.1540 -0.2520  0.2992
  534MPD2    C1 7924   2.411   4.491   2.540 -0.3055 -0.4621 -0.5377
  534MPD2    C2 7925   2.379   4.452   2.409 -0.2062  0.4296  0.6726
  534MPD2    C3 7926   2.254   4.408   2.370 -0.2602  0.9435 -0.5822
  534MPD2    C4 7927   2.148   4.436   2.457  0.3701  0.5460 -0.1570
  534MPD2    C5 7928   2.174   4.495   2.582  0.3319  0.3038 -0.0345
  534MPD2     H 7929   2.463   4.444   2.341  0.7588 -1.0770  2.0204
  534MPD2    H1 7930   2.045   4.414   2.430  1.0102  0.6307 -2.6267
  534MPD2    H2 7931   2.317   4.558   2.729 -0.4986  2.3464 -1.0544
  534MPD2    H3 7932   2.092   4.526   2.646 -0.1211 -0.1384 -0.4078
  534MPD2     N 7933   2.221   4.359   2.242 -0.1593 -0.2018  0.5150
  534MPD2    H5 7934   2.124   4.350   2.212  0.2477 -0.1386 -0.8494
  534MPD2    N1 7935   2.545   4.545   2.558 -0.1716  0.2577 -0.0101
  534MPD2    H7 7936   2.604   4.533   2.477  0.9774  1.7806  0.6079
  535TMC3    C1 7937   2.265   4.315   2.009  0.0765 -0.1922  0.2754
  535TMC3    C2 7938   2.138   4.356   1.980  0.2508 -0.5210 -0.0176
  535TMC3    C3 7939   2.115   4.405   1.851 -0.4478  0.1487 -0.3059
  535TMC3    C4 7940   2.359   4.316   1.914  0.5894  0.0594 -0.4317
  535TMC3    C5 7941   2.324   4.353   1.782 -0.5010 -0.3344  0.7230
  535TMC3    C6 7942   2.202   4.402   1.749 -0.1562 -0.3223  0.6043
  535TMC3     C 7943   2.313   4.322   2.147 -0.4093  0.9612 -0.2418
  535TMC3     O 7944   2.432   4.310   2.161  0.5993 -0.2279  0.0071
  535TMC3     H 7945   2.056   4.342   2.049 -0.8051  3.7312 -0.4275
  535TMC3    H1 7946   2.460   4.284   1.936 -0.3538 -1.2748  1.8968
  535TMC3    H2 7947   2.177   4.418   1.644 -2.0501  0.9929  1.2598
  535TMC3    C7 7948   2.421   4.367   1.680  0.3062 -0.1520 -1.2512
  535TMC3    C8 7949   1.983   4.456   1.819  0.1719 -0.1374 -0.7279
  535TMC3    O1 7950   2.379   4.352   1.569  0.0154 -0.6307 -0.3597
  535TMC3    O2 7951   1.941   4.450   1.706 -0.4981  0.2424 -0.4412
  536MPD2     C 7952   1.270   3.522  16.494  0.1798  0.0460  0.8225
  536MPD2    C1 7953   1.226   3.403  16.547  0.4987  0.3237 -0.3926
  536MPD2    C2 7954   1.219   3.289  16.461 -0.7236  0.0030 -0.2031
  536MPD2    C3 7955   1.254   3.298  16.333 -0.1619 -0.2687 -0.4104
  536MPD2    C4 7956   1.310   3.408  16.282 -0.1833 -0.4505  0.5785
  536MPD2    C5 7957   1.313   3.520  16.360 -0.2488 -0.4672 -0.5130
  536MPD2     H 7958   1.169   3.201  16.499  0.1207 -1.0827 -1.6400
  536MPD2    H1 7959   1.345   3.421  16.180 -0.0930 -1.7667  0.4444
  536MPD2    H2 7960   1.270   3.618  16.543  0.6714  1.0137 -1.0734
  536MPD2    H3 7961   1.348   3.613  16.316  2.5341 -1.1053  0.3463
  536MPD2     N 7962   1.234   3.186  16.247 -0.4053  0.3144  0.5285
  536MPD2    H5 7963   1.269   3.199  16.153 -0.6050 -0.7558  0.3075
  536MPD2    N1 7964   1.185   3.401  16.682  0.1719 -0.1450  0.2750
  536MPD2    H7 7965   1.201   3.486  16.736 -0.0892  0.1020 -0.0360
  537TMC3    C1 7966   1.109   3.334  16.890  0.0712  0.1605  0.4318
  537TMC3    C2 7967   1.077   3.458  16.935 -0.0871  0.5040  0.0006
  537TMC3    C3 7968   1.044   3.479  17.066  0.1119  0.1005  0.1966
  537TMC3    C4 7969   1.111   3.234  16.979 -1.0201  0.2871  0.7897
  537TMC3    C5 7970   1.080   3.258  17.114 -0.9901 -0.0556 -0.4859
  537TMC3    C6 7971   1.065   3.383  17.158  0.2450 -0.3263  0.1336
  537TMC3     C 7972   1.134   3.296  16.752  0.2672 -0.0091  0.3073
  537TMC3     O 7973   1.118   3.178  16.717  0.5706 -0.0577 -0.0512
  537TMC3     H 7974   1.051   3.530  16.858 -0.3662  0.8619  0.4289
  537TMC3    H1 7975   1.127   3.132  16.944 -0.3983 -0.0017  1.9235
  537TMC3    H2 7976   1.034   3.402  17.260  1.6841  1.3280  0.2825
  537TMC3    C7 7977   1.091   3.150  17.216  0.2157 -0.2041 -0.1861
  537TMC3    C8 7978   1.060   3.614  17.120  0.0877 -0.4686  0.4724
  537TMC3    O1 7979   1.065   3.192  17.328 -0.3981 -0.8728 -0.0552
  537TMC3    O2 7980   1.101   3.618  17.235 -0.2913 -0.5526  0.7257
  538TMC3    C1 7981   1.759   1.496  10.721  0.3736 -0.4768 -0.1969
  538TMC3    C2 7982   1.871   1.457  10.652  0.0751  0.1865  0.4267
  538TMC3    C3 7983   1.914   1.533  10.552  0.3054 -0.4349 -0.0218
  538TMC3    C4 7984   1.683   1.602  10.680 -0.6557 -0.3839 -0.4486
  538TMC3    C5 7985   1.723   1.666  10.564  0.6467  0.3329 -0.1558
  538TMC3    C6 7986   1.841   1.630  10.502  0.4592 -0.2067 -0.5148
  538TMC3     C 7987   1.703   1.401  10.818 -0.7214 -0.2643  1.1136
  538TMC3     O 7988   1.580   1.390  10.813  0.1612  0.7462 -0.4769
  538TMC3     H 7989   1.921   1.364  10.676  1.2524  0.0274 -2.7190
  538TMC3    H1 7990   1.591   1.620  10.734 -1.1467 -2.0817 -0.7254
  538TMC3    H2 7991   1.876   1.693  10.420 -0.6520  0.9912 -0.0783
  538TMC3    C7 7992   1.619   1.723  10.477  0.5329  0.7193  0.2765
  538TMC3    C8 7993   2.032   1.479  10.484  0.8643  0.3094  0.7573
  538TMC3    O1 7994   1.655   1.729  10.357  0.4075  0.0268 -0.8368
  538TMC3    O2 7995   2.076   1.367  10.502  0.4337  0.0752  0.0583
  539MPD2     C 7996   1.439   0.411  11.907 -0.7093 -0.0459 -0.7535
  539MPD2    C1 7997   1.515   0.465  11.806  0.3477  0.0853 -0.3298
  539MPD2    C2 7998   1.484   0.595  11.763 -0.8095  0.4131  0.4728
  539MPD2    C3 7999   1.377   0.662  11.811  0.4027 -0.7025 -0.0965
  539MPD2    C4 8000   1.302   0.605  11.915 -0.1137 -0.4472  0.8751
  539MPD2    C5 8001   1.334   0.486  11.964  0.0071 -0.0733  0.0742
  539MPD2     H 8002   1.544   0.642  11.686 -1.4281 -2.7960 -1.9600
  539MPD2    H1 8003   1.216   0.658  11.955  0.1213 -1.3347  2.5931
  539MPD2    H2 8004   1.457   0.309  11.939 -3.0580 -0.3296 -0.3473
  539MPD2    H3 8005   1.285   0.451  12.054  0.2307  0.1634  0.2878
  539MPD2     N 8006   1.331   0.786  11.765  1.2128 -0.0959  0.4763
  539MPD2    H5 8007   1.254   0.829  11.815  0.2116 -1.6882  0.3101
  539MPD2    N1 8008   1.615   0.383  11.738 -0.2573 -1.0759 -0.5403
  539MPD2    H7 8009   1.640   0.427  11.650 -2.4058 -1.5804 -1.4036
  540TMC3    C1 8010   1.328   0.981  11.636  0.0312  0.7003  0.0667
  540TMC3    C2 8011   1.316   1.022  11.507  0.3334  0.3771 -0.6203
  540TMC3    C3 8012   1.307   1.154  11.488  0.0612 -0.0485 -0.2507
  540TMC3    C4 8013   1.346   1.070  11.736 -0.1440 -0.0743  0.3584
  540TMC3    C5 8014   1.349   1.202  11.714 -0.0747  0.3904 -0.8555
  540TMC3    C6 8015   1.323   1.250  11.585  0.3402  0.4009  0.1738
  540TMC3     C 8016   1.383   0.846  11.652 -0.3529  0.0281  0.2137
  540TMC3     O 8017   1.463   0.807  11.566 -0.9577  0.0517 -0.1160
  540TMC3     H 8018   1.308   0.944  11.432 -3.2569  2.5682 -2.5116
  540TMC3    H1 8019   1.358   1.030  11.836 -0.5340  0.6658  0.7043
  540TMC3    H2 8020   1.317   1.356  11.562 -0.4105 -0.0614 -1.7051
  540TMC3    C7 8021   1.321   1.288  11.829 -0.0335 -0.0258 -0.1474
  540TMC3    C8 8022   1.288   1.205  11.352 -0.1959 -0.1065  0.2821
  540TMC3    O1 8023   1.278   1.227  11.929  0.0702  0.3341 -0.2888
  540TMC3    O2 8024   1.302   1.325  11.343  0.5079 -0.1183 -0.2145
  541MPD2     C 8025   3.904   2.973  12.731  0.4508  0.4832 -0.4744
  541MPD2    C1 8026   3.997   2.882  12.691 -0.5947 -0.0966 -0.4813
  541MPD2    C2 8027   4.039   2.885  12.554 -0.4816  0.1703  0.2671
  541MPD2    C3 8028   3.994   2.978  12.468 -0.2864  0.0170  0.2981
  541MPD2    C4 8029   3.898   3.068  12.508 -0.0798  0.0181  0.2092
  541MPD2    C5 8030   3.855   3.066  12.639 -0.5087  0.2119  0.2029
  541MPD2     H 8031   4.118   2.821  12.517 -0.9220  0.5279 -1.2913
  541MPD2    H1 8032   3.873   3.148  12.438  3.3239 -0.3522 -1.4047
  541MPD2    H2 8033   3.869   2.978  12.833 -0.9394  0.5069 -0.9464
  541MPD2    H3 8034   3.777   3.139  12.659 -0.8666 -0.3391  0.8067
  541MPD2     N 8035   4.033   2.979  12.332 -0.3508  0.4360  0.7590
  541MPD2    H5 8036   3.988   3.041  12.266 -0.0423  1.3911  1.4333
  541MPD2    N1 8037   4.037   2.789  12.783 -0.0546  0.4297  0.0071
  541MPD2    H7 8038   3.989   2.800  12.872 -0.0411  1.1686 -0.0762
  542TMC3    C1 8039   4.146   2.902  12.139  0.1305  0.3656  0.1225
  542TMC3    C2 8040   4.258   2.843  12.073  0.2509  0.1331  1.0454
  542TMC3    C3 8041   4.252   2.814  11.938  0.6551  0.1539  0.2317
  542TMC3    C4 8042   4.037   2.916  12.066  0.2899 -0.5919 -0.2962
  542TMC3    C5 8043   4.022   2.864  11.936 -0.2997 -0.2762  0.9259
  542TMC3    C6 8044   4.138   2.824  11.865 -0.4971 -0.0694  0.1763
  542TMC3     C 8045   4.145   2.916  12.284 -0.2455 -0.1415 -0.1464
  542TMC3     O 8046   4.245   2.872  12.343 -0.2316  0.0375 -0.0165
  542TMC3     H 8047   4.346   2.837  12.136 -0.6907 -0.5423  2.3168
  542TMC3    H1 8048   3.940   2.943  12.107  0.9327  1.2985  0.0146
  542TMC3    H2 8049   4.140   2.799  11.760  1.9006 -2.0626  0.7169
  542TMC3    C7 8050   3.894   2.881  11.867 -0.9128 -0.2839 -0.0107
  542TMC3    C8 8051   4.363   2.764  11.865 -0.1563  0.8983 -1.1418
  542TMC3    O1 8052   3.800   2.943  11.920  0.2039  0.3144 -0.1942
  542TMC3    O2 8053   4.358   2.773  11.743  0.0679  0.2351 -0.0210
  543TMC3    C1 8054   4.533   4.051  16.714  0.2228  0.6946 -0.4944
  543TMC3    C2 8055   4.411   4.008  16.759 -0.2587  0.2970  0.4068
  543TMC3    C3 8056   4.389   4.004  16.892 -1.0772 -0.1885 -0.0480
  543TMC3    C4 8057   4.636   4.076  16.802  0.7769 -0.1081 -0.5043
  543TMC3    C5 8058   4.608   4.090  16.934  0.8829  0.0730 -0.2444
  543TMC3    C6 8059   4.485   4.051  16.984  0.5228  0.8393 -0.3404
  543TMC3     C 8060   4.567   4.032  16.573  0.0818 -0.1483 -0.3519
  543TMC3     O 8061   4.486   4.066  16.485  0.9246 -0.0415  0.2290
  543TMC3     H 8062   4.338   3.975  16.686 -0.8584  0.2713  1.0140
  543TMC3    H1 8063   4.726   4.121  16.761  1.0974 -0.9184 -0.6954
  543TMC3    H2 8064   4.469   4.064  17.090 -0.2483 -0.4565 -0.2971
  543TMC3    C7 8065   4.710   4.116  17.033 -0.7718  0.8634 -0.2323
  543TMC3    C8 8066   4.324   3.885  16.928 -0.6737 -0.2845  0.0618
  543TMC3    O1 8067   4.673   4.152  17.144  0.3311 -0.8739 -0.1124
  543TMC3    O2 8068   4.335   3.789  16.851  0.5284 -0.5388 -0.5411
  544MPD2     C 8069   4.196   3.545  17.278 -0.1355 -0.2135  0.0585
  544MPD2    C1 8070   4.296   3.537  17.190 -1.0511  0.2085 -0.4103
  544MPD2    C2 8071   4.317   3.640  17.103  0.0292  0.7629 -0.8483
  544MPD2    C3 8072   4.249   3.763  17.118  0.4599 -0.6338 -0.3071
  544MPD2    C4 8073   4.155   3.770  17.215 -0.1476 -0.4796  0.8158
  544MPD2    C5 8074   4.120   3.655  17.292 -0.0144  0.0653  0.4716
  544MPD2     H 8075   4.401   3.642  17.034  1.8358  0.9149  1.3152
  544MPD2    H1 8076   4.104   3.863  17.236 -2.6807 -1.4441 -1.0875
  544MPD2    H2 8077   4.185   3.467  17.354  0.8420 -0.5217 -0.1097
  544MPD2    H3 8078   4.056   3.658  17.379  0.1251  0.6981  0.5516
  544MPD2     N 8079   4.283   3.884  17.058 -0.2622  0.5180 -0.7215
  544MPD2    H5 8080   4.263   3.967  17.113 -0.8150 -0.2678  0.2511
  544MPD2    N1 8081   4.376   3.421  17.202 -0.1190  0.0434  0.5684
  544MPD2    H7 8082   4.367   3.367  17.288 -1.9454 -1.5484 -0.6345
  545TMC3    C1 8083   4.553   3.266  17.151  0.5250  0.5986  0.1837
  545TMC3    C2 8084   4.667   3.240  17.083 -0.0214 -0.1356 -0.5108
  545TMC3    C3 8085   0.003   3.121  17.112 -0.0163 -0.6471  0.0239
  545TMC3    C4 8086   4.496   3.184  17.242  0.0483  0.6608  0.0856
  545TMC3    C5 8087   4.565   3.070  17.268  0.7645  0.2697  0.3822
  545TMC3    C6 8088   4.683   3.037  17.204 -0.5421 -0.2057 -0.1725
  545TMC3     C 8089   4.475   3.387  17.114  0.3774 -0.6604  0.1610
  545TMC3     O 8090   4.494   3.428  16.999  0.6472 -0.3762  0.0514
  545TMC3     H 8091   4.718   3.306  17.013  1.0865 -1.2123 -0.7417
  545TMC3    H1 8092   4.399   3.205  17.285  0.2277 -2.7751  2.1743
  545TMC3    H2 8093   0.015   2.947  17.218 -1.9412 -0.9484  0.8545
  545TMC3    C7 8094   4.535   3.002  17.389 -0.3102 -0.3256 -0.2192
  545TMC3    C8 8095   0.113   3.074  17.027 -0.4644  0.6586 -0.8069
  545TMC3    O1 8096   4.455   3.054  17.462 -0.6508 -0.4100  0.5740
  545TMC3    O2 8097   0.180   2.991  17.082  0.2047  0.0049  0.5693
  546MPD2     C 8098   1.071   3.926  17.608  1.0333 -0.5823 -0.2807
  546MPD2    C1 8099   0.991   3.994  17.523  0.4237  0.3986  0.8220
  546MPD2    C2 8100   1.024   4.130  17.509  0.7903  0.0295 -0.1022
  546MPD2    C3 8101   1.116   4.193  17.591  0.2328 -0.3258 -0.0136
  546MPD2    C4 8102   1.191   4.122  17.684 -0.1288  0.1803  0.2746
  546MPD2    C5 8103   1.170   3.985  17.678  0.0224  0.1164  0.6210
  546MPD2     H 8104   0.957   4.186  17.445 -0.4046 -0.1347  1.0062
  546MPD2    H1 8105   1.272   4.169   0.035 -1.3273  3.4856 -0.7466
  546MPD2    H2 8106   1.075   3.818  17.611 -0.2666 -0.5650  1.8888
  546MPD2    H3 8107   1.240   3.925   0.030 -2.5542 -2.7672  0.7333
  546MPD2     N 8108   1.133   4.334  17.579  0.2301  0.7855  0.2617
  546MPD2    H5 8109   1.183   4.378  17.656  1.1337 -1.7776  1.1438
  546MPD2    N1 8110   0.882   3.937  17.450 -0.6586 -0.1098  0.0260
  546MPD2    H7 8111   0.827   3.993  17.387 -1.5683 -1.5231 -0.4318
  547TMC3    C1 8112   0.710   3.776  17.432 -0.0619  0.4040  0.0508
  547TMC3    C2 8113   0.727   3.719  17.311 -0.0059  0.1534  0.3418
  547TMC3    C3 8114   0.627   3.624  17.293  0.3407  0.3944 -0.0104
  547TMC3    C4 8115   0.620   3.735  17.527  0.5557 -0.1987  0.4717
  547TMC3    C5 8116   0.539   3.630  17.505 -0.5202  0.5650  0.0316
  547TMC3    C6 8117   0.542   3.569  17.386 -0.1361  0.1131  0.5099
  547TMC3     C 8118   0.839   3.808  17.485  0.3900  0.1159 -0.7542
  547TMC3     O 8119   0.872   3.724  17.569 -0.2761  0.2002 -0.1384
  547TMC3     H 8120   0.801   3.751  17.240 -1.6444  0.8517 -1.0402
  547TMC3    H1 8121   0.622   3.779  17.626 -0.2943  1.3965 -0.2110
  547TMC3    H2 8122   0.471   3.492  17.357  0.2478  0.5659 -1.6179
  547TMC3    C7 8123   0.492   3.554  17.621  0.0960 -0.4610 -0.6693
  547TMC3    C8 8124   0.634   3.567  17.164  0.7899 -0.0058 -0.7533
  547TMC3    O1 8125   0.452   3.614   0.016  0.1995  0.3190 -0.1758
  547TMC3    O2 8126   0.660   3.638  17.067 -0.0876  0.0923 -0.4629
  548MPD2     C 8127   1.152   4.301  12.893  0.2236  0.0960  0.1169
  548MPD2    C1 8128   1.030   4.234  12.890  0.1492  0.2619 -0.3003
  548MPD2    C2 8129   1.030   4.096  12.894 -0.0431  0.6338 -0.9086
  548MPD2    C3 8130   1.144   4.023  12.916  0.3350 -0.3937 -0.1554
  548MPD2    C4 8131   1.266   4.090  12.923  0.2495  0.1570 -0.3754
  548MPD2    C5 8132   1.268   4.226  12.906 -0.0781 -0.4119 -0.3503
  548MPD2     H 8133   0.937   4.043  12.875 -0.2026  1.0065 -1.1759
  548MPD2    H1 8134   1.362   4.042  12.942  0.4967  1.3141  1.3324
  548MPD2    H2 8135   1.154   4.410  12.887 -1.2456  0.3236  3.7449
  548MPD2    H3 8136   1.365   4.273  12.914 -0.2277 -0.1095 -0.3246
  548MPD2     N 8137   1.132   3.881  12.923 -0.3065  0.1478 -0.0717
  548MPD2    H5 8138   1.036   3.850  12.912 -0.2957  0.5194 -1.2435
  548MPD2    N1 8139   0.915   4.321  12.879  0.3082 -0.0312 -0.8833
  548MPD2    H7 8140   0.946   4.417  12.869 -1.7964  0.9186  1.9602
  549TMC3    C1 8141   0.696   4.386  12.901  0.0360 -0.3819  0.1032
  549TMC3    C2 8142   0.701   4.484  12.808 -0.1208  0.8718 -0.9090
  549TMC3    C3 8143   0.589   4.552  12.780  0.3881  0.4898  0.0203
  549TMC3    C4 8144   0.580   4.333  12.950  0.2535 -0.4495  0.3105
  549TMC3    C5 8145   0.467   4.404  12.924 -0.4184  0.1923 -0.6980
  549TMC3    C6 8146   0.470   4.515  12.849  0.3063  0.2998  0.5540
  549TMC3     C 8147   0.787   4.281  12.877  0.2391 -0.1211  0.6737
  549TMC3     O 8148   0.743   4.167  12.884  0.1043 -0.0517 -0.0226
  549TMC3     H 8149   0.791   4.502  12.750 -0.0458  0.2578 -0.9834
  549TMC3    H1 8150   0.573   4.259  13.029 -0.7088  0.0322  0.6797
  549TMC3    H2 8151   0.379   4.564  12.818 -1.5408 -1.7921  2.6169
  549TMC3    C7 8152   0.357   4.312  12.880  0.8381  0.2760 -0.5163
  549TMC3    C8 8153   0.575   4.609  12.649 -0.0571  0.0463 -0.4760
  549TMC3    O1 8154   0.246   4.359  12.868 -0.6540 -0.6215 -0.2925
  549TMC3    O2 8155   0.455   4.607  12.613  0.3701  0.0024  0.0056
  550TMC3    C1 8156   4.221   2.355  12.084 -0.6077 -0.1380 -0.0632
  550TMC3    C2 8157   4.150   2.449  12.161  0.6605  0.0199 -0.3317
  550TMC3    C3 8158   4.039   2.498  12.118  0.0987  0.5013  0.1449
  550TMC3    C4 8159   4.168   2.301  11.973 -0.3419 -0.1612  0.7236
  550TMC3    C5 8160   4.041   2.344  11.938  0.0387  0.2663 -0.7426
  550TMC3    C6 8161   3.977   2.446  12.004  0.4501  0.3610  0.4018
  550TMC3     C 8162   4.366   2.356  12.100  0.1519 -0.1465  0.2065
  550TMC3     O 8163   4.411   2.356  12.216 -0.5693  0.7973  0.4399
  550TMC3     H 8164   4.209   2.498  12.238 -0.7921  0.2054  0.6528
  550TMC3    H1 8165   4.212   2.222  11.913  1.7703  2.0696 -0.6570
  550TMC3    H2 8166   3.879   2.482  11.973  0.1457 -1.2142 -0.5025
  550TMC3    C7 8167   3.967   2.277  11.831 -0.2875  0.2676 -0.8950
  550TMC3    C8 8168   3.952   2.577  12.202  0.6823  0.2277 -0.2845
  550TMC3    O1 8169   4.035   2.206  11.761 -0.2108  0.1509  0.3492
  550TMC3    O2 8170   3.879   2.656  12.146  0.3201  0.2613  0.1728
  551TMC3    C1 8171   1.945   0.553  13.490  0.0099  0.3758 -0.3781
  551TMC3    C2 8172   2.007   0.565  13.363  0.7938 -0.1575 -0.5509
  551TMC3    C3 8173   2.113   0.653  13.352  0.3646 -0.4859 -0.1771
  551TMC3    C4 8174   1.993   0.613  13.603  0.1303 -0.3771 -0.6092
  551TMC3    C5 8175   2.101   0.699  13.587  0.4245  0.3272  0.4724
  551TMC3    C6 8176   2.161   0.720  13.466 -0.0799  0.3146  0.7313
  551TMC3     C 8177   1.827   0.470  13.505  0.3475 -0.3720 -0.5342
  551TMC3     O 8178   1.800   0.446  13.622  0.3485  0.1198 -0.3531
  551TMC3     H 8179   1.985   0.497  13.281  1.1025 -0.0043 -0.7577
  551TMC3    H1 8180   1.951   0.611  13.703  0.9521  0.6935 -0.2422
  551TMC3    H2 8181   2.238   0.794  13.448 -1.5231  1.7467  0.5304
  551TMC3    C7 8182   2.158   0.745  13.708  0.0760  1.2296  0.6455
  551TMC3    C8 8183   2.169   0.677  13.226 -1.0721 -0.2615  0.2669
  551TMC3    O1 8184   2.094   0.733  13.808  0.4385 -0.7216  0.0785
  551TMC3    O2 8185   2.201   0.580  13.163  0.1491  0.6459  0.1070
  552MPD2     C 8186   3.384   2.648  14.001 -0.0245  0.4619  0.2530
  552MPD2    C1 8187   3.434   2.525  13.943  0.0643  0.7006  0.5666
  552MPD2    C2 8188   3.540   2.457  14.001  0.0479  0.7645  0.4955
  552MPD2    C3 8189   3.605   2.515  14.113  0.0023 -0.0573 -0.0268
  552MPD2    C4 8190   3.567   2.633  14.161 -0.2910  0.4540 -0.0482
  552MPD2    C5 8191   3.453   2.691  14.113 -0.2017  0.0861  0.3414
  552MPD2     H 8192   3.584   2.370  13.953 -1.4064 -0.1302  0.7602
  552MPD2    H1 8193   3.618   2.678  14.245  0.2566  0.4585 -0.3848
  552MPD2    H2 8194   3.294   2.701  13.971  0.6218  1.7868  0.6370
  552MPD2    H3 8195   3.413   2.771  14.174  0.2402  0.7929 -0.3009
  552MPD2     N 8196   3.722   2.456  14.167  0.5899  0.2506  0.3804
  552MPD2    H5 8197   3.780   2.524  14.215  0.8095 -1.3645  2.4167
  552MPD2    N1 8198   3.369   2.454  13.844 -0.3045 -0.3598 -0.1066
  552MPD2    H7 8199   3.418   2.372  13.811 -1.4780 -0.7668 -0.8157
  553TMC3    C1 8200   3.216   2.397  13.665  0.0848 -0.5113 -0.7999
  553TMC3    C2 8201   3.162   2.452  13.550  0.2821 -0.0550 -0.0082
  553TMC3    C3 8202   3.143   2.375  13.441 -0.7765 -0.1370 -0.3391
  553TMC3    C4 8203   3.240   2.261  13.689 -0.1033  0.4054  0.8805
  553TMC3    C5 8204   3.216   2.181  13.580  0.3380  0.0201  0.1683
  553TMC3    C6 8205   3.162   2.240  13.467 -0.1042 -0.6860  0.0056
  553TMC3     C 8206   3.258   2.494  13.773  0.0753 -0.2583  0.1456
  553TMC3     O 8207   3.198   2.602  13.778 -0.4804  0.3607  0.4458
  553TMC3     H 8208   3.159   2.560  13.545 -0.0731 -0.1046 -0.7422
  553TMC3    H1 8209   3.272   2.217  13.782 -0.8656  0.3717  1.1231
  553TMC3    H2 8210   3.153   2.169  13.385 -2.1221  1.6252 -1.7722
  553TMC3    C7 8211   3.278   2.050  13.563  0.6216 -0.2829  0.2183
  553TMC3    C8 8212   3.242   2.419  13.349 -0.1755  0.1770  1.0695
  553TMC3    O1 8213   3.200   1.962  13.532  0.0346 -0.1239  0.0176
  553TMC3    O2 8214   3.332   2.485  13.400 -0.2988 -0.1536 -0.4658
  554TMC3    C1 8215   0.327   0.948  11.481 -0.6230 -0.3927  0.1281
  554TMC3    C2 8216   0.311   0.865  11.371 -0.4213 -0.5630  0.6655
  554TMC3    C3 8217   0.410   0.852  11.282  0.0195  0.2947 -0.4637
  554TMC3    C4 8218   0.450   1.010  11.500  0.0146 -0.8476  0.0586
  554TMC3    C5 8219   0.557   1.001  11.406 -0.5009  0.1182 -0.2972
  554TMC3    C6 8220   0.535   0.914  11.297 -0.9005 -0.4154 -0.5100
  554TMC3     C 8221   0.278   0.898  11.605 -0.0564  0.5183 -0.0103
  554TMC3     O 8222   0.157   0.883  11.618  0.4817  0.6766  0.8810
  554TMC3     H 8223   0.219   0.807  11.371  0.5025 -2.0310  1.6157
  554TMC3    H1 8224   0.463   1.084  11.578  2.6176 -0.6911 -0.5302
  554TMC3    H2 8225   0.615   0.904  11.225  0.8390 -0.7673  1.4533
  554TMC3    C7 8226   0.615   1.125  11.358  0.3828 -0.2579  0.4653
  554TMC3    C8 8227   0.390   0.809  11.146  0.4317 -0.3252  0.4548
  554TMC3    O1 8228   0.608   1.133  11.235  0.9653 -0.3189  0.0515
  554TMC3    O2 8229   0.459   0.859  11.058 -0.2837 -0.1284 -0.7530
  555TMC3    C1 8230   0.256   0.590  15.072  0.4764 -0.4424 -0.0444
  555TMC3    C2 8231   0.322   0.671  15.166  0.2366 -0.1811  0.3043
  555TMC3    C3 8232   0.365   0.613  15.283  0.2668  1.0300 -0.2755
  555TMC3    C4 8233   0.213   0.462  15.107  0.6459  0.0940 -0.2690
  555TMC3    C5 8234   0.267   0.409  15.214 -0.6237  0.1745 -0.3286
  555TMC3    C6 8235   0.344   0.478  15.305  0.4648 -0.3413 -0.0575
  555TMC3     C 8236   0.244   0.620  14.931 -0.6130  0.2345 -0.5844
  555TMC3     O 8237   0.251   0.524  14.857 -0.2312 -0.0104  0.5916
  555TMC3     H 8238   0.355   0.769  15.133 -0.1904 -0.1843 -0.1433
  555TMC3    H1 8239   0.159   0.398  15.038  0.4713 -0.0604  0.0117
  555TMC3    H2 8240   0.394   0.426  15.386  1.1130 -0.6613 -0.6661
  555TMC3    C7 8241   0.237   0.272  15.259 -0.6825 -0.3732  0.1931
  555TMC3    C8 8242   0.479   0.678  15.346  0.7746  0.0847  0.2592
  555TMC3    O1 8243   0.269   0.254  15.376  0.3743 -0.1947 -0.0796
  555TMC3    O2 8244   0.532   0.764  15.274 -0.8618 -0.7024  0.6586
  556MPD2     C 8245   2.682   2.601  10.565  0.2245  0.8991 -0.0441
  556MPD2    C1 8246   2.654   2.464  10.593 -0.1738 -0.2560  0.5289
  556MPD2    C2 8247   2.610   2.383  10.491 -0.4935  0.0411  0.1511
  556MPD2    C3 8248   2.591   2.425  10.366  0.5876  0.1733 -0.2481
  556MPD2    C4 8249   2.605   2.561  10.341 -0.1779 -0.0214  0.3453
  556MPD2    C5 8250   2.653   2.646  10.441 -0.1228  0.7312  0.1995
  556MPD2     H 8251   2.590   2.280  10.515  1.1772 -0.6204 -1.2631
  556MPD2    H1 8252   2.581   2.600  10.243 -0.5422 -1.4715 -0.1335
  556MPD2    H2 8253   2.710   2.666  10.647 -0.3601 -0.3798  1.1770
  556MPD2    H3 8254   2.667   2.753  10.430 -1.2270  0.8231 -0.3016
  556MPD2     N 8255   2.540   2.334  10.273 -0.2394  0.4296  0.1041
  556MPD2    H5 8256   2.517   2.238  10.298  0.0770 -0.3079 -2.4342
  556MPD2    N1 8257   2.696   2.407  10.718 -0.6128 -0.0448 -0.8267
  556MPD2    H7 8258   2.675   2.308  10.730  1.2989 -0.1845  1.4465
  557TMC3    C1 8259   2.512   2.236  10.068  0.2933  0.1790  0.7032
  557TMC3    C2 8260   2.572   2.216   9.949  0.6025 -0.1621  0.2281
  557TMC3    C3 8261   2.567   2.098   9.895 -0.4268 -0.3287 -0.6379
  557TMC3    C4 8262   2.430   2.146  10.120  0.1111 -0.6249  0.5531
  557TMC3    C5 8263   2.420   2.029  10.053  0.3720  0.2808  0.1024
  557TMC3    C6 8264   2.498   1.992   9.948 -0.1945 -0.0721  0.9399
  557TMC3     C 8265   2.544   2.361  10.139 -0.5216  0.5804  0.2779
  557TMC3     O 8266   2.610   2.445  10.080 -0.3112 -0.4460 -0.0689
  557TMC3     H 8267   2.644   2.290   9.915 -0.1135  0.3758 -0.1216
  557TMC3    H1 8268   2.375   2.157  10.213 -0.4280 -1.3503  0.3165
  557TMC3    H2 8269   2.475   1.904   9.888  2.2601 -1.5856  2.2186
  557TMC3    C7 8270   2.342   1.929  10.122  0.1785 -0.0049  0.2964
  557TMC3    C8 8271   2.645   2.082   9.778  0.9792  0.3895 -0.2729
  557TMC3    O1 8272   2.241   1.958  10.179 -0.2224 -0.2398 -0.3564
  557TMC3    O2 8273   2.672   2.179   9.712 -0.6493 -0.8911  0.7894
  558TMC3    C1 8274   0.830   4.560  10.202 -0.7016  0.5512 -0.3056
  558TMC3    C2 8275   0.730   4.472  10.238  0.4606 -0.5679 -0.4845
  558TMC3    C3 8276   0.621   4.467  10.157 -1.0094  0.2203  0.7920
  558TMC3    C4 8277   0.816   4.655  10.106  0.3088 -0.0290 -0.6338
  558TMC3    C5 8278   0.697   4.650  10.038  0.0786  0.3608 -0.2682
  558TMC3    C6 8279   0.599   4.564  10.057 -0.0035  0.3274  0.5828
  558TMC3     C 8280   0.964   4.530  10.251 -0.4037 -0.1401 -0.0418
  558TMC3     O 8281   1.049   4.614  10.227  0.8975  0.0803  0.1923
  558TMC3     H 8282   0.737   4.393  10.312  0.4918  1.1205  1.3299
  558TMC3    H1 8283   0.893   4.725  10.076 -0.2757  0.7925 -0.2142
  558TMC3    H2 8284   0.507   4.558  10.001  0.9663 -3.3688 -0.6701
  558TMC3    C7 8285   0.687   0.009   9.923 -0.3154 -0.5138  0.6274
  558TMC3    C8 8286   0.504   4.404  10.201  0.1475 -0.1566  0.4416
  558TMC3    O1 8287   0.729   0.127   9.926 -0.2405 -0.4144 -0.7089
  558TMC3    O2 8288   0.395   4.435  10.155  0.1379  0.5762  0.5420
  559MPD2     C 8289   0.436   0.426  10.452  0.4152 -0.2188 -0.9621
  559MPD2    C1 8290   0.380   0.321  10.517  0.8176  0.2965 -0.0385
  559MPD2    C2 8291   0.452   0.248  10.607  0.0340  0.2316  0.1163
  559MPD2    C3 8292   0.584   0.285  10.614  0.5504 -0.1107  0.1189
  559MPD2    C4 8293   0.641   0.391  10.540  0.3308 -0.0394 -0.1853
  559MPD2    C5 8294   0.566   0.471  10.465  0.6450 -0.1964  0.5113
  559MPD2     H 8295   0.416   0.168  10.671  1.1767 -0.9842 -0.7536
  559MPD2    H1 8296   0.746   0.417  10.540  0.4998 -0.7196 -0.1913
  559MPD2    H2 8297   0.373   0.485  10.386  3.0292  0.0847 -3.1627
  559MPD2    H3 8298   0.601   0.552  10.402 -1.9261  0.3706 -0.1795
  559MPD2     N 8299   0.656   0.203  10.696 -0.3947  0.1094  0.4139
  559MPD2    H5 8300   0.610   0.123  10.737  1.1616  0.2904  2.5448
  559MPD2    N1 8301   0.247   0.292  10.477 -0.3516  0.1355  0.5144
  559MPD2    H7 8302   0.208   0.344  10.399 -2.9279 -2.0451  0.3598
  560TMC3    C1 8303   0.842   0.127  10.836  0.3444  0.0756  1.1437
  560TMC3    C2 8304   0.850   0.003  10.779  0.7293 -0.5875 -0.1245
  560TMC3    C3 8305   0.939   4.641  10.847  0.8284  0.6040 -0.2553
  560TMC3    C4 8306   0.919   0.167  10.940 -0.4724  0.1122 -0.6974
  560TMC3    C5 8307   1.000   0.078  10.994 -0.8670  0.1141 -0.3691
  560TMC3    C6 8308   1.012   4.674  10.950 -0.1674 -0.4051  0.5914
  560TMC3     C 8309   0.778   0.235  10.753 -0.4578 -0.0722 -0.6813
  560TMC3     O 8310   0.833   0.344  10.753 -0.4026  0.0896  0.1557
  560TMC3     H 8311   0.782   4.699  10.700 -1.1808  2.3013  0.4005
  560TMC3    H1 8312   0.913   0.269  10.976  1.8068  0.1421 -0.3867
  560TMC3    H2 8313   1.086   4.611  10.998 -2.1037 -1.2853  2.3740
  560TMC3    C7 8314   1.052   0.095  11.131 -0.4790  0.2274  0.0217
  560TMC3    C8 8315   0.944   4.513  10.780  0.0280  0.8096  0.4111
  560TMC3    O1 8316   1.066   4.718  11.194  0.1891 -0.3774 -0.5287
  560TMC3    O2 8317   0.843   4.468  10.723  0.1062  0.0019  0.4241
  561TMC3    C1 8318   3.505   4.181  11.806  0.7119  0.5165 -0.7066
  561TMC3    C2 8319   3.455   4.170  11.929 -0.4520 -0.5787 -0.7991
  561TMC3    C3 8320   3.402   4.286  11.985 -0.8478 -0.4752 -0.2102
  561TMC3    C4 8321   3.499   4.297  11.735 -0.0583 -0.4696  0.2525
  561TMC3    C5 8322   3.448   4.413  11.787  0.1972 -0.0348  0.5183
  561TMC3    C6 8323   3.409   4.405  11.921  0.0854  0.2901  0.4677
  561TMC3     C 8324   3.564   4.067  11.737  0.1511 -0.3884 -0.1083
  561TMC3     O 8325   3.537   3.958  11.786 -0.1731 -0.4259  0.4156
  561TMC3     H 8326   3.441   4.076  11.980 -2.1697  0.2030  0.1925
  561TMC3    H1 8327   3.524   4.275  11.632  0.6954 -1.6507  0.6879
  561TMC3    H2 8328   3.379   4.499  11.965 -1.1494 -0.1937  0.6403
  561TMC3    C7 8329   3.398   4.534  11.717  0.2706 -0.4267  0.3620
  561TMC3    C8 8330   3.338   4.273  12.113  0.2778 -0.2256  0.2627
  561TMC3    O1 8331   3.332   4.611  11.784  0.4928  0.3107 -0.4034
  561TMC3    O2 8332   3.339   4.159  12.158  0.2614  0.0974 -0.3177
  562TMC3    C1 8333   0.057   1.012  15.273  0.0627 -0.1312 -0.4311
  562TMC3    C2 8334   4.701   1.104  15.340 -0.0954 -0.1938 -0.4958
  562TMC3    C3 8335   4.639   1.058  15.447 -0.4174 -1.2421  0.5076
  562TMC3    C4 8336   0.057   0.885  15.307  0.3433 -0.4257 -0.0792
  562TMC3    C5 8337   4.719   0.848  15.422 -0.0777  0.0351  0.1957
  562TMC3    C6 8338   4.648   0.931  15.499 -0.1789 -0.3324  0.4808
  562TMC3     C 8339   0.116   1.048  15.146 -1.1859  0.2289 -0.0611
  562TMC3     O 8340   0.139   0.965  15.059 -0.1211 -0.4231 -0.4343
  562TMC3     H 8341   4.692   1.207  15.307 -0.2265 -0.4415 -1.2370
  562TMC3    H1 8342   0.103   0.809  15.245  0.6125 -1.6648  1.6456
  562TMC3    H2 8343   4.594   0.893  15.585  0.2717  0.5791  1.1593
  562TMC3    C7 8344   4.704   0.709  15.440  0.5485 -0.3561  0.2667
  562TMC3    C8 8345   4.578   1.155  15.542  0.2807  0.5432  0.5674
  562TMC3    O1 8346   4.685   0.646  15.338 -0.3164  0.0362  0.2296
  562TMC3    O2 8347   4.594   1.132  15.662 -0.0672  0.3719  0.0514
  563MPD2     C 8348   2.203   2.798  15.887 -0.2400 -0.6274  0.5314
  563MPD2    C1 8349   2.202   2.851  16.014 -0.4551 -0.7105  0.0151
  563MPD2    C2 8350   2.305   2.822  16.093  0.1446  0.9113  0.4303
  563MPD2    C3 8351   2.414   2.748  16.055 -0.1879  1.2320  0.0689
  563MPD2    C4 8352   2.411   2.692  15.926  0.7449 -0.2651  0.6264
  563MPD2    C5 8353   2.314   2.731  15.844  0.7150 -0.4883 -0.9475
  563MPD2     H 8354   2.296   2.848  16.198 -2.0617  0.6401  0.3061
  563MPD2    H1 8355   2.497   2.644  15.879 -0.5026 -4.3836  2.5578
  563MPD2    H2 8356   2.116   2.821  15.826  1.0535 -0.8435 -1.4126
  563MPD2    H3 8357   2.321   2.704  15.739  0.8174 -1.0735 -0.7897
  563MPD2     N 8358   2.520   2.733  16.141 -0.1934 -0.0328  0.6177
  563MPD2    H5 8359   2.509   2.759  16.239 -0.1177  1.5232  0.2163
  563MPD2    N1 8360   2.088   2.921  16.063  0.3299 -0.5520  0.4150
  563MPD2    H7 8361   2.005   2.925  16.004 -0.1129  0.4391  1.1139
  564TMC3    C1 8362   1.976   2.993  16.252  0.0538  0.4131 -0.0316
  564TMC3    C2 8363   1.886   2.911  16.201 -0.6736  0.5394 -0.6229
  564TMC3    C3 8364   1.825   2.816  16.277  0.7291 -0.0450 -0.2717
  564TMC3    C4 8365   2.019   2.980  16.384  0.4563 -0.5498  0.2592
  564TMC3    C5 8366   1.978   2.867  16.446 -1.0101 -0.0752  1.0199
  564TMC3    C6 8367   1.883   2.786  16.398 -0.1385 -0.7664  0.3437
  564TMC3     C 8368   2.097   3.006  16.167 -0.2580  0.2555  0.0366
  564TMC3     O 8369   2.191   3.062  16.221 -0.1967  0.0426  0.3651
  564TMC3     H 8370   1.830   2.935  16.111 -2.3094 -2.3457 -0.3822
  564TMC3    H1 8371   2.089   3.050  16.428 -0.2747  0.7536 -0.6527
  564TMC3    H2 8372   1.844   2.698  16.448 -0.3190 -0.1146  1.3531
  564TMC3    C7 8373   2.085   2.792  16.495 -0.6397 -0.9020  0.2822
  564TMC3    C8 8374   1.783   2.688  16.204 -0.4126  0.1779 -0.6835
  564TMC3    O1 8375   2.180   2.847  16.552  0.2157 -0.4347 -0.4194
  564TMC3    O2 8376   1.730   2.598  16.273 -0.5351  0.3650  0.3566
  565TMC3    C1 8377   3.400   4.578  10.750 -0.4012 -0.1539 -0.5575
  565TMC3    C2 8378   3.320   4.520  10.842  0.1800  0.5859  0.0974
  565TMC3    C3 8379   3.258   4.603  10.937  0.4301 -0.6191  0.4185
  565TMC3    C4 8380   3.398   4.714  10.727  0.4689  0.6398  0.2819
  565TMC3    C5 8381   3.329   0.072  10.820  0.1383 -0.2318  0.5949
  565TMC3    C6 8382   3.257   0.017  10.927 -0.5271  0.3266  0.3537
  565TMC3     C 8383   3.515   4.510  10.687  0.6651  1.0002  0.4596
  565TMC3     O 8384   3.579   4.582  10.617 -0.3573 -0.2971 -0.2679
  565TMC3     H 8385   3.329   4.412  10.850  0.6746  0.7113  1.2583
  565TMC3    H1 8386   3.452   0.042  10.649  1.3561 -1.6635 -0.6860
  565TMC3    H2 8387   3.212   0.087  10.996 -1.5457  0.3209 -0.2981
  565TMC3    C7 8388   3.330   0.212  10.814  0.9417 -0.2483 -0.3674
  565TMC3    C8 8389   3.177   4.532  11.033  0.6241  0.2537  0.0755
  565TMC3    O1 8390   3.433   0.266  10.774 -0.1208  0.3165  0.3097
  565TMC3    O2 8391   3.200   4.411  11.040 -0.8199  0.0298 -0.2268
  566MPD2     C 8392   4.200   1.162  14.460  0.0952  0.4007 -0.4961
  566MPD2    C1 8393   4.181   1.171  14.327 -0.5745  0.1214 -0.0940
  566MPD2    C2 8394   4.066   1.118  14.276 -0.5092  0.0453 -0.0211
  566MPD2    C3 8395   3.976   1.050  14.352  0.0793  0.1771 -0.2584
  566MPD2    C4 8396   3.997   1.037  14.490 -0.0045  0.5877 -0.0356
  566MPD2    C5 8397   4.107   1.093  14.543  0.3851 -0.7574  0.1849
  566MPD2     H 8398   4.052   1.134  14.170  0.8992  5.0258  0.5232
  566MPD2    H1 8399   3.933   0.987  14.560 -0.0305 -0.4288 -0.7868
  566MPD2    H2 8400   4.288   1.210  14.501 -0.7534 -0.0871  1.9421
  566MPD2    H3 8401   4.129   1.074  14.648  1.8092 -1.7009 -0.2816
  566MPD2     N 8402   3.877   0.979  14.286 -0.3094  0.0290  0.1507
  566MPD2    H5 8403   3.877   0.986  14.185  0.3769 -1.7343  0.0290
  566MPD2    N1 8404   4.286   1.225  14.246  0.1618 -0.6219  0.4459
  566MPD2    H7 8405   4.256   1.257  14.154 -1.6399  1.3406  1.7202
  567TMC3    C1 8406   4.496   1.284  14.165  0.2692 -0.1193 -0.4423
  567TMC3    C2 8407   4.452   1.263  14.035  0.0931 -0.9615 -0.4405
  567TMC3    C3 8408   4.529   1.197  13.944  0.1333  0.0700  0.0070
  567TMC3    C4 8409   4.632   1.251  14.183 -0.5302 -0.1236 -0.2884
  567TMC3    C5 8410   4.696   1.161  14.103 -0.6140 -0.1946 -0.7795
  567TMC3    C6 8411   4.644   1.134  13.985 -0.5444  0.3353 -0.2857
  567TMC3     C 8412   4.409   1.260  14.285 -0.0047  0.2069 -0.4276
  567TMC3     O 8413   4.476   1.220  14.380  0.2527  0.5470  0.5655
  567TMC3     H 8414   4.357   1.307  14.005  0.7326  0.4434 -0.4107
  567TMC3    H1 8415   4.669   1.267  14.283 -0.0872 -2.0221 -0.1516
  567TMC3    H2 8416   4.698   1.066  13.919 -0.1898 -0.4575  0.8247
  567TMC3    C7 8417   0.010   1.041  14.169 -0.5234 -0.0399  0.4261
  567TMC3    C8 8418   4.483   1.180  13.807  0.4142 -0.0306  0.9156
  567TMC3    O1 8419   0.092   0.966  14.121 -0.1420 -0.7022  0.0796
  567TMC3    O2 8420   4.366   1.196  13.777 -0.6244  0.1850  0.7658
  568MPD2     C 8421   2.592   1.440  16.654 -0.3211 -0.6180  0.6648
  568MPD2    C1 8422   2.475   1.466  16.722  0.7948 -0.4760 -0.8298
  568MPD2    C2 8423   2.380   1.553  16.673  0.6994  0.4269  0.4154
  568MPD2    C3 8424   2.403   1.626  16.557 -0.0331  0.3424 -0.4168
  568MPD2    C4 8425   2.523   1.604  16.487  0.7774 -0.1467  0.5706
  568MPD2    C5 8426   2.610   1.505  16.538  0.0186 -0.9458 -0.3608
  568MPD2     H 8427   2.293   1.582  16.732 -0.1013 -1.8834  0.3712
  568MPD2    H1 8428   2.549   1.644  16.390  2.5203 -0.9753  0.6994
  568MPD2    H2 8429   2.662   1.365  16.687  1.0629 -0.1368 -1.1864
  568MPD2    H3 8430   2.698   1.474  16.483  1.3923  2.4840 -0.1007
  568MPD2     N 8431   2.318   1.723  16.516  0.0083 -0.4017  0.0441
  568MPD2    H5 8432   2.243   1.750  16.579 -0.2646  0.8050 -0.7986
  568MPD2    N1 8433   2.466   1.408  16.847 -0.5784  0.1779  0.4512
  568MPD2    H7 8434   2.541   1.353  16.889 -0.4129 -0.3315 -0.4998
  569TMC3    C1 8435   2.226   1.910  16.401 -0.0113  0.1508  0.4009
  569TMC3    C2 8436   2.205   1.988  16.510  0.1810 -0.2827  0.3035
  569TMC3    C3 8437   2.153   2.114  16.489  0.0409  0.1055  1.0601
  569TMC3    C4 8438   2.202   1.958  16.278  0.2960 -0.1957  0.0688
  569TMC3    C5 8439   2.154   2.088  16.260  0.2522 -0.1456  0.3521
  569TMC3    C6 8440   2.129   2.169  16.366 -0.0789  0.3376 -0.4820
  569TMC3     C 8441   2.329   1.806  16.409 -0.3332  0.3548 -0.7429
  569TMC3     O 8442   2.412   1.812  16.319  0.1099 -0.2356 -0.2336
  569TMC3     H 8443   2.247   1.969  16.607  2.1600  2.5553  0.0169
  569TMC3    H1 8444   2.213   1.896  16.190 -1.8238 -1.6819  0.8546
  569TMC3    H2 8445   2.109   2.275  16.360 -2.3224 -0.0577 -0.0039
  569TMC3    C7 8446   2.116   2.130  16.126 -0.2239 -0.3104 -0.0721
  569TMC3    C8 8447   2.113   2.193  16.605  1.2895  0.6090  0.8042
  569TMC3    O1 8448   2.152   2.065  16.030 -0.3349 -0.3155 -0.1833
  569TMC3    O2 8449   2.171   2.177  16.709 -0.0694  0.6546  0.2103
  570TMC3    C1 8450   1.169   0.027  16.301  0.3104  0.6743  0.4997
  570TMC3    C2 8451   1.277   0.040  16.211  0.4809 -0.2010  0.8173
  570TMC3    C3 8452   1.325   0.164  16.185  0.0053 -1.1349  0.2802
  570TMC3    C4 8453   1.113   0.141  16.359  0.1101  0.9230  0.7114
  570TMC3    C5 8454   1.179   0.257  16.331 -0.5879 -0.2879  0.5787
  570TMC3    C6 8455   1.292   0.273  16.260 -0.4748 -0.4820 -0.1303
  570TMC3     C 8456   1.121   4.632  16.365  0.0319  0.0881 -0.3543
  570TMC3     O 8457   1.136   4.528  16.301 -0.7743 -0.9336 -0.5547
  570TMC3     H 8458   1.311   4.678  16.159  4.4634  2.9395 -1.9737
  570TMC3    H1 8459   1.030   0.130  16.428  0.2845 -1.5938  0.5206
  570TMC3    H2 8460   1.346   0.365  16.242 -0.3845 -0.2650  1.3045
  570TMC3    C7 8461   1.126   0.380  16.392 -0.2376  0.5816 -0.1007
  570TMC3    C8 8462   1.387   0.198  16.056  0.5621 -0.2760 -0.1751
  570TMC3    O1 8463   1.188   0.486  16.383 -0.1819 -0.0574  0.4238
  570TMC3    O2 8464   1.415   0.317  16.050 -0.3716  0.2912  0.3224
  571MPD2     C 8465   4.020   1.303   0.446 -0.6916 -0.2139  0.0824
  571MPD2    C1 8466   3.968   1.396   0.361 -0.0432  0.3395  0.3693
  571MPD2    C2 8467   3.883   1.495   0.406 -0.2152  0.0758  0.4051
  571MPD2    C3 8468   3.859   1.502   0.542  0.0386  0.6025 -0.1876
  571MPD2    C4 8469   3.913   1.413   0.627 -0.3577  0.9127 -0.1559
  571MPD2    C5 8470   3.999   1.315   0.580  0.1524  1.1659 -0.0334
  571MPD2     H 8471   3.850   1.573   0.340 -2.8207 -1.7804 -0.4624
  571MPD2    H1 8472   3.887   1.397   0.731  0.2034  0.5153 -0.0779
  571MPD2    H2 8473   4.088   1.222   0.421 -0.7005 -0.4694  0.8881
  571MPD2    H3 8474   4.033   1.248   0.658 -0.3826  0.8034 -0.1086
  571MPD2     N 8475   3.789   1.618   0.600  0.3142  0.2143  0.2747
  571MPD2    H5 8476   3.791   1.627   0.701  2.2916  0.3877  0.2033
  571MPD2    N1 8477   4.002   1.369   0.222 -0.3268 -0.5295 -0.2592
  571MPD2    H7 8478   4.076   1.301   0.206 -0.8430 -0.8989 -1.0883
  572TMC3    C1 8479   3.652   1.801   0.632  0.0909 -0.2413 -0.2115
  572TMC3    C2 8480   3.638   1.764   0.763 -1.4318  0.3222 -0.0965
  572TMC3    C3 8481   3.595   1.861   0.852 -0.0369  0.3252 -0.3486
  572TMC3    C4 8482   3.636   1.929   0.593 -0.7065 -0.0244 -0.1509
  572TMC3    C5 8483   3.614   2.025   0.689 -0.2132 -0.2100 -0.4654
  572TMC3    C6 8484   3.599   1.996   0.819 -0.3590  0.1715 -0.5917
  572TMC3     C 8485   3.705   1.709   0.538  0.4435 -0.1901  0.8529
  572TMC3     O 8486   3.677   1.723   0.420  0.4031 -0.5937 -0.2854
  572TMC3     H 8487   3.614   1.660   0.780  1.4844 -0.1788  0.9022
  572TMC3    H1 8488   3.652   1.961   0.490  0.1511  1.2840  0.3961
  572TMC3    H2 8489   3.575   2.067   0.898  3.5617  0.7684  0.0740
  572TMC3    C7 8490   3.644   2.165   0.652 -0.3404  0.3744  0.5149
  572TMC3    C8 8491   3.536   1.836   0.978  0.4059 -0.5226  0.0931
  572TMC3    O1 8492   3.626   2.192   0.534 -0.2724 -0.9197 -0.1679
  572TMC3    O2 8493   3.481   1.924   1.041  0.2816 -0.1197 -0.1475
  573MPD2     C 8494   0.810   1.910   0.425  0.2727 -0.3449 -0.1981
  573MPD2    C1 8495   0.771   2.042   0.446 -1.1838  0.4395  0.2725
  573MPD2    C2 8496   0.718   2.112   0.345  0.6598 -0.2441  0.6802
  573MPD2    C3 8497   0.678   2.041   0.230 -0.3427  0.4633 -0.3485
  573MPD2    C4 8498   0.713   1.905   0.212  0.4428  0.1882 -0.3545
  573MPD2    C5 8499   0.780   1.841   0.310  0.1164 -0.8813 -0.6810
  573MPD2     H 8500   0.708   2.220   0.347 -0.0625 -0.3237  1.3612
  573MPD2    H1 8501   0.675   1.844   0.131  1.1101 -1.2096  0.3914
  573MPD2    H2 8502   0.858   1.853   0.504 -0.4220 -1.0560 -0.2933
  573MPD2    H3 8503   0.809   1.738   0.293  0.2945 -0.8359 -0.6601
  573MPD2     N 8504   0.611   2.094   0.121 -0.5428 -1.1273 -0.3942
  573MPD2    H5 8505   0.589   2.040   0.038  0.8810 -2.1097 -0.1368
  573MPD2    N1 8506   0.797   2.101   0.574 -0.4786 -0.5600 -0.4108
  573MPD2    H7 8507   0.855   2.050   0.639  1.0880 -0.7216 -1.9313
  574TMC3    C1 8508   0.452   2.241   0.028  0.1109  0.1567 -0.6536
  574TMC3    C2 8509   0.348   2.319   0.056  0.3313  0.5939 -1.0232
  574TMC3    C3 8510   0.276   2.374  17.666 -0.3038 -0.4206 -0.3361
  574TMC3    C4 8511   0.491   2.204  17.608  1.0598 -0.8890  0.2621
  574TMC3    C5 8512   0.416   2.265  17.511 -0.0449  0.2563  0.1770
  574TMC3    C6 8513   0.309   2.348  17.534 -0.2367  0.1991 -0.6499
  574TMC3     C 8514   0.535   2.209   0.145  0.1047 -0.7009 -0.0895
  574TMC3     O 8515   0.515   2.277   0.245  0.0370 -0.2451  0.3682
  574TMC3     H 8516   0.324   2.332   0.161  2.4380  1.2204 -0.5980
  574TMC3    H1 8517   0.580   2.145  17.589  0.7254 -0.1077 -3.8210
  574TMC3    H2 8518   0.231   2.363  17.460 -0.8295 -2.0395 -0.4964
  574TMC3    C7 8519   0.460   2.235  17.378 -0.2386 -0.0227  0.8304
  574TMC3    C8 8520   0.166   2.452  17.704  0.8459  0.5551  0.3593
  574TMC3    O1 8521   0.546   2.143  17.360 -0.3207  0.6749  0.1662
  574TMC3    O2 8522   0.136   2.460   0.117  0.4138  0.1404 -0.2839
  575TMC3    C1 8523   2.858   3.798  11.310  0.7282  0.0166 -0.4321
  575TMC3    C2 8524   2.806   3.784  11.436 -0.2905  0.3555  0.1693
  575TMC3    C3 8525   2.800   3.896  11.516 -0.2321 -0.0734  0.0474
  575TMC3    C4 8526   2.896   3.919  11.256 -0.6220 -1.1217 -0.4356
  575TMC3    C5 8527   2.891   4.024  11.341 -0.9977  0.5833 -0.4979
  575TMC3    C6 8528   2.835   4.020  11.469 -0.9518 -0.1819  0.0740
  575TMC3     C 8529   2.877   3.677  11.229  0.2568 -0.0278  0.3142
  575TMC3     O 8530   2.878   3.569  11.286 -0.4770 -0.1409 -0.0635
  575TMC3     H 8531   2.783   3.689  11.483  0.3334 -0.1345 -0.5058
  575TMC3    H1 8532   2.946   3.914  11.160  0.3872 -1.0808  0.0765
  575TMC3    H2 8533   2.852   4.100  11.541 -0.1468 -0.1190 -0.1784
  575TMC3    C7 8534   2.939   4.147  11.289  0.0684 -0.1797 -0.1996
  575TMC3    C8 8535   2.781   3.887  11.662 -0.7912 -0.4271 -0.1300
  575TMC3    O1 8536   3.023   4.136  11.202 -0.5607 -0.2351  0.2368
  575TMC3    O2 8537   2.813   3.779  11.716 -0.2357 -0.2081 -0.2239
  576MPD2     C 8538   2.209   0.108  12.830 -0.1809 -0.0331  0.4826
  576MPD2    C1 8539   2.262   0.209  12.756  1.0460  0.0486 -0.1665
  576MPD2    C2 8540   2.207   0.345  12.766  0.5836 -0.2069 -0.7984
  576MPD2    C3 8541   2.108   0.374  12.857  0.2125 -0.1371  0.0115
  576MPD2    C4 8542   2.065   0.267  12.941  0.5628 -0.5590  0.2160
  576MPD2    C5 8543   2.121   0.140  12.929 -0.5948  0.1687 -0.1825
  576MPD2     H 8544   2.253   0.415  12.697  0.6285 -0.4414 -1.0070
  576MPD2    H1 8545   1.986   0.270  13.015  0.1650  0.5343 -0.2513
  576MPD2    H2 8546   2.249   0.008  12.828  1.1770  0.5230 -0.1513
  576MPD2    H3 8547   2.085   0.062  12.995 -1.5638  0.2083 -0.6535
  576MPD2     N 8548   2.037   0.498  12.849  0.0880 -0.1173  0.4030
  576MPD2    H5 8549   2.088   0.573  12.803 -1.9040 -0.4226 -2.3538
  576MPD2    N1 8550   2.368   0.192  12.670  0.5260  0.3163 -0.0105
  576MPD2    H7 8551   2.389   0.279  12.621  0.0799 -1.4414 -3.3231
  577TMC3    C1 8552   2.561   0.096  12.564 -0.1625  0.3278 -0.1048
  577TMC3    C2 8553   2.677   0.014  12.593  0.2577 -0.2624  0.6155
  577TMC3    C3 8554   2.787   0.020  12.519  0.1683  0.5976 -0.1426
  577TMC3    C4 8555   2.571   0.181  12.458  0.7299  0.1325  0.1546
  577TMC3    C5 8556   2.680   0.177  12.374  0.2407 -0.3399 -0.2866
  577TMC3    C6 8557   2.798   0.104  12.412  0.1467  0.3321  0.3563
  577TMC3     C 8558   2.460   0.093  12.666  0.4297 -0.0233  0.6523
  577TMC3     O 8559   2.463   4.722  12.742 -0.8808 -0.1883 -0.0061
  577TMC3     H 8560   2.682   4.684  12.686 -0.4645  0.0403  0.8355
  577TMC3    H1 8561   2.487   0.246  12.437  1.8408  1.6683  0.4808
  577TMC3    H2 8562   2.887   0.108  12.350 -0.2061 -1.3416 -0.2572
  577TMC3    C7 8563   2.679   0.240  12.245 -0.4110 -0.5598  0.0026
  577TMC3    C8 8564   2.877   4.632  12.530 -0.3101  0.2008  0.1407
  577TMC3    O1 8565   2.788   0.258  12.199 -0.8490  0.1587 -0.3656
  577TMC3    O2 8566   2.844   4.557  12.620 -0.4415  0.2144  0.1787
  578MPD2     C 8567   0.963   0.322   0.899  0.4718 -0.2816  0.1821
  578MPD2    C1 8568   0.981   0.184   0.888  0.6797 -0.1352 -0.1434
  578MPD2    C2 8569   1.021   0.115   1.000  0.1076  0.1401 -0.3927
  578MPD2    C3 8570   1.037   0.174   1.128 -0.4466 -0.3482  0.9518
  578MPD2    C4 8571   1.024   0.308   1.133  0.2916 -0.4771  0.2864
  578MPD2    C5 8572   0.992   0.382   1.018 -0.3640  0.4857  0.8832
  578MPD2     H 8573   1.058   0.014   0.985 -0.0544  0.0714 -0.3236
  578MPD2    H1 8574   1.043   0.358   1.227  0.7227  1.0366 -0.6076
  578MPD2    H2 8575   0.930   0.381   0.814  1.7545  2.0505  1.2920
  578MPD2    H3 8576   0.980   0.489   1.023  2.1119  0.7571  1.0426
  578MPD2     N 8577   1.091   0.095   1.234  0.3750 -0.3240 -0.0191
  578MPD2    H5 8578   1.116   0.001   1.205  1.8388  0.3984 -1.1269
  578MPD2    N1 8579   0.940   0.121   0.770 -0.6462 -0.0558 -0.3699
  578MPD2    H7 8580   0.917   0.190   0.699 -1.5584 -0.7880 -0.7829
  579TMC3    C1 8581   1.151   0.011   1.438  0.4827 -0.4358  0.1324
  579TMC3    C2 8582   1.236   0.035   1.549  0.0121 -0.1925  0.4988
  579TMC3    C3 8583   1.294   4.653   1.606  0.4533  0.1781 -0.2549
  579TMC3    C4 8584   1.134   4.609   1.392  0.4874  0.2478 -0.6655
  579TMC3    C5 8585   1.184   4.504   1.463 -0.5610 -0.4617  0.6722
  579TMC3    C6 8586   1.284   4.524   1.562  0.2207  0.1803  0.0642
  579TMC3     C 8587   1.117   0.127   1.360 -1.0256 -0.7893  0.1840
  579TMC3     O 8588   1.103   0.239   1.416  0.4329 -0.3781  0.1587
  579TMC3     H 8589   1.253   0.132   1.594 -2.1964  0.9104 -1.0943
  579TMC3    H1 8590   1.087   4.577   1.299 -1.4326 -0.4672  0.5525
  579TMC3    H2 8591   1.328   4.444   1.619  0.6707 -0.3396 -1.0078
  579TMC3    C7 8592   1.148   4.365   1.418  1.0166 -0.9048  0.1423
  579TMC3    C8 8593   1.366   4.679   1.731  0.3228  0.8968 -0.7257
  579TMC3    O1 8594   1.221   4.268   1.448 -0.4059 -0.3843 -0.2740
  579TMC3    O2 8595   1.332   0.045   1.806  0.2600 -0.0319 -0.0597
  580TMC3    C1 8596   0.106   4.107  11.903  0.2974  0.0782  0.1157
  580TMC3    C2 8597   0.101   4.075  11.773 -0.3445 -0.0430 -0.1365
  580TMC3    C3 8598   0.119   3.947  11.733  0.2098  0.5375  0.2262
  580TMC3    C4 8599   0.121   4.018  12.004  0.2522 -0.5163 -0.1745
  580TMC3    C5 8600   0.131   3.891  11.955  0.0449  0.2795 -0.6958
  580TMC3    C6 8601   0.141   3.855  11.825  0.0118  0.2888  0.0671
  580TMC3     C 8602   0.179   4.239  11.914  0.8395 -0.3730 -0.2655
  580TMC3     O 8603   0.147   4.325  11.828  0.2298  0.1833  0.1105
  580TMC3     H 8604   0.091   4.152  11.699  1.6463  0.7218  0.3744
  580TMC3    H1 8605   0.139   4.038  12.108 -0.4285  0.6071 -0.2821
  580TMC3    H2 8606   0.168   3.752  11.806 -0.3581  0.6418 -2.4029
  580TMC3    C7 8607   0.177   3.793  12.047  0.2906 -1.0137  0.4316
  580TMC3    C8 8608   0.218   3.942  11.633  0.9427  0.1239  0.0585
  580TMC3    O1 8609   0.236   3.825  12.149  0.0943  0.0406  0.5875
  580TMC3    O2 8610   0.224   3.841  11.566 -0.3176 -0.1556 -0.7486
  581MPD2     C 8611   3.057   3.836  15.098  0.2074 -0.1316  0.1881
  581MPD2    C1 8612   2.940   3.771  15.127 -0.4547 -0.6024 -0.0009
  581MPD2    C2 8613   2.820   3.824  15.090 -0.0657 -0.2269  0.1805
  581MPD2    C3 8614   2.813   3.935  15.009  0.7785  0.2209 -0.6363
  581MPD2    C4 8615   2.926   4.009  14.985 -0.0437  0.7000 -0.3204
  581MPD2    C5 8616   3.054   3.949  15.016 -0.3024 -0.2164  0.0988
  581MPD2     H 8617   2.725   3.779  15.117 -1.3028 -0.4573 -4.6547
  581MPD2    H1 8618   2.922   4.105  14.935  0.0018  0.1820 -1.3136
  581MPD2    H2 8619   3.151   3.799  15.138  0.6845  0.1888 -0.6320
  581MPD2    H3 8620   3.138   4.006  14.978 -0.9124  1.7706  1.7413
  581MPD2     N 8621   2.696   4.011  14.981 -0.1740  0.2518  0.4207
  581MPD2    H5 8622   2.709   4.094  14.925  0.5237 -0.7872 -0.9513
  581MPD2    N1 8623   2.966   3.655  15.207 -0.2786  0.6213  0.0072
  581MPD2    H7 8624   3.058   3.624  15.235 -1.7181 -0.9448  2.9931
  582TMC3    C1 8625   2.917   3.469  15.334  0.7614 -0.1884 -0.2476
  582TMC3    C2 8626   2.961   3.509  15.459  1.0242  0.9610 -0.0862
  582TMC3    C3 8627   2.943   3.419  15.557  0.3702  0.0319 -0.6225
  582TMC3    C4 8628   2.851   3.353  15.308 -0.6215  0.1125 -0.0380
  582TMC3    C5 8629   2.825   3.274  15.418 -0.0946 -0.1574 -0.1035
  582TMC3    C6 8630   2.882   3.293  15.541 -0.3114 -0.6791  0.6185
  582TMC3     C 8631   2.865   3.575  15.255 -0.3474 -0.2835  0.1746
  582TMC3     O 8632   2.746   3.584  15.236 -0.5660  0.1344  0.3016
  582TMC3     H 8633   2.994   3.611  15.475 -0.2978  1.1639  1.2472
  582TMC3    H1 8634   2.791   3.347  15.218 -0.6310  1.3253 -0.1223
  582TMC3    H2 8635   2.841   3.237  15.625  0.2287 -2.1931 -0.1313
  582TMC3    C7 8636   2.683   3.250  15.435 -0.8081  0.4766 -0.4395
  582TMC3    C8 8637   2.917   3.481  15.684  0.4093 -0.2745  0.3681
  582TMC3    O1 8638   2.646   3.144  15.492  0.1261  0.6183 -0.2630
  582TMC3    O2 8639   2.898   3.602  15.689 -0.5622  0.3139 -0.0996
  583MPD2     C 8640   3.237   0.542  16.879  0.1834  0.3794  0.0016
  583MPD2    C1 8641   3.252   0.671  16.829 -0.2723  0.3602  0.1926
  583MPD2    C2 8642   3.239   0.777  16.917 -0.0690 -0.4632  0.6081
  583MPD2    C3 8643   3.222   0.757  17.053 -0.1442 -0.8344  0.1675
  583MPD2    C4 8644   3.179   0.633  17.092  0.0896 -0.6416 -0.5197
  583MPD2    C5 8645   3.191   0.528  17.005  0.3177 -0.4611  0.0163
  583MPD2     H 8646   3.231   0.880  16.886 -1.0733 -0.4827  0.8069
  583MPD2    H1 8647   3.168   0.603  17.196 -1.4327 -2.7054 -1.2712
  583MPD2    H2 8648   3.240   0.449  16.823 -0.8422  0.6294 -0.4686
  583MPD2    H3 8649   3.155   0.431  17.037  2.2335 -0.5461  1.9098
  583MPD2     N 8650   3.232   0.862  17.145  0.4439 -0.3461  0.0409
  583MPD2    H5 8651   3.239   0.958  17.112 -3.7596 -0.5827 -1.5227
  583MPD2    N1 8652   3.286   0.691  16.694  0.5569  0.9225  0.5685
  583MPD2    H7 8653   3.283   0.789  16.665 -2.4584  0.9016  0.8761
  584TMC3    C1 8654   3.250   0.976  17.354 -0.0189  0.4696 -0.1119
  584TMC3    C2 8655   3.264   1.091  17.294 -0.4280 -0.6857 -0.0888
  584TMC3    C3 8656   3.283   1.205  17.362 -0.8396 -0.5833 -0.1783
  584TMC3    C4 8657   3.274   0.962  17.482 -0.0448 -0.1804  0.0869
  584TMC3    C5 8658   3.296   1.080  17.554 -0.5327 -0.2046 -0.8656
  584TMC3    C6 8659   3.297   1.202  17.493  0.1363  0.3681 -0.3772
  584TMC3     C 8660   3.230   0.853  17.286 -0.3649  0.0118  1.0803
  584TMC3     O 8661   3.238   0.755  17.360  0.6934  0.4528  0.2686
  584TMC3     H 8662   3.259   1.102  17.186  0.1659  1.8356  0.1479
  584TMC3    H1 8663   3.276   0.870  17.539 -1.3048 -1.0237 -1.2223
  584TMC3    H2 8664   3.294   1.290  17.556 -0.7812  0.8814 -1.1351
  584TMC3    C7 8665   3.320   1.067  17.696  0.3613  0.7514 -0.2470
  584TMC3    C8 8666   3.293   1.321  17.287  0.5031  0.7252 -0.0194
  584TMC3    O1 8667   3.365   0.957   0.023 -0.3329  0.3736  0.2323
  584TMC3    O2 8668   3.241   1.329  17.176 -0.1923  0.0077  0.5910
  585MPD2     C 8669   2.316   4.482   0.976 -0.5663  0.9011  0.1311
  585MPD2    C1 8670   2.408   4.523   0.880 -0.1558 -0.4858 -0.2664
  585MPD2    C2 8671   2.371   4.533   0.744 -0.4893 -0.3896  0.3754
  585MPD2    C3 8672   2.250   4.487   0.701 -0.2612  0.8341 -0.1912
  585MPD2    C4 8673   2.160   4.442   0.796  0.2505 -0.0974 -0.4874
  585MPD2    C5 8674   2.192   4.438   0.929  0.3202  0.2539  0.8968
  585MPD2     H 8675   2.429   4.588   0.671 -0.8860 -2.1123 -1.2510
  585MPD2    H1 8676   2.068   4.392   0.769  1.4334 -2.4481 -0.2733
  585MPD2    H2 8677   2.350   4.488   1.079 -0.6469 -1.3963  0.2889
  585MPD2    H3 8678   2.116   4.412   1.001 -0.7392 -2.8069 -1.3083
  585MPD2     N 8679   2.216   4.489   0.568  0.4551  0.5445 -0.0068
  585MPD2    H5 8680   2.119   4.472   0.543  0.4555  0.1682  0.2555
  585MPD2    N1 8681   2.535   4.560   0.936  0.0772 -0.0539 -0.3163
  585MPD2    H7 8682   2.557   4.538   1.032 -2.0481 -1.9641 -0.2716
  586TMC3    C1 8683   2.223   4.529   0.333 -1.1253 -0.2046 -0.0375
  586TMC3    C2 8684   2.298   4.513   0.222 -0.5016 -0.6552 -0.6101
  586TMC3    C3 8685   2.257   4.578   0.108 -0.8961 -0.4075 -0.5632
  586TMC3    C4 8686   2.118   4.616   0.340  0.4711  0.8953  0.9063
  586TMC3    C5 8687   2.081   4.684   0.224 -0.3697 -0.0037 -0.3321
  586TMC3    C6 8688   2.155   4.668   0.114 -0.2945  0.7027  0.1749
  586TMC3     C 8689   2.297   4.524   0.458 -1.1226 -0.5906 -0.0490
  586TMC3     O 8690   2.418   4.531   0.457  0.7427 -0.9636 -0.3185
  586TMC3     H 8691   2.363   4.427   0.219 -3.2878 -2.8366  2.1023
  586TMC3    H1 8692   2.056   4.626   0.428 -1.5549  0.6984 -0.4952
  586TMC3    H2 8693   2.130   0.003   0.028 -0.7288  0.9931  0.5116
  586TMC3    C7 8694   1.939   4.704   0.214  0.5273  0.0967 -0.0478
  586TMC3    C8 8695   2.261   4.495  17.697 -0.4695  0.2602  0.3899
  586TMC3    O1 8696   1.880   4.628   0.286  0.2469  0.1745 -0.0575
  586TMC3    O2 8697   2.360   4.423  17.680 -0.0329 -0.2014 -0.0497
  587TMC3    C1 8698   4.427   3.069  16.845 -0.5232  0.0446  0.1857
  587TMC3    C2 8699   4.459   3.164  16.745 -0.0930  0.3581  0.3100
  587TMC3    C3 8700   4.540   3.125  16.644 -0.3816 -0.0330 -0.4492
  587TMC3    C4 8701   4.482   2.945  16.849 -0.0869 -0.2464  0.3384
  587TMC3    C5 8702   4.567   2.915  16.745 -0.7661  0.5133  0.1640
  587TMC3    C6 8703   4.594   3.001  16.642  0.4489 -0.9767 -0.1187
  587TMC3     C 8704   4.316   3.103  16.934  0.1267  0.3220 -0.4086
  587TMC3     O 8705   4.330   3.056  17.042  0.0286  0.1812  0.0005
  587TMC3     H 8706   4.415   3.263  16.751  0.7056  0.9083 -2.8892
  587TMC3    H1 8707   4.469   2.876  16.931 -0.5591 -0.7341 -0.1513
  587TMC3    H2 8708   4.643   2.968  16.552 -0.4389  0.5570 -1.1611
  587TMC3    C7 8709   4.625   2.784  16.750  0.4895  0.4521  0.3633
  587TMC3    C8 8710   4.572   3.213  16.537  0.0044  0.2819  0.1111
  587TMC3    O1 8711   4.578   2.704  16.832 -0.4455 -0.0919  0.4068
  587TMC3    O2 8712   4.669   3.183  16.470 -0.7062  0.1914 -0.2385
  588TMC3    C1 8713   2.460   4.378   9.845  0.1534 -0.8395  0.4014
  588TMC3    C2 8714   2.430   4.282   9.933  0.4166  0.2059  0.3739
  588TMC3    C3 8715   2.530   4.194   9.958  0.5002  0.0109  0.6162
  588TMC3    C4 8716   2.584   4.390   9.780 -0.7552  0.0228  0.0459
  588TMC3    C5 8717   2.679   4.303   9.818 -0.8253  0.6957 -0.3912
  588TMC3    C6 8718   2.655   4.200   9.907  0.7588  0.4455 -0.2479
  588TMC3     C 8719   2.356   4.476   9.830 -0.2260  0.0430 -0.1532
  588TMC3     O 8720   2.242   4.445   9.860 -0.2448  0.9057  0.0875
  588TMC3     H 8721   2.343   4.271   9.997 -0.6428 -1.8191 -1.4170
  588TMC3    H1 8722   2.599   4.453   9.693 -0.2548  1.5773  1.2644
  588TMC3    H2 8723   2.736   4.134   9.935  1.2557  1.2369  0.1870
  588TMC3    C7 8724   2.815   4.336   9.787 -0.0129 -0.5393 -0.1716
  588TMC3    C8 8725   2.515   4.110  10.068 -0.2782  0.2339  0.8068
  588TMC3    O1 8726   2.879   4.250   9.727  0.2822 -0.1175 -0.3411
  588TMC3    O2 8727   2.560   4.001  10.044 -0.2275 -0.5198  0.0371
  589TMC3    C1 8728   1.175   3.055   0.982 -0.2936 -0.1094 -0.1752
  589TMC3    C2 8729   1.229   3.104   1.095  0.6310 -0.3711  0.0176
  589TMC3    C3 8730   1.360   3.072   1.114  0.0171  0.7187 -0.1474
  589TMC3    C4 8731   1.245   2.986   0.891 -0.8081 -0.2875  0.8279
  589TMC3    C5 8732   1.379   2.952   0.908  0.0397  0.4888 -0.3159
  589TMC3    C6 8733   1.433   2.994   1.025  0.5888  0.9016 -0.1916
  589TMC3     C 8734   1.042   3.089   0.945  0.1118  0.1320 -0.1483
  589TMC3     O 8735   0.996   3.028   0.849 -0.1377  0.2029  0.3248
  589TMC3     H 8736   1.173   3.156   1.172  1.0974 -1.2720  0.9812
  589TMC3    H1 8737   1.194   2.929   0.813  1.4676  0.6024 -1.3104
  589TMC3    H2 8738   1.529   2.953   1.056 -0.3877 -1.7609 -0.6107
  589TMC3    C7 8739   1.408   2.811   0.889 -0.3040 -0.0307 -0.0480
  589TMC3    C8 8740   1.397   3.072   1.252 -0.3163  0.1015  0.6667
  589TMC3    O1 8741   1.463   2.754   0.986  0.0808 -0.0594  0.2720
  589TMC3    O2 8742   1.312   3.078   1.337  0.4692  0.5893 -0.3411
  590MPD2     C 8743   0.776   1.764  16.897 -0.4345 -0.4566  0.0938
  590MPD2    C1 8744   0.723   1.844  16.800 -0.2524 -0.5177  0.0661
  590MPD2    C2 8745   0.792   1.857  16.680  0.2961  0.0263 -0.3299
  590MPD2    C3 8746   0.913   1.788  16.654  0.5582 -0.4630 -0.9503
  590MPD2    C4 8747   0.949   1.695  16.748  0.7831  0.9590  0.1751
  590MPD2    C5 8748   0.885   1.680  16.865  0.2363  0.1330  0.0537
  590MPD2     H 8749   0.750   1.926  16.607 -1.7749  1.2344  2.0223
  590MPD2    H1 8750   1.039   1.637  16.739  0.7348  0.7254  1.2189
  590MPD2    H2 8751   0.729   1.753  16.994  0.7906  0.4526  0.7938
  590MPD2    H3 8752   0.925   1.619  16.945  0.4640 -0.8473 -0.8013
  590MPD2     N 8753   0.980   1.811  16.531  0.2208 -0.3103  0.0239
  590MPD2    H5 8754   0.935   1.870  16.462  1.6873 -0.1785 -0.8235
  590MPD2    N1 8755   0.598   1.902  16.834  0.0224 -0.2038  0.2443
  590MPD2    H7 8756   0.550   1.872  16.918 -1.1115  0.5016 -0.1592
  591TMC3    C1 8757   1.116   1.761  16.344 -0.3844  0.5288  0.6332
  591TMC3    C2 8758   1.249   1.758  16.311  0.9102 -0.3977 -0.1374
  591TMC3    C3 8759   1.286   1.794  16.186  0.1383 -0.3635  0.3420
  591TMC3    C4 8760   1.024   1.798  16.253  0.8957  0.2015 -0.5262
  591TMC3    C5 8761   1.064   1.830  16.127  0.0823  0.3383 -0.1704
  591TMC3    C6 8762   1.196   1.834  16.093  0.0830  0.1031  0.0535
  591TMC3     C 8763   1.081   1.734  16.482 -0.7089 -0.1697  0.3971
  591TMC3     O 8764   1.160   1.674  16.549  0.4555  0.2983 -0.0266
  591TMC3     H 8765   1.318   1.720  16.386  0.2322 -1.1165  0.1230
  591TMC3    H1 8766   0.919   1.779  16.271  0.7757 -0.0679 -1.5036
  591TMC3    H2 8767   1.231   1.844  15.990 -0.1028  0.2337  0.0031
  591TMC3    C7 8768   0.959   1.875  16.038  0.2736  0.5563 -0.1650
  591TMC3    C8 8769   1.423   1.770  16.145 -0.6062 -1.0700 -0.1858
  591TMC3    O1 8770   0.847   1.833  16.045 -0.6375  0.5256 -0.0482
  591TMC3    O2 8771   1.489   1.702  16.222  0.0057  0.3103 -0.7421
  592MPD2     C 8772   1.230   3.682  11.726  0.1609  0.5133  0.2651
  592MPD2    C1 8773   1.172   3.729  11.843  0.3480  0.3407  0.4681
  592MPD2    C2 8774   1.051   3.669  11.890  0.2184  0.0735  0.6206
  592MPD2    C3 8775   1.005   3.554  11.831  0.0905 -0.2758  0.0155
  592MPD2    C4 8776   1.072   3.512  11.712  0.2274  0.6675  0.2155
  592MPD2    C5 8777   1.172   3.579  11.658  0.4707 -0.3069  0.2502
  592MPD2     H 8778   1.006   3.710  11.980  0.7045 -2.4509  1.9881
  592MPD2    H1 8779   1.046   3.423  11.657  3.9818 -0.9800  1.1584
  592MPD2    H2 8780   1.325   3.727  11.698 -0.0462  0.4540 -0.5462
  592MPD2    H3 8781   1.217   3.533  11.571 -0.5341 -0.6196 -0.1002
  592MPD2     N 8782   0.894   3.490  11.889 -0.0184  0.4302 -0.0235
  592MPD2    H5 8783   0.855   3.533  11.972  0.3444 -0.3910  0.5781
  592MPD2    N1 8784   1.230   3.843  11.906  0.3954  0.3083  0.1808
  592MPD2    H7 8785   1.323   3.873  11.878  0.4005  1.8475  1.8352
  593TMC3    C1 8786   1.289   4.023  12.040  0.0545  0.5282  0.0904
  593TMC3    C2 8787   1.287   4.052  12.175 -0.4984  0.3919  0.0607
  593TMC3    C3 8788   1.394   4.130  12.219  0.1283  0.7244 -0.6117
  593TMC3    C4 8789   1.392   4.051  11.953 -0.1488 -0.5496  0.2151
  593TMC3    C5 8790   1.498   4.118  12.014 -0.4478 -0.6870 -1.1952
  593TMC3    C6 8791   1.507   4.156  12.145 -0.1921  0.5058  0.0076
  593TMC3     C 8792   1.185   3.925  12.008 -0.3717  0.4306 -0.8279
  593TMC3     O 8793   1.094   3.902  12.081 -0.0318 -0.3796  0.1726
  593TMC3     H 8794   1.199   4.038  12.235 -1.5858  0.8244 -1.4348
  593TMC3    H1 8795   1.372   4.035  11.848 -0.9463  0.3056  0.2352
  593TMC3    H2 8796   1.589   4.223  12.169 -0.2774  0.3590  0.7111
  593TMC3    C7 8797   1.601   4.162  11.926  0.5092 -0.7031  0.4983
  593TMC3    C8 8798   1.382   4.187  12.353 -0.6244  0.1569  1.1177
  593TMC3    O1 8799   1.669   4.255  11.961 -0.0428 -0.3891  0.6822
  593TMC3    O2 8800   1.272   4.190  12.409 -0.2731 -0.2506 -0.1459
  594MPD2     C 8801   4.121   2.800  14.123  0.2193  0.2467  0.0559
  594MPD2    C1 8802   4.206   2.690  14.114  0.4910 -0.4665  0.2013
  594MPD2    C2 8803   4.343   2.712  14.095  0.5356 -0.5188  0.4520
  594MPD2    C3 8804   4.396   2.839  14.095 -0.4209 -0.6010 -0.8216
  594MPD2    C4 8805   4.308   2.947  14.090  0.0250 -0.8291 -0.7214
  594MPD2    C5 8806   4.173   2.931  14.108 -0.0329 -0.1779  0.0482
  594MPD2     H 8807   4.412   2.628  14.094  0.8207 -0.2545 -1.8499
  594MPD2    H1 8808   4.349   3.047  14.079 -1.3152 -0.0154  1.7864
  594MPD2    H2 8809   4.013   2.804  14.120  0.2007  1.1065  1.5869
  594MPD2    H3 8810   4.108   3.018  14.104  0.7318  0.4823  1.8792
  594MPD2     N 8811   4.529   2.880  14.095  0.8653  0.1073 -0.2595
  594MPD2    H5 8812   4.546   2.980  14.101 -1.3255  0.5531 -1.5200
  594MPD2    N1 8813   4.146   2.566  14.133 -0.2597  0.5709 -0.4159
  594MPD2    H7 8814   4.047   2.573  14.151 -0.5259  0.8296 -1.9077
  595TMC3    C1 8815   0.265   2.867  14.143 -0.0250 -0.4069 -0.2618
  595TMC3    C2 8816   0.159   2.820  14.077 -0.2403  0.0603  0.2302
  595TMC3    C3 8817   0.038   2.873  14.110 -0.2273  0.3920 -0.0703
  595TMC3    C4 8818   0.257   2.968  14.236  0.1728  0.4479 -0.2591
  595TMC3    C5 8819   0.135   3.009  14.271 -0.4118 -0.2745 -0.3389
  595TMC3    C6 8820   0.023   2.967  14.212  0.7975 -0.3758 -0.4282
  595TMC3     C 8821   0.402   2.813  14.130 -0.9058  0.3894  0.2516
  595TMC3     O 8822   0.493   2.894  14.162  0.1448 -0.0833 -0.5088
  595TMC3     H 8823   0.161   2.749  13.995  1.8769 -0.9323  1.1535
  595TMC3    H1 8824   0.349   3.018  14.264  0.3724  0.5897 -1.1656
  595TMC3    H2 8825   4.651   2.989  14.253  0.5856 -0.7463 -0.7346
  595TMC3    C7 8826   0.126   3.077  14.399 -0.2445  0.8275 -0.4621
  595TMC3    C8 8827   4.639   2.801  14.082 -0.6632  0.4284  0.0670
  595TMC3    O1 8828   0.021   3.137  14.419  0.2631  0.0558 -0.1702
  595TMC3    O2 8829   4.647   2.679  14.061  0.0978  0.1795 -0.3156
  596MPD2     C 8830   4.150   0.527  16.660  0.4589  0.3789 -0.1423
  596MPD2    C1 8831   4.173   0.651  16.600  0.6787  0.3102 -0.3549
  596MPD2    C2 8832   4.199   0.657  16.464  0.0064  0.3441  0.7910
  596MPD2    C3 8833   4.215   0.540  16.392  0.4879 -0.1354  0.1903
  596MPD2    C4 8834   4.201   0.418  16.448 -0.8621 -0.9544 -0.6678
  596MPD2    C5 8835   4.169   0.412  16.586  0.1893  0.1229  0.0164
  596MPD2     H 8836   4.198   0.747  16.404 -2.0467 -0.2187 -0.0286
  596MPD2    H1 8837   4.214   0.328  16.390  0.2000 -0.9583 -0.4353
  596MPD2    H2 8838   4.112   0.518  16.761  0.2793 -1.2065 -0.3479
  596MPD2    H3 8839   4.152   0.317  16.636  1.0244  0.2493  0.5456
  596MPD2     N 8840   4.210   0.534  16.247 -0.3682 -0.4208  0.0481
  596MPD2    H5 8841   4.173   0.450  16.206  1.9733 -1.0769 -0.7246
  596MPD2    N1 8842   4.158   0.770  16.677  0.3773 -0.4651  0.1853
  596MPD2    H7 8843   4.206   0.850  16.636  0.1235  0.9245  2.5650
  597TMC3    C1 8844   4.080   0.920  16.839  0.3906  0.3334 -0.6342
  597TMC3    C2 8845   4.184   1.004  16.809  0.2579  0.1879  0.4156
  597TMC3    C3 8846   4.179   1.125  16.875 -0.1245 -0.0931 -0.0157
  597TMC3    C4 8847   3.986   0.955  16.932  0.5635  1.1034  0.0109
  597TMC3    C5 8848   3.983   1.072  16.996  0.4346  0.0660 -0.3627
  597TMC3    C6 8849   4.081   1.156  16.966  0.0957  0.7931 -0.1252
  597TMC3     C 8850   4.087   0.781  16.793 -0.4166 -0.2665  0.5753
  597TMC3     O 8851   4.004   0.702  16.826  0.3185  0.3478  0.7613
  597TMC3     H 8852   4.271   0.978  16.750 -0.3118 -1.9865  0.5545
  597TMC3    H1 8853   3.921   0.872  16.958  0.2044  0.2801 -3.5532
  597TMC3    H2 8854   4.089   1.254  17.010 -0.2135  0.7629  0.0001
  597TMC3    C7 8855   3.900   1.103  17.108 -0.0259 -0.3337 -1.0972
  597TMC3    C8 8856   4.307   1.195  16.887  0.8846 -0.4954  0.2699
  597TMC3    O1 8857   3.852   1.007  17.166  0.3812 -0.2456  0.2631
  597TMC3    O2 8858   4.329   1.265  16.985 -0.4096  0.2317  0.0317
  598TMC3    C1 8859   2.386   2.311  15.671  0.6053 -0.4442 -0.7602
  598TMC3    C2 8860   2.337   2.186  15.621 -0.6584 -0.3104 -0.4148
  598TMC3    C3 8861   2.244   2.193  15.523 -0.1249 -0.0409  0.2587
  598TMC3    C4 8862   2.372   2.427  15.598 -0.1107  0.4948  0.0930
  598TMC3    C5 8863   2.293   2.424  15.485 -0.1953 -0.3093  0.1158
  598TMC3    C6 8864   2.213   2.315  15.459 -0.1579  0.4935  0.2072
  598TMC3     C 8865   2.483   2.316  15.778 -0.0411 -0.5959 -0.1269
  598TMC3     O 8866   2.563   2.412  15.776 -0.1650 -0.4903 -0.2501
  598TMC3     H 8867   2.375   2.092  15.660 -0.1309 -0.8510 -2.2136
  598TMC3    H1 8868   2.414   2.521  15.631 -0.9928  0.4553  1.3155
  598TMC3    H2 8869   2.148   2.316  15.372  0.1156  0.9964  0.0090
  598TMC3    C7 8870   2.308   2.535  15.391  0.5361 -0.9350  0.0290
  598TMC3    C8 8871   2.185   2.077  15.458  0.2271  0.5932  0.3772
  598TMC3    O1 8872   2.365   2.629  15.448  0.6642 -0.1528 -0.3095
  598TMC3    O2 8873   2.133   2.093  15.350  0.1772 -0.1790  0.4268
  599MPD2     C 8874   1.903   4.567  15.798 -0.5001  0.2261 -0.0989
  599MPD2    C1 8875   1.962   4.479  15.892 -0.2541 -0.1698  0.5253
  599MPD2    C2 8876   1.911   4.484  16.025  0.0899  0.2373 -0.5097
  599MPD2    C3 8877   1.786   4.542  16.045 -0.2844  0.4721 -0.2080
  599MPD2    C4 8878   1.714   4.600  15.942 -1.3285  0.6089  0.2222
  599MPD2    C5 8879   1.779   4.626  15.828 -0.7844  0.1598  0.1565
  599MPD2     H 8880   1.961   4.442  16.111  0.0163  1.3121  0.0579
  599MPD2    H1 8881   1.618   4.647  15.962 -1.2276  1.3630 -1.0194
  599MPD2    H2 8882   1.948   4.599  15.704  1.6375  1.7109  1.4321
  599MPD2    H3 8883   1.724   4.684  15.754 -0.1909  1.9052  1.1012
  599MPD2     N 8884   1.741   4.551  16.180  0.3213 -0.8538  0.3946
  599MPD2    H5 8885   1.792   4.512  16.257 -0.9522 -0.0345  1.6541
  599MPD2    N1 8886   2.079   4.412  15.852  0.4350  0.2044 -0.5277
  599MPD2    H7 8887   2.124   4.436  15.764 -0.6700  0.1957 -1.0874
  600TMC3    C1 8888   1.620   4.629  16.366 -0.1518  0.0684 -0.0535
  600TMC3    C2 8889   1.643   4.521  16.447  0.2965 -0.3697  0.6955
  600TMC3    C3 8890   1.629   4.536  16.582  0.7030 -0.6224 -0.4755
  600TMC3    C4 8891   1.582   0.025  16.419  0.1897 -0.2957 -0.0435
  600TMC3    C5 8892   1.586   0.041  16.556 -0.1990  0.7981  0.9406
  600TMC3    C6 8893   1.602   4.659  16.637  0.2897 -0.1994  0.0711
  600TMC3     C 8894   1.632   4.620  16.222  0.1400  0.1392  0.4872
  600TMC3     O 8895   1.548   4.676  16.156 -0.1820 -0.1640 -0.5218
  600TMC3     H 8896   1.669   4.430  16.395  1.3221  0.2453  0.1428
  600TMC3    H1 8897   1.571   0.112  16.355 -2.7453 -1.3814 -0.9848
  600TMC3    H2 8898   1.596   4.667  16.745 -0.3920 -1.9215  0.1656
  600TMC3    C7 8899   1.550   0.164  16.612  0.0500 -0.0866  0.1302
  600TMC3    C8 8900   1.586   4.422  16.656 -0.0506 -0.3603  0.1116
  600TMC3    O1 8901   1.459   0.234  16.570 -0.7508 -0.6147  0.6619
  600TMC3    O2 8902   1.601   4.435  16.778 -0.2408  0.0390 -0.1439
  601MPD2     C 8903   3.798   2.648   0.779 -0.6309  0.0269 -0.9219
  601MPD2    C1 8904   3.735   2.602   0.669 -0.0923  0.1546 -0.2430
  601MPD2    C2 8905   3.702   2.466   0.653 -0.3210  0.0512 -0.2062
  601MPD2    C3 8906   3.726   2.379   0.760  0.2961 -0.0670  0.0803
  601MPD2    C4 8907   3.788   2.430   0.876  0.1575  0.2812  0.1091
  601MPD2    C5 8908   3.831   2.560   0.873 -0.3677 -1.4110 -0.1948
  601MPD2     H 8909   3.652   2.434   0.562 -1.3977  1.8861 -0.2633
  601MPD2    H1 8910   3.820   2.369   0.960 -1.2209 -0.5512  0.0283
  601MPD2    H2 8911   3.839   2.748   0.782 -0.0753 -0.3032  2.7738
  601MPD2    H3 8912   3.895   2.602   0.950 -2.2757  1.5030 -0.2157
  601MPD2     N 8913   3.692   2.242   0.755  0.6504  0.4493 -0.4055
  601MPD2    H5 8914   3.722   2.193   0.838  1.1290  0.6922 -0.4271
  601MPD2    N1 8915   3.703   2.691   0.569 -0.4259  0.4722  0.0457
  601MPD2    H7 8916   3.668   2.658   0.480 -0.0117 -2.7072  1.0435
  602TMC3    C1 8917   3.706   2.891   0.433  0.3518  1.1364  0.0772
  602TMC3    C2 8918   3.799   2.980   0.382 -0.4396  0.2843  0.2442
  602TMC3    C3 8919   3.771   3.038   0.266  0.0381 -0.6823 -0.2687
  602TMC3    C4 8920   3.590   2.861   0.357  0.0325 -0.1449 -0.3884
  602TMC3    C5 8921   3.562   2.941   0.254  0.5236  0.0895  0.0731
  602TMC3    C6 8922   3.649   3.030   0.200  0.2647  0.1877 -0.2316
  602TMC3     C 8923   3.728   2.826   0.564 -1.0011 -0.2354  0.4555
  602TMC3     O 8924   3.786   2.905   0.638  0.4400  0.1030 -0.4915
  602TMC3     H 8925   3.892   2.997   0.436 -0.1363  2.3290 -0.9163
  602TMC3    H1 8926   3.514   2.789   0.385 -0.6099 -0.2513 -2.4336
  602TMC3    H2 8927   3.643   3.054   0.094 -0.2854  0.4405 -0.1443
  602TMC3    C7 8928   3.437   2.922   0.173  0.4659  0.1042 -0.3570
  602TMC3    C8 8929   3.861   3.145   0.225  0.3084 -0.2901  0.0233
  602TMC3    O1 8930   3.370   2.821   0.195  0.5764  0.6106 -0.4811
  602TMC3    O2 8931   3.980   3.124   0.221  0.0400  0.2863 -0.0430
  603TMC3    C1 8932   2.495   2.894  10.922 -0.3565  0.1772  0.1168
  603TMC3    C2 8933   2.495   2.883  11.058  0.2037  0.2672  0.2981
  603TMC3    C3 8934   2.569   2.971  11.133  0.1791 -0.7219  0.9260
  603TMC3    C4 8935   2.552   3.004  10.862 -0.2487  0.3620 -0.3033
  603TMC3    C5 8936   2.617   3.096  10.939 -0.5012  0.1878  0.1339
  603TMC3    C6 8937   2.639   3.072  11.071  0.3587  0.6249 -0.3592
  603TMC3     C 8938   2.426   2.803  10.829 -0.2766 -0.5064 -0.4354
  603TMC3     O 8939   2.434   2.815  10.708 -0.5365  0.2741  0.1397
  603TMC3     H 8940   2.445   2.800  11.108  0.7577 -0.6187 -0.6429
  603TMC3    H1 8941   2.553   3.001  10.754 -0.5492 -4.6674 -0.1532
  603TMC3    H2 8942   2.697   3.145  11.126  0.7106  1.3955 -1.7804
  603TMC3    C7 8943   2.682   3.210  10.872 -0.5354 -0.3034  1.5594
  603TMC3    C8 8944   2.550   2.961  11.276  0.4470 -0.1525 -0.0924
  603TMC3    O1 8945   2.781   3.256  10.920  0.5135 -0.0298 -0.3706
  603TMC3    O2 8946   2.498   2.857  11.317  0.3818  0.3256 -0.4535
  604MPD2     C 8947   3.020   2.237  16.661 -0.2378 -0.2344 -0.2030
  604MPD2    C1 8948   2.919   2.149  16.637 -0.7373  0.4615  0.1645
  604MPD2    C2 8949   2.931   2.064  16.525  0.7333 -0.0222  0.1659
  604MPD2    C3 8950   3.046   2.074  16.444 -0.7639  0.1594 -1.0820
  604MPD2    C4 8951   3.145   2.166  16.475  0.5492 -0.5080 -0.2548
  604MPD2    C5 8952   3.134   2.236  16.595 -0.0522 -0.1220 -0.2447
  604MPD2     H 8953   2.852   1.993  16.504 -1.2868  2.0770  0.8252
  604MPD2    H1 8954   3.239   2.170  16.422 -0.8454 -2.8452 -2.9382
  604MPD2    H2 8955   3.020   2.295  16.753 -2.8319 -2.8587  1.4701
  604MPD2    H3 8956   3.220   2.291  16.632 -0.8738  1.0863 -0.1309
  604MPD2     N 8957   3.063   1.987  16.335 -0.7217 -0.2211  0.2141
  604MPD2    H5 8958   2.997   1.909  16.326  0.4600 -1.1201 -0.6180
  604MPD2    N1 8959   2.806   2.159  16.716  0.2397  0.0571  0.0248
  604MPD2    H7 8960   2.799   2.235  16.782  0.1255  0.6398 -0.6675
  605TMC3    C1 8961   2.606   2.125  16.795 -0.3019 -0.5047 -0.2143
  605TMC3    C2 8962   2.684   2.166  16.901  0.6345  0.0883 -0.3252
  605TMC3    C3 8963   2.642   2.276  16.977 -0.3930  0.3976 -0.6810
  605TMC3    C4 8964   2.492   2.205  16.767  0.8163  0.1494  0.2904
  605TMC3    C5 8965   2.447   2.307  16.844 -0.4104  0.2842  0.6910
  605TMC3    C6 8966   2.527   2.355  16.946 -0.0934  0.1908  0.1346
  605TMC3     C 8967   2.690   2.095  16.689 -0.3582  0.0942  0.4337
  605TMC3     O 8968   2.640   2.086  16.578 -0.2168  0.4702 -0.1589
  605TMC3     H 8969   2.757   2.094  16.936  0.6813  0.2423 -0.1048
  605TMC3    H1 8970   2.415   2.158  16.705  0.8037 -1.2400  1.3531
  605TMC3    H2 8971   2.499   2.446  16.998 -0.1489  0.1255  0.2190
  605TMC3    C7 8972   2.385   2.411  16.765 -0.4801 -0.0324  0.6079
  605TMC3    C8 8973   2.748   2.348  17.040 -0.0299 -1.1083  0.3954
  605TMC3    O1 8974   2.318   2.500  16.819  0.7645 -0.0789  0.4497
  605TMC3    O2 8975   2.860   2.311  17.004 -0.7803  0.2596 -0.0903
  606TMC3    C1 8976   4.483   0.430  16.894 -0.1218 -0.3621  0.5921
  606TMC3    C2 8977   4.514   0.385  17.019 -0.4325 -0.5800  0.5939
  606TMC3    C3 8978   4.479   0.256  17.049  0.2181 -0.3547  0.1346
  606TMC3    C4 8979   4.439   0.346  16.793  0.9933 -0.3971  0.2641
  606TMC3    C5 8980   4.400   0.224  16.841  0.0425  0.6813 -0.9362
  606TMC3    C6 8981   4.410   0.173  16.971  0.0575  0.1900 -0.0228
  606TMC3     C 8982   4.510   0.572  16.861 -0.1436 -0.9124 -0.1765
  606TMC3     O 8983   4.513   0.651  16.958  0.4932 -0.2490  0.0007
  606TMC3     H 8984   4.567   0.450  17.088 -0.3165 -1.2120  1.0990
  606TMC3    H1 8985   4.395   0.384  16.702  2.4890 -0.5417 -0.5100
  606TMC3    H2 8986   4.383   0.072  16.999  2.2963  0.5485  3.3503
  606TMC3    C7 8987   4.326   0.144  16.745 -0.2008 -0.4259  0.2646
  606TMC3    C8 8988   4.549   0.189  17.160  0.2291 -0.1884  0.4151
  606TMC3    O1 8989   4.350   0.180  16.631 -0.1998  0.6985  0.1499
  606TMC3    O2 8990   4.591   0.258  17.248 -0.0542  0.0091 -0.0575
  607MPD2     C 8991   1.049   3.178  12.075 -0.8712 -0.1776 -0.1767
  607MPD2    C1 8992   1.070   3.182  12.208  0.4472  0.2148  0.6193
  607MPD2    C2 8993   1.053   3.062  12.271  0.3107  0.2807  0.5747
  607MPD2    C3 8994   1.035   2.940  12.206 -0.4441 -0.4668  0.3696
  607MPD2    C4 8995   1.032   2.940  12.068 -0.2838  0.8144 -0.0609
  607MPD2    C5 8996   1.022   3.064  12.003 -0.0865 -0.3313 -0.1187
  607MPD2     H 8997   1.055   3.074  12.379  4.0431 -1.0118  0.6439
  607MPD2    H1 8998   1.013   2.852  12.008  3.0546 -1.2582  1.9091
  607MPD2    H2 8999   1.029   3.267  12.016  0.3561 -0.3663 -0.8801
  607MPD2    H3 9000   1.003   3.061  11.896  0.7059 -1.7783 -0.2225
  607MPD2     N 9001   1.038   2.827  12.290  0.0244 -0.4381 -0.5846
  607MPD2    H5 9002   1.068   2.837  12.387 -0.9304 -1.4447 -0.1859
  607MPD2    N1 9003   1.094   3.295  12.285 -0.6345  0.1030 -0.4817
  607MPD2    H7 9004   1.105   3.280  12.384  1.7955 -2.3066 -1.1200
  608TMC3    C1 9005   1.201   3.497  12.324 -0.3677 -1.0457  0.2354
  608TMC3    C2 9006   1.197   3.459  12.452 -0.0637 -0.6646 -0.4479
  608TMC3    C3 9007   1.291   3.515  12.530  0.3489  0.2083 -0.0860
  608TMC3    C4 9008   1.275   3.598  12.274 -0.0461 -0.8461  0.0441
  608TMC3    C5 9009   1.367   3.654  12.353  0.2517  0.1536  0.0258
  608TMC3    C6 9010   1.383   3.612  12.484  0.4974 -0.2732  0.1888
  608TMC3     C 9011   1.125   3.417  12.234  0.2113 -0.5359 -0.4628
  608TMC3     O 9012   1.115   3.456  12.116 -0.2278  0.6111 -0.4025
  608TMC3     H 9013   1.120   3.396  12.496  0.8918 -1.0380  0.7157
  608TMC3    H1 9014   1.263   3.624  12.169 -1.5865  1.3408  0.7524
  608TMC3    H2 9015   1.460   3.651  12.549 -1.0981 -0.9631  2.4858
  608TMC3    C7 9016   1.470   3.742  12.284  0.0615  0.1548  0.0490
  608TMC3    C8 9017   1.340   3.424  12.636 -0.0272  0.5646 -1.1035
  608TMC3    O1 9018   1.454   3.745  12.166 -0.2708  0.1447 -0.4972
  608TMC3    O2 9019   1.406   3.474  12.723 -0.4920 -0.2730  0.2503
  609TMC3    C1 9020   4.587   1.460   9.145  0.4622  0.0925  0.2335
  609TMC3    C2 9021   4.589   1.376   9.033 -0.5620  0.3224  0.8865
  609TMC3    C3 9022   4.649   1.249   9.037  0.6402  0.1894  0.0416
  609TMC3    C4 9023   4.667   1.422   9.250  0.8536 -0.1462 -0.6293
  609TMC3    C5 9024   0.019   1.310   9.241 -0.0347  0.5677 -0.4881
  609TMC3    C6 9025   4.723   1.211   9.147  0.4917 -0.0875  0.0369
  609TMC3     C 9026   4.523   1.585   9.130  0.2550 -0.2562 -0.0437
  609TMC3     O 9027   4.455   1.594   9.029 -0.2752  0.1112  0.2516
  609TMC3     H 9028   4.539   1.405   8.942  1.8857  4.0258  0.7071
  609TMC3    H1 9029   4.681   1.495   9.329 -0.6697  0.3503 -0.8151
  609TMC3    H2 9030   0.017   1.105   9.160 -0.2453 -0.1702  0.5021
  609TMC3    C7 9031   0.127   1.291   9.336 -0.0180 -0.5972  0.4913
  609TMC3    C8 9032   4.607   1.158   8.933  0.5880 -0.2202  0.2835
  609TMC3    O1 9033   0.133   1.371   9.429 -0.3535  0.1730  0.2427
  609TMC3    O2 9034   4.493   1.174   8.896 -0.0558 -0.1081 -0.3913
  610TMC3    C1 9035   1.774   3.574  12.548 -0.4361 -0.6954 -0.2648
  610TMC3    C2 9036   1.733   3.526  12.424  0.8927  0.3037  0.4110
  610TMC3    C3 9037   1.683   3.401  12.413  0.5433 -0.7126  0.5919
  610TMC3    C4 9038   1.757   3.508  12.658  0.4853  0.0366 -0.2571
  610TMC3    C5 9039   1.699   3.384  12.642 -1.1314  0.5468 -0.4809
  610TMC3    C6 9040   1.653   3.331  12.528 -0.1636  0.4430 -0.3367
  610TMC3     C 9041   1.858   3.691  12.557  0.1538  0.4774 -0.6583
  610TMC3     O 9042   1.919   3.713  12.452 -0.2417  0.3543  0.1836
  610TMC3     H 9043   1.737   3.597  12.343 -0.7545 -0.1961 -0.1129
  610TMC3    H1 9044   1.818   3.517  12.747  1.8572 -3.0110 -0.8890
  610TMC3    H2 9045   1.604   3.235  12.518  0.7045  0.1000 -1.2600
  610TMC3    C7 9046   1.684   3.295  12.756 -0.1316 -0.9510 -0.0948
  610TMC3    C8 9047   1.597   3.383  12.301 -0.3223  0.3941 -0.1359
  610TMC3    O1 9048   1.691   3.176  12.742 -0.3272  0.2397  0.0702
  610TMC3    O2 9049   1.490   3.330  12.331 -0.0627  0.2557 -0.4407
  611MPD2     C 9050   1.899   2.939  10.232 -0.9784  0.0262 -0.2744
  611MPD2    C1 9051   1.844   3.044  10.164  0.0083 -0.3819  0.3364
  611MPD2    C2 9052   1.929   3.148  10.132 -0.6737 -0.8777  0.1396
  611MPD2    C3 9053   2.066   3.145  10.161  0.5612  1.0271 -0.0763
  611MPD2    C4 9054   2.120   3.028  10.208  0.5051  0.2858 -0.3684
  611MPD2    C5 9055   2.033   2.932  10.255  0.6840 -0.1773 -0.6194
  611MPD2     H 9056   1.879   3.232  10.085  0.8605 -1.5338 -2.5927
  611MPD2    H1 9057   2.224   3.017  10.236  0.7796  0.6677 -1.2520
  611MPD2    H2 9058   1.841   2.863  10.285 -0.5301 -2.3862 -3.2267
  611MPD2    H3 9059   2.077   2.863  10.326  0.9394  1.6501  1.0010
  611MPD2     N 9060   2.154   3.252  10.134  0.9006 -0.3433  0.0432
  611MPD2    H5 9061   2.253   3.233  10.135  1.2554  1.6146  2.4055
  611MPD2    N1 9062   1.701   3.041  10.142  0.2581 -0.0143  0.2812
  611MPD2    H7 9063   1.660   2.950  10.160  0.6390  0.0286  1.3592
  612TMC3    C1 9064   2.212   3.476  10.077  0.5218 -0.6301  0.2836
  612TMC3    C2 9065   2.327   3.469  10.161  0.0763  0.0632 -0.7820
  612TMC3    C3 9066   2.412   3.577  10.156  0.5636  0.1879 -0.7367
  612TMC3    C4 9067   2.192   3.580   9.995 -0.2131  0.4866  0.8597
  612TMC3    C5 9068   2.290   3.672   9.980 -0.1528 -0.1177 -0.3926
  612TMC3    C6 9069   2.403   3.675  10.058 -0.1388 -0.1488  0.0011
  612TMC3     C 9070   2.110   3.377  10.085 -0.2383  0.2593  0.0640
  612TMC3     O 9071   1.997   3.416  10.053 -0.2241 -0.1540 -0.1185
  612TMC3     H 9072   2.323   3.392  10.237  1.0911  2.1139  1.3176
  612TMC3    H1 9073   2.120   3.577   9.914 -0.7911 -2.2702  1.4778
  612TMC3    H2 9074   2.488   3.742  10.050 -0.4786  0.1796 -0.8835
  612TMC3    C7 9075   2.264   3.775   9.888  0.0168 -0.7660  0.3078
  612TMC3    C8 9076   2.498   3.597  10.272 -0.0346 -0.2673 -0.0854
  612TMC3    O1 9077   2.145   3.797   9.858  0.0378 -0.5462  0.0231
  612TMC3    O2 9078   2.580   3.686  10.259  0.0040  0.7713  0.1779
  613MPD2     C 9079   0.401   0.917  16.332 -0.2592 -0.0006  0.2763
  613MPD2    C1 9080   0.419   0.779  16.342 -0.0481 -0.1912  0.2414
  613MPD2    C2 9081   0.308   0.697  16.342 -0.2093 -0.5731 -0.5355
  613MPD2    C3 9082   0.174   0.747  16.335  0.7897  0.4670 -0.0244
  613MPD2    C4 9083   0.162   0.884  16.310  0.3916 -0.1291 -0.3735
  613MPD2    C5 9084   0.271   0.964  16.311  0.2417 -0.3311 -1.1545
  613MPD2     H 9085   0.323   0.590  16.337  0.7586 -0.3804 -1.7656
  613MPD2    H1 9086   0.065   0.927  16.288 -0.4596 -1.7235  0.3084
  613MPD2    H2 9087   0.489   0.980  16.332 -0.4303  0.2383  0.1227
  613MPD2    H3 9088   0.257   1.070  16.292  1.2697 -0.1567 -0.9672
  613MPD2     N 9089   0.064   0.665  16.338 -0.0581  0.4368 -0.5971
  613MPD2    H5 9090   4.702   0.708  16.312  0.5694  1.4799 -0.9833
  613MPD2    N1 9091   0.543   0.716  16.350  0.1671  0.3841  0.0119
  613MPD2    H7 9092   0.536   0.615  16.361 -1.3334  0.6110  1.2352
  614TMC3    C1 9093   0.758   0.653  16.307 -0.0934 -0.3405 -0.0801
  614TMC3    C2 9094   0.710   0.531  16.351 -0.3720 -0.0785  0.0328
  614TMC3    C3 9095   0.704   0.430  16.252  0.2790  0.2695  0.1858
  614TMC3    C4 9096   0.809   0.664  16.187  0.4731  0.3043  0.6579
  614TMC3    C5 9097   0.797   0.567  16.095  0.2391 -0.1861  0.9421
  614TMC3    C6 9098   0.742   0.449  16.120 -0.1677 -0.7686 -0.5624
  614TMC3     C 9099   0.668   0.763  16.328  0.2461 -0.0209  0.4896
  614TMC3     O 9100   0.701   0.869  16.288 -0.1069 -0.0581  0.3460
  614TMC3     H 9101   0.685   0.513  16.455 -3.2213 -1.0055 -0.8126
  614TMC3    H1 9102   0.851   0.755  16.145 -0.1098  0.5199  0.5346
  614TMC3    H2 9103   0.767   0.366  16.055  1.7340 -1.1712  0.6742
  614TMC3    C7 9104   0.853   0.594  15.969 -0.7166  0.7713 -0.2747
  614TMC3    C8 9105   0.576   0.363  16.259 -0.4871  0.0703 -0.0966
  614TMC3    O1 9106   0.959   0.655  15.973 -0.3512  0.1477  0.1709
  614TMC3    O2 9107   0.507   0.414  16.343 -0.0889  0.2471 -0.1893
  615MPD2     C 9108   4.226   2.058  16.482 -0.2768  0.2926 -0.1185
  615MPD2    C1 9109   4.256   2.156  16.390 -1.3011  0.0872 -0.9122
  615MPD2    C2 9110   4.251   2.119  16.256  0.1115  0.1777  0.9129
  615MPD2    C3 9111   4.191   1.999  16.219  0.7384 -0.8197  0.1336
  615MPD2    C4 9112   4.167   1.904  16.314  0.0114  0.2755 -0.0329
  615MPD2    C5 9113   4.185   1.932  16.447 -0.3656  0.1395 -0.3608
  615MPD2     H 9114   4.271   2.186  16.174  0.3866 -0.0297  0.8090
  615MPD2    H1 9115   4.115   1.812  16.290  0.8386  0.4355 -2.4710
  615MPD2    H2 9116   4.230   2.072  16.590 -0.0934  0.6963 -0.1746
  615MPD2    H3 9117   4.139   1.865  16.518 -0.1550 -0.9052 -1.2103
  615MPD2     N 9118   4.144   1.987  16.086 -0.4333  0.7952 -0.5575
  615MPD2    H5 9119   4.160   2.069  16.029 -0.8431 -0.5638 -2.6146
  615MPD2    N1 9120   4.295   2.289  16.424 -0.7328 -0.2633 -0.1221
  615MPD2    H7 9121   4.317   2.347  16.343 -1.4126  1.2282  0.7728
  616TMC3    C1 9122   4.313   2.482  16.545  0.6579  0.0490 -0.2095
  616TMC3    C2 9123   4.398   2.530  16.454  0.4836 -0.3484  0.0760
  616TMC3    C3 9124   4.410   2.669  16.448 -0.3311  0.0362 -0.5303
  616TMC3    C4 9125   4.247   2.563  16.633 -0.9201  0.0157  0.0009
  616TMC3    C5 9126   4.243   2.694  16.611  0.0241  0.3149  0.1479
  616TMC3    C6 9127   4.321   2.751  16.516  0.3779  0.0861 -0.5875
  616TMC3     C 9128   4.301   2.341  16.554  0.0231  0.6781  0.7281
  616TMC3     O 9129   4.255   2.304  16.658 -0.0443  0.6286 -0.4638
  616TMC3     H 9130   4.469   2.471  16.396 -1.2092 -1.7709 -0.5571
  616TMC3    H1 9131   4.180   2.517  16.706 -1.4942 -3.0745 -2.4711
  616TMC3    H2 9132   4.319   2.859  16.504  2.9118 -0.0387 -2.0691
  616TMC3    C7 9133   4.162   2.777  16.702  0.0781 -0.0231 -0.1972
  616TMC3    C8 9134   4.516   2.730  16.378  0.6988 -0.0535 -0.3710
  616TMC3    O1 9135   4.193   2.770  16.821 -0.5035  0.3313 -0.5699
  616TMC3    O2 9136   4.491   2.850  16.350  0.5687  1.0485 -0.3618
  617MPD2     C 9137   2.597   0.548  13.852  0.2495  0.5907  0.0209
  617MPD2    C1 9138   2.610   0.517  13.987  0.0511  0.8738 -0.0007
  617MPD2    C2 9139   2.513   0.451  14.056 -0.4795 -1.2510  0.0464
  617MPD2    C3 9140   2.397   0.418  13.984  0.1754  0.0791 -0.1460
  617MPD2    C4 9141   2.378   0.451  13.853  0.2726 -0.3971  0.4134
  617MPD2    C5 9142   2.480   0.507  13.786 -1.0163 -0.4142  0.1097
  617MPD2     H 9143   2.525   0.439  14.163 -3.3552  2.8525  0.7952
  617MPD2    H1 9144   2.296   0.404  13.800 -0.8547  1.2166  0.7367
  617MPD2    H2 9145   2.672   0.606  13.800  1.6886  0.1536  1.5941
  617MPD2    H3 9146   2.472   0.526  13.679 -1.1807  4.1848  0.9413
  617MPD2     N 9147   2.293   0.352  14.055 -0.8049 -0.0446 -0.6944
  617MPD2    H5 9148   2.200   0.347  14.014 -0.8605 -3.2521 -0.2116
  617MPD2    N1 9149   2.728   0.555  14.059 -0.2511  0.2824  0.3847
  617MPD2    H7 9150   2.728   0.535  14.159 -0.6060  3.2216  0.9742
  618TMC3    C1 9151   2.946   0.607  14.111 -0.5768  0.0698 -0.2993
  618TMC3    C2 9152   2.951   0.496  14.194 -0.2000  0.4984 -0.1633
  618TMC3    C3 9153   3.060   0.486  14.270 -0.4922 -0.3459  0.4180
  618TMC3    C4 9154   3.046   0.695  14.102 -0.0050 -0.0553  0.7079
  618TMC3    C5 9155   3.157   0.675  14.175 -0.0116  0.6768 -0.2550
  618TMC3    C6 9156   3.167   0.561  14.249 -0.4432  0.0450 -0.0932
  618TMC3     C 9157   2.839   0.618  14.015 -0.5907  0.4325 -0.5002
  618TMC3     O 9158   2.857   0.673  13.909 -0.4254 -0.4646 -0.1346
  618TMC3     H 9159   2.877   0.416  14.199 -1.1299  1.2253 -2.4866
  618TMC3    H1 9160   3.039   0.772  14.025 -0.3417  0.2745  1.0716
  618TMC3    H2 9161   3.256   0.532  14.303  0.6529  2.6457 -0.4982
  618TMC3    C7 9162   3.272   0.761  14.172 -0.1074  0.2928  0.0445
  618TMC3    C8 9163   3.085   0.352  14.296 -0.0636  0.1606  0.3186
  618TMC3    O1 9164   3.322   0.761  14.284  0.3685 -0.0935 -0.5194
  618TMC3    O2 9165   3.047   0.292  14.396 -0.1516 -0.2056  0.7800
  619MPD2     C 9166   3.691   1.898  13.434  0.2696 -0.0296  0.4081
  619MPD2    C1 9167   3.655   2.001  13.356  0.1250  0.2451  0.0050
  619MPD2    C2 9168   3.538   2.001  13.288 -0.6150 -0.4387  0.3557
  619MPD2    C3 9169   3.450   1.895  13.299 -0.5085 -0.6896  0.1141
  619MPD2    C4 9170   3.489   1.791  13.377 -0.0730 -0.3399 -0.0359
  619MPD2    C5 9171   3.608   1.790  13.440 -0.9122 -0.2972  0.4748
  619MPD2     H 9172   3.505   2.091  13.238 -1.6070 -0.4248  1.0248
  619MPD2    H1 9173   3.423   1.706  13.393 -0.5218  0.0666  0.2456
  619MPD2    H2 9174   3.788   1.888  13.483  0.5013 -1.2868 -0.3135
  619MPD2    H3 9175   3.642   1.700  13.490 -1.1515  0.1908  1.5176
  619MPD2     N 9176   3.326   1.890  13.243  0.2676  0.0770  0.4094
  619MPD2    H5 9177   3.266   1.817  13.280 -0.6271  0.5553 -0.1092
  619MPD2    N1 9178   3.745   2.103  13.325 -0.3055  0.5770  0.1294
  619MPD2    H7 9179   3.716   2.151  13.241  0.0924 -1.1015 -0.9833
  620TMC3    C1 9180   3.939   2.230  13.308 -0.0188 -0.0982  0.4916
  620TMC3    C2 9181   3.879   2.281  13.200  0.5765  0.0252 -0.0820
  620TMC3    C3 9182   3.884   2.412  13.157 -0.6491  0.0788  0.0744
  620TMC3    C4 9183   4.015   2.310  13.393 -0.2868  0.3390 -0.0953
  620TMC3    C5 9184   4.023   2.439  13.353 -0.5561 -0.8006  0.4371
  620TMC3    C6 9185   3.957   2.490  13.244 -0.3106  0.5710  0.4596
  620TMC3     C 9186   3.873   2.115  13.372 -0.2564 -0.8330  0.5839
  620TMC3     O 9187   3.924   2.059  13.463  0.2970 -0.4471 -0.8187
  620TMC3     H 9188   3.835   2.214  13.128 -0.2252  0.3321  0.1191
  620TMC3    H1 9189   4.036   2.276  13.494 -1.0847 -0.0304 -0.0501
  620TMC3    H2 9190   3.955   2.598  13.239  0.9270  0.6786  2.3732
  620TMC3    C7 9191   4.009   2.527  13.468  0.3818 -0.5421 -0.1837
  620TMC3    C8 9192   3.751   2.466  13.144 -0.1748 -0.7999 -0.0639
  620TMC3    O1 9193   4.096   2.517  13.557  0.3699 -0.1409  0.0128
  620TMC3    O2 9194   3.696   2.532  13.236  0.1103 -0.9434 -0.2620
  621MPD2     C 9195   4.350   2.351  10.097  0.2719  0.0112 -0.3249
  621MPD2    C1 9196   4.413   2.228  10.132  0.1892  0.4406  0.5127
  621MPD2    C2 9197   4.538   2.230  10.183  0.4421  0.4900  0.4630
  621MPD2    C3 9198   4.611   2.350  10.189  0.1586 -0.4913 -0.7263
  621MPD2    C4 9199   4.544   2.469  10.175  0.0163 -0.2106 -0.7503
  621MPD2    C5 9200   4.417   2.471  10.133  0.0682  0.6198 -0.7002
  621MPD2     H 9201   4.582   2.137  10.217 -0.7135  0.2346  1.2567
  621MPD2    H1 9202   4.586   2.562  10.213  1.3318 -1.7809  1.6475
  621MPD2    H2 9203   4.244   2.346  10.074 -0.0129  0.9345  0.7870
  621MPD2    H3 9204   4.374   2.569  10.112  0.7589  0.8426 -1.0669
  621MPD2     N 9205   0.010   2.351  10.250 -0.1723 -0.1293 -0.4052
  621MPD2    H5 9206   0.036   2.259  10.285 -2.1903 -0.5955 -0.1504
  621MPD2    N1 9207   4.348   2.101  10.139 -0.5722 -0.5412 -0.2421
  621MPD2    H7 9208   4.402   2.021  10.169  0.6130  0.4129  0.1290
  622TMC3    C1 9209   4.159   1.961  10.144  0.0401 -0.0441 -0.0800
  622TMC3    C2 9210   4.027   1.968  10.160 -0.0395 -0.0834  0.6221
  622TMC3    C3 9211   3.958   1.854  10.179  0.3402  0.0812 -0.3703
  622TMC3    C4 9212   4.232   1.850  10.179  0.0292 -0.0662  0.3058
  622TMC3    C5 9213   4.158   1.736  10.215  0.0380  0.0207  0.5257
  622TMC3    C6 9214   4.022   1.735  10.211 -0.2009 -0.6015  0.7413
  622TMC3     C 9215   4.216   2.079  10.096  0.1238 -0.5600 -0.7039
  622TMC3     O 9216   4.148   2.155  10.027 -0.2080 -0.2908 -0.6775
  622TMC3     H 9217   3.979   2.064  10.150 -0.0379 -0.2019 -0.4806
  622TMC3    H1 9218   4.340   1.849  10.171  0.1676  0.3541  2.1127
  622TMC3    H2 9219   3.970   1.643  10.234 -3.4087  1.1159  0.3206
  622TMC3    C7 9220   4.224   1.611  10.182  0.5018  0.7363 -0.4732
  622TMC3    C8 9221   3.814   1.857  10.199 -0.3836  0.4627  0.3275
  622TMC3    O1 9222   4.343   1.602  10.211  0.3530 -0.2550  0.5658
  622TMC3    O2 9223   3.770   1.771  10.269 -0.4652  0.1962  0.0408
  623MPD2     C 9224   3.341   2.520  16.412  0.0554 -0.3211  0.1449
  623MPD2    C1 9225   3.235   2.567  16.495  0.6299 -0.5746 -0.0028
  623MPD2    C2 9226   3.266   2.600  16.623  0.2025  0.0079  0.5999
  623MPD2    C3 9227   3.396   2.597  16.663  0.5072  1.0688  0.3641
  623MPD2    C4 9228   3.500   2.570  16.578 -0.5376  0.3559  0.2470
  623MPD2    C5 9229   3.467   2.519  16.453  0.4537 -0.1944  0.4480
  623MPD2     H 9230   3.187   2.621  16.694  0.1533  1.1744  0.2037
  623MPD2    H1 9231   3.605   2.560  16.605 -0.7159  1.2316  1.2397
  623MPD2    H2 9232   3.315   2.484  16.313  0.8702  1.2498 -0.6419
  623MPD2    H3 9233   3.542   2.472  16.391  1.5756  2.8737 -0.5400
  623MPD2     N 9234   3.425   2.647  16.797 -0.2974  0.0270 -0.0441
  623MPD2    H5 9235   3.341   2.660  16.852 -0.3935 -0.5456 -0.0551
  623MPD2    N1 9236   3.097   2.582  16.451 -0.2805 -0.2333  0.8668
  623MPD2    H7 9237   3.029   2.616  16.518 -3.4231  0.2183 -2.5670
  624TMC3    C1 9238   3.648   2.677  17.209  0.1161 -0.0349 -0.4341
  624TMC3    C2 9239   3.531   2.664  17.275  0.1999 -0.5641 -0.0941
  624TMC3    C3 9240   3.412   2.673  17.204 -0.4611 -0.3177  0.0353
  624TMC3    C4 9241   3.654   2.691  17.079  0.5397 -0.2067 -0.4031
  624TMC3    C5 9242   3.541   2.697  17.000 -0.2296 -0.0889  0.1258
  624TMC3    C6 9243   3.416   2.689  17.064 -0.0116 -0.2423 -0.2528
  624TMC3     C 9244   3.770   2.675  17.290 -0.2429 -0.5011 -0.3681
  624TMC3     O 9245   3.769   2.609  17.391  0.1042 -0.1562  0.6621
  624TMC3     H 9246   3.520   2.670  17.383  3.9223  0.0385  0.2584
  624TMC3    H1 9247   3.749   2.693  17.027  0.6740 -1.5393 -0.1987
  624TMC3    H2 9248   3.322   2.711  17.015 -0.2406 -0.8513 -0.0907
  624TMC3    C7 9249   3.550   2.665  16.855 -0.3512  0.2585  0.1990
  624TMC3    C8 9250   3.282   2.682  17.271  0.0223 -0.4505 -0.2809
  624TMC3    O1 9251   3.661   2.636  16.812 -0.1014 -0.2821 -0.3425
  624TMC3    O2 9252   3.278   2.699  17.390  0.0730  0.0903  0.1939
  625MPD2     C 9253   3.552   3.554   0.666  0.6497  0.5431 -0.0606
  625MPD2    C1 9254   3.637   3.658   0.661  0.0356  0.4611 -0.4667
  625MPD2    C2 9255   3.761   3.658   0.726  0.6109 -0.4532  0.7224
  625MPD2    C3 9256   3.802   3.548   0.795  0.6999 -0.3809  0.4116
  625MPD2    C4 9257   3.725   3.434   0.789 -0.0176  0.2863  0.1577
  625MPD2    C5 9258   3.600   3.436   0.731  0.4318 -0.3959  0.0608
  625MPD2     H 9259   3.821   3.749   0.724 -0.1295  0.0540  1.4869
  625MPD2    H1 9260   3.739   3.354   0.860  0.0822  1.1130  1.0652
  625MPD2    H2 9261   3.449   3.551   0.632  1.1849 -1.9658 -1.5158
  625MPD2    H3 9262   3.538   3.348   0.739  0.5752 -0.6140 -1.2153
  625MPD2     N 9263   3.932   3.555   0.845 -0.3456 -0.7725 -0.2260
  625MPD2    H5 9264   3.984   3.643   0.849  0.0494 -1.0454  0.6482
  625MPD2    N1 9265   3.595   3.777   0.601  0.0499  0.3048 -0.1620
  625MPD2    H7 9266   3.657   3.858   0.601  2.4418 -1.5362 -1.2161
  626TMC3    C1 9267   3.453   3.932   0.479 -0.3392  0.6688 -0.4633
  626TMC3    C2 9268   3.382   3.921   0.366 -0.1570 -0.3890 -0.2601
  626TMC3    C3 9269   3.280   4.013   0.349 -0.4306 -0.0753 -0.0586
  626TMC3    C4 9270   3.443   4.030   0.568  0.0176  0.0228  0.2620
  626TMC3    C5 9271   3.341   4.119   0.552 -0.4186  0.2443  0.8445
  626TMC3    C6 9272   3.262   4.117   0.438 -0.4146  0.0735 -0.0489
  626TMC3     C 9273   3.478   3.795   0.524 -0.4346 -0.3973  0.8677
  626TMC3     O 9274   3.401   3.709   0.482  0.2248 -0.1752 -0.1292
  626TMC3     H 9275   3.394   3.834   0.302  0.4342 -1.0663  0.7764
  626TMC3    H1 9276   3.505   4.026   0.656 -0.0501  0.1363  0.3152
  626TMC3    H2 9277   3.201   4.203   0.414 -3.6948 -2.7754 -1.9471
  626TMC3    C7 9278   3.289   4.174   0.677  0.0563 -0.0289 -0.5315
  626TMC3    C8 9279   3.229   4.024   0.215 -0.0722 -0.0117  0.2992
  626TMC3    O1 9280   3.364   4.194   0.770 -0.1664  0.0370 -0.3955
  626TMC3    O2 9281   3.318   4.008   0.130  0.5246  0.2159  0.0809
  627MPD2     C 9282   2.193   3.804  14.451  0.1815  0.2873  0.7797
  627MPD2    C1 9283   2.141   3.790  14.575  0.7143  0.8598 -0.1184
  627MPD2    C2 9284   2.070   3.679  14.607 -0.2716  0.4226 -0.1715
  627MPD2    C3 9285   2.050   3.578  14.522  0.5765  0.2082 -0.1542
  627MPD2    C4 9286   2.098   3.581  14.393  0.4067 -0.6982  0.4914
  627MPD2    C5 9287   2.168   3.697  14.364 -0.6413 -0.8011 -0.1058
  627MPD2     H 9288   2.031   3.670  14.707  1.3158  0.3443  0.4427
  627MPD2    H1 9289   2.087   3.498  14.324  0.0525  2.5265 -3.3466
  627MPD2    H2 9290   2.259   3.886  14.424 -2.2258  2.0363  0.2296
  627MPD2    H3 9291   2.217   3.705  14.267  0.1591 -2.4211  0.1643
  627MPD2     N 9292   1.967   3.474  14.566  0.2064 -0.1287  0.4754
  627MPD2    H5 9293   1.922   3.491  14.655 -1.4722  2.0731 -0.8080
  627MPD2    N1 9294   2.170   3.881  14.680  0.2845 -0.2876 -0.5002
  627MPD2    H7 9295   2.162   3.847  14.775 -0.6728 -0.6272 -0.7009
  628TMC3    C1 9296   2.294   4.074  14.762 -0.6296  0.2802  0.6450
  628TMC3    C2 9297   2.379   3.985  14.826  0.4781  0.5052 -0.5842
  628TMC3    C3 9298   2.473   4.043  14.908  0.3467  0.2613  0.5507
  628TMC3    C4 9299   2.301   4.211  14.767  0.2318 -0.2195  0.2782
  628TMC3    C5 9300   2.394   4.262  14.854  0.0032 -0.8022 -0.6348
  628TMC3    C6 9301   2.471   4.179  14.932  0.7586 -0.6689 -0.3398
  628TMC3     C 9302   2.217   4.009  14.654  0.4053  0.6392  0.2678
  628TMC3     O 9303   2.208   4.076  14.555  0.1737 -0.2391 -0.3258
  628TMC3     H 9304   2.373   3.877  14.817 -2.2202  0.4550  1.7926
  628TMC3    H1 9305   2.240   4.272  14.702  0.6959 -0.8714 -0.7794
  628TMC3    H2 9306   2.554   4.216  14.991 -0.4900  3.3404 -1.1164
  628TMC3    C7 9307   2.412   4.404  14.884  0.0241 -0.5181 -0.5493
  628TMC3    C8 9308   2.570   3.961  14.977  0.4096 -0.5589  0.0790
  628TMC3    O1 9309   2.491   4.429  14.975  0.2949  0.6227 -0.2681
  628TMC3    O2 9310   2.533   3.845  14.989 -0.3946 -0.4144  0.7631
  629MPD2     C 9311   0.289   2.751  16.218 -0.5094  0.3439  0.1914
  629MPD2    C1 9312   0.246   2.621  16.210  0.0782 -1.5142 -0.1174
  629MPD2    C2 9313   0.121   2.585  16.264  0.3220  0.2009  0.0238
  629MPD2    C3 9314   0.034   2.681  16.309  0.8333 -0.7048  0.1742
  629MPD2    C4 9315   0.070   2.814  16.317 -0.6896  0.4338 -0.4600
  629MPD2    C5 9316   0.201   2.849  16.267 -0.6551  0.3807  0.1634
  629MPD2     H 9317   0.075   2.488  16.280 -2.0246  1.2456 -0.4840
  629MPD2    H1 9318   0.002   2.887  16.360 -2.0412 -1.5914  0.8218
  629MPD2    H2 9319   0.392   2.767  16.188 -0.1195 -2.0147  0.3042
  629MPD2    H3 9320   0.231   2.953  16.265 -0.1106  0.2359  0.8125
  629MPD2     N 9321   4.631   2.643  16.366  0.1345 -0.1345  0.1086
  629MPD2    H5 9322   4.623   2.546  16.393  1.1351 -0.8676 -2.2475
  629MPD2    N1 9323   0.339   2.525  16.163  0.1287 -0.1194 -0.5263
  629MPD2    H7 9324   0.425   2.552  16.115 -0.1790  1.5577 -0.1574
  630TMC3    C1 9325   0.428   2.320  16.103  0.2160  0.1895 -0.0532
  630TMC3    C2 9326   0.492   2.366  15.994 -0.4172  0.2927  0.0314
  630TMC3    C3 9327   0.597   2.289  15.949  0.3659  0.2474 -0.7558
  630TMC3    C4 9328   0.456   2.190  16.155  0.1484  0.4050  0.0727
  630TMC3    C5 9329   0.576   2.131  16.123 -0.2676 -0.8055 -0.0873
  630TMC3    C6 9330   0.644   2.178  16.016  0.0545 -0.7780  0.0646
  630TMC3     C 9331   0.317   2.386  16.166  0.5768  0.5173  0.5555
  630TMC3     O 9332   0.227   2.321  16.216 -0.1533  0.0916  0.3403
  630TMC3     H 9333   0.468   2.461  15.950 -2.4847 -1.4722 -2.6699
  630TMC3    H1 9334   0.405   2.173  16.249  1.7092 -0.5413  0.7651
  630TMC3    H2 9335   0.732   2.131  15.972 -0.8713 -1.6860 -0.8202
  630TMC3    C7 9336   0.659   2.100  16.237 -0.1980 -0.1548  0.1179
  630TMC3    C8 9337   0.711   2.372  15.913 -0.3094 -0.5326 -0.4240
  630TMC3    O1 9338   0.611   2.063  16.343  0.1191  0.0837  0.0695
  630TMC3    O2 9339   0.820   2.335  15.956 -0.1873  0.5299  0.0443
  631MPD2     C 9340   3.745   2.665  15.927 -0.1077  0.1139 -0.1794
  631MPD2    C1 9341   3.745   2.642  15.789  0.0175 -0.2576  0.2050
  631MPD2    C2 9342   3.763   2.508  15.749  1.2366 -0.0887  0.0900
  631MPD2    C3 9343   3.784   2.407  15.844 -0.3702  0.6214  0.4098
  631MPD2    C4 9344   3.794   2.442  15.976  0.2267  0.1638  0.1961
  631MPD2    C5 9345   3.793   2.570  16.018 -0.1410  0.4762 -0.4845
  631MPD2     H 9346   3.761   2.478  15.646  3.0643  0.6317 -0.1675
  631MPD2    H1 9347   3.802   2.370  16.056 -1.6319  1.1024  1.2181
  631MPD2    H2 9348   3.753   2.765  15.968 -0.8385  0.1850 -0.2130
  631MPD2    H3 9349   3.806   2.601  16.122  0.7665 -0.4864 -0.3159
  631MPD2     N 9350   3.795   2.268  15.794  0.0043 -0.7092  0.2262
  631MPD2    H5 9351   3.807   2.245  15.696  0.2156 -2.6288  0.7053
  631MPD2    N1 9352   3.707   2.743  15.701  0.1422  0.3144 -0.4044
  631MPD2    H7 9353   3.650   2.821  15.731 -0.1861  0.2194 -0.7880
  632TMC3    C1 9354   3.702   2.855  15.492  0.2045 -0.8097  0.1661
  632TMC3    C2 9355   3.597   2.931  15.544  0.5390  0.4531  0.3918
  632TMC3    C3 9356   3.520   3.004  15.460  0.1767  0.2843  0.5420
  632TMC3    C4 9357   3.738   2.870  15.361 -0.5864 -0.0971  0.5325
  632TMC3    C5 9358   3.663   2.954  15.283  0.3086  0.7661  0.5615
  632TMC3    C6 9359   3.556   3.016  15.331  0.0435 -0.4729  0.2186
  632TMC3     C 9360   3.752   2.745  15.573 -0.1284  0.1403 -0.9143
  632TMC3     O 9361   3.814   2.661  15.511 -0.4593 -0.1963  0.4440
  632TMC3     H 9362   3.548   2.914  15.639  0.2604 -1.8466 -0.1556
  632TMC3    H1 9363   3.809   2.797  15.324 -1.9656 -0.6390 -1.0192
  632TMC3    H2 9364   3.505   3.093  15.273  1.3219 -0.2515 -0.6247
  632TMC3    C7 9365   3.683   2.940  15.143 -0.7948 -0.0527 -0.0771
  632TMC3    C8 9366   3.380   3.018  15.505 -0.8268  0.0047 -0.7078
  632TMC3    O1 9367   3.586   2.948  15.067  0.6119 -0.1034 -0.1201
  632TMC3    O2 9368   3.358   3.037  15.626 -0.5893  0.4821  0.0681
  633MPD2     C 9369   3.479   0.220  17.271  0.1530 -0.4378 -0.5548
  633MPD2    C1 9370   3.458   0.222  17.136  0.9696  0.2438  0.3409
  633MPD2    C2 9371   3.461   0.101  17.067 -0.6310  0.5134 -0.4047
  633MPD2    C3 9372   3.476   4.703  17.129 -0.7036  0.0747  0.3031
  633MPD2    C4 9373   3.489   4.707  17.264 -0.3302  0.1366  0.4375
  633MPD2    C5 9374   3.489   0.097  17.335  0.4453 -1.3077 -0.2829
  633MPD2     H 9375   3.443   0.107  16.960 -1.1595 -0.3593 -0.3637
  633MPD2    H1 9376   3.508   4.613  17.316  0.0701  0.0280  0.0939
  633MPD2    H2 9377   3.478   0.305  17.338 -1.9136  0.3097 -1.5105
  633MPD2    H3 9378   3.508   0.102  17.441 -0.9272 -0.6029 -0.0714
  633MPD2     N 9379   3.484   4.579  17.071  0.0101 -0.1297 -0.1613
  633MPD2    H5 9380   3.509   4.501  17.131  1.5554  0.6500  0.2055
  633MPD2    N1 9381   3.468   0.338  17.058 -0.4965 -0.3431 -0.5859
  633MPD2    H7 9382   3.470   0.318  16.958  0.4464  0.8909 -0.8155
  634TMC3    C1 9383   3.569   0.539  16.999 -0.2946  0.1403  0.3712
  634TMC3    C2 9384   3.656   0.471  16.912 -0.4006 -0.9643  0.0214
  634TMC3    C3 9385   3.725   0.547  16.823  0.4865  0.4132 -0.0080
  634TMC3    C4 9386   3.564   0.676  17.011 -0.3028  0.3352 -0.2543
  634TMC3    C5 9387   3.631   0.748  16.915  0.7617  1.1572 -0.1032
  634TMC3    C6 9388   3.719   0.694  16.826 -0.2000  0.1815  0.2351
  634TMC3     C 9389   3.511   0.460  17.101 -0.2626  0.2942 -0.3108
  634TMC3     O 9390   3.491   0.510  17.209 -0.3487 -0.6804  0.6040
  634TMC3     H 9391   3.683   0.367  16.922 -0.3391 -0.8208  1.2787
  634TMC3    H1 9392   3.507   0.723  17.090  0.8227 -1.1009  1.4162
  634TMC3    H2 9393   3.778   0.761  16.765 -1.3574 -0.6935 -1.8231
  634TMC3    C7 9394   3.560   0.862  16.864  0.1731 -0.6338 -0.1847
  634TMC3    C8 9395   3.763   0.483  16.694 -0.5891 -0.1645  0.5379
  634TMC3    O1 9396   3.539   0.872  16.743  0.3017 -0.3458  0.5346
  634TMC3    O2 9397   3.742   0.362  16.688 -0.7326 -0.3144  0.2565
  635TMC3    C1 9398   4.031   1.422  17.696 -0.7622  0.5969  0.0376
  635TMC3    C2 9399   4.055   1.531  17.613  0.3318 -0.5666 -0.5579
  635TMC3    C3 9400   4.098   1.497  17.486 -0.2569 -0.4071 -0.0970
  635TMC3    C4 9401   4.048   1.291  17.660 -0.8543 -0.0153 -0.0283
  635TMC3    C5 9402   4.078   1.266  17.533  0.1935 -0.4454  0.2308
  635TMC3    C6 9403   4.097   1.366  17.444 -0.0883  0.7310  0.3735
  635TMC3     C 9404   3.959   1.451   0.115  0.2471  0.1227  0.4598
  635TMC3     O 9405   3.895   1.553   0.118  0.4418 -0.5133 -0.3072
  635TMC3     H 9406   4.033   1.632  17.646  1.5175 -1.6942  3.5609
  635TMC3    H1 9407   4.012   1.210   0.018  0.8671  0.0061  0.9858
  635TMC3    H2 9408   4.104   1.346  17.338 -3.3603 -0.8017  0.4469
  635TMC3    C7 9409   4.087   1.132  17.488  0.1913  0.0566  0.1174
  635TMC3    C8 9410   4.118   1.608  17.393 -0.1576  0.0461 -0.1855
  635TMC3    O1 9411   4.024   1.044  17.546  0.1684  0.6001  0.2276
  635TMC3    O2 9412   4.081   1.718  17.432  0.0455  0.0893 -0.4154
  636MPD2     C 9413   4.624   0.452  15.551 -0.7622  0.0567 -0.1294
  636MPD2    C1 9414   4.660   0.558  15.629  0.4646 -0.3088  1.0444
  636MPD2    C2 9415   4.642   0.556  15.762  0.1839  0.2627  0.4403
  636MPD2    C3 9416   4.587   0.448  15.831 -0.1377 -0.6398  0.2981
  636MPD2    C4 9417   4.561   0.335  15.759  0.2176  0.1723  0.0158
  636MPD2    C5 9418   4.582   0.341  15.621  0.8372 -0.1333  0.8546
  636MPD2     H 9419   4.661   0.648  15.817 -0.2821  0.2517  0.6139
  636MPD2    H1 9420   4.538   0.237  15.798 -0.5939  1.1308  1.9687
  636MPD2    H2 9421   4.643   0.443  15.445  1.8238 -2.3779  0.5386
  636MPD2    H3 9422   4.555   0.256  15.559  0.3030  0.7066 -0.0750
  636MPD2     N 9423   4.568   0.461  15.976  0.2659  0.3290 -0.6950
  636MPD2    H5 9424   4.591   0.550  16.018  0.8926 -0.6059  0.9404
  636MPD2    N1 9425   4.714   0.673  15.575  0.0372  0.1493 -0.5910
  636MPD2    H7 9426   0.018   0.737  15.648  0.3633 -0.7644  0.0841
  637TMC3    C1 9427   4.506   0.379  16.189  0.9991 -0.3183  0.5378
  637TMC3    C2 9428   4.578   0.487  16.237  0.1985  0.0717  0.3339
  637TMC3    C3 9429   4.655   0.460  16.348 -0.4047 -0.6586 -0.2545
  637TMC3    C4 9430   4.513   0.252  16.238  0.0828 -0.2111 -0.1901
  637TMC3    C5 9431   4.600   0.230  16.337  0.2441 -1.0449 -0.2016
  637TMC3    C6 9432   4.675   0.336  16.393 -0.4853 -0.8669 -0.4623
  637TMC3     C 9433   4.497   0.370  16.048  0.2529  0.5527  0.3602
  637TMC3     O 9434   4.418   0.282  16.009  0.6916  0.0275 -0.1611
  637TMC3     H 9435   4.555   0.585  16.196  1.7818 -0.8438 -2.7549
  637TMC3    H1 9436   4.457   0.172  16.191 -0.0139 -1.0072  1.2760
  637TMC3    H2 9437   0.013   0.316  16.478 -1.7326 -1.4357  0.3446
  637TMC3    C7 9438   4.699   0.131  16.292  0.0324 -0.4174 -0.1783
  637TMC3    C8 9439   0.056   0.526  16.351 -0.4573 -0.4432  0.0961
  637TMC3    O1 9440   4.654   0.032  16.231  0.0130  0.0265 -0.7189
  637TMC3    O2 9441   0.150   0.454  16.380  0.5069  0.2306 -0.3599
  638MPD2     C 9442   4.443   4.389  15.169 -0.7632 -0.0151 -0.0651
  638MPD2    C1 9443   4.410   4.289  15.087  0.1015  0.3851  0.0977
  638MPD2    C2 9444   4.415   4.156  15.138  0.6360 -0.1094  0.9195
  638MPD2    C3 9445   4.450   4.128  15.268  0.6646 -0.1776  0.0945
  638MPD2    C4 9446   4.474   4.234  15.351 -0.0802  0.5568  0.3024
  638MPD2    C5 9447   4.477   4.360  15.303  0.3868  0.3926 -0.2030
  638MPD2     H 9448   4.410   4.077  15.065  0.8278  0.1447  0.6324
  638MPD2    H1 9449   4.512   4.215  15.450  1.6716  1.0919 -0.2647
  638MPD2    H2 9450   4.456   4.488  15.127 -0.3087  1.0751  2.6154
  638MPD2    H3 9451   4.513   4.440  15.366 -0.0359  1.1149 -0.8826
  638MPD2     N 9452   4.464   3.992  15.306 -0.3688 -0.1044 -0.1987
  638MPD2    H5 9453   4.460   3.917  15.238  0.2581 -0.3518  0.0392
  638MPD2    N1 9454   4.367   4.322  14.953 -0.7348  0.1736 -0.3815
  638MPD2    H7 9455   4.379   4.421  14.932  0.7867  0.1752  0.4812
  639TMC3    C1 9456   4.444   3.807  15.459  0.4032  0.0533  0.6747
  639TMC3    C2 9457   4.354   3.739  15.376 -0.7054 -0.4981  0.2326
  639TMC3    C3 9458   4.328   3.607  15.387 -0.3594 -0.0245  1.0147
  639TMC3    C4 9459   4.526   3.731  15.534 -0.0683  0.6805 -0.7577
  639TMC3    C5 9460   4.488   3.596  15.559  0.0720  1.1151  0.1688
  639TMC3    C6 9461   4.395   3.529  15.480 -0.2657  0.2282  0.3106
  639TMC3     C 9462   4.479   3.952  15.439 -0.4803 -0.1647 -0.4166
  639TMC3     O 9463   4.491   4.013  15.543  0.5778 -0.2559 -0.2279
  639TMC3     H 9464   4.286   3.795  15.312  1.2213  0.8982 -0.5852
  639TMC3    H1 9465   4.611   3.777  15.583  0.1119 -0.1782 -0.2785
  639TMC3    H2 9466   4.382   3.422  15.490  0.1256  0.5418  4.1109
  639TMC3    C7 9467   4.583   3.510  15.603 -0.0853 -0.1060  0.2625
  639TMC3    C8 9468   4.246   3.542  15.288  0.1487 -0.5202  0.5327
  639TMC3    O1 9469   4.561   3.430  15.694 -0.1795  0.1347  0.4063
  639TMC3    O2 9470   4.260   3.575  15.172 -0.3452  0.1702 -0.3458
  640MPD2     C 9471   0.169   2.799   9.590 -0.1224  1.0149  0.1318
  640MPD2    C1 9472   0.051   2.744   9.553  0.3262 -0.6062  0.2670
  640MPD2    C2 9473   4.664   2.818   9.558 -0.4289  0.0992 -0.4297
  640MPD2    C3 9474   4.671   2.952   9.578 -0.2751 -0.4352 -0.3030
  640MPD2    C4 9475   0.066   3.016   9.601 -0.3834 -0.0743  0.3746
  640MPD2    C5 9476   0.182   2.943   9.611  0.2053  0.2156  0.1266
  640MPD2     H 9477   4.576   2.756   9.551 -0.8296  0.2587  3.4400
  640MPD2    H1 9478   0.053   3.118   9.636 -0.9016 -0.4833  1.3671
  640MPD2    H2 9479   0.253   2.734   9.609  2.3996  3.7068 -1.8477
  640MPD2    H3 9480   0.268   2.994   9.653  1.6025 -1.9272 -0.1207
  640MPD2     N 9481   4.556   3.042   9.581  0.4264  0.0528  0.3136
  640MPD2    H5 9482   4.578   3.140   9.596  0.6478  0.1250 -0.4478
  640MPD2    N1 9483   0.049   2.601   9.531  0.5403  0.0301 -0.0042
  640MPD2    H7 9484   0.135   2.548   9.543  0.4002 -0.2434 -0.2167
  641TMC3    C1 9485   4.705   2.382   9.471 -0.1682 -0.7270 -0.0695
  641TMC3    C2 9486   0.085   2.323   9.535  0.3073 -0.3166  0.1150
  641TMC3    C3 9487   0.110   2.187   9.504 -0.0988  0.3109 -0.0724
  641TMC3    C4 9488   4.622   2.313   9.390  0.0553  0.3867  0.2652
  641TMC3    C5 9489   4.653   2.179   9.361 -0.4312  0.5632 -0.7439
  641TMC3    C6 9490   0.030   2.117   9.426 -0.3722 -0.0634 -0.1385
  641TMC3     C 9491   4.672   2.523   9.484  0.0521  0.5398 -0.6772
  641TMC3     O 9492   4.572   2.566   9.426  0.3921 -0.2450  0.2293
  641TMC3     H 9493   0.140   2.361   9.620 -0.9638 -0.2462  0.8958
  641TMC3    H1 9494   4.535   2.363   9.349 -1.4130 -2.0103  0.5015
  641TMC3    H2 9495   0.045   2.010   9.411  2.3441  0.1657  1.0216
  641TMC3    C7 9496   4.612   2.113   9.232  0.5120  0.4580  0.4140
  641TMC3    C8 9497   0.228   2.118   9.550 -0.0794  0.2565  0.2909
  641TMC3    O1 9498   4.693   2.031   9.190  0.3284 -0.2570 -0.1263
  641TMC3    O2 9499   0.230   1.999   9.542 -0.4103 -0.5240 -0.1473
  642TMC3    C1 9500   1.186   3.659  12.972  0.2642 -0.0387 -0.2868
  642TMC3    C2 9501   1.240   3.577  13.061 -0.5854  0.0906  1.3255
  642TMC3    C3 9502   1.202   3.449  13.061  0.2536  0.0643 -0.0029
  642TMC3    C4 9503   1.099   3.615  12.875  0.2092  0.8072  0.5641
  642TMC3    C5 9504   1.058   3.479  12.884  0.6237  0.4365 -0.1045
  642TMC3    C6 9505   1.119   3.393  12.969  0.2680 -0.4271  0.9993
  642TMC3     C 9506   1.230   3.801  12.967 -0.5604  0.4997 -0.5094
  642TMC3     O 9507   1.346   3.828  12.999 -0.4632 -0.5178  0.0111
  642TMC3     H 9508   1.311   3.615  13.134 -0.3914 -2.5128  2.5213
  642TMC3    H1 9509   1.069   3.686  12.799 -0.4414 -1.7796 -1.5957
  642TMC3    H2 9510   1.089   3.291  12.993  1.0486 -0.3334  2.3247
  642TMC3    C7 9511   0.982   3.435  12.764  0.0504 -0.0074  1.0297
  642TMC3    C8 9512   1.228   3.373  13.179 -0.1180 -0.1008  0.1408
  642TMC3    O1 9513   0.951   3.527  12.689  0.2964  0.0609 -0.1927
  642TMC3    O2 9514   1.250   3.254  13.157 -0.3433 -0.3745 -0.0763
  643TMC3    C1 9515   0.442   3.468   0.669  0.3801  0.5602  0.3108
  643TMC3    C2 9516   0.309   3.502   0.679 -0.0802  0.5192 -0.2755
  643TMC3    C3 9517   0.223   3.434   0.602 -0.0878  0.4063 -0.4272
  643TMC3    C4 9518   0.482   3.355   0.606 -0.2952 -0.8077  0.3475
  643TMC3    C5 9519   0.383   3.271   0.568  0.5478 -0.4615 -0.2641
  643TMC3    C6 9520   0.256   3.317   0.548  0.0814  0.2115 -0.1409
  643TMC3     C 9521   0.540   3.577   0.690 -0.1291 -0.2116  0.8295
  643TMC3     O 9522   0.481   3.682   0.686 -0.2130  0.1462  0.0111
  643TMC3     H 9523   0.280   3.588   0.740 -1.2441  0.6053 -0.9435
  643TMC3    H1 9524   0.581   3.310   0.601  1.3044  2.9703 -1.3939
  643TMC3    H2 9525   0.182   3.248   0.510 -0.6940  0.2137  1.3574
  643TMC3    C7 9526   0.434   3.194   0.458  0.2228  0.3462  0.1506
  643TMC3    C8 9527   0.138   3.513   0.519  0.3908  0.2681  0.0673
  643TMC3    O1 9528   0.504   3.096   0.469 -0.2065  0.5969 -0.1561
  643TMC3    O2 9529   0.078   3.448   0.434 -0.6916  0.1018  0.0923
  644MPD2     C 9530   4.530   2.701   8.574  0.4434 -0.9947 -0.0755
  644MPD2    C1 9531   4.548   2.707   8.716  0.9192 -0.1141 -0.1211
  644MPD2    C2 9532   4.496   2.819   8.789 -0.1286  0.1246  0.1186
  644MPD2    C3 9533   4.442   2.925   8.724 -1.2038 -0.4309  0.6208
  644MPD2    C4 9534   4.419   2.919   8.585 -0.3547  0.5072 -0.2227
  644MPD2    C5 9535   4.463   2.808   8.516  0.8617  0.3144 -1.2364
  644MPD2     H 9536   4.514   2.827   8.896  1.5626 -2.0041 -0.0109
  644MPD2    H1 9537   4.361   2.990   8.527  0.4426  0.1431 -1.4576
  644MPD2    H2 9538   4.558   2.615   8.514 -0.2032 -2.2288  1.3882
  644MPD2    H3 9539   4.455   2.803   8.408 -0.1574  1.7564 -1.2271
  644MPD2     N 9540   4.404   3.042   8.803  0.0031 -0.8866 -0.3184
  644MPD2    H5 9541   4.412   3.047   8.904 -1.7323  0.2592 -0.2323
  644MPD2    N1 9542   4.616   2.599   8.780 -0.0310 -0.3051 -0.3086
  644MPD2    H7 9543   4.648   2.525   8.719 -0.7823 -1.7078  1.0296
  645TMC3    C1 9544   4.335   3.263   8.845  0.0964  0.5776 -0.0092
  645TMC3    C2 9545   4.367   3.388   8.799  0.5768 -1.0080 -0.5055
  645TMC3    C3 9546   4.297   3.492   8.838  1.3672 -0.2454  0.0993
  645TMC3    C4 9547   4.219   3.241   8.910  0.6704  0.6852  0.0886
  645TMC3    C5 9548   4.159   3.357   8.957  0.4956 -0.7001 -0.1690
  645TMC3    C6 9549   4.187   3.479   8.918 -0.2656  0.2199  0.5024
  645TMC3     C 9550   4.363   3.163   8.743 -0.3701  0.2094  0.0793
  645TMC3     O 9551   4.359   3.192   8.623  0.1995  0.8577  0.5716
  645TMC3     H 9552   4.442   3.401   8.722 -0.1234 -0.0475 -1.0398
  645TMC3    H1 9553   4.180   3.144   8.938 -3.2709  1.7872 -1.6492
  645TMC3    H2 9554   4.133   3.568   8.947 -0.7305  0.4325 -0.9838
  645TMC3    C7 9555   4.051   3.338   9.058 -0.0508 -0.1014  0.0415
  645TMC3    C8 9556   4.328   3.631   8.812 -0.1467  0.0545 -0.1730
  645TMC3    O1 9557   4.022   3.221   9.086 -0.1399 -0.5056 -0.7090
  645TMC3    O2 9558   4.241   3.708   8.840  0.1655  0.2608  0.5270
  646MPD2     C 9559   4.486   2.849  14.551  0.4473 -0.3681  0.3071
  646MPD2    C1 9560   4.476   2.908  14.675 -1.4199  0.1086  0.2191
  646MPD2    C2 9561   4.382   2.999  14.700 -0.1824 -0.2713  0.2408
  646MPD2    C3 9562   4.276   3.013  14.608 -0.2322 -0.0337 -0.1024
  646MPD2    C4 9563   4.271   2.943  14.486 -0.2943 -0.6841 -0.5514
  646MPD2    C5 9564   4.381   2.870  14.462 -0.1253 -0.7954 -0.2377
  646MPD2     H 9565   4.386   3.063  14.788  0.9725 -0.8023  0.5863
  646MPD2    H1 9566   4.200   2.950  14.405 -0.6921 -1.6090 -0.2895
  646MPD2    H2 9567   4.568   2.781  14.534  0.4035 -0.2938 -0.2101
  646MPD2    H3 9568   4.383   2.817  14.368  0.5781  0.5455 -0.9796
  646MPD2     N 9569   4.182   3.113  14.632  0.0943 -0.1176  0.2527
  646MPD2    H5 9570   4.182   3.156  14.723  1.8711 -2.8602  1.5590
  646MPD2    N1 9571   4.578   2.890  14.769 -0.4033 -0.1883 -0.5150
  646MPD2    H7 9572   4.643   2.817  14.743 -0.7916 -0.2823 -1.2131
  647TMC3    C1 9573   4.696   2.871  14.967  0.5691  0.5340  0.9689
  647TMC3    C2 9574   4.670   2.841  15.098  0.0972 -0.0429 -0.0466
  647TMC3    C3 9575   0.017   2.734  15.144  0.3653 -0.3376 -0.7906
  647TMC3    C4 9576   0.070   2.818  14.892 -0.4215 -0.0595 -0.3633
  647TMC3    C5 9577   0.147   2.724  14.956  0.3826  0.1368 -0.0800
  647TMC3    C6 9578   0.113   2.669  15.072 -0.2119 -0.2896  0.1354
  647TMC3     C 9579   4.583   2.929  14.899 -0.5918  0.0377 -0.8476
  647TMC3     O 9580   4.507   2.997  14.959 -0.7756  0.2481  0.6115
  647TMC3     H 9581   4.590   2.889  15.153 -0.1937 -2.0352  1.2691
  647TMC3    H1 9582   0.111   2.874  14.810 -1.2500 -1.5618 -1.8130
  647TMC3    H2 9583   0.161   2.587  15.124  0.1800 -0.3478 -0.3247
  647TMC3    C7 9584   0.279   2.694  14.913  0.3769  0.2736 -0.0125
  647TMC3    C8 9585   4.690   2.656  15.256 -0.1558  0.0254  0.0813
  647TMC3    O1 9586   0.354   2.656  14.998 -0.3256  0.0786  0.3233
  647TMC3    O2 9587   4.702   2.537  15.251 -0.3485 -0.1341 -0.3995
  648TMC3    C1 9588   4.186   0.627  16.024 -0.7338  0.1807 -0.3854
  648TMC3    C2 9589   4.188   0.507  15.948 -0.2724  0.1479  1.3649
  648TMC3    C3 9590   4.127   0.505  15.822  0.0500 -0.0733 -0.4340
  648TMC3    C4 9591   4.114   0.727  15.975  0.2214  0.1945 -0.8354
  648TMC3    C5 9592   4.048   0.722  15.856  1.0378  0.0035 -0.3893
  648TMC3    C6 9593   4.048   0.609  15.775  0.4624  0.0744  0.4993
  648TMC3     C 9594   4.233   0.645  16.162 -0.2157  0.0575 -0.3576
  648TMC3     O 9595   4.289   0.749  16.182 -0.2359 -0.5652  0.1601
  648TMC3     H 9596   4.243   0.427  15.996 -1.7045  0.3029  3.2357
  648TMC3    H1 9597   4.118   0.821  16.028  1.1575  0.2468 -1.0113
  648TMC3    H2 9598   3.989   0.602  15.684 -0.7667  0.6743  1.2392
  648TMC3    C7 9599   3.961   0.833  15.814  0.7358 -0.0012  0.3040
  648TMC3    C8 9600   4.109   0.374  15.759 -0.4860 -0.0915  0.0208
  648TMC3    O1 9601   3.899   0.820  15.704 -0.0578  0.4272 -0.3557
  648TMC3    O2 9602   4.034   0.371  15.663 -0.1764 -0.4117  0.6740
  649TMC3    C1 9603   2.810   1.911  12.377 -0.1526 -0.5887 -0.3553
  649TMC3    C2 9604   2.884   2.019  12.403  0.0858 -0.6307  0.0539
  649TMC3    C3 9605   2.963   2.014  12.519  0.2752  0.1707  0.0331
  649TMC3    C4 9606   2.785   1.804  12.467  0.2751 -0.3704 -0.3091
  649TMC3    C5 9607   2.862   1.808  12.580  0.1213 -0.3731  0.1036
  649TMC3    C6 9608   2.955   1.907  12.607  0.1960  1.2198 -0.3803
  649TMC3     C 9609   2.781   1.890  12.237 -0.3776  0.0745  0.0165
  649TMC3     O 9610   2.664   1.860  12.207  0.1799 -0.2926  0.0703
  649TMC3     H 9611   2.905   2.095  12.329 -2.5850 -0.2217 -0.2876
  649TMC3    H1 9612   2.715   1.728  12.435  1.8371 -1.9558  0.0299
  649TMC3    H2 9613   2.994   1.919  12.707  1.0285  1.4897 -0.7418
  649TMC3    C7 9614   2.807   1.729  12.692  0.3289 -0.4377  0.9948
  649TMC3    C8 9615   3.064   2.110  12.554  0.2858  0.3269 -0.0263
  649TMC3    O1 9616   2.830   1.782  12.799  0.2781  0.3280 -0.0235
  649TMC3    O2 9617   3.154   2.075  12.631 -0.5990  0.0295  0.4885
  650TMC3    C1 9618   0.584   3.317  12.760 -0.5635 -0.3416 -0.1286
  650TMC3    C2 9619   0.576   3.445  12.805 -0.0635  0.6949 -0.2346
  650TMC3    C3 9620   0.492   3.528  12.733 -0.4781 -0.5133 -0.5596
  650TMC3    C4 9621   0.518   3.266  12.653  1.0680 -0.0027  0.3360
  650TMC3    C5 9622   0.451   3.354  12.576 -0.0713  0.5358  0.2951
  650TMC3    C6 9623   0.425   3.482  12.623  0.2413 -0.2338 -0.4954
  650TMC3     C 9624   0.628   3.226  12.869  0.3789 -0.2310 -0.6582
  650TMC3     O 9625   0.619   3.276  12.981 -0.0205  0.5359  0.8097
  650TMC3     H 9626   0.634   3.480  12.890  1.3985 -3.0575  0.3082
  650TMC3    H1 9627   0.536   3.166  12.615 -0.4054 -0.7137  1.5189
  650TMC3    H2 9628   0.354   3.547  12.573  0.4984 -0.3814 -1.0504
  650TMC3    C7 9629   0.387   3.307  12.457  0.1854  0.5176  0.8022
  650TMC3    C8 9630   0.463   3.650  12.801 -0.3391  0.3382 -0.1072
  650TMC3    O1 9631   0.332   3.198  12.477  0.7070 -0.4759  0.1461
  650TMC3    O2 9632   0.551   3.698  12.865  0.2240  0.5512 -0.0046
  651MPD2     C 9633   4.109   4.486  10.602 -0.0066  0.1835  0.6406
  651MPD2    C1 9634   4.085   4.620  10.595  0.1674 -0.3692 -0.6479
  651MPD2    C2 9635   4.185   4.693  10.531 -0.8337 -0.3135  0.4305
  651MPD2    C3 9636   4.287   4.638  10.458  0.9933  0.1418  0.3559
  651MPD2    C4 9637   4.309   4.506  10.459 -0.1273 -0.1611  0.3925
  651MPD2    C5 9638   4.216   4.431  10.525 -0.2400  0.2129  0.7454
  651MPD2     H 9639   4.164   0.073  10.524  1.6922  0.0478 -1.9404
  651MPD2    H1 9640   4.374   4.448  10.394  2.5536  0.6349  2.4284
  651MPD2    H2 9641   4.037   4.417  10.644  0.1931 -2.4283 -3.3888
  651MPD2    H3 9642   4.225   4.324  10.542 -1.2058 -0.0640 -0.4698
  651MPD2     N 9643   4.384   4.725  10.407 -0.5504 -0.0148  0.3227
  651MPD2    H5 9644   4.371   0.098  10.426 -0.4495 -0.2772  1.6993
  651MPD2    N1 9645   3.981   4.691  10.663  0.2968 -0.0138 -0.2456
  651MPD2    H7 9646   3.972   0.065  10.643 -1.3251  0.3277  2.1866
  652TMC3    C1 9647   0.042   0.203  10.480 -0.1835  0.1254 -0.1665
  652TMC3    C2 9648   4.702   0.081  10.454  0.5892 -0.2785  0.2073
  652TMC3    C3 9649   4.585   0.090  10.381  0.3022 -0.2397 -0.1567
  652TMC3    C4 9650   4.707   0.320  10.460  0.5513 -0.0822  0.7767
  652TMC3    C5 9651   4.595   0.321  10.378  0.7410 -0.3798  0.0007
  652TMC3    C6 9652   4.527   0.207  10.340 -0.1828 -0.8548  0.4335
  652TMC3     C 9653   0.175   0.192  10.530 -0.5046  0.3789  0.8083
  652TMC3     O 9654   0.207   0.088  10.582 -0.2621 -0.4874 -0.3193
  652TMC3     H 9655   0.013   4.712  10.492  0.5468 -0.6868 -0.7770
  652TMC3    H1 9656   0.032   0.410  10.493 -0.2957  0.4611  0.6188
  652TMC3    H2 9657   4.452   0.209  10.262 -0.3107  3.5112  0.7146
  652TMC3    C7 9658   4.546   0.445  10.319 -0.4641 -1.4093  0.0812
  652TMC3    C8 9659   4.511   4.696  10.374 -0.7574 -0.7238  0.1482
  652TMC3    O1 9660   4.440   0.435  10.260  0.2089  0.4370 -0.1656
  652TMC3    O2 9661   4.570   4.594  10.391  0.3128  0.5062  0.2810
  653MPD2     C 9662   3.668   0.562   0.061 -0.0829  0.0653  0.2058
  653MPD2    C1 9663   3.580   0.663   0.030 -0.3002 -0.0662 -0.5601
  653MPD2    C2 9664   3.469   0.635  17.649 -0.4521 -0.0301 -0.3977
  653MPD2    C3 9665   3.443   0.502  17.613  0.1906  0.5155 -0.3705
  653MPD2    C4 9666   3.544   0.409  17.634 -0.5601 -0.0216 -0.0374
  653MPD2    C5 9667   3.655   0.441   0.009  0.1704 -0.3546  0.6439
  653MPD2     H 9668   3.402   0.714  17.615  0.9834  1.1406 -0.5284
  653MPD2    H1 9669   3.535   0.315  17.580  0.5523 -1.1431  1.7133
  653MPD2    H2 9670   3.750   0.573   0.131  0.9692 -0.0203 -1.0320
  653MPD2    H3 9671   3.735   0.374   0.038 -0.6890 -2.4831 -1.8460
  653MPD2     N 9672   3.328   0.475  17.538 -0.1576 -0.7074  0.3003
  653MPD2    H5 9673   3.295   0.552  17.481  2.1234  0.2336  0.2868
  653MPD2    N1 9674   3.586   0.799   0.081  0.5158  0.0013 -0.0391
  653MPD2    H7 9675   3.504   0.858   0.067  1.4567  1.1168 -0.8678
  654TMC3    C1 9676   3.163   0.360  17.420  0.4447 -0.5591 -0.2228
  654TMC3    C2 9677   3.077   0.467  17.423 -0.0411  0.1955 -0.4632
  654TMC3    C3 9678   2.968   0.465  17.331 -0.3270 -0.6850  0.1499
  654TMC3    C4 9679   3.143   0.248  17.347  0.1880 -0.2557  0.3885
  654TMC3    C5 9680   3.036   0.262  17.252  0.4715  0.2306  0.4605
  654TMC3    C6 9681   2.955   0.374  17.239  0.4787 -0.2394  0.3056
  654TMC3     C 9682   3.274   0.348  17.515 -0.1251 -0.0150  0.0468
  654TMC3     O 9683   3.304   0.237  17.557  0.6397 -0.1214  0.6897
  654TMC3     H 9684   3.109   0.558  17.473  2.2079 -1.6342  1.4218
  654TMC3    H1 9685   3.214   0.167  17.347  1.3058  0.7163  0.0717
  654TMC3    H2 9686   2.871   0.378  17.172  0.1092  3.7818  1.0573
  654TMC3    C7 9687   3.035   0.181  17.136 -0.5608 -0.2378 -0.3325
  654TMC3    C8 9688   2.870   0.576  17.330  0.4283 -0.6848 -0.3896
  654TMC3    O1 9689   2.978   0.229  17.040 -0.0635 -0.6422 -0.0554
  654TMC3    O2 9690   2.786   0.581  17.242  0.2362 -0.5178 -0.1415
  655MPD2     C 9691   4.336   0.762  15.650  0.6527  1.0077  0.7166
  655MPD2    C1 9692   4.313   0.877  15.589 -0.6242  0.0615  0.1724
  655MPD2    C2 9693   4.300   0.878  15.449  0.6363  0.2476  0.6152
  655MPD2    C3 9694   4.310   0.759  15.374  1.0569  0.5085 -0.1036
  655MPD2    C4 9695   4.347   0.641  15.441 -0.9146  0.6746 -0.5546
  655MPD2    C5 9696   4.356   0.643  15.577 -0.1959  0.8460 -0.1047
  655MPD2     H 9697   4.270   0.970  15.400 -0.0343 -0.9351 -1.2138
  655MPD2    H1 9698   4.359   0.553  15.379  2.2038  1.5149 -1.1057
  655MPD2    H2 9699   4.344   0.746  15.757 -2.8428  0.3180  0.8948
  655MPD2    H3 9700   4.372   0.552  15.632 -2.5485  1.2269  1.2413
  655MPD2     N 9701   4.287   0.754  15.230 -0.0960 -0.1179 -0.4033
  655MPD2    H5 9702   4.295   0.666  15.179  1.1992 -0.3774  0.2497
  655MPD2    N1 9703   4.280   0.994  15.660 -0.6709  0.5426 -0.0001
  655MPD2    H7 9704   4.240   1.069  15.604 -1.3887 -2.0538 -2.9674
  656TMC3    C1 9705   4.232   1.115  15.865 -0.2780 -0.2562 -0.3941
  656TMC3    C2 9706   4.207   1.100  15.997  0.6755 -0.7211  0.0248
  656TMC3    C3 9707   4.126   1.182  16.072 -0.3394  0.2276  0.0027
  656TMC3    C4 9708   4.171   1.219  15.800 -0.7445  0.1240 -0.4079
  656TMC3    C5 9709   4.089   1.297  15.876 -0.0627 -0.4064  0.2429
  656TMC3    C6 9710   4.059   1.284  16.011 -0.2652  0.1461  0.8208
  656TMC3     C 9711   4.304   1.005  15.795  0.1707 -0.4046  0.6426
  656TMC3     O 9712   4.379   0.943  15.868 -0.4434 -0.3485  0.6819
  656TMC3     H 9713   4.238   1.006  16.042 -1.2888 -1.1035  0.5565
  656TMC3    H1 9714   4.194   1.250  15.699 -1.4560  1.4875 -0.1462
  656TMC3    H2 9715   4.003   1.357  16.068 -0.5032  1.1993 -0.7924
  656TMC3    C7 9716   4.019   1.397  15.792  0.4209  0.1750  0.3287
  656TMC3    C8 9717   4.058   1.113  16.180  0.1613  0.2616 -1.1712
  656TMC3    O1 9718   4.046   1.400  15.673 -0.2526  0.2777 -0.1902
  656TMC3    O2 9719   4.031   0.991  16.164  0.1869  0.4160 -0.1127
  657TMC3    C1 9720   3.077   0.019  15.188 -0.4449 -0.5570  0.2511
  657TMC3    C2 9721   3.123   0.047  15.316 -0.1129  0.2773  0.2403
  657TMC3    C3 9722   3.142   0.182  15.348 -0.9378  0.2738  0.2881
  657TMC3    C4 9723   3.068   0.112  15.084 -0.2413 -0.2000 -0.4327
  657TMC3    C5 9724   3.101   0.238  15.124  0.2330  0.0045 -0.7259
  657TMC3    C6 9725   3.139   0.270  15.249  0.0108  0.0604  0.4089
  657TMC3     C 9726   2.969   4.650  15.176  0.6105  0.0887 -0.1647
  657TMC3     O 9727   2.866   4.693  15.122  0.3283 -0.2199  0.0319
  657TMC3     H 9728   3.126   4.701  15.397 -3.7286  0.2971  0.4151
  657TMC3    H1 9729   3.012   0.082  14.997  1.5886 -0.5877 -1.4884
  657TMC3    H2 9730   3.169   0.371  15.277 -0.9621  0.5272 -0.2175
  657TMC3    C7 9731   3.126   0.350  15.027  0.4581  0.7762  0.0113
  657TMC3    C8 9732   3.211   0.208  15.476  0.3296 -0.3187 -0.0132
  657TMC3    O1 9733   3.126   0.469  15.064  0.3742 -0.0271  0.0495
  657TMC3    O2 9734   3.268   0.124  15.544 -0.4444 -0.1324 -0.0845
  658MPD2     C 9735   4.634   0.695  14.556 -1.1010  0.1531 -0.1963
  658MPD2    C1 9736   4.567   0.810  14.575 -0.4622 -0.4639 -0.5861
  658MPD2    C2 9737   4.584   0.919  14.488  0.0366  0.5083 -0.1846
  658MPD2    C3 9738   4.667   0.903  14.376 -0.7731 -0.2821  0.5340
  658MPD2    C4 9739   0.008   0.784  14.350  0.1149 -0.3002 -0.4179
  658MPD2    C5 9740   4.723   0.684  14.448 -0.0441 -0.5138  0.0839
  658MPD2     H 9741   4.540   1.014  14.516  1.0195 -0.2894  4.0240
  658MPD2    H1 9742   0.068   0.771  14.261  2.4964 -0.0054  1.1281
  658MPD2    H2 9743   4.640   0.615  14.629 -0.7816 -0.1107 -0.5089
  658MPD2    H3 9744   0.052   0.593  14.429  0.9823 -0.2407  1.6885
  658MPD2     N 9745   4.665   1.019  14.286  0.3373 -0.1615 -0.0437
  658MPD2    H5 9746   4.591   1.086  14.302 -0.9672 -1.5921 -0.1125
  658MPD2    N1 9747   4.466   0.804  14.671 -0.1380  0.6688  0.2569
  658MPD2    H7 9748   4.466   0.719  14.726  0.6299  0.3667 -0.2165
  659TMC3    C1 9749   4.279   0.861  14.800  0.0979 -0.0977  0.3822
  659TMC3    C2 9750   4.278   0.925  14.919 -0.4432 -0.0444  0.7307
  659TMC3    C3 9751   4.245   0.841  15.024 -0.4184 -0.0122 -0.5416
  659TMC3    C4 9752   4.233   0.730  14.781 -0.3029  0.4249 -0.2586
  659TMC3    C5 9753   4.177   0.662  14.894  0.0615  0.2439 -0.3759
  659TMC3    C6 9754   4.194   0.715  15.016 -0.4040 -0.7822 -0.2794
  659TMC3     C 9755   4.379   0.905  14.702 -0.4113 -0.4157 -0.6538
  659TMC3     O 9756   4.382   1.025  14.676  0.8189  0.2960  0.1008
  659TMC3     H 9757   4.339   1.013  14.933 -0.7309  0.7035 -2.7178
  659TMC3    H1 9758   4.234   0.686  14.682 -2.6827  1.0580 -0.5579
  659TMC3    H2 9759   4.139   0.668  15.097 -0.0695 -2.8390 -1.2322
  659TMC3    C7 9760   4.135   0.520  14.892 -1.0020  0.0149 -0.6022
  659TMC3    C8 9761   4.277   0.870  15.157 -0.9531  0.5837  0.0769
  659TMC3    O1 9762   4.143   0.458  14.996  0.0495  0.1874 -0.1268
  659TMC3    O2 9763   4.307   0.984  15.195  0.0481  0.1696 -0.2352
  660MPD2     C 9764   2.362   4.039  13.119 -0.5053  0.2584  0.4133
  660MPD2    C1 9765   2.244   4.113  13.126 -0.2248 -0.1471  0.1144
  660MPD2    C2 9766   2.143   4.076  13.217 -0.1100 -0.4749 -0.0065
  660MPD2    C3 9767   2.148   3.958  13.289 -0.4281 -0.6806 -0.3047
  660MPD2    C4 9768   2.272   3.894  13.284  0.4088 -0.2971  0.5817
  660MPD2    C5 9769   2.370   3.930  13.198 -0.0025 -0.2870 -0.4753
  660MPD2     H 9770   2.057   4.142  13.222  0.7599  0.7185 -0.8666
  660MPD2    H1 9771   2.289   3.821  13.363 -1.0072 -1.0398  0.1938
  660MPD2    H2 9772   2.436   4.056  13.041 -1.3582  1.6533 -0.0815
  660MPD2    H3 9773   2.465   3.878  13.195 -0.4791 -1.1605 -0.3215
  660MPD2     N 9774   2.044   3.907  13.383  0.2069  0.1800 -0.3612
  660MPD2    H5 9775   2.062   3.825  13.440 -1.2086  0.8674  1.0733
  660MPD2    N1 9776   2.246   4.238  13.059  0.3843  0.2956  0.2676
  660MPD2    H7 9777   2.329   4.257  13.005 -0.3064  0.3454 -0.7680
  661TMC3    C1 9778   2.147   4.428  12.955 -0.0022  0.0909  0.0796
  661TMC3    C2 9779   2.229   4.415  12.846 -0.2545  0.6102  0.5661
  661TMC3    C3 9780   2.179   4.446  12.718  0.4147 -0.1799  0.5746
  661TMC3    C4 9781   2.025   4.492  12.932  0.4470 -0.2276 -0.0072
  661TMC3    C5 9782   1.981   4.521  12.809  0.7030 -0.3389  0.1111
  661TMC3    C6 9783   2.057   4.508  12.704 -0.7840  0.1379  0.3430
  661TMC3     C 9784   2.150   4.335  13.064 -0.5973  0.3365  0.5730
  661TMC3     O 9785   2.046   4.338  13.135 -0.2953  0.2672  0.0311
  661TMC3     H 9786   2.329   4.376  12.859 -0.2770  0.6326  0.7915
  661TMC3    H1 9787   1.955   4.507  13.014 -0.7190  0.8567 -1.2074
  661TMC3    H2 9788   2.027   4.533  12.604 -0.0344  1.5080  0.4662
  661TMC3    C7 9789   1.842   4.550  12.799 -0.2647  0.1835  0.8390
  661TMC3    C8 9790   2.278   4.457  12.613 -0.9885  0.7247 -0.4815
  661TMC3    O1 9791   1.775   4.581  12.893 -0.3055 -0.4298  0.1777
  661TMC3    O2 9792   2.390   4.408  12.634  0.8515  0.3996  0.2979
  662MPD2     C 9793   1.957   4.234  17.376  0.1481 -0.5835  0.2453
  662MPD2    C1 9794   2.087   4.205  17.419 -0.8881 -0.9074  0.0494
  662MPD2    C2 9795   2.157   4.290  17.500  0.0587  0.6191 -0.1426
  662MPD2    C3 9796   2.087   4.404  17.545 -0.3151  0.1020 -0.6175
  662MPD2    C4 9797   1.957   4.427  17.504 -0.0021  0.1163 -1.0359
  662MPD2    C5 9798   1.898   4.345  17.414  0.0424  0.0746 -0.4093
  662MPD2     H 9799   2.261   4.278  17.529  0.1806 -0.2084 -0.9206
  662MPD2    H1 9800   1.908   4.516  17.541  1.7537  0.9132 -0.6480
  662MPD2    H2 9801   1.895   4.168  17.316  0.7439  0.2017 -1.2305
  662MPD2    H3 9802   1.799   4.381  17.386 -0.9320 -3.8145 -2.0010
  662MPD2     N 9803   2.134   4.493  17.639 -0.1798 -0.5838 -0.5667
  662MPD2    H5 9804   2.071   4.561  17.680  0.7282  0.6692 -1.2409
  662MPD2    N1 9805   2.141   4.082  17.369  1.0032  0.6025 -0.1289
  662MPD2    H7 9806   2.079   4.012  17.329  1.3425 -0.4489  1.1663
  663TMC3    C1 9807   2.277   3.901  17.389 -0.0055  0.3832 -0.4679
  663TMC3    C2 9808   2.397   3.851  17.422  0.8621  0.1213 -0.1039
  663TMC3    C3 9809   2.407   3.716  17.458 -0.0123  0.4998  0.5815
  663TMC3    C4 9810   2.158   3.836  17.427  0.5069 -0.2453  0.2849
  663TMC3    C5 9811   2.170   3.706  17.472  0.1735  0.0849  0.0624
  663TMC3    C6 9812   2.291   3.649  17.498 -0.3834 -0.4268 -0.3264
  663TMC3     C 9813   2.266   4.043  17.387 -0.4992  0.0282  0.0992
  663TMC3     O 9814   2.368   4.105  17.411  0.2834 -0.4720  0.5956
  663TMC3     H 9815   2.484   3.900  17.379  1.0485  0.3497  0.5296
  663TMC3    H1 9816   2.058   3.877  17.432  0.4792 -0.0685 -1.5474
  663TMC3    H2 9817   2.308   3.542  17.505 -1.2278 -0.4457  1.4755
  663TMC3    C7 9818   2.064   3.625  17.412 -0.3513 -0.1238 -0.5909
  663TMC3    C8 9819   2.517   3.702  17.546 -0.4538  0.0515 -0.0273
  663TMC3    O1 9820   1.966   3.685  17.368  0.0139 -0.3851  0.0914
  663TMC3    O2 9821   2.634   3.699  17.501  0.0971  0.1905 -0.0908
  664MPD2     C 9822   1.189   1.845  17.319  0.6650  0.3533  0.5314
  664MPD2    C1 9823   1.177   1.980  17.338  0.1392 -0.8866  0.9185
  664MPD2    C2 9824   1.178   2.027  17.466 -0.0615  0.4146  0.3508
  664MPD2    C3 9825   1.179   1.948  17.581  0.8115 -0.1509  0.1158
  664MPD2    C4 9826   1.184   1.815  17.557  0.3103  0.3116 -0.6508
  664MPD2    C5 9827   1.192   1.767  17.433  0.8268 -0.1107 -0.3925
  664MPD2     H 9828   1.168   2.135  17.471  2.0796  0.5021  2.5317
  664MPD2    H1 9829   1.193   1.749  17.643 -4.0104 -1.7026 -1.7373
  664MPD2    H2 9830   1.195   1.789  17.226 -0.2409 -0.5058  0.9858
  664MPD2    H3 9831   1.200   1.659  17.422  0.1674 -0.0532 -1.4138
  664MPD2     N 9832   1.166   2.001   0.010 -0.0496 -0.1608 -0.5289
  664MPD2    H5 9833   1.142   2.100   0.018  0.2810 -0.2606  1.5137
  664MPD2    N1 9834   1.154   2.071  17.234 -0.4604  0.1698 -0.3404
  664MPD2    H7 9835   1.135   2.165  17.267  0.8589  0.1120  0.5919
  665TMC3    C1 9836   1.146   2.004   0.248  0.2167 -0.3050 -0.5940
  665TMC3    C2 9837   1.166   1.948   0.369 -0.7715 -0.0377 -0.1737
  665TMC3    C3 9838   1.175   2.020   0.483  0.6414  0.1314 -0.6720
  665TMC3    C4 9839   1.116   2.137   0.246 -0.0956 -0.1591  0.6069
  665TMC3    C5 9840   1.135   2.211   0.358  0.1485  0.2150 -0.1952
  665TMC3    C6 9841   1.162   2.153   0.479 -0.5766 -0.9193 -0.1418
  665TMC3     C 9842   1.176   1.929   0.127  0.2677 -0.1135  0.3218
  665TMC3     O 9843   1.223   1.817   0.145  0.8804 -0.5309  0.6872
  665TMC3     H 9844   1.190   1.842   0.366 -1.1506 -0.0769 -2.3918
  665TMC3    H1 9845   1.086   2.194   0.159 -4.4478 -0.0933  2.1177
  665TMC3    H2 9846   1.196   2.211   0.565  0.2269 -1.2332 -0.2493
  665TMC3    C7 9847   1.069   2.344   0.358  0.7110  0.5013  0.6706
  665TMC3    C8 9848   1.139   1.963   0.606 -0.2271  0.7395 -0.1368
  665TMC3    O1 9849   1.029   2.399   0.256  0.0030  1.0749 -0.6148
  665TMC3    O2 9850   1.125   2.045   0.701  0.0597  0.6420 -0.0498
  666TMC3    C1 9851   0.229   2.384  10.232  0.0972 -0.0597  0.3100
  666TMC3    C2 9852   0.223   2.269  10.303  0.2751 -0.1281 -0.3885
  666TMC3    C3 9853   0.245   2.144  10.250 -0.2229 -0.1081 -0.7495
  666TMC3    C4 9854   0.273   2.376  10.101 -0.2184  0.3742 -0.7930
  666TMC3    C5 9855   0.282   2.247  10.042 -0.0724 -0.5815  0.4545
  666TMC3    C6 9856   0.266   2.132  10.115 -0.0192  0.3618 -0.8113
  666TMC3     C 9857   0.100   2.451  10.229 -0.0097 -0.8420 -0.6460
  666TMC3     O 9858   0.091   2.543  10.151  0.1682 -0.0643 -0.1295
  666TMC3     H 9859   0.222   2.289  10.409  3.1452 -2.4485  0.0865
  666TMC3    H1 9860   0.296   2.469  10.050 -1.5115  0.0053 -2.0542
  666TMC3    H2 9861   0.281   2.032  10.075 -0.5601 -0.2507  0.5388
  666TMC3    C7 9862   0.200   2.250   9.919 -0.1619 -0.0833  0.1647
  666TMC3    C8 9863   0.224   2.034  10.338  0.2176 -0.2395 -0.0368
  666TMC3    O1 9864   0.212   2.357   9.856 -0.2352 -0.7449  0.0143
  666TMC3    O2 9865   0.155   1.945  10.293 -0.0655 -0.1180  0.4678
  667MPD2     C 9866   1.803   2.228  14.617 -0.4026  0.1018  0.5990
  667MPD2    C1 9867   1.831   2.195  14.745  0.2815  0.2409  0.4039
  667MPD2    C2 9868   1.804   2.069  14.784  0.0502 -0.5046  0.0436
  667MPD2    C3 9869   1.771   1.973  14.694  0.3047  0.1637  0.3286
  667MPD2    C4 9870   1.752   2.008  14.564 -0.1074  0.6407  0.0814
  667MPD2    C5 9871   1.774   2.136  14.528 -0.6914 -0.1842 -0.1165
  667MPD2     H 9872   1.822   2.043  14.887  1.2298  0.3894  0.0637
  667MPD2    H1 9873   1.745   1.924  14.496  2.1433 -1.3794  2.3394
  667MPD2    H2 9874   1.808   2.331  14.584 -0.1970 -0.0880  0.0460
  667MPD2    H3 9875   1.769   2.162  14.423  1.0906  1.5945  0.2399
  667MPD2     N 9876   1.757   1.838  14.736  0.4226  0.2467  0.3544
  667MPD2    H5 9877   1.730   1.776  14.660 -2.0060  1.5839  0.1466
  667MPD2    N1 9878   1.871   2.285  14.847 -0.3808 -0.3423 -0.1005
  667MPD2    H7 9879   1.891   2.245  14.939  1.9942 -0.3079 -0.6126
  668TMC3    C1 9880   1.929   2.487  14.963  0.7680  1.2135 -0.4802
  668TMC3    C2 9881   1.938   2.626  14.961 -0.1266  0.1028 -0.0066
  668TMC3    C3 9882   1.942   2.685  15.085  0.3170 -0.5044  1.2123
  668TMC3    C4 9883   1.910   2.421  15.085 -0.0191  0.6401  0.2104
  668TMC3    C5 9884   1.899   2.489  15.206  0.5687  0.0741 -0.1330
  668TMC3    C6 9885   1.925   2.622  15.206  0.0713  0.1176 -0.0438
  668TMC3     C 9886   1.896   2.417  14.836  0.1954  0.4383 -0.0611
  668TMC3     O 9887   1.890   2.484  14.735  0.2823 -0.2307  0.4570
  668TMC3     H 9888   1.918   2.675  14.866  1.4714 -1.7811 -1.3216
  668TMC3    H1 9889   1.901   2.313  15.087 -0.4764  0.6743  0.0933
  668TMC3    H2 9890   1.902   2.678  15.295  2.1283  2.1595 -0.7858
  668TMC3    C7 9891   1.867   2.425  15.329 -0.7399  0.1973 -0.6158
  668TMC3    C8 9892   1.945   2.831  15.086 -0.4022  0.6308 -0.0461
  668TMC3    O1 9893   1.906   2.491  15.426 -0.3760 -0.6169 -0.1843
  668TMC3    O2 9894   1.922   2.886  15.195 -0.4204 -0.3178  0.2704
  669TMC3    C1 9895   4.058   2.170  14.302 -0.4983  0.3549 -0.3787
  669TMC3    C2 9896   3.921   2.187  14.281 -0.5446  0.1111  0.0540
  669TMC3    C3 9897   3.885   2.296  14.198 -0.2300  0.5434 -0.4626
  669TMC3    C4 9898   4.156   2.240  14.236 -0.3296 -0.2177  0.6819
  669TMC3    C5 9899   4.105   2.343  14.167 -0.0052 -0.5304 -0.4647
  669TMC3    C6 9900   3.975   2.374  14.142  0.3418 -0.1356  0.2423
  669TMC3     C 9901   4.112   2.122  14.427  0.7285 -0.0413  0.0269
  669TMC3     O 9902   4.224   2.154  14.470  0.1316  0.1738 -0.1101
  669TMC3     H 9903   3.850   2.141  14.350 -0.4035 -1.2156 -0.6967
  669TMC3    H1 9904   4.262   2.226  14.254 -0.1737  1.2534  0.9348
  669TMC3    H2 9905   3.944   2.457  14.079  1.4566 -0.6173 -0.9497
  669TMC3    C7 9906   4.200   2.445  14.127 -0.5603 -0.1463  0.0858
  669TMC3    C8 9907   3.745   2.322  14.170 -0.1634  0.4443 -0.1702
  669TMC3    O1 9908   4.316   2.417  14.126  0.2856 -0.2251  0.2750
  669TMC3    O2 9909   3.668   2.222  14.157  0.0273 -0.6719  0.1716
  670MPD2     C 9910   2.533   0.142  13.680  0.3205 -0.0956 -0.4514
  670MPD2    C1 9911   2.620   0.115  13.780 -0.1613  0.8838 -0.2188
  670MPD2    C2 9912   2.567   0.065  13.899 -0.3376 -0.0558 -0.0873
  670MPD2    C3 9913   2.434   0.037  13.924 -0.2760 -0.2571 -0.0948
  670MPD2    C4 9914   2.353   0.064  13.821  0.4237  0.1109  0.8221
  670MPD2    C5 9915   2.401   0.117  13.699  0.2145  0.3655 -0.1634
  670MPD2     H 9916   2.626   0.046  13.988 -0.0425  1.2238 -0.0130
  670MPD2    H1 9917   2.246   0.051  13.832  0.3165  0.1904 -0.1350
  670MPD2    H2 9918   2.568   0.191  13.590  0.1724  0.4472 -0.2107
  670MPD2    H3 9919   2.327   0.140  13.624 -0.9803  2.3567  1.6173
  670MPD2     N 9920   2.388   4.716  14.052  0.3104 -0.0745 -0.0398
  670MPD2    H5 9921   2.458   4.707  14.124 -0.7263  0.2966  1.0089
  670MPD2    N1 9922   2.758   0.121  13.766 -0.2836 -0.1235  0.2316
  670MPD2    H7 9923   2.813   0.124  13.851 -0.1902 -0.8913  0.1930
  671TMC3    C1 9924   2.244   4.601  14.210 -0.0767 -0.0291  0.4229
  671TMC3    C2 9925   2.340   4.598  14.311 -0.6533  0.8089 -0.2454
  671TMC3    C3 9926   2.309   4.527  14.428 -0.0467 -0.6496  0.6247
  671TMC3    C4 9927   2.129   4.527  14.222  0.8164  1.0102  0.7417
  671TMC3    C5 9928   2.109   4.458  14.336 -0.3534 -0.3152  1.1670
  671TMC3    C6 9929   2.199   4.451  14.435 -0.1608  0.0627 -0.5225
  671TMC3     C 9930   2.270   4.647  14.071  0.0194  0.5425 -0.2615
  671TMC3     O 9931   2.186   4.613  13.990 -0.1779 -0.1815  0.1259
  671TMC3     H 9932   2.427   4.663  14.309 -0.6445  0.8598  1.4834
  671TMC3    H1 9933   2.049   4.541  14.150 -0.2437  0.1472  1.7331
  671TMC3    H2 9934   2.164   4.398  14.523 -0.5050  0.4433 -0.4278
  671TMC3    C7 9935   1.992   4.362  14.338  0.3295  0.8472  0.1330
  671TMC3    C8 9936   2.418   4.455  14.490 -0.0505 -0.4931 -0.2540
  671TMC3    O1 9937   2.011   4.249  14.378 -0.1727 -0.1565 -0.0834
  671TMC3    O2 9938   2.404   4.337  14.501 -0.1111  0.0972  0.1994
  672MPD2     C 9939   4.345   0.633   0.583  0.7411  0.2900 -0.4191
  672MPD2    C1 9940   4.363   0.534   0.672 -0.3026  0.4082  0.7077
  672MPD2    C2 9941   4.355   0.565   0.806 -0.6848 -0.0638 -0.3242
  672MPD2    C3 9942   4.334   0.698   0.847  0.1685 -0.1794 -0.0790
  672MPD2    C4 9943   4.309   0.794   0.754  0.9137 -0.6398 -0.1338
  672MPD2    C5 9944   4.325   0.762   0.622  0.2829  1.1787  0.0239
  672MPD2     H 9945   4.353   0.483   0.877  0.6787  0.0770 -0.1364
  672MPD2    H1 9946   4.286   0.893   0.791  0.3192 -0.4684 -0.9697
  672MPD2    H2 9947   4.352   0.609   0.478 -1.2098 -0.0775 -0.4592
  672MPD2    H3 9948   4.299   0.836   0.547  1.7015  2.5131  0.8380
  672MPD2     N 9949   4.319   0.736   0.980  0.3377  0.6852  0.0076
  672MPD2    H5 9950   4.276   0.826   0.996  1.3012  0.6348  2.8465
  672MPD2    N1 9951   4.382   0.401   0.621  0.3787 -0.3711  0.8723
  672MPD2    H7 9952   4.365   0.404   0.521  2.6361 -1.2029  0.4565
  673TMC3    C1 9953   4.371   0.172   0.619  0.2485 -0.4867  0.3817
  673TMC3    C2 9954   4.406   0.056   0.677 -0.0794 -0.9771 -1.4951
  673TMC3    C3 9955   4.349   4.659   0.638  0.5301 -0.7312  0.3318
  673TMC3    C4 9956   4.264   0.172   0.534 -0.3014 -0.2492 -0.3276
  673TMC3    C5 9957   4.216   0.053   0.488  0.1213  0.8473  1.0291
  673TMC3    C6 9958   4.266   4.660   0.527  0.0666 -0.4321 -0.2706
  673TMC3     C 9959   4.389   0.289   0.698 -0.0733 -0.5823 -0.2753
  673TMC3     O 9960   4.431   0.279   0.811  0.3294  0.0357  0.0343
  673TMC3     H 9961   4.482   0.056   0.754 -0.3812 -0.1957 -1.1935
  673TMC3    H1 9962   4.217   0.262   0.495  0.7064  0.6311  0.4975
  673TMC3    H2 9963   4.212   4.572   0.493 -0.9478 -0.6141  1.7914
  673TMC3    C7 9964   4.099   0.050   0.394 -0.1417  0.2963 -0.2774
  673TMC3    C8 9965   4.336   4.553   0.735  0.7045  0.7355  0.4168
  673TMC3    O1 9966   4.093   4.689   0.314 -0.3558  1.0907  0.6604
  673TMC3    O2 9967   4.243   4.473   0.720 -0.1917 -0.1293  0.0969
  674MPD2     C 9968   3.355   4.454   0.387 -0.5649 -0.1479  0.2386
  674MPD2    C1 9969   3.227   4.488   0.361  0.1747 -0.2115 -0.0618
  674MPD2    C2 9970   3.149   4.541   0.464  0.4196 -0.3434 -0.0875
  674MPD2    C3 9971   3.200   4.542   0.593 -0.0333  0.2672  0.0539
  674MPD2    C4 9972   3.331   4.514   0.616  0.0364 -0.9545 -0.3688
  674MPD2    C5 9973   3.403   4.479   0.512 -0.0271 -0.8560 -0.0736
  674MPD2     H 9974   3.046   4.569   0.446  0.3796 -1.2674 -1.3469
  674MPD2    H1 9975   3.374   4.525   0.714 -1.9062  0.1233  0.3594
  674MPD2    H2 9976   3.417   4.405   0.313  0.1189  0.4902  0.3932
  674MPD2    H3 9977   3.503   4.447   0.542  0.3221  1.0743  0.8195
  674MPD2     N 9978   3.102   4.566   0.693  0.1936 -0.3648 -0.8985
  674MPD2    H5 9979   3.006   4.555   0.661 -0.7036  2.7902  0.7852
  674MPD2    N1 9980   3.169   4.466   0.234  0.0085  0.8735 -0.3962
  674MPD2    H7 9981   3.232   4.430   0.163  0.5602  0.4464  0.3019
  675TMC3    C1 9982   3.016   4.462   0.055  0.3386 -0.6841  0.6013
  675TMC3    C2 9983   2.881   4.446   0.033 -0.3711 -0.0436 -0.9801
  675TMC3    C3 9984   2.847   4.375  17.626 -0.0571  0.0472 -0.0779
  675TMC3    C4 9985   3.113   4.418  17.674 -0.7209  0.1851  0.5481
  675TMC3    C5 9986   3.069   4.354  17.561 -0.0376  0.6417  0.3943
  675TMC3    C6 9987   2.940   4.331  17.538 -0.4987  0.0462 -0.2105
  675TMC3     C 9988   3.040   4.491   0.195 -0.7671 -0.8208 -0.3029
  675TMC3     O 9989   2.943   4.536   0.259  0.4844 -0.0442 -0.0131
  675TMC3     H 9990   2.804   4.492   0.095 -1.4010  0.7473 -2.8240
  675TMC3    H1 9991   3.212   4.460  17.687 -0.2049 -0.3768 -1.5040
  675TMC3    H2 9992   2.916   4.265  17.456 -0.6075 -0.2845  0.0869
  675TMC3    C7 9993   3.164   4.308  17.455 -0.8890  0.2503  0.0066
  675TMC3    C8 9994   2.726   4.304  17.637  0.1539  0.5835  0.4562
  675TMC3    O1 9995   3.124   4.276  17.345  0.2251  1.1463  0.7153
  675TMC3    O2 9996   2.662   4.294  17.536 -0.3089 -0.1888  0.3570
  676MPD2     C 9997   0.675   3.170  11.031  0.5232 -0.1272 -0.0448
  676MPD2    C1 9998   0.567   3.091  11.054 -0.4918 -0.0708 -0.6217
  676MPD2    C2 9999   0.541   2.982  10.973 -0.1736  0.9020 -0.2010
  676MPD2    C310000   0.627   2.946  10.871  0.2356  0.4522 -0.2970
  676MPD2    C410001   0.742   3.015  10.853 -0.5548 -0.1660  0.3236
  676MPD2    C510002   0.760   3.126  10.930  0.6724  0.0654 -0.0227
  676MPD2     H10003   0.451   2.925  10.992 -0.0284  0.9516  0.6438
  676MPD2    H110004   0.822   2.989  10.785 -1.9542 -1.7891 -0.6888
  676MPD2    H210005   0.696   3.263  11.081 -0.6223  1.0070 -1.6643
  676MPD2    H310006   0.849   3.187  10.916  0.7750 -0.1505 -0.3099
  676MPD2     N10007   0.599   2.841  10.779 -1.0463  0.5485 -0.2438
  676MPD2    H510008   0.527   2.776  10.808 -1.4453  0.6964 -0.9257
  676MPD2    N110009   0.471   3.129  11.148  0.3691 -0.5930  0.5678
  676MPD2    H710010   0.388   3.069  11.146 -1.1904  1.5955 -0.9952
  677TMC3    C110011   0.362   3.235  11.334  0.6280 -0.2021 -0.4648
  677TMC3    C210012   0.293   3.118  11.358  0.3924 -0.5930  0.1713
  677TMC3    C310013   0.184   3.138  11.436 -0.6251  0.2583 -0.1814
  677TMC3    C410014   0.349   3.356  11.389  0.4942 -0.4600 -0.1658
  677TMC3    C510015   0.242   3.371  11.474 -0.3416  0.3652  0.3584
  677TMC3    C610016   0.162   3.263  11.496  0.5823 -0.4333  0.2996
  677TMC3     C10017   0.477   3.230  11.244  0.3052 -0.3735  0.4409
  677TMC3     O10018   0.561   3.318  11.248 -0.2266  0.3397 -0.0147
  677TMC3     H10019   0.313   3.026  11.305  1.5819 -1.7855  2.6898
  677TMC3    H110020   0.400   3.446  11.358 -1.5156  0.0212 -2.1024
  677TMC3    H210021   0.067   3.280  11.545  0.5602 -2.0552  0.8276
  677TMC3    C710022   0.252   3.459  11.591  0.2128  0.2411 -0.2994
  677TMC3    C810023   0.083   3.037  11.430  0.0831 -0.2170  0.3569
  677TMC3    O110024   0.175   3.433  11.688  0.4454  0.0083 -0.3407
  677TMC3    O210025   0.078   2.986  11.322  0.5377 -0.2827  0.1246
  678MPD2     C10026   1.729   2.864   1.594 -0.4015  0.2907  0.0233
  678MPD2    C110027   1.807   2.899   1.479  0.5282 -0.1154  0.1347
  678MPD2    C210028   1.725   2.955   1.378  0.5580  0.7781 -0.1099
  678MPD2    C310029   1.594   2.985   1.384 -0.6439 -0.0100  0.4595
  678MPD2    C410030   1.529   2.947   1.495 -0.0559  0.1011  0.6294
  678MPD2    C510031   1.593   2.885   1.596 -0.2922  0.2793 -0.1940
  678MPD2     H10032   1.770   2.986   1.284  3.9012 -1.0447  0.8724
  678MPD2    H110033   1.421   2.948   1.500 -0.0900 -2.8587  0.6361
  678MPD2    H210034   1.768   2.805   1.676 -0.3762  1.6594  0.9989
  678MPD2    H310035   1.541   2.836   1.677 -0.0972 -1.9080 -1.4077
  678MPD2     N10036   1.530   3.040   1.270 -0.0545 -0.2300 -0.3077
  678MPD2    H510037   1.595   3.060   1.195  1.0910  1.0946  1.0358
  678MPD2    N110038   1.941   2.880   1.457 -0.2115 -0.0905 -0.3739
  678MPD2    H710039   1.985   2.918   1.373  0.1474 -0.2130 -0.2439
  679TMC3    C110040   2.308   2.656   1.397 -0.1459  0.3256  0.2971
  679TMC3    C210041   2.204   2.684   1.482  0.1743  0.5230  0.1432
  679TMC3    C310042   2.148   2.808   1.480  0.1573  0.1239 -0.6004
  679TMC3    C410043   2.369   2.747   1.323 -0.3271 -0.1997  0.2160
  679TMC3    C510044   2.313   2.872   1.328  0.2558 -0.1901  0.2649
  679TMC3    C610045   2.200   2.906   1.402 -0.2729  0.0031 -0.5134
  679TMC3     C10046   2.376   2.527   1.411  0.0605 -0.2275  0.1813
  679TMC3     O10047   2.476   2.507   1.344 -0.1694  0.5065 -0.0020
  679TMC3     H10048   2.129   2.610   1.508 -0.2408  0.8485 -0.1121
  679TMC3    H110049   2.456   2.720   1.264 -1.3010 -0.7469 -0.9853
  679TMC3    H210050   2.172   3.010   1.412  2.1084  0.7212 -1.3081
  679TMC3    C710051   2.366   2.981   1.251 -0.2118 -0.0334 -0.1182
  679TMC3    C810052   2.021   2.825   1.551 -0.2262  0.3007  0.4379
  679TMC3    O110053   2.277   3.062   1.220 -0.4020  0.3070 -0.0244
  679TMC3    O210054   1.996   2.770   1.654 -0.4857 -0.1743  0.0666
  680MPD2     C10055   2.461   2.061  13.407  0.2244  0.5535  0.0328
  680MPD2    C110056   2.485   1.991  13.525 -0.1477  0.3950  0.0222
  680MPD2    C210057   2.492   2.060  13.644  0.1243 -0.8607 -0.3229
  680MPD2    C310058   2.477   2.196  13.655  0.1600 -0.6159 -0.2394
  680MPD2    C410059   2.460   2.265  13.537  0.0360 -0.0350 -0.4572
  680MPD2    C510060   2.450   2.195  13.416  0.5004  0.5236 -0.3999
  680MPD2     H10061   2.500   1.995  13.731 -1.5772  0.4193  0.7843
  680MPD2    H110062   2.438   2.371  13.548  1.8715  0.2787  0.2570
  680MPD2    H210063   2.456   2.019  13.307 -0.5851  1.0265 -0.1254
  680MPD2    H310064   2.432   2.254  13.327 -1.1372  0.6307  0.0044
  680MPD2     N10065   2.485   2.270  13.772  0.0912  0.2136 -0.3667
  680MPD2    H510066   2.473   2.370  13.774 -2.3173 -0.1296  2.1053
  680MPD2    N110067   2.496   1.851  13.516  0.3029 -0.2000  0.2639
  680MPD2    H710068   2.483   1.801  13.603  0.6349  3.0935  2.2366
  681TMC3    C110069   2.537   1.637  13.404  0.7083 -0.9030  0.5093
  681TMC3    C210070   2.550   1.583  13.525  0.7346  0.1492  0.4886
  681TMC3    C310071   2.568   1.450  13.528 -0.5807  0.1295 -0.2726
  681TMC3    C410072   2.540   1.566  13.287 -0.0396 -0.0879  0.0328
  681TMC3    C510073   2.548   1.430  13.297 -0.0906  1.1980 -0.1072
  681TMC3    C610074   2.557   1.372  13.417 -0.5963 -0.0551  0.3077
  681TMC3     C10075   2.507   1.777  13.396  0.7231 -0.6057  0.4862
  681TMC3     O10076   2.526   1.820  13.284 -1.3169  0.5740  0.6677
  681TMC3     H10077   2.569   1.646  13.612 -1.1459 -0.3435  1.2492
  681TMC3    H110078   2.520   1.613  13.191  1.7493 -0.3516 -0.4574
  681TMC3    H210079   2.580   1.266  13.418  0.1630  0.1237  2.0434
  681TMC3    C710080   2.565   1.353  13.179 -0.0831  0.5738  0.1429
  681TMC3    C810081   2.580   1.375  13.658 -0.0682 -0.5780 -0.0741
  681TMC3    O110082   2.518   1.239  13.171  0.0983  0.4489 -0.1447
  681TMC3    O210083   2.587   1.255  13.646 -0.7614 -0.0382  0.5897
  682MPD2     C10084   4.644   2.886  10.137 -0.3479  0.4243 -0.5865
  682MPD2    C110085   4.515   2.850  10.163 -0.2703 -0.1246 -0.1655
  682MPD2    C210086   4.485   2.814  10.289 -0.0970  0.4667  0.0260
  682MPD2    C310087   4.573   2.831  10.393 -0.3122 -0.2460 -0.2438
  682MPD2    C410088   4.700   2.880  10.369  0.2416  0.4538 -0.2514
  682MPD2    C510089   0.004   2.904  10.240  0.2780  0.6191 -0.7347
  682MPD2     H10090   4.393   2.760  10.309 -1.7360  1.7108 -4.1744
  682MPD2    H110091   0.047   2.883  10.449  1.0370 -0.2324 -0.9563
  682MPD2    H210092   4.675   2.899  10.034 -0.2104  0.2108 -0.5721
  682MPD2    H310093   0.101   2.949  10.224  0.4945  0.5954  0.5633
  682MPD2     N10094   4.554   2.796  10.535  0.8480 -0.0664 -0.5981
  682MPD2    H510095   4.632   2.805  10.599  0.3271 -2.8281  0.4133
  682MPD2    N110096   4.420   2.812  10.068  0.0174 -0.4463  0.3586
  682MPD2    H710097   4.334   2.779  10.109  0.2350 -2.2505 -0.6324
  683TMC3    C110098   4.496   2.707  10.945  0.0143 -0.1142  0.1743
  683TMC3    C210099   4.422   2.597  10.966 -0.1605 -0.7948  0.2504
  683TMC3    C310100   4.371   2.522  10.862 -0.8474 -0.1991 -0.3452
  683TMC3    C410101   4.504   2.761  10.818 -0.0099 -0.0460  0.1366
  683TMC3    C510102   4.442   2.681  10.719  0.5801  0.7411  0.6640
  683TMC3    C610103   4.381   2.562  10.733  0.4038  0.2400 -0.2210
  683TMC3     C10104   4.484   2.807  11.045  0.2353  0.2409 -0.0592
  683TMC3     O10105   4.413   2.776  11.134  0.9064  0.1612  0.2971
  683TMC3     H10106   4.421   2.562  11.068 -0.1319 -0.7356  0.2712
  683TMC3    H110107   4.533   2.861  10.790 -0.7138  0.4082  1.0293
  683TMC3    H210108   4.328   2.506  10.657  0.1463  1.1210 -0.6952
  683TMC3    C710109   4.435   2.744  10.592  0.9114  0.8246 -0.1032
  683TMC3    C810110   4.327   2.382  10.873  0.6525  0.6089 -0.8399
  683TMC3    O110111   4.330   2.743  10.529 -0.4756 -0.1234 -0.0058
  683TMC3    O210112   4.247   2.330  10.800 -0.0979 -0.1271  0.2273
  684MPD2     C10113   2.621   2.721  16.844 -0.0005  0.0611  0.8453
  684MPD2    C110114   2.584   2.767  16.719 -0.1066 -0.0722  0.1753
  684MPD2    C210115   2.535   2.893  16.711  0.4114 -0.4981 -0.4422
  684MPD2    C310116   2.526   2.981  16.817  0.5686 -0.2601  0.0131
  684MPD2    C410117   2.572   2.941  16.942  0.0503 -0.4702 -0.0193
  684MPD2    C510118   2.613   2.804  16.950 -0.0287 -0.9610  0.7076
  684MPD2     H10119   2.504   2.934  16.616  1.7294 -2.0785 -1.5491
  684MPD2    H110120   2.576   3.015  17.021  1.4226  0.0171 -0.5409
  684MPD2    H210121   2.651   2.619  16.865 -0.3852 -0.8924 -3.2865
  684MPD2    H310122   2.638   2.770  17.050  2.1922  0.6262  0.6868
  684MPD2     N10123   2.504   3.120  16.791 -0.0343  0.1266 -0.8096
  684MPD2    H510124   2.533   3.181  16.866 -0.0279  0.2774 -0.9343
  684MPD2    N110125   2.609   2.703  16.598 -0.1637  0.5950  0.3606
  684MPD2    H710126   2.567   2.750  16.518  0.5056  3.4050  1.6624
  685TMC3    C110127   2.713   2.557  16.454  0.4898  0.2101 -0.5462
  685TMC3    C210128   2.645   2.628  16.358 -0.7552  0.1010 -0.3059
  685TMC3    C310129   2.720   2.660  16.242  0.0333  0.4999  0.2145
  685TMC3    C410130   2.846   2.520  16.437 -0.7629 -0.2459 -0.2665
  685TMC3    C510131   2.913   2.543  16.322  0.5151 -0.2779 -0.6437
  685TMC3    C610132   2.853   2.619  16.224  0.3407 -0.4882  0.7734
  685TMC3     C10133   2.681   2.584  16.587  0.7521  0.5955  0.4655
  685TMC3     O10134   2.728   2.516  16.672  0.6272 -0.0115  0.2213
  685TMC3     H10135   2.537   2.634  16.367 -0.6823 -0.3219  0.8035
  685TMC3    H110136   2.893   2.464  16.517  0.3282  0.3940 -0.4593
  685TMC3    H210137   2.911   2.657  16.141  1.0882 -2.8422  0.2176
  685TMC3    C710138   3.051   2.548  16.330  0.2104 -0.1675 -0.4518
  685TMC3    C810139   2.640   2.668  16.120  0.4839  0.2170 -0.5794
  685TMC3    O110140   3.107   2.527  16.222  0.0984 -0.2756 -0.2154
  685TMC3    O210141   2.708   2.638  16.020  0.6313  0.4092 -0.1969
  686MPD2     C10142   4.077   2.517  15.615  0.2350  0.2502 -0.5343
  686MPD2    C110143   4.120   2.433  15.709 -0.2605  0.6456  0.0160
  686MPD2    C210144   4.172   2.312  15.669 -0.2973  0.4266  0.0445
  686MPD2    C310145   4.144   2.271  15.536 -0.0574  0.1928  0.1029
  686MPD2    C410146   4.089   2.361  15.442  0.2189 -0.7364  0.6043
  686MPD2    C510147   4.054   2.482  15.486  0.0472 -0.3427  0.4887
  686MPD2     H10148   4.223   2.245  15.739  0.9066 -0.9121 -2.1006
  686MPD2    H110149   4.063   2.340  15.339 -0.3706 -1.3096  0.8745
  686MPD2    H210150   4.044   2.615  15.648 -2.0141 -1.5821  2.5978
  686MPD2    H310151   4.003   2.553  15.422  0.3880  0.8355  1.5264
  686MPD2     N10152   4.172   2.140  15.490  0.3266  0.0974  0.1841
  686MPD2    H510153   4.188   2.129  15.390  1.5594 -0.5369  0.4454
  686MPD2    N110154   4.131   2.466  15.847  0.0034  0.0300 -0.5069
  686MPD2    H710155   4.095   2.559  15.866 -1.7742 -0.0921 -3.2968
  687TMC3    C110156   4.092   2.026  15.706  0.7032  0.7656 -0.6722
  687TMC3    C210157   3.971   2.093  15.711  0.3779  1.1016 -0.5194
  687TMC3    C310158   3.880   2.048  15.806  0.1261  0.8705  0.1510
  687TMC3    C410159   4.122   1.927  15.795 -0.3776  0.4301 -0.3139
  687TMC3    C510160   4.039   1.898  15.896 -0.2651 -0.0701  0.4745
  687TMC3    C610161   3.915   1.955  15.898  1.0685 -0.0999 -0.4152
  687TMC3     C10162   4.172   2.033  15.585 -0.7983  0.0224  0.2358
  687TMC3     O10163   4.227   1.925  15.563 -0.2413 -0.0871 -0.3309
  687TMC3     H10164   3.938   2.161  15.634 -1.6729 -0.8525 -1.3382
  687TMC3    H110165   4.218   1.876  15.786 -0.7622 -0.8589  2.8844
  687TMC3    H210166   3.835   1.918  15.961 -0.6269  2.0350 -1.2959
  687TMC3    C710167   4.094   1.875  16.025 -0.3153  0.0336 -0.9786
  687TMC3    C810168   3.810   2.162  15.872 -0.6748  0.0438 -0.4464
  687TMC3    O110169   4.070   1.762  16.067  0.4398  0.1262 -0.9958
  687TMC3    O210170   3.793   2.152  15.990 -0.5938 -0.0998 -0.8868
  688MPD2     C10171   3.722   1.442  17.444 -0.2536  0.2163  0.4822
  688MPD2    C110172   3.720   1.303  17.455 -0.2837  0.4744  0.7026
  688MPD2    C210173   3.772   1.235  17.346  0.0040 -0.1849  0.0448
  688MPD2    C310174   3.818   1.295  17.232 -0.2236  0.2481 -0.0065
  688MPD2    C410175   3.805   1.432  17.210  0.5549  0.3446  0.3683
  688MPD2    C510176   3.765   1.496  17.320  0.5665  0.0043 -0.8996
  688MPD2     H10177   3.783   1.127  17.356 -1.2350 -0.1833  1.3847
  688MPD2    H110178   3.835   1.488  17.122 -0.4569  1.2485  0.6017
  688MPD2    H210179   3.695   1.516  17.518 -2.8676  0.2377 -0.4878
  688MPD2    H310180   3.763   1.604  17.311 -3.6468  0.2171  2.8160
  688MPD2     N10181   3.880   1.234  17.123 -0.3094 -0.2982 -0.3805
  688MPD2    H510182   3.908   1.305  17.056 -1.3008  0.3230 -0.1388
  688MPD2    N110183   3.688   1.231  17.567  0.6297  0.6032  0.3849
  688MPD2    H710184   3.710   1.132  17.569 -0.6219  0.3259  0.1068
  689TMC3    C110185   3.658   1.202   0.094 -0.6816 -0.1833  0.6945
  689TMC3    C210186   3.651   1.260   0.219 -0.3676  0.3323  0.6137
  689TMC3    C310187   3.666   1.172   0.322 -0.2247  0.4392  0.7103
  689TMC3    C410188   3.668   1.063   0.071  0.2928 -0.0715  0.2254
  689TMC3    C510189   3.670   0.988   0.184 -0.2236 -0.3781  0.5687
  689TMC3    C610190   3.671   1.035   0.309  0.1602 -0.1803 -0.4372
  689TMC3     C10191   3.657   1.291  17.684 -0.6082 -0.6126 -0.0063
  689TMC3     O10192   3.633   1.410  17.703 -0.0699  0.2531 -0.4588
  689TMC3     H10193   3.645   1.368   0.225 -0.7071  0.2887  1.0430
  689TMC3    H110194   3.656   1.018  17.678  1.9304 -0.7240  0.3192
  689TMC3    H210195   3.682   0.974   0.398 -2.0337  0.0018 -0.0164
  689TMC3    C710196   3.687   0.843   0.165 -0.4675 -0.2506 -0.0135
  689TMC3    C810197   3.635   1.228   0.454 -0.2564  0.0793 -0.6418
  689TMC3    O110198   3.784   0.787   0.220  0.2428  0.1269 -0.2460
  689TMC3    O210199   3.660   1.156   0.549 -1.0027 -0.0868 -0.1183
  690MPD2     C10200   0.824   3.010  15.429  0.1351  0.0002 -0.1489
  690MPD2    C110201   0.732   3.015  15.329  0.5448  0.5878  0.0800
  690MPD2    C210202   0.762   3.078  15.213 -0.7218  0.0987 -0.1604
  690MPD2    C310203   0.888   3.132  15.186  0.6578 -0.1934  0.7762
  690MPD2    C410204   0.981   3.122  15.283  0.2333  0.0602  0.1249
  690MPD2    C510205   0.950   3.063  15.403  0.1892 -0.7931  1.0785
  690MPD2     H10206   0.686   3.076  15.136 -3.7089 -1.6424  2.8223
  690MPD2    H110207   1.077   3.172  15.283  1.1265 -1.6319  2.5589
  690MPD2    H210208   0.802   2.962  15.523  0.8980 -0.5510 -0.2517
  690MPD2    H310209   1.021   3.056  15.485 -1.9309  1.0884  3.0669
  690MPD2     N10210   0.909   3.197  15.059  0.0053  0.1143 -0.4514
  690MPD2    H510211   0.825   3.221  15.008 -1.7989  1.7828  3.2749
  690MPD2    N110212   0.603   2.948  15.333 -0.5874 -0.0563  0.1630
  690MPD2    H710213   0.558   2.928  15.244 -1.5439  6.2172 -0.7426
  691TMC3    C110214   0.425   2.820  15.429  0.5491 -0.7178  0.1383
  691TMC3    C210215   0.333   2.836  15.524 -0.1373 -1.0041 -0.4952
  691TMC3    C310216   0.244   2.734  15.533  0.0669 -0.6770  0.1919
  691TMC3    C410217   0.434   2.724  15.346 -0.2219  0.4180  0.1571
  691TMC3    C510218   0.337   2.622  15.351  0.2721  0.2293  0.0645
  691TMC3    C610219   0.242   2.629  15.450 -0.3162 -0.2385 -0.2424
  691TMC3     C10220   0.549   2.896  15.447 -0.4465 -0.3900  0.1601
  691TMC3     O10221   0.563   2.944  15.560 -0.0193  0.5752 -0.4715
  691TMC3     H10222   0.349   2.922  15.588 -0.0389 -0.5300 -1.1545
  691TMC3    H110223   0.527   2.700  15.295  1.0076 -1.0229  3.0321
  691TMC3    H210224   0.159   2.560  15.458 -2.0756  1.9580  0.4347
  691TMC3    C710225   0.375   2.485  15.305 -0.3590  0.1163 -0.3962
  691TMC3    C810226   0.187   2.702  15.666 -0.3995  0.1247 -0.1826
  691TMC3    O110227   0.491   2.464  15.274 -0.1390  0.1320  0.0877
  691TMC3    O210228   0.179   2.582  15.697 -0.3186 -0.0403 -0.9450
  692TMC3    C110229   2.251   4.256  15.866  0.3258 -0.0152  0.0924
  692TMC3    C210230   2.329   4.349  15.800 -0.2570 -0.8052 -0.1955
  692TMC3    C310231   2.460   4.352  15.830  0.3630 -0.7967 -0.6361
  692TMC3    C410232   2.304   4.162  15.953  0.2849  0.6048 -0.0249
  692TMC3    C510233   2.434   4.163  15.973 -0.1703 -0.1879  0.2887
  692TMC3    C610234   2.512   4.262  15.922  0.2676 -0.8352 -0.0418
  692TMC3     C10235   2.127   4.301  15.918  0.9229  0.1014  0.0701
  692TMC3     O10236   2.076   4.242  16.011  0.2130 -0.1346 -0.2341
  692TMC3     H10237   2.293   4.439  15.751  0.3709 -1.1247 -1.2280
  692TMC3    H110238   2.247   4.099  16.020 -0.5175 -0.3766 -1.5996
  692TMC3    H210239   2.620   4.257  15.931  0.5244  0.7699 -2.2047
  692TMC3    C710240   2.450   4.145  16.114 -0.8758  0.0465  0.8929
  692TMC3    C810241   2.497   4.479  15.873  0.3416 -0.5226 -0.2135
  692TMC3    O110242   2.464   4.248  16.173 -0.6624  0.2945 -0.0730
  692TMC3    O210243   2.480   4.569  15.789 -0.3278  0.1468  0.4988
  693MPD2     C10244   1.164   1.919  10.393  0.6350 -0.7368 -0.8822
  693MPD2    C110245   1.148   1.842  10.505 -0.3292 -0.1038 -0.7677
  693MPD2    C210246   1.264   1.772  10.548 -0.1086  0.5081  0.0820
  693MPD2    C310247   1.385   1.779  10.487 -0.2670 -0.5901 -0.9666
  693MPD2    C410248   1.396   1.875  10.385 -0.1875 -0.1027  0.0849
  693MPD2    C510249   1.287   1.941  10.337 -0.0373  0.0710 -0.2554
  693MPD2     H10250   1.247   1.713  10.638  0.6995  2.3783  1.4484
  693MPD2    H110251   1.489   1.884  10.331  0.1432 -0.6171  0.5592
  693MPD2    H210252   1.081   1.978  10.357 -1.4357 -3.2768 -0.2224
  693MPD2    H310253   1.305   2.003  10.250  0.1486  1.3422  0.6893
  693MPD2     N10254   1.500   1.707  10.533 -0.5987 -0.2023  0.1423
  693MPD2    H510255   1.484   1.637  10.606 -0.0951  0.7888  1.2021
  693MPD2    N110256   1.016   1.831  10.567  0.1823  0.1216  0.8127
  693MPD2    H710257   0.933   1.842  10.509  0.1779 -0.6185  0.6682
  694TMC3    C110258   0.868   1.803  10.746 -0.0433 -0.0723  0.2242
  694TMC3    C210259   0.785   1.729  10.670  0.0929 -0.4897 -0.6141
  694TMC3    C310260   0.689   1.649  10.727 -0.5698 -0.5418 -0.0983
  694TMC3    C410261   0.855   1.793  10.884 -0.5402 -0.2641  0.3180
  694TMC3    C510262   0.772   1.700  10.937 -0.0358  0.3160 -0.1350
  694TMC3    C610263   0.674   1.643  10.865 -0.6147 -0.0858  0.2037
  694TMC3     C10264   1.003   1.817  10.702  0.3223 -0.4246  0.8676
  694TMC3     O10265   1.088   1.825  10.789  0.3066  0.3564 -0.0803
  694TMC3     H10266   0.796   1.728  10.562  1.0531 -0.7955 -0.5171
  694TMC3    H110267   0.929   1.851  10.938  0.1327 -0.9691  0.1541
  694TMC3    H210268   0.601   1.571  10.900  0.1818 -0.8026  0.4149
  694TMC3    C710269   0.785   1.689  11.081  0.0750  0.4115 -0.3069
  694TMC3    C810270   0.623   1.544  10.646  0.6898  0.4042  0.3928
  694TMC3    O110271   0.826   1.791  11.137  0.7702  0.3193 -0.0612
  694TMC3    O210272   0.600   1.431  10.692  0.2086  0.7088 -0.5849
  695MPD2     C10273   2.660   3.777  13.943  0.2041  0.3255 -0.0250
  695MPD2    C110274   2.612   3.849  14.050  0.8958  0.3381  0.0992
  695MPD2    C210275   2.479   3.884  14.061 -0.0934  0.3884 -0.0810
  695MPD2    C310276   2.392   3.828  13.970 -0.9131 -0.1461  0.0825
  695MPD2    C410277   2.437   3.758  13.865 -0.5966 -0.0393 -0.6020
  695MPD2    C510278   2.576   3.745  13.845  0.7195  0.1620 -0.5249
  695MPD2     H10279   2.441   3.936  14.148 -0.6596 -1.2585  0.6452
  695MPD2    H110280   2.372   3.728  13.784 -0.5263  3.5988 -2.0144
  695MPD2    H210281   2.765   3.758  13.925 -0.1986 -1.1309 -0.8946
  695MPD2    H310282   2.611   3.705  13.751  1.4830  0.8707 -0.5436
  695MPD2     N10283   2.257   3.859  13.986  0.6946 -0.4004 -0.0319
  695MPD2    H510284   2.230   3.921  14.061 -0.5853 -1.1152  0.1039
  695MPD2    N110285   2.688   3.888  14.160  0.2414 -0.0731  0.3667
  695MPD2    H710286   2.633   3.915  14.241  0.8420  1.7078  0.1886
  696TMC3    C110287   2.045   3.919  13.913  0.1166  0.1152  0.3054
  696TMC3    C210288   1.970   3.918  14.024 -0.0702 -0.1036 -0.5370
  696TMC3    C310289   1.860   3.994  14.037  0.1958 -0.1390 -0.0516
  696TMC3    C410290   2.023   4.014  13.813  0.3634  0.0697  0.0839
  696TMC3    C510291   1.909   4.096  13.828  0.2212  0.1902 -0.4245
  696TMC3    C610292   1.822   4.077  13.932 -0.5418  0.0575  0.0457
  696TMC3     C10293   2.158   3.834  13.891 -0.7429 -0.4151 -0.0013
  696TMC3     O10294   2.152   3.775  13.786  0.4762 -0.4617 -0.5838
  696TMC3     H10295   1.984   3.859  14.114 -2.4950 -2.2024 -1.5528
  696TMC3    H110296   2.080   4.032  13.723  1.0980  1.6213  0.8587
  696TMC3    H210297   1.730   4.135  13.925  0.0454  1.1843  1.7863
  696TMC3    C710298   1.898   4.211  13.747 -0.1460 -0.4237  0.1793
  696TMC3    C810299   1.749   3.936  14.109  0.0102 -0.6375  0.2230
  696TMC3    O110300   1.896   4.203  13.625 -0.8926  0.7454 -0.0687
  696TMC3    O210301   1.737   3.813  14.095  0.1084  0.2534  0.0405
  697MPD2     C10302   2.129   1.004  15.909 -0.6913  0.0762 -0.3827
  697MPD2    C110303   2.145   0.975  15.779  0.0581  0.6969 -0.2123
  697MPD2    C210304   2.216   1.065  15.703  0.5448 -0.1322  0.0749
  697MPD2    C310305   2.278   1.176  15.759 -0.2562 -0.4627 -0.2417
  697MPD2    C410306   2.264   1.199  15.896 -0.0985 -0.5159  0.7784
  697MPD2    C510307   2.195   1.110  15.969 -0.1825 -0.2566  0.2925
  697MPD2     H10308   2.238   1.041  15.599  0.0826  1.8262 -0.4723
  697MPD2    H110309   2.311   1.276  15.957  1.2952 -1.5376  1.0177
  697MPD2    H210310   2.064   0.948  15.975  0.5116 -1.1194 -0.1845
  697MPD2    H310311   2.178   1.121  16.075  0.5829  0.2455  0.3585
  697MPD2     N10312   2.347   1.262  15.666 -0.2415  0.2742  0.5344
  697MPD2    H510313   2.330   1.244  15.568  1.9568 -0.3223  0.2514
  697MPD2    N110314   2.088   0.867  15.713  0.1331  0.5841 -0.5955
  697MPD2    H710315   2.089   0.861  15.612  0.0352  1.3110 -0.6390
  698TMC3    C110316   2.482   1.456  15.611 -0.1021  0.8149  0.0744
  698TMC3    C210317   2.519   1.583  15.645  0.3650 -0.5609 -0.2180
  698TMC3    C310318   2.535   1.671  15.546  0.0058 -0.0199  0.1168
  698TMC3    C410319   2.461   1.428  15.477  0.2302 -0.0990  0.1220
  698TMC3    C510320   2.463   1.529  15.384  0.1390 -0.3126 -0.0315
  698TMC3    C610321   2.508   1.656  15.411  0.5747  0.1620 -0.4310
  698TMC3     C10322   2.419   1.376  15.710  0.0513  1.1375 -0.0343
  698TMC3     O10323   2.439   1.413  15.826  0.3358  0.4523  0.6430
  698TMC3     H10324   2.527   1.615  15.748  1.4903  0.6078 -0.6681
  698TMC3    H110325   2.432   1.326  15.457 -0.0204  0.1156 -0.5855
  698TMC3    H210326   2.502   1.733  15.334  0.4799 -0.7639 -1.3474
  698TMC3    C710327   2.443   1.489  15.244 -0.2540 -0.2158  0.2264
  698TMC3    C810328   2.598   1.796  15.589  0.3578 -0.2320 -0.2755
  698TMC3    O110329   2.378   1.386  15.214  0.2333  0.1661 -0.2245
  698TMC3    O210330   2.610   1.816  15.710 -0.0803 -0.2119  0.3013
  699TMC3    C110331   1.839   3.903  13.500 -0.2844 -0.0502 -0.0921
  699TMC3    C210332   1.886   3.800  13.578  0.7666  0.4812 -0.1501
  699TMC3    C310333   1.813   3.765  13.686 -0.0770  0.0957  0.9672
  699TMC3    C410334   1.711   3.954  13.520 -0.6324 -0.5268 -0.2226
  699TMC3    C510335   1.642   3.916  13.632 -0.6110 -0.3332  0.0524
  699TMC3    C610336   1.691   3.823  13.716  0.2391 -0.5213  0.7214
  699TMC3     C10337   1.915   3.958  13.396 -0.1315 -0.2109 -0.7594
  699TMC3     O10338   1.860   4.052  13.342  0.1942  0.1146 -0.1690
  699TMC3     H10339   1.970   3.736  13.555 -0.0276 -0.6314  0.0216
  699TMC3    H110340   1.664   4.012  13.441  0.2391 -0.5072 -0.7302
  699TMC3    H210341   1.623   3.789  13.793  0.6247 -0.0359  1.2654
  699TMC3    C710342   1.541   4.010  13.686  0.2792  0.0123 -0.1123
  699TMC3    C810343   1.824   3.628  13.735 -0.8947 -0.3966  0.7558
  699TMC3    O110344   1.464   3.974  13.772  0.1293 -0.7029  0.2460
  699TMC3    O210345   1.731   3.556  13.722  0.3272 -0.7949 -0.5846
  700TMC3    C110346   1.473   1.454  17.647 -0.2178 -0.0648 -0.0806
  700TMC3    C210347   1.587   1.373  17.643  0.3196  0.5745  0.3498
  700TMC3    C310348   1.693   1.416   0.014 -0.5038  0.2881 -0.2641
  700TMC3    C410349   1.475   1.577   0.001  0.4277 -0.3043  0.1784
  700TMC3    C510350   1.589   1.612   0.065 -1.0927  0.3346 -0.1795
  700TMC3    C610351   1.694   1.533   0.079  0.3564  0.4637 -0.1989
  700TMC3     C10352   1.398   1.438  17.526  0.8281 -0.0667  0.2128
  700TMC3     O10353   1.328   1.339  17.511 -0.7743  0.0129 -0.2417
  700TMC3     H10354   1.582   1.286  17.579 -2.4132  0.0937  1.1900
  700TMC3    H110355   1.397   1.651  17.692  2.2757  1.2361 -1.9602
  700TMC3    H210356   1.788   1.565   0.122  1.4659  0.0657 -2.3221
  700TMC3    C710357   1.589   1.738   0.134  0.5404  0.1749  0.2544
  700TMC3    C810358   1.817   1.339  17.694 -0.6804 -0.2788  0.3321
  700TMC3    O110359   1.661   1.737   0.235  0.3278 -0.2038 -0.0277
  700TMC3    O210360   1.924   1.394  17.683  0.1231 -0.1865  0.7962
  701TMC3    C110361   1.088   0.384  15.847  0.4806  0.1002 -0.1578
  701TMC3    C210362   1.045   0.378  15.719  0.1069 -0.6979  0.5388
  701TMC3    C310363   1.116   0.441  15.621 -0.0544  0.2085 -0.2237
  701TMC3    C410364   1.191   0.469  15.887  0.0448 -0.4381 -0.1270
  701TMC3    C510365   1.255   0.530  15.784  0.3343 -0.0094  0.1418
  701TMC3    C610366   1.225   0.517  15.650 -0.0136 -0.4662  0.1018
  701TMC3     C10367   1.029   0.294  15.944  0.0035  0.6849  0.0894
  701TMC3     O10368   1.033   0.318  16.062  0.2456  0.5915  0.7084
  701TMC3     H10369   0.947   0.336  15.698  0.0247  0.0408 -0.5748
  701TMC3    H110370   1.202   0.502  15.990  0.0260  0.6937 -0.4934
  701TMC3    H210371   1.280   0.564  15.569 -0.7447  1.2464  0.6076
  701TMC3    C710372   1.372   0.605  15.808 -0.5746 -0.9005 -0.1217
  701TMC3    C810373   1.056   0.461  15.492 -0.5728  0.2191  0.3425
  701TMC3    O110374   1.392   0.699  15.726 -0.4666 -0.1337 -0.1021
  701TMC3    O210375   1.106   0.551  15.425  0.2655  0.0577  0.0518
  702MPD2     C10376   1.104   2.407  10.262  0.1504 -0.4277  0.0017
  702MPD2    C110377   1.043   2.533  10.263 -0.3561  0.0078  0.0315
  702MPD2    C210378   1.115   2.643  10.207 -0.4617 -0.2669 -0.1780
  702MPD2    C310379   1.240   2.634  10.148 -0.0893 -0.7085  0.1741
  702MPD2    C410380   1.296   2.509  10.157  0.0348 -0.4210 -0.6046
  702MPD2    C510381   1.235   2.403  10.211 -0.0862  0.7499  0.2309
  702MPD2     H10382   1.066   2.739  10.219 -2.1922 -1.3922  1.8686
  702MPD2    H110383   1.384   2.487  10.097  0.8160 -0.0367  0.4100
  702MPD2    H210384   1.058   2.319  10.306 -1.8498  0.5900 -0.0479
  702MPD2    H310385   1.275   2.303  10.197  1.2482  1.3264 -0.0381
  702MPD2     N10386   1.311   2.730  10.077  0.5947 -0.3693  0.5517
  702MPD2    H510387   1.407   2.705  10.053  0.6016 -1.8567  2.1573
  702MPD2    N110388   0.914   2.554  10.328 -0.0346 -0.2586  0.2662
  702MPD2    H710389   0.873   2.646  10.318  1.6758  0.3410 -1.2210
  703TMC3    C110390   1.344   2.936   9.974  1.0212  0.2850 -0.3026
  703TMC3    C210391   1.273   3.033   9.912  0.4871  0.9026  0.7611
  703TMC3    C310392   1.314   3.159   9.880 -0.3541 -0.9170  0.4511
  703TMC3    C410393   1.469   2.971  10.024 -0.1006 -0.4991 -0.0638
  703TMC3    C510394   1.503   3.101  10.014 -0.1663  0.1642 -1.0744
  703TMC3    C610395   1.439   3.198   9.932 -0.2520  0.3107 -0.5948
  703TMC3     C10396   1.257   2.852  10.046 -0.1704 -0.0563 -0.5990
  703TMC3     O10397   1.141   2.893  10.067 -0.1870 -0.3567 -0.3133
  703TMC3     H10398   1.185   2.991   9.865  0.7097 -0.3235  1.4488
  703TMC3    H110399   1.524   2.902  10.087 -1.0864  0.6174  1.9906
  703TMC3    H210400   1.465   3.303   9.935 -2.2978  0.8518 -1.2629
  703TMC3    C710401   1.633   3.138  10.063  0.4660  0.1301  0.2209
  703TMC3    C810402   1.218   3.264   9.875  0.4985 -0.2293 -0.1000
  703TMC3    O110403   1.674   3.248  10.016 -0.6238 -0.4455  0.1923
  703TMC3    O210404   1.252   3.377   9.836  0.5668  0.1093 -0.5850
  704TMC3    C110405   2.939   0.686  11.664  0.5756 -0.5773  0.5823
  704TMC3    C210406   3.026   0.796  11.674  0.2874  0.1143  0.5657
  704TMC3    C310407   3.073   0.831  11.799  0.2019  0.0818 -0.1998
  704TMC3    C410408   2.892   0.631  11.771 -0.2912  0.1359  0.6292
  704TMC3    C510409   2.934   0.674  11.893  0.8581  0.0116 -0.3079
  704TMC3    C610410   3.024   0.775  11.915  0.3956  0.3213 -0.0009
  704TMC3     C10411   2.868   0.682  11.542  0.1619 -0.3176  0.6283
  704TMC3     O10412   2.747   0.661  11.544 -0.2159 -0.3454 -0.2619
  704TMC3     H10413   3.060   0.858  11.592 -1.2260  1.9995  1.3582
  704TMC3    H110414   2.840   0.535  11.767  0.1262 -0.1347  1.5588
  704TMC3    H210415   3.068   0.787  12.013 -1.5338  1.1834  0.7446
  704TMC3    C710416   2.930   0.576  12.002  0.1110  0.5298  0.4171
  704TMC3    C810417   3.205   0.889  11.798 -0.2748  0.4061  0.6033
  704TMC3    O110418   2.944   0.454  11.971 -0.1413 -0.5366  0.4293
  704TMC3    O210419   3.268   0.888  11.693  0.3465 -0.2585  0.2804
  705MPD2     C10420   2.716   4.347  16.796 -0.6053  0.4154  0.1820
  705MPD2    C110421   2.671   4.229  16.750  0.2220  0.4872  0.2370
  705MPD2    C210422   2.564   4.175  16.820 -0.3748  0.2300  0.3113
  705MPD2    C310423   2.502   4.251  16.919  0.5012  0.1796  0.1012
  705MPD2    C410424   2.561   4.365  16.958  0.6267 -0.3568  0.4908
  705MPD2    C510425   2.671   4.410  16.901  0.4275  0.0818 -0.8409
  705MPD2     H10426   2.523   4.079  16.790  1.1467 -0.5353  0.7026
  705MPD2    H110427   2.511   4.425  17.034 -1.2085 -1.0704 -0.1508
  705MPD2    H210428   2.783   4.406  16.735 -0.6981 -0.5132 -0.8211
  705MPD2    H310429   2.710   4.508  16.926  1.5685 -0.7193  0.5150
  705MPD2     N10430   2.377   4.228  16.980 -0.0694 -0.0250 -0.2919
  705MPD2    H510431   2.361   4.283  17.063 -0.7527  0.5049 -0.7813
  705MPD2    N110432   2.717   4.180  16.632  0.0796  0.3322 -0.0167
  705MPD2    H710433   2.798   4.226  16.592  1.2149 -2.8115 -1.3687
  706TMC3    C110434   2.815   3.885  16.306 -0.1042  0.6090  0.3209
  706TMC3    C210435   2.841   3.985  16.213  0.0578 -0.0179  0.5071
  706TMC3    C310436   2.806   4.113  16.249  0.3193  0.3113  0.5990
  706TMC3    C410437   2.767   3.909  16.430  0.0701 -0.4168 -0.1646
  706TMC3    C510438   2.731   4.032  16.458  0.1202  0.3163  0.2095
  706TMC3    C610439   2.753   4.139  16.372 -0.1913  0.0131 -0.1960
  706TMC3     C10440   2.863   3.753  16.284 -0.4043  0.9424  0.0175
  706TMC3     O10441   2.883   3.681  16.379 -0.4001 -0.2000  0.2340
  706TMC3     H10442   2.900   3.961  16.125  0.3391  3.8707 -0.3606
  706TMC3    H110443   2.738   3.828  16.497  0.9654 -0.7036 -0.1187
  706TMC3    H210444   2.702   4.234  16.388 -0.0131  0.0656  0.0780
  706TMC3    C710445   2.688   4.055  16.589 -0.3594 -0.3801  0.2353
  706TMC3    C810446   2.816   4.222  16.150  0.2793 -0.6833  0.4977
  706TMC3    O110447   2.663   3.956  16.652  0.1083  0.1272  0.4241
  706TMC3    O210448   2.821   4.206  16.027  0.2298  1.0095  0.5400
  707TMC3    C110449   0.300   3.075   1.143  0.5279  0.0237  0.2801
  707TMC3    C210450   0.259   2.945   1.145 -0.2774  0.5772 -0.0881
  707TMC3    C310451   0.127   2.917   1.131  0.4697 -0.2081  0.0676
  707TMC3    C410452   0.211   3.182   1.126  0.2790  0.7525 -0.2056
  707TMC3    C510453   0.078   3.146   1.117  0.0156  1.0170  0.6390
  707TMC3    C610454   0.030   3.018   1.126 -0.0612  0.1105 -0.7105
  707TMC3     C10455   0.438   3.107   1.166 -0.4734 -0.3486  0.1729
  707TMC3     O10456   0.457   3.190   1.250 -0.6500  0.0163 -1.1137
  707TMC3     H10457   0.336   2.869   1.148  1.7600  2.6729  0.4197
  707TMC3    H110458   0.245   3.285   1.116  0.3332  0.8126  0.6058
  707TMC3    H210459   4.652   2.988   1.133  0.7468 -1.9945  2.1091
  707TMC3    C710460   4.709   3.260   1.121  0.0595  0.4165  0.1299
  707TMC3    C810461   0.093   2.795   1.067  0.0169 -0.6381  0.4743
  707TMC3    O110462   0.026   3.358   1.065  0.2177  0.0450 -0.1752
  707TMC3    O210463   4.706   2.789   1.022  0.3224 -0.7935  0.2091
  708MPD2     C10464   1.520   1.589  13.811 -0.0567  0.4776  0.2909
  708MPD2    C110465   1.387   1.630  13.811 -0.6701  0.3786  0.2606
  708MPD2    C210466   1.313   1.608  13.922 -0.1926 -0.7124 -0.9992
  708MPD2    C310467   1.368   1.546  14.032 -0.2528 -0.3936  0.0286
  708MPD2    C410468   1.502   1.513  14.033  0.6419 -0.2785  0.3060
  708MPD2    C510469   1.582   1.542  13.923  0.5707 -0.5037  0.0892
  708MPD2     H10470   1.211   1.646  13.921 -0.1802 -0.6273  1.7737
  708MPD2    H110471   1.551   1.469  14.119  1.4915 -0.7147 -0.3923
  708MPD2    H210472   1.586   1.612  13.728  1.0640 -1.4369  0.6590
  708MPD2    H310473   1.689   1.523  13.932  0.6384 -1.6412 -3.0195
  708MPD2     N10474   1.280   1.534  14.143 -0.1547 -0.3002 -0.2825
  708MPD2    H510475   1.185   1.568  14.131  0.1209  0.3244 -0.6909
  708MPD2    N110476   1.329   1.678  13.690 -0.2742  0.0530  0.5286
  708MPD2    H710477   1.240   1.723  13.708 -0.9444 -1.7360  1.6709
  709TMC3    C110478   1.313   1.786  13.484 -0.7588  0.2705 -0.4921
  709TMC3    C210479   1.250   1.721  13.380 -0.7334  0.1218 -0.6334
  709TMC3    C310480   1.117   1.743  13.370 -0.3701  0.6065 -0.8065
  709TMC3    C410481   1.244   1.884  13.557 -0.4066  0.2448 -0.2883
  709TMC3    C510482   1.105   1.893  13.547 -0.0781 -0.2051  0.2111
  709TMC3    C610483   1.043   1.824  13.448  0.1180 -0.4371  1.0609
  709TMC3     C10484   1.383   1.695  13.564  0.0836  0.3623  0.8033
  709TMC3     O10485   1.478   1.636  13.512  0.4488  0.4672  0.6086
  709TMC3     H10486   1.300   1.652  13.313  0.4870  0.4400 -0.0460
  709TMC3    H110487   1.309   1.926  13.633  0.0830 -0.3796 -0.3562
  709TMC3    H210488   0.935   1.825  13.442  0.3081  0.0148 -2.1089
  709TMC3    C710489   1.049   1.866  13.675  0.2063 -0.2707 -0.2267
  709TMC3    C810490   1.061   1.700  13.250 -0.0785 -0.0705  0.4194
  709TMC3    O110491   1.126   1.843  13.767 -0.2760 -0.4397  0.1664
  709TMC3    O210492   1.072   1.579  13.219 -0.5733 -0.1185  0.3039
  710TMC3    C110493   2.139   3.628   0.772  0.1383 -0.4424 -0.3665
  710TMC3    C210494   2.180   3.626   0.642 -0.0494  0.5344 -0.0176
  710TMC3    C310495   2.303   3.577   0.611  0.5165 -0.2846  0.0457
  710TMC3    C410496   2.211   3.550   0.862 -0.3820 -0.0886 -0.1471
  710TMC3    C510497   2.321   3.476   0.814  0.3683  0.2154 -0.2536
  710TMC3    C610498   2.372   3.494   0.690 -0.3607 -0.4560  0.6733
  710TMC3     C10499   2.006   3.683   0.794  0.3995  0.9419 -0.7351
  710TMC3     O10500   1.935   3.677   0.690  0.0390  0.0661 -0.1636
  710TMC3     H10501   2.138   3.700   0.575 -0.8979  0.1615  0.0952
  710TMC3    H110502   2.164   3.535   0.959  1.4783 -0.4943  0.6773
  710TMC3    H210503   2.445   3.427   0.647 -1.3308 -0.5882 -0.7501
  710TMC3    C710504   2.359   3.371   0.907 -0.9465 -0.3573  0.3328
  710TMC3    C810505   2.335   3.597   0.466 -0.1331 -0.3405 -0.0964
  710TMC3    O110506   2.283   3.347   0.998 -0.1678 -0.2003 -0.0377
  710TMC3    O210507   2.237   3.623   0.397  0.1732  0.2176 -0.1054
  711TMC3    C110508   1.719   0.103  14.951 -0.0530  0.7272  0.1074
  711TMC3    C210509   1.755   0.207  15.039 -0.3635  0.2303 -0.4062
  711TMC3    C310510   1.879   0.196  15.099  0.0146 -0.2761 -0.3232
  711TMC3    C410511   1.801   4.723  14.928 -0.8484  0.2047 -0.4355
  711TMC3    C510512   1.929   0.001  14.981 -0.1721 -0.2733 -0.8270
  711TMC3    C610513   1.969   0.109  15.051  0.3788 -0.4242  0.4543
  711TMC3     C10514   1.580   0.094  14.899  0.1658  0.2148  0.4883
  711TMC3     O10515   1.537   4.709  14.867 -0.0333 -0.4339  0.2133
  711TMC3     H10516   1.676   0.273  15.073 -0.9399 -1.1451  0.9116
  711TMC3    H110517   1.757   4.634  14.885 -0.2173 -0.4290  0.2316
  711TMC3    H210518   2.076   0.113  15.068  0.3829 -1.4272  0.6812
  711TMC3    C710519   2.011   4.604  14.994  0.5743  0.0008 -0.3461
  711TMC3    C810520   1.876   0.196  15.243 -0.3664  0.2521  0.7305
  711TMC3    O110521   2.099   4.617  15.082 -0.1278  0.2097  0.1776
  711TMC3    O210522   1.797   0.266  15.307 -0.5269 -0.4512  0.7978
  712MPD2     C10523   2.886   1.677  13.756 -0.5422 -0.0788 -0.0787
  712MPD2    C110524   2.907   1.584  13.654 -0.0092  0.2634  0.1190
  712MPD2    C210525   2.897   1.623  13.522  0.2794 -0.0916  0.0596
  712MPD2    C310526   2.878   1.760  13.489  0.0308  0.1897  0.2005
  712MPD2    C410527   2.852   1.849  13.594 -0.7117  0.4511  0.1005
  712MPD2    C510528   2.855   1.804  13.724 -0.3910 -0.4006 -0.1807
  712MPD2     H10529   2.913   1.553  13.441 -1.2320 -3.1710  2.4062
  712MPD2    H110530   2.814   1.947  13.569  1.6180  1.2357 -0.3934
  712MPD2    H210531   2.881   1.657  13.862 -1.5107  0.4182 -0.0328
  712MPD2    H310532   2.823   1.881  13.793 -2.0285 -1.8426  0.6728
  712MPD2     N10533   2.873   1.812  13.350 -0.1220 -0.5315  0.6361
  712MPD2    H510534   2.885   1.912  13.345  0.3344 -0.6928 -1.4384
  712MPD2    N110535   2.942   1.451  13.685  0.6432 -0.2189 -0.2942
  712MPD2    H710536   2.932   1.377  13.616  0.5569 -3.4281  3.1742
  713TMC3    C110537   2.944   1.815  13.130  0.7488 -0.3386 -0.0249
  713TMC3    C210538   3.073   1.839  13.166 -0.4504 -0.0390  0.1428
  713TMC3    C310539   3.133   1.951  13.124  0.1013  0.6394 -0.6670
  713TMC3    C410540   2.876   1.916  13.068  0.1721 -0.8262 -0.5126
  713TMC3    C510541   2.943   2.020  13.009  0.5053 -0.2146  0.3942
  713TMC3    C610542   3.073   2.035  13.034  0.6605  0.5971 -0.9095
  713TMC3     C10543   2.878   1.738  13.233  0.3752  0.3322 -1.0080
  713TMC3     O10544   2.866   1.616  13.215  0.2515 -0.4188  0.1391
  713TMC3     H10545   3.119   1.769  13.235  0.6017 -0.9509 -1.5151
  713TMC3    H110546   2.774   1.896  13.039  0.9270 -1.2390 -2.8892
  713TMC3    H210547   3.134   2.110  12.984  1.0261  1.1187  0.3133
  713TMC3    C710548   2.881   2.110  12.911  0.3360  0.2109 -0.0652
  713TMC3    C810549   3.274   1.978  13.152 -0.3759 -0.5555 -0.9050
  713TMC3    O110550   2.927   2.222  12.897 -0.3888 -0.1369 -0.2137
  713TMC3    O210551   3.332   2.063  13.086  0.2646  0.0808 -0.2664
  714MPD2     C10552   0.556   4.594   1.474 -0.2639  0.4627 -0.6414
  714MPD2    C110553   0.578   4.453   1.461  0.1226 -0.1499  0.2531
  714MPD2    C210554   0.507   4.388   1.363  0.0455  0.0942 -0.0932
  714MPD2    C310555   0.400   4.451   1.298  0.3889 -1.5083 -0.4504
  714MPD2    C410556   0.378   4.582   1.322 -0.3966 -0.1773 -0.2292
  714MPD2    C510557   0.453   4.656   1.412 -1.0204 -0.0179 -0.2950
  714MPD2     H10558   0.525   4.285   1.337  1.2021  0.8818 -2.4616
  714MPD2    H110559   0.290   4.633   1.284  0.2900  0.0910 -1.4176
  714MPD2    H210560   0.606   4.654   1.549  0.7785  0.2406 -1.1625
  714MPD2    H310561   0.429   0.032   1.441 -0.8540  0.4942 -1.9552
  714MPD2     N10562   0.327   4.366   1.206  0.3530  0.0931 -0.1638
  714MPD2    H510563   0.352   4.268   1.204  1.7486  0.4327  0.7636
  714MPD2    N110564   0.681   4.397   1.534 -0.1459  0.0347 -0.0461
  714MPD2    H710565   0.729   4.462   1.595 -0.9077  2.5465 -2.1613
  715TMC3    C110566   0.828   4.235   1.629  0.2376  0.3234  0.0386
  715TMC3    C210567   0.890   4.115   1.612  0.4055 -0.5434  0.0768
  715TMC3    C310568   1.016   4.099   1.667 -0.8363 -0.6049  0.0944
  715TMC3    C410569   0.881   4.335   1.708 -0.1632  0.1980  0.3011
  715TMC3    C510570   1.011   4.311   1.750  0.1557  0.4000  0.0582
  715TMC3    C610571   1.076   4.190   1.745  0.1976  0.1995 -0.1198
  715TMC3     C10572   0.704   4.261   1.549 -0.0653  0.1560 -0.1894
  715TMC3     O10573   0.643   4.170   1.496 -0.6549  0.0109 -1.1656
  715TMC3     H10574   0.848   4.043   1.544 -0.7700  0.9564 -0.8036
  715TMC3    H110575   0.832   4.430   1.727  1.8665  1.3463 -0.2325
  715TMC3    H210576   1.175   4.176   1.786  0.4872  0.7762 -0.6153
  715TMC3    C710577   1.078   4.412   1.831  0.0455  0.3171  0.1600
  715TMC3    C810578   1.095   3.984   1.624  0.0745  0.2035 -0.0040
  715TMC3    O110579   1.186   4.380   1.877 -0.3402 -0.0886  0.2001
  715TMC3    O210580   1.046   3.905   1.541 -0.2252 -0.5692 -0.5923
  716MPD2     C10581   0.521   2.249   9.737 -0.1107  0.2152  0.1060
  716MPD2    C110582   0.427   2.157   9.698  0.4707 -0.0828 -0.0518
  716MPD2    C210583   0.440   2.026   9.751  0.3706  0.4480 -0.2172
  716MPD2    C310584   0.552   1.987   9.828  0.6127 -0.2363  0.1643
  716MPD2    C410585   0.637   2.084   9.873  0.5776  0.4095 -0.5041
  716MPD2    C510586   0.611   2.218   9.833 -0.0711 -0.1022  0.5538
  716MPD2     H10587   0.366   1.951   9.726 -0.3285  0.5056  1.6318
  716MPD2    H110588   0.726   2.058   9.930 -1.1933  0.6288  2.3699
  716MPD2    H210589   0.509   2.349   9.698  2.7875  0.8672  0.8642
  716MPD2    H310590   0.678   2.293   9.872  2.2963 -3.0493  2.1679
  716MPD2     N10591   0.563   1.849   9.850  0.3833 -0.6649 -0.0591
  716MPD2    H510592   0.486   1.792   9.816 -2.2618  3.4844 -0.9780
  716MPD2    N110593   0.318   2.204   9.616 -0.2344  0.3097  0.9351
  716MPD2    H710594   0.315   2.304   9.606  0.6201  0.2307 -0.1101
  717TMC3    C110595   0.654   1.637   9.917 -0.3649  0.6100  0.0365
  717TMC3    C210596   0.593   1.567   9.817  0.3919  0.0675  0.1919
  717TMC3    C310597   0.618   1.439   9.791 -0.3862 -0.2472  0.3054
  717TMC3    C410598   0.724   1.569  10.014  0.1947  0.2581 -0.3363
  717TMC3    C510599   0.717   1.427  10.003 -1.0497 -0.4939 -0.2506
  717TMC3    C610600   0.664   1.361   9.890 -0.1492  0.2452  0.1544
  717TMC3     C10601   0.653   1.785   9.928  0.1837  0.0263  0.1981
  717TMC3     O10602   0.725   1.840  10.008 -0.0127  0.0077  0.0618
  717TMC3     H10603   0.556   1.628   9.735  1.3477 -2.8795 -2.4365
  717TMC3    H110604   0.764   1.625  10.098 -0.4214  0.4494 -0.1651
  717TMC3    H210605   0.638   1.256   9.888  1.0671 -0.0746  0.7360
  717TMC3    C710606   0.757   1.346  10.113 -0.0273  1.3984 -0.4221
  717TMC3    C810607   0.541   1.387   9.672  0.3726 -0.7325 -0.3934
  717TMC3    O110608   0.751   1.227  10.080 -0.1144  0.5953 -0.1968
  717TMC3    O210609   0.445   1.452   9.642 -0.3554  0.1784 -0.5719
  718MPD2     C10610   4.696   0.991  12.920 -0.4741  0.0508  0.3616
  718MPD2    C110611   4.578   1.031  12.865 -0.0700 -0.3241 -0.1493
  718MPD2    C210612   4.498   0.933  12.809  0.3393  0.8795  0.8132
  718MPD2    C310613   4.532   0.798  12.804  0.2406  0.3421  0.0069
  718MPD2    C410614   4.659   0.762  12.862 -0.1776  0.3166 -0.0241
  718MPD2    C510615   0.011   0.861  12.913  0.1491 -0.6849  0.1388
  718MPD2     H10616   4.400   0.971  12.780 -0.4026 -1.4705  0.2090
  718MPD2    H110617   4.693   0.659  12.862 -0.1466  0.3293  1.3481
  718MPD2    H210618   0.038   1.065  12.961  0.7098 -1.0240  0.3370
  718MPD2    H310619   0.112   0.841  12.945  1.7391  4.6720 -1.5496
  718MPD2     N10620   4.445   0.701  12.746 -0.0881 -0.0114 -0.1582
  718MPD2    H510621   4.355   0.738  12.719 -0.9168 -1.5972  0.4066
  718MPD2    N110622   4.520   1.157  12.870 -0.8328 -0.0226 -0.4430
  718MPD2    H710623   4.428   1.167  12.827 -0.3823 -2.7572 -2.0494
  719TMC3    C110624   4.492   1.389  12.881  0.5619 -0.1102 -0.1563
  719TMC3    C210625   4.360   1.361  12.868  0.3481 -0.7820 -0.6761
  719TMC3    C310626   4.301   1.395  12.753  0.0387 -0.1509 -0.0982
  719TMC3    C410627   4.561   1.462  12.788  0.6751  0.2448  0.0119
  719TMC3    C510628   4.484   1.517  12.683  0.6112  0.5792 -0.2174
  719TMC3    C610629   4.356   1.485  12.664 -0.1604  0.0459  0.6591
  719TMC3     C10630   4.577   1.277  12.912 -0.6282  0.4209  0.4223
  719TMC3     O10631   4.690   1.301  12.949  0.4309  0.3651  0.1871
  719TMC3     H10632   4.309   1.301  12.943  0.6380 -0.9247 -0.5930
  719TMC3    H110633   4.668   1.479  12.791  0.3370  2.2947  0.6394
  719TMC3    H210634   4.295   1.515  12.580 -0.7515 -1.5047  0.5477
  719TMC3    C710635   4.543   1.608  12.583  0.1379  0.0702  0.2329
  719TMC3    C810636   4.243   1.275  12.692 -0.3382  0.1242 -0.3609
  719TMC3    O110637   4.463   1.687  12.532  0.2661  0.2628 -0.3490
  719TMC3    O210638   4.260   1.168  12.748 -0.2072  0.2336  0.1629
  720MPD2     C10639   2.892   3.200  14.219  0.5369 -0.2514  0.1013
  720MPD2    C110640   2.961   3.207  14.103 -0.2394 -0.2363 -0.4137
  720MPD2    C210641   3.093   3.162  14.103  0.3348 -0.3554 -0.3822
  720MPD2    C310642   3.152   3.124  14.226  0.4550 -0.5699  0.2980
  720MPD2    C410643   3.082   3.124  14.342 -0.0932  0.2235 -0.6889
  720MPD2    C510644   2.958   3.173  14.340 -0.0063 -0.5570  0.3235
  720MPD2     H10645   3.144   3.161  14.008  1.2988  2.7618  0.1037
  720MPD2    H110646   3.134   3.109  14.437 -1.5561 -0.4154  0.0095
  720MPD2    H210647   2.790   3.232  14.234  0.0162 -2.4162  1.2043
  720MPD2    H310648   2.916   3.186  14.439 -1.5100 -0.3534 -0.3367
  720MPD2     N10649   3.291   3.098  14.229 -0.6291  0.7372  0.2951
  720MPD2    H510650   3.339   3.128  14.144 -0.0832  0.6445  0.5747
  720MPD2    N110651   2.902   3.258  13.987  0.8493  0.7898 -0.4083
  720MPD2    H710652   2.823   3.317  14.007 -0.9083 -2.1813  1.4372
  721TMC3    C110653   3.507   3.021  14.313 -0.4890  0.2691  0.6423
  721TMC3    C210654   3.587   2.975  14.419  0.1999  0.5900  0.3525
  721TMC3    C310655   3.725   2.963  14.402 -1.3516  0.4810  0.8381
  721TMC3    C410656   3.571   3.061  14.192  0.0503  0.5717  0.0819
  721TMC3    C510657   3.704   3.051  14.186 -0.4826  0.0053  0.3876
  721TMC3    C610658   3.782   3.006  14.285  0.2809  0.8412  0.0533
  721TMC3     C10659   3.363   3.046  14.335 -0.1724  0.4221 -0.0779
  721TMC3     O10660   3.320   2.982  14.432 -0.2719 -0.5596 -0.5031
  721TMC3     H10661   3.543   2.960  14.516 -1.4345 -2.0300 -0.8100
  721TMC3    H110662   3.516   3.094  14.104  1.1396 -0.0970 -0.8378
  721TMC3    H210663   3.890   3.011  14.283  0.3043 -0.2199 -0.9693
  721TMC3    C710664   3.780   3.110  14.092 -0.1255  0.3860 -0.1555
  721TMC3    C810665   3.813   2.909  14.501 -0.6658 -0.1684 -0.3156
  721TMC3    O110666   3.877   3.054  14.053 -0.0659 -0.2061  0.5325
  721TMC3    O210667   3.921   2.863  14.457 -0.3227 -0.5639 -0.1739
  722MPD2     C10668   1.828   1.730  12.880  0.1598 -0.2081 -0.0795
  722MPD2    C110669   1.790   1.713  12.751 -0.0942 -0.1776  0.4604
  722MPD2    C210670   1.660   1.694  12.714  0.6179 -0.6017  0.3633
  722MPD2    C310671   1.558   1.696  12.802 -0.2251  0.1200 -0.3142
  722MPD2    C410672   1.588   1.710  12.942 -0.4982  0.8183  0.1753
  722MPD2    C510673   1.721   1.735  12.968  0.3038 -0.1629  0.0330
  722MPD2     H10674   1.633   1.672  12.611 -0.3578 -2.4345  1.0165
  722MPD2    H110675   1.521   1.706  13.027 -0.3391  1.3639  0.3255
  722MPD2    H210676   1.931   1.750  12.909 -0.3987  1.2900  0.8387
  722MPD2    H310677   1.746   1.738  13.073  0.9865  0.1157 -0.1374
  722MPD2     N10678   1.424   1.684  12.750  0.1897  0.0953  0.4178
  722MPD2    H510679   1.417   1.662  12.651 -1.4045 -0.0428  0.5655
  722MPD2    N110680   1.884   1.718  12.647  0.1474  0.0277  0.1779
  722MPD2    H710681   1.860   1.668  12.562 -0.0616 -1.7126  1.2650
  723TMC3    C110682   1.194   1.671  12.744 -0.3008 -0.3770  0.0767
  723TMC3    C210683   1.175   1.552  12.675  0.2540 -0.1835  0.6096
  723TMC3    C310684   1.053   1.540  12.604 -0.7397 -0.0225  0.1001
  723TMC3    C410685   1.108   1.772  12.732  0.5927  0.4178  0.4581
  723TMC3    C510686   1.015   1.770  12.630 -0.3674  0.2149  0.5350
  723TMC3    C610687   0.982   1.653  12.578  0.0501 -0.0164 -0.7424
  723TMC3     C10688   1.309   1.696  12.828 -0.0565  0.2835  0.6531
  723TMC3     O10689   1.297   1.765  12.924 -0.0954 -0.0617  0.3569
  723TMC3     H10690   1.244   1.472  12.697  0.2540 -0.4263 -0.2740
  723TMC3    H110691   1.122   1.855  12.800 -1.3069  1.7829 -0.8204
  723TMC3    H210692   0.893   1.650  12.516 -2.0804  1.6530  2.2171
  723TMC3    C710693   0.923   1.885  12.620  0.0647 -0.1234  0.4111
  723TMC3    C810694   0.995   1.409  12.587  0.7735  0.5189 -0.3583
  723TMC3    O110695   0.819   1.865  12.556  0.1727 -0.3609  0.0019
  723TMC3    O210696   0.876   1.412  12.554  0.3132 -0.3827  0.1533
  724TMC3    C110697   3.061   4.451  10.152 -0.0768  0.1530 -0.2199
  724TMC3    C210698   2.949   4.494  10.227 -0.2207 -0.3813 -0.3945
  724TMC3    C310699   2.912   4.626  10.207 -0.2127  0.1884 -0.2929
  724TMC3    C410700   3.133   4.538  10.078  0.4960  0.2826 -0.0861
  724TMC3    C510701   3.097   4.667  10.071 -0.2402 -0.2286  0.2694
  724TMC3    C610702   2.984   4.716  10.132 -0.1765 -1.0954 -0.0886
  724TMC3     C10703   3.073   4.316  10.123 -0.0279  0.2840  0.5879
  724TMC3     O10704   3.146   4.290  10.029 -0.4424  0.6272  0.0586
  724TMC3     H10705   2.883   4.423  10.275 -1.3670  1.0601  0.1625
  724TMC3    H110706   3.217   4.514  10.015 -1.6371 -0.5289 -2.6320
  724TMC3    H210707   2.946   0.088  10.105 -1.5121 -0.9990  2.1809
  724TMC3    C710708   3.187   0.019   9.982 -0.1958  0.1811 -0.9080
  724TMC3    C810709   2.805   4.672  10.288 -0.3860 -0.1158  0.2963
  724TMC3    O110710   3.275   4.692   9.911  0.5667  0.0017 -0.0888
  724TMC3    O210711   2.715   4.593  10.317 -0.0107  0.3315 -0.5258
  725TMC3    C110712   3.407   3.209  12.509  0.4768  0.1797 -0.1418
  725TMC3    C210713   3.394   3.275  12.390  0.1711 -0.1649 -0.1445
  725TMC3    C310714   3.398   3.204  12.268 -0.0360  0.3159 -0.0363
  725TMC3    C410715   3.456   3.079  12.503  0.5359  0.6072  0.9550
  725TMC3    C510716   3.470   3.012  12.386  0.0092 -0.6922 -0.0079
  725TMC3    C610717   3.429   3.068  12.264 -0.1572 -0.6474  0.2236
  725TMC3     C10718   3.472   3.296  12.603 -0.3345 -0.1704 -0.0819
  725TMC3     O10719   3.555   3.376  12.563 -0.1238 -0.2667  0.4501
  725TMC3     H10720   3.387   3.383  12.397  0.7895 -0.4344  4.4234
  725TMC3    H110721   3.466   3.032  12.600  0.2145  0.0250  0.7088
  725TMC3    H210722   3.443   3.016  12.170 -0.4700  0.0718 -0.2189
  725TMC3    C710723   3.565   2.904  12.368  0.0210 -0.5771  0.0890
  725TMC3    C810724   3.425   3.282  12.157 -0.3596 -0.6454  0.2361
  725TMC3    O110725   3.617   2.890  12.256 -0.4739  0.3032  0.3845
  725TMC3    O210726   3.461   3.398  12.186  0.3938 -0.8001 -0.5778
  726MPD2     C10727   2.106   4.212  10.495 -0.5061 -0.0988 -0.2857
  726MPD2    C110728   2.025   4.154  10.399 -0.0295  0.1385  0.7918
  726MPD2    C210729   1.939   4.047  10.435  0.0542 -1.1397  0.4698
  726MPD2    C310730   1.920   4.027  10.571 -0.1597 -0.2818  0.4031
  726MPD2    C410731   2.000   4.085  10.665  0.0029  1.2290  0.3272
  726MPD2    C510732   2.098   4.164  10.625 -0.3505  0.4191  0.3085
  726MPD2     H10733   1.870   4.007  10.362 -0.4805  1.6608 -0.5690
  726MPD2    H110734   1.983   4.061  10.770  1.4424 -1.6705 -0.1213
  726MPD2    H210735   2.189   4.276  10.467 -0.5022 -0.1623 -0.4197
  726MPD2    H310736   2.174   4.206  10.689  1.3865 -1.1582 -0.7247
  726MPD2     N10737   1.820   3.935  10.617  0.6576  0.4879 -0.6386
  726MPD2    H510738   1.794   3.938  10.715  2.1710 -0.8805 -0.1979
  726MPD2    N110739   2.019   4.195  10.268  0.0585  0.3410 -0.7150
  726MPD2    H710740   1.952   4.156  10.202 -2.1183  0.7450  1.2178
  727TMC3    C110741   2.015   4.354  10.101 -0.5444  0.5027 -0.5232
  727TMC3    C210742   2.049   4.481  10.076  0.1297 -0.2028 -1.2375
  727TMC3    C310743   1.957   4.564  10.016 -0.1717 -0.4075  0.5869
  727TMC3    C410744   1.898   4.298  10.057  0.0287  0.0223  0.0365
  727TMC3    C510745   1.813   4.383   9.991 -0.3451 -0.1177 -0.5229
  727TMC3    C610746   1.841   4.516   9.970  0.3131 -0.4297 -0.1297
  727TMC3     C10747   2.085   4.298  10.218  1.4742  0.1574  0.1849
  727TMC3     O10748   2.173   4.369  10.272 -0.0985 -0.5515  0.2304
  727TMC3     H10749   2.142   4.523  10.111 -1.4182  0.5656  2.0100
  727TMC3    H110750   1.870   4.193  10.064  0.6539 -0.1490 -0.0477
  727TMC3    H210751   1.760   4.579   9.934  1.5967  0.9099 -0.6809
  727TMC3    C710752   1.700   4.335   9.911  0.4012  0.2812 -0.6490
  727TMC3    C810753   1.958   4.704  10.045 -0.5415  0.1384  0.1570
  727TMC3    O110754   1.699   4.387   9.802  0.8671  0.1916  0.3863
  727TMC3    O210755   2.040   0.005  10.130  0.4696  0.1613 -0.0592
  728TMC3    C110756   1.010   3.344  14.905  1.2008 -0.6644  0.5589
  728TMC3    C210757   1.123   3.377  14.829  0.4748  0.5105  0.4382
  728TMC3    C310758   1.117   3.485  14.745  0.3238  0.3325  0.1956
  728TMC3    C410759   0.907   3.437  14.921 -0.2474  0.2556  0.3026
  728TMC3    C510760   0.908   3.548  14.840  0.6618  0.6880  0.1839
  728TMC3    C610761   1.009   3.567  14.745  0.4680  0.4211  0.3625
  728TMC3     C10762   1.027   3.248  15.013  0.4299 -0.6343  0.4393
  728TMC3     O10763   1.138   3.222  15.057 -0.6630  0.4919  0.2072
  728TMC3     H10764   1.214   3.320  14.841 -0.7465 -1.2301  1.6122
  728TMC3    H110765   0.829   3.416  14.993 -1.8188 -0.9776 -1.7622
  728TMC3    H210766   0.999   3.649  14.676 -1.5405 -1.5041 -1.6317
  728TMC3    C710767   0.789   3.627  14.810 -0.0042  0.0120  0.0987
  728TMC3    C810768   1.228   3.544  14.671 -0.1294  0.6675 -0.2280
  728TMC3    O110769   0.688   3.569  14.791  0.2914 -0.2770 -0.1440
  728TMC3    O210770   1.223   3.667  14.652  0.0722 -0.5072  0.3698
  729MPD2     C10771   3.414   4.664  16.237  0.2841  0.2123  0.1003
  729MPD2    C110772   3.523   4.586  16.274  0.2918 -0.4875 -0.0832
  729MPD2    C210773   3.503   4.498  16.378  0.1569 -0.2055 -1.0727
  729MPD2    C310774   3.386   4.488  16.448 -0.2925 -0.4887  0.0752
  729MPD2    C410775   3.283   4.570  16.412  0.3012  0.2922  0.3932
  729MPD2    C510776   3.295   4.652  16.304  0.3104  0.1544  0.3685
  729MPD2     H10777   3.596   4.461  16.420  1.5683  5.3106  0.5712
  729MPD2    H110778   3.188   4.571  16.465  0.2459  2.9255  0.2482
  729MPD2    H210779   3.421   0.016  16.162  0.9381  0.2708  0.2245
  729MPD2    H310780   3.210   4.712  16.273 -0.7106 -0.5822  1.6988
  729MPD2     N10781   3.386   4.405  16.571 -0.5416  0.4973  0.5525
  729MPD2    H510782   3.316   4.437  16.637  0.4874  1.1279  1.3312
  729MPD2    N110783   3.644   4.617  16.205  0.0350 -0.4841 -0.1845
  729MPD2    H710784   3.639   4.684  16.129 -1.2489 -2.1271 -1.5650
  730TMC3    C110785   3.495   4.269  16.728 -0.4964 -0.2032  0.0196
  730TMC3    C210786   3.622   4.227  16.738  0.0969  0.0902  0.2998
  730TMC3    C310787   3.708   4.300  16.820  0.6768  1.0529 -0.1425
  730TMC3    C410788   3.438   4.351  16.816 -0.6769 -0.1141  0.5990
  730TMC3    C510789   3.521   4.408  16.911 -0.4184  0.2924  0.8980
  730TMC3    C610790   3.661   4.393  16.915  0.0599 -0.2351  0.0082
  730TMC3     C10791   3.474   4.300  16.591 -0.6490 -0.7247 -0.2191
  730TMC3     O10792   3.546   4.259  16.502  0.3232  0.3399 -0.6051
  730TMC3     H10793   3.662   4.159  16.664  0.6258  0.3138  0.3844
  730TMC3    H110794   3.333   4.377  16.808 -0.4153  0.5767 -0.6232
  730TMC3    H210795   3.718   4.449  16.988  0.3401 -0.8650  0.2679
  730TMC3    C710796   3.472   4.544  16.933  0.0861  0.4885  0.3945
  730TMC3    C810797   3.814   4.360  16.737  0.0833 -0.0860 -0.0407
  730TMC3    O110798   3.444   4.614  16.839 -0.5482 -0.4102  0.1577
  730TMC3    O210799   3.809   4.328  16.619  0.0279 -0.1258  0.5159
  731MPD2     C10800   2.744   2.725  12.004 -0.0443 -0.9527  0.3088
  731MPD2    C110801   2.860   2.656  12.013 -0.1058 -0.7340 -0.3574
  731MPD2    C210802   2.917   2.635  12.136 -0.3073  0.1254  0.0470
  731MPD2    C310803   2.852   2.683  12.252 -0.6493 -0.0944 -0.5286
  731MPD2    C410804   2.732   2.750  12.243  0.1521  0.1703  0.0655
  731MPD2    C510805   2.685   2.776  12.117  0.1843  0.3542 -0.3047
  731MPD2     H10806   3.003   2.569  12.139  1.7581  2.6490 -3.9287
  731MPD2    H110807   2.668   2.774  12.327 -1.2166 -3.8593  0.1773
  731MPD2    H210808   2.691   2.740  11.910  1.6410 -0.4683 -0.5621
  731MPD2    H310809   2.589   2.824  12.101 -1.6510 -2.0483  3.4683
  731MPD2     N10810   2.911   2.647  12.377  0.1159 -0.6535  0.2320
  731MPD2    H510811   3.005   2.611  12.373 -0.6593 -2.2921 -3.1262
  731MPD2    N110812   2.911   2.592  11.899 -0.2202  0.0619 -0.1488
  731MPD2    H710813   2.854   2.610  11.817  1.1724 -1.1749 -1.3948
  732TMC3    C110814   3.018   2.424  11.786  0.1762 -0.0584 -0.1096
  732TMC3    C210815   2.897   2.372  11.742 -0.2428  0.5014  0.1134
  732TMC3    C310816   2.898   2.254  11.677  0.2798  0.0135 -0.1093
  732TMC3    C410817   3.138   2.359  11.757  0.5142  0.4215 -1.1881
  732TMC3    C510818   3.132   2.236  11.697  0.6745 -0.2681 -0.7827
  732TMC3    C610819   3.009   2.184  11.647  0.8392 -0.3859  0.2991
  732TMC3     C10820   3.028   2.521  11.889  0.6533  0.2434 -0.2153
  732TMC3     O10821   3.117   2.510  11.969 -0.3277 -0.8340 -0.4222
  732TMC3     H10822   2.808   2.420  11.781  0.9252  1.1444  1.9931
  732TMC3    H110823   3.228   2.413  11.786  0.9922 -2.1180  2.0678
  732TMC3    H210824   3.003   2.084  11.607 -0.7437 -1.4444  3.1456
  732TMC3    C710825   3.254   2.161  11.670 -0.8963 -0.2945  0.4923
  732TMC3    C810826   2.769   2.202  11.636  0.0564  0.2410 -0.1057
  732TMC3    O110827   3.247   2.063  11.597  0.7389 -0.5240 -0.1573
  732TMC3    O210828   2.766   2.117  11.545 -1.0947  0.2415 -0.4722
  733TMC3    C110829   4.116   0.493  12.665 -0.5750 -0.3074 -0.1145
  733TMC3    C210830   4.250   0.471  12.709  0.3993 -0.1333 -0.1108
  733TMC3    C310831   4.358   0.519  12.636  0.4120  0.5228 -0.2870
  733TMC3    C410832   4.096   0.550  12.543 -0.5335 -0.3998  0.8073
  733TMC3    C510833   4.212   0.587  12.472  0.2879  0.5000 -0.1345
  733TMC3    C610834   4.337   0.578  12.522  0.5129 -1.3830 -0.6206
  733TMC3     C10835   4.002   0.507  12.754  0.2228 -0.6287 -0.6463
  733TMC3     O10836   3.890   0.502  12.709 -0.6826 -0.0731 -0.5051
  733TMC3     H10837   4.252   0.429  12.808  2.4332 -1.2591 -0.6292
  733TMC3    H110838   3.998   0.563  12.498  0.0544  0.7922 -0.1279
  733TMC3    H210839   4.419   0.626  12.470  1.1530 -0.8748  0.8392
  733TMC3    C710840   4.194   0.705  12.381  0.5247  0.0720  0.3411
  733TMC3    C810841   4.473   0.570  12.717  0.0348  0.1316 -0.7355
  733TMC3    O110842   4.150   0.684  12.267  0.2958 -0.6799  0.0165
  733TMC3    O210843   4.570   0.501  12.739 -0.1661  0.0111 -0.1738
  734MPD2     C10844   1.365   2.959  12.869 -0.3875  0.2409 -0.7744
  734MPD2    C110845   1.302   2.946  12.750 -0.1207 -0.3428  0.1209
  734MPD2    C210846   1.282   3.059  12.666 -0.0020  0.1491  0.4621
  734MPD2    C310847   1.313   3.185  12.712 -0.0406 -0.1325  0.5848
  734MPD2    C410848   1.375   3.199  12.833 -0.3100 -0.9106 -0.0468
  734MPD2    C510849   1.391   3.091  12.911 -0.3606  0.3110  0.2667
  734MPD2     H10850   1.223   3.060  12.575 -0.1458  0.1804  0.5554
  734MPD2    H110851   1.395   3.299  12.871 -0.5711 -1.1840  0.8153
  734MPD2    H210852   1.389   2.875  12.934  0.5044  1.3757  0.3622
  734MPD2    H310853   1.427   3.107  13.012  0.1623 -1.1012  0.3070
  734MPD2     N10854   1.299   3.291  12.619 -0.1766 -0.4678  0.0385
  734MPD2    H510855   1.256   3.268  12.531  2.3715 -2.1610 -0.7781
  734MPD2    N110856   1.266   2.813  12.713 -0.2052  0.3214  0.2126
  734MPD2    H710857   1.320   2.739  12.756  0.6496  1.0430  0.3772
  735TMC3    C110858   1.184   2.642  12.568 -0.0025  0.1290 -0.3696
  735TMC3    C210859   1.082   2.633  12.472  0.0314 -0.4658 -0.4285
  735TMC3    C310860   1.109   2.613  12.339  0.9170 -0.3217 -0.0453
  735TMC3    C410861   1.308   2.602  12.537  0.6020 -0.3194 -0.0693
  735TMC3    C510862   1.334   2.572  12.408 -0.6118  0.2991  0.5161
  735TMC3    C610863   1.235   2.572  12.309  0.2373  0.0723 -0.0907
  735TMC3     C10864   1.181   2.780  12.615 -0.2078  0.2423 -0.0855
  735TMC3     O10865   1.120   2.849  12.540 -0.2424 -0.4359  0.0252
  735TMC3     H10866   0.984   2.677  12.485 -0.5623 -1.6033 -1.0566
  735TMC3    H110867   1.391   2.584  12.605 -0.1195 -0.9302  0.6587
  735TMC3    H210868   1.257   2.558  12.204  2.9692 -0.3439  0.5143
  735TMC3    C710869   1.455   2.623  12.356 -0.0321  0.4199  0.6230
  735TMC3    C810870   1.043   2.698  12.240  0.7923 -0.1175 -0.0263
  735TMC3    O110871   1.505   2.571  12.259 -0.4280 -0.2754  0.1145
  735TMC3    O210872   1.035   2.652  12.128  0.4514 -0.0374 -0.8672
  736MPD2     C10873   1.636   2.912  12.490 -0.1889 -0.0053 -0.2167
  736MPD2    C110874   1.613   2.805  12.408  0.2394 -0.3904 -0.1067
  736MPD2    C210875   1.715   2.771  12.318 -1.1225  0.3908 -0.4463
  736MPD2    C310876   1.835   2.838  12.311 -0.1523 -0.4992  1.1462
  736MPD2    C410877   1.852   2.946  12.398  0.3016  0.3181  0.5675
  736MPD2    C510878   1.757   2.977  12.487  0.3205 -0.0974  0.1019
  736MPD2     H10879   1.704   2.683  12.257  0.6925 -1.3628  1.7850
  736MPD2    H110880   1.941   3.005  12.379 -0.3028  0.5781 -1.5626
  736MPD2    H210881   1.559   2.932  12.564 -1.2933 -0.9384 -1.1128
  736MPD2    H310882   1.775   3.059  12.555 -0.5535  0.6363 -0.5605
  736MPD2     N10883   1.939   2.812  12.224 -0.4975  0.0831  0.1594
  736MPD2    H510884   2.015   2.880  12.221  0.6169 -1.1897 -0.8145
  736MPD2    N110885   1.497   2.728  12.432 -0.1870  0.0945  0.5986
  736MPD2    H710886   1.436   2.761  12.506  0.8241  0.6955  1.1657
  737TMC3    C110887   2.040   2.714  12.029  0.0217 -0.7264 -0.0680
  737TMC3    C210888   2.128   2.816  12.019  0.2437  0.4209  0.8870
  737TMC3    C310889   2.213   2.817  11.914 -0.0605  0.1103  0.1647
  737TMC3    C410890   2.032   2.607  11.938 -0.0542  0.2465 -1.2304
  737TMC3    C510891   2.132   2.600  11.845 -1.0959 -0.4343 -0.5641
  737TMC3    C610892   2.219   2.705  11.829 -0.4592  0.3027 -0.2838
  737TMC3     C10893   1.938   2.709  12.136  0.1656 -0.1091 -0.0905
  737TMC3     O10894   1.878   2.602  12.140  0.1989 -0.2762 -0.3451
  737TMC3     H10895   2.123   2.902  12.086 -2.4690  1.5714 -0.8118
  737TMC3    H110896   1.954   2.532  11.937  1.1309 -0.9944  0.0250
  737TMC3    H210897   2.291   2.699  11.748  0.3426 -1.3867  0.5655
  737TMC3    C710898   2.127   2.480  11.753 -0.6719 -0.1128 -0.4809
  737TMC3    C810899   2.280   2.943  11.875  0.9434  0.1947 -0.3718
  737TMC3    O110900   2.025   2.412  11.753  0.0520  0.4149 -0.1282
  737TMC3    O210901   2.302   3.025  11.964  0.2255 -0.1639  0.3798
  738MPD2     C10902   2.716   2.061  15.617 -0.4976  0.8214  0.2601
  738MPD2    C110903   2.705   1.999  15.491 -0.0963 -0.3277  0.2863
  738MPD2    C210904   2.774   2.051  15.386  0.9118 -0.1999  0.4247
  738MPD2    C310905   2.851   2.165  15.405 -0.3512  1.3251 -0.0633
  738MPD2    C410906   2.873   2.205  15.532  0.7156  0.0691  0.0222
  738MPD2    C510907   2.799   2.164  15.635  0.6859 -0.2192 -0.8263
  738MPD2     H10908   2.767   1.999  15.291 -0.5171 -1.9681  1.5135
  738MPD2    H110909   2.938   2.288  15.558  1.4590 -1.4696  3.0873
  738MPD2    H210910   2.664   2.023  15.704  1.0327  0.8804  1.1891
  738MPD2    H310911   2.817   2.212  15.730 -1.3309  0.0522 -0.5891
  738MPD2     N10912   2.915   2.232  15.296  0.2084 -0.0507  0.0427
  738MPD2    H510913   2.975   2.310  15.322  0.4103 -0.0573 -0.4017
  738MPD2    N110914   2.641   1.872  15.476  0.5078 -0.4985  0.0908
  738MPD2    H710915   2.651   1.837  15.382  0.7299 -0.5169  0.1214
  739TMC3    C110916   2.983   2.281  15.070 -0.5267  0.0195 -0.4754
  739TMC3    C210917   2.967   2.268  14.928  0.9220 -0.1380 -0.3606
  739TMC3    C310918   3.052   2.325  14.844 -0.9019 -0.5367 -0.2353
  739TMC3    C410919   3.086   2.354  15.121 -0.2467 -0.3015  0.5528
  739TMC3    C510920   3.177   2.408  15.027  0.3839  0.0458  0.0966
  739TMC3    C610921   3.158   2.398  14.887 -0.4224 -0.6122 -0.5502
  739TMC3     C10922   2.892   2.214  15.159 -0.2364  0.1261 -0.8023
  739TMC3     O10923   2.804   2.144  15.112  0.3841  0.3049 -0.0994
  739TMC3     H10924   2.890   2.206  14.883 -0.7628  1.2579  0.5706
  739TMC3    H110925   3.104   2.379  15.224 -0.9143  2.1062  0.0838
  739TMC3    H210926   3.237   2.433  14.822  1.0008  0.6748  1.8931
  739TMC3    C710927   3.312   2.423  15.089  0.5944 -1.1972  0.3106
  739TMC3    C810928   3.024   2.323  14.706  0.3079 -0.1568 -0.3543
  739TMC3    O110929   3.325   2.358  15.193  0.0005 -0.0970 -0.3895
  739TMC3    O210930   2.917   2.270  14.680 -0.2614 -0.8791 -0.0139
  740TMC3    C110931   3.099   3.544  14.407 -0.0442  0.4581  0.0355
  740TMC3    C210932   3.156   3.495  14.523 -0.2600  0.6541  0.0505
  740TMC3    C310933   3.268   3.414  14.507  0.4602 -0.6941  0.4065
  740TMC3    C410934   3.153   3.523  14.287  0.0538  0.2805 -0.0599
  740TMC3    C510935   3.271   3.450  14.276  0.5570 -0.0296  0.2981
  740TMC3    C610936   3.329   3.401  14.383  0.0638  0.3814 -0.1607
  740TMC3     C10937   2.956   3.578  14.418 -0.6745 -1.0743  0.4940
  740TMC3     O10938   2.905   3.592  14.308 -0.6381 -0.1105 -0.1437
  740TMC3     H10939   3.112   3.493  14.621 -0.9420  2.6875 -0.2148
  740TMC3    H110940   3.091   3.555  14.203 -0.8062  0.2283  0.5510
  740TMC3    H210941   3.427   3.357  14.372 -0.5923 -1.5416  1.7882
  740TMC3    C710942   3.341   3.430  14.149 -0.5863 -0.1169 -0.2738
  740TMC3    C810943   3.353   3.420  14.617  0.0368 -0.3706  0.2097
  740TMC3    O110944   3.425   3.344  14.143 -0.1329  0.6405 -0.3999
  740TMC3    O210945   3.436   3.329  14.638 -0.1087 -0.2844 -0.0336
  741TMC3    C110946   2.841   2.702  14.579 -0.3508 -0.2002  0.6118
  741TMC3    C210947   2.716   2.656  14.555 -0.4889 -0.0042 -0.0237
  741TMC3    C310948   2.633   2.627  14.662 -0.0018 -0.5461 -0.2191
  741TMC3    C410949   2.894   2.714  14.705  0.3823 -0.3601 -0.3473
  741TMC3    C510950   2.804   2.692  14.813 -0.6072  0.2104  0.2281
  741TMC3    C610951   2.676   2.653  14.791 -0.4763 -0.1525  0.2411
  741TMC3     C10952   2.917   2.758  14.464 -0.2558  1.2290 -0.3571
  741TMC3     O10953   3.036   2.781  14.488  0.0145 -0.6224  0.8173
  741TMC3     H10954   2.689   2.639  14.452  0.5161  1.5542 -0.5465
  741TMC3    H110955   2.991   2.760  14.715 -1.1680  2.6276  0.8512
  741TMC3    H210956   2.603   2.639  14.870 -0.4632 -0.2730  0.2329
  741TMC3    C710957   2.881   2.673  14.933 -0.6433 -0.1749 -0.1993
  741TMC3    C810958   2.505   2.570  14.623 -0.0202  0.0837 -0.4894
  741TMC3    O110959   3.006   2.685  14.922 -0.2142 -0.3769 -0.3087
  741TMC3    O210960   2.460   2.608  14.515 -0.2387 -0.1156  0.2830
  742TMC3    C110961   3.066   0.903  15.360 -0.1824 -0.1237 -0.2571
  742TMC3    C210962   3.056   0.978  15.244  0.1628  0.2070  0.2523
  742TMC3    C310963   3.113   0.917  15.138 -0.1437 -0.0206 -0.4946
  742TMC3    C410964   3.145   0.790  15.374 -0.0851 -1.1934  0.7059
  742TMC3    C510965   3.208   0.742  15.261  0.3016  0.5433 -0.3984
  742TMC3    C610966   3.184   0.801  15.141 -0.1208  0.5572  0.6027
  742TMC3     C10967   2.997   0.950  15.476 -1.5212 -0.2113  0.5060
  742TMC3     O10968   2.949   0.860  15.547  0.0520 -0.3824  0.0501
  742TMC3     H10969   2.971   1.044  15.239  0.0254  0.0539  0.5210
  742TMC3    H110970   3.162   0.742  15.469 -2.2304 -0.4962  1.4499
  742TMC3    H210971   3.246   0.775  15.055  0.2138 -1.2341  1.3706
  742TMC3    C710972   3.321   0.648  15.272  0.0321 -0.2009  0.0134
  742TMC3    C810973   3.060   0.945  15.003 -0.1267  0.4028  0.0124
  742TMC3    O110974   3.369   0.605  15.167  0.7721  0.7131 -0.8798
  742TMC3    O210975   3.073   0.857  14.917 -0.2383 -0.0241  0.1682
  743MPD2     C10976   0.853   1.722   1.561 -0.5649 -0.3242 -0.0521
  743MPD2    C110977   0.826   1.858   1.545 -0.5560 -0.7965 -0.1323
  743MPD2    C210978   0.881   1.938   1.633 -0.4362  0.0462 -0.0908
  743MPD2    C310979   0.954   1.892   1.738 -0.0137 -0.0585 -0.5213
  743MPD2    C410980   0.979   1.756   1.754  0.6438  0.3668 -0.6455
  743MPD2    C510981   0.929   1.673   1.665 -0.3061 -0.5642 -0.6121
  743MPD2     H10982   0.887   2.046   1.617  1.0797 -0.1858 -1.0531
  743MPD2    H110983   1.046   1.716   1.829 -0.2265 -3.3481 -1.8548
  743MPD2    H210984   0.802   1.644   1.504 -0.3478 -0.4357 -0.0938
  743MPD2    H310985   0.948   1.567   1.679 -2.4546 -0.9587 -0.6196
  743MPD2     N10986   1.014   1.987   1.831 -0.2243 -0.5371  0.1664
  743MPD2    H510987   1.015   2.087   1.812 -2.3572 -0.3209  1.2038
  743MPD2    N110988   0.755   1.894   1.431 -0.4371 -0.2656 -0.0893
  743MPD2    H710989   0.725   1.810   1.383  2.2458 -1.1568 -0.2234
  744TMC3    C110990   0.678   2.025   1.265 -0.3059 -0.5883 -0.6600
  744TMC3    C210991   0.611   2.142   1.238 -0.1054 -0.2688 -0.0749
  744TMC3    C310992   0.571   2.162   1.111 -0.1469 -0.6487 -0.5706
  744TMC3    C410993   0.713   1.933   1.171 -0.1013 -0.5240 -0.0985
  744TMC3    C510994   0.681   1.964   1.042 -0.6346 -0.5599  0.4888
  744TMC3    C610995   0.603   2.078   1.009  0.1281 -0.3113 -0.6619
  744TMC3     C10996   0.714   2.013   1.396  0.3915 -0.2299 -1.1977
  744TMC3     O10997   0.721   2.113   1.465  0.1607  0.0036 -0.2397
  744TMC3     H10998   0.600   2.208   1.324 -0.4012 -0.7893  0.2795
  744TMC3    H110999   0.767   1.842   1.192 -0.1356 -0.6571 -0.5833
  744TMC3    H211000   0.579   2.105   0.907 -2.2472 -0.6077 -0.1708
  744TMC3    C711001   0.740   1.894   0.932  0.0689 -0.1488 -0.3618
  744TMC3    C811002   0.489   2.279   1.092 -0.2616  0.1430 -0.1589
  744TMC3    O111003   0.729   1.935   0.818 -0.6071 -0.2287 -0.1065
  744TMC3    O211004   0.475   2.345   1.192 -0.7176 -0.6228  0.3990
  745TMC3    C111005   2.979   1.261  13.823 -0.3178  0.7680 -0.3673
  745TMC3    C211006   3.032   1.217  13.943 -0.2139  0.0262 -0.4749
  745TMC3    C311007   2.998   1.086  13.975  0.1009  0.2872 -0.0888
  745TMC3    C411008   2.920   1.176  13.732  0.0862 -0.2770  0.0055
  745TMC3    C511009   2.901   1.046  13.767  1.3416  0.4187  0.7640
  745TMC3    C611010   2.930   0.999  13.891 -0.4914 -0.0149 -0.0152
  745TMC3     C11011   2.985   1.407  13.805 -0.6274 -0.2380  0.0466
  745TMC3     O11012   3.024   1.460  13.909  0.0640  0.0841 -0.1217
  745TMC3     H11013   3.085   1.280  14.013 -0.6068  0.5610 -0.6565
  745TMC3    H111014   2.891   1.208  13.633 -1.8373  3.0952  1.6864
  745TMC3    H211015   2.912   0.896  13.920  0.9383 -0.1511  0.3994
  745TMC3    C711016   2.891   0.960  13.646 -0.6869  0.4317  0.7166
  745TMC3    C811017   2.996   1.045  14.116 -0.1879 -0.7388 -0.5242
  745TMC3    O111018   2.892   1.015  13.539 -0.5382 -0.0955  1.0954
  745TMC3    O211019   2.904   0.974  14.151  0.3660 -0.6670 -0.0445
  746TMC3    C111020   0.646   2.678  10.597 -0.4805  0.0623  0.1250
  746TMC3    C211021   0.734   2.642  10.501  0.0542  0.5392  0.3608
  746TMC3    C311022   0.731   2.511  10.464 -0.1132 -1.0070  0.1279
  746TMC3    C411023   0.551   2.595  10.649 -0.8559  0.1550 -0.2254
  746TMC3    C511024   0.547   2.467  10.600  0.1851  0.1168 -0.0469
  746TMC3    C611025   0.634   2.423  10.504 -0.3819 -0.4864 -0.5087
  746TMC3     C11026   0.671   2.810  10.665 -1.0657 -0.1336 -0.4374
  746TMC3     O11027   0.741   2.883  10.594 -0.2577 -0.2755 -0.2277
  746TMC3     H11028   0.813   2.712  10.474 -1.0704  0.2872 -3.5015
  746TMC3    H111029   0.476   2.631  10.718 -1.7727  1.0363 -1.6765
  746TMC3    H211030   0.635   2.320  10.469 -1.5167 -0.6421 -0.0644
  746TMC3    C711031   0.430   2.397  10.629  0.0215  0.1647 -0.5590
  746TMC3    C811032   0.841   2.457  10.394  0.5680 -0.5090 -0.4307
  746TMC3    O111033   0.397   2.312  10.546 -0.5487 -0.3771  0.6025
  746TMC3    O211034   0.851   2.334  10.388  0.3644 -0.1937 -0.0857
  747TMC3    C111035   2.787   2.378  10.930 -0.8210 -0.2912  0.1792
  747TMC3    C211036   2.667   2.323  10.981 -0.0775  0.1254 -0.1854
  747TMC3    C311037   2.648   2.317  11.118  0.4711 -0.2232 -0.4056
  747TMC3    C411038   2.882   2.419  11.015 -0.0161 -0.3191 -0.2496
  747TMC3    C511039   2.863   2.392  11.147  0.1533 -0.8259  0.6614
  747TMC3    C611040   2.750   2.336  11.203  0.0983  0.1226  0.0066
  747TMC3     C11041   2.780   2.458  10.811 -0.3679 -0.5281 -0.5558
  747TMC3     O11042   2.836   2.568  10.819  0.1465 -0.0117 -0.0258
  747TMC3     H11043   2.584   2.302  10.914 -1.1645  0.5347  1.0089
  747TMC3    H111044   2.969   2.466  10.971  0.3272 -0.3853  0.3606
  747TMC3    H211045   2.750   2.317  11.310 -1.6531  4.2398  0.7716
  747TMC3    C711046   2.969   2.424  11.238  0.4645 -0.0767 -0.1473
  747TMC3    C811047   2.521   2.279  11.171  0.3593  0.1204 -0.1849
  747TMC3    O111048   2.947   2.454  11.351 -0.4030  0.1346 -0.2385
  747TMC3    O211049   2.450   2.217  11.092 -0.1606  0.5440 -0.3165
  748MPD2     C11050   0.027   2.749   1.562  1.1379  0.7631 -0.3101
  748MPD2    C111051   0.163   2.768   1.548  0.3404 -0.6269  0.1748
  748MPD2    C211052   0.210   2.893   1.523 -0.7647 -0.1768 -0.2802
  748MPD2    C311053   0.118   3.000   1.508 -0.1751  0.2503  0.1043
  748MPD2    C411054   4.715   2.980   1.521  0.0778  0.4017 -0.0619
  748MPD2    C511055   4.668   2.859   1.552 -0.2695 -0.6293  0.3191
  748MPD2     H11056   0.317   2.910   1.509 -0.6243 -1.1392 -0.3812
  748MPD2    H111057   4.642   3.057   1.501  0.3863  1.3940  2.6277
  748MPD2    H211058   4.713   2.652   1.591 -0.0456  0.8164 -1.7754
  748MPD2    H311059   4.561   2.849   1.565 -0.6380  1.2269 -1.1883
  748MPD2     N11060   0.171   3.135   1.480 -0.3527 -0.1138 -0.0422
  748MPD2    H511061   0.271   3.146   1.469 -0.4147  0.4628 -0.0075
  748MPD2    N111062   0.239   2.654   1.577  0.5102  0.2518  0.2296
  748MPD2    H711063   0.178   2.575   1.600 -0.3664  0.6644 -0.6718
  749TMC3    C111064   0.187   3.362   1.453  0.4490 -0.2558 -0.3042
  749TMC3    C211065   0.296   3.369   1.534  0.2701 -0.9993 -0.5047
  749TMC3    C311066   0.402   3.446   1.492 -0.1115 -0.2277  0.5295
  749TMC3    C411067   0.171   3.439   1.340 -0.1339  0.6910  0.5155
  749TMC3    C511068   0.275   3.508   1.297  0.0541 -0.3394 -0.1930
  749TMC3    C611069   0.392   3.515   1.373  0.0686  0.0436  0.1206
  749TMC3     C11070   0.097   3.255   1.471  0.0288 -0.4795 -0.4789
  749TMC3     O11071   4.704   3.276   1.461 -0.0285 -0.0644  0.2800
  749TMC3     H11072   0.304   3.312   1.626 -2.0373  1.8691  1.4596
  749TMC3    H111073   0.076   3.437   1.288  0.5910 -0.9245 -0.7501
  749TMC3    H211074   0.473   3.583   1.350  0.0224 -0.2322 -0.8454
  749TMC3    C711075   0.276   3.574   1.169 -0.6060 -0.9347  0.2421
  749TMC3    C811076   0.532   3.416   1.540  0.1242 -0.5559  0.6616
  749TMC3    O111077   0.389   3.597   1.134 -0.1009  0.2003  0.3630
  749TMC3    O211078   0.544   3.443   1.657 -0.1011  0.3641  0.4351
  750MPD2     C11079   1.103   4.390  11.150 -0.2562  0.0432  0.3137
  750MPD2    C111080   0.975   4.352  11.180  0.4000 -0.5814 -0.4476
  750MPD2    C211081   0.949   4.219  11.169  0.1135  0.0722  0.0183
  750MPD2    C311082   1.030   4.122  11.105 -0.1981  0.2602  0.2511
  750MPD2    C411083   1.152   4.170  11.070 -0.3429 -0.0742  0.0584
  750MPD2    C511084   1.189   4.301  11.099  0.0802  0.1736 -0.3310
  750MPD2     H11085   0.857   4.182  11.212  1.9719 -1.9447  2.2927
  750MPD2    H111086   1.231   4.111  11.025  0.4255  0.1079  1.1828
  750MPD2    H211087   1.130   4.494  11.158 -1.7118  0.2892  1.9542
  750MPD2    H311088   1.287   4.339  11.076  1.5826 -3.0672  0.7393
  750MPD2     N11089   1.000   3.987  11.101  0.0363 -0.1607  0.2437
  750MPD2    H511090   1.069   3.921  11.068 -0.4335 -0.2400 -0.5826
  750MPD2    N111091   0.896   4.457  11.230 -0.2522 -0.2617  0.2783
  750MPD2    H711092   0.939   4.547  11.249 -0.5705  0.3821 -2.0790
  751TMC3    C111093   0.870   3.786  11.121 -0.0173  0.1671  0.6658
  751TMC3    C211094   0.740   3.742  11.123 -0.0124 -0.6354  0.4385
  751TMC3    C311095   0.723   3.613  11.155  0.7971 -0.0630  0.0362
  751TMC3    C411096   0.978   3.720  11.169  0.4544 -0.3551  0.1165
  751TMC3    C511097   0.952   3.598  11.209 -0.0978 -0.2797  0.0819
  751TMC3    C611098   0.830   3.543  11.190 -0.0977 -0.4788 -0.2918
  751TMC3     C11099   0.874   3.941  11.124 -0.3796 -0.1091  0.3805
  751TMC3     O11100   0.765   4.003  11.107  0.3191 -0.1498 -0.1306
  751TMC3     H11101   0.661   3.798  11.073 -0.0558 -0.7237  0.4094
  751TMC3    H111102   1.076   3.766  11.169  0.7633 -1.0103 -0.1748
  751TMC3    H211103   0.818   3.437  11.212  0.7891 -0.3177  0.9958
  751TMC3    C711104   1.057   3.514  11.257 -0.2184  0.4462  0.0567
  751TMC3    C811105   0.651   3.551  11.047  0.2067  0.0773 -0.5588
  751TMC3    O111106   1.171   3.547  11.221  0.5891  0.3046 -0.3720
  751TMC3    O211107   0.718   3.514  10.954  0.0298 -0.5025 -0.0263
  752TMC3    C111108   4.298   4.343  17.041  0.3447  0.1229  0.7478
  752TMC3    C211109   4.163   4.348  17.034 -0.0639 -0.0970  0.0498
  752TMC3    C311110   4.111   4.358  17.163 -0.5910  0.0111  0.4367
  752TMC3    C411111   4.374   4.341  17.161 -0.2378 -0.2106  0.5983
  752TMC3    C511112   4.302   4.339  17.283 -0.9957 -0.3482 -0.1839
  752TMC3    C611113   4.168   4.335  17.279 -0.3777  0.0840 -0.3008
  752TMC3     C11114   4.378   4.365  16.918  0.5151  0.0649 -0.7678
  752TMC3     O11115   4.498   4.390  16.934 -0.2165  0.5294  0.0975
  752TMC3     H11116   4.110   4.370  16.942  1.1591 -1.5396 -1.0134
  752TMC3    H111117   4.480   4.362  17.163  0.4875 -3.8012 -2.3898
  752TMC3    H211118   4.102   4.327  17.365 -1.4063  4.3646 -0.7041
  752TMC3    C711119   4.367   4.310  17.405 -0.2191  0.4838 -0.0615
  752TMC3    C811120   4.003   4.446  17.166  0.3887 -0.2987  0.1834
  752TMC3    O111121   4.291   4.316  17.500 -0.1492  0.3588  0.0163
  752TMC3    O211122   3.938   4.474  17.067  0.0435  0.4699  0.3619
  753TMC3    C111123   1.598   1.014  13.469  0.3065 -0.7593  0.6275
  753TMC3    C211124   1.719   1.068  13.495  0.5928  0.3258  0.0265
  753TMC3    C311125   1.768   1.039  13.617 -0.5897 -0.2641  0.3398
  753TMC3    C411126   1.522   0.946  13.562  0.0722 -0.3008  0.7697
  753TMC3    C511127   1.578   0.927  13.689  0.5637 -0.1091 -0.4190
  753TMC3    C611128   1.708   0.960  13.712  0.1063 -0.9727 -0.2611
  753TMC3     C11129   1.540   1.024  13.339  0.0300  0.1796  0.0744
  753TMC3     O11130   1.475   0.922  13.312 -0.2226 -0.4419 -0.7886
  753TMC3     H11131   1.776   1.101  13.409 -0.5830 -0.1265 -0.9155
  753TMC3    H111132   1.423   0.914  13.532  2.1439 -3.7663 -2.4116
  753TMC3    H211133   1.749   0.925  13.805  1.9923 -0.0930 -0.7684
  753TMC3    C711134   1.496   0.862  13.798 -0.6240  0.2473  0.9545
  753TMC3    C811135   1.902   1.084  13.659 -0.9614  0.0313 -0.1776
  753TMC3    O111136   1.563   0.812  13.886 -0.0617  0.2037  0.2531
  753TMC3    O211137   1.960   1.154  13.573  0.1148 -0.2484 -0.2873
  754MPD2     C11138   4.573   3.675  12.931 -0.6708  0.5413 -0.5125
  754MPD2    C111139   4.548   3.808  12.932  0.6948  0.2160 -0.2612
  754MPD2    C211140   4.428   3.856  12.880 -0.4576  0.4448  0.1002
  754MPD2    C311141   4.330   3.764  12.839  0.3264  0.1934 -0.1980
  754MPD2    C411142   4.359   3.629  12.846  0.8320 -0.1407  0.0718
  754MPD2    C511143   4.478   3.583  12.899  0.1884  0.8329  0.6205
  754MPD2     H11144   4.413   3.964  12.886  0.3133  0.7419 -3.2983
  754MPD2    H111145   4.295   3.547  12.815  1.3151 -0.7643  0.7200
  754MPD2    H211146   4.664   3.641  12.978 -0.4685  1.6908 -0.0638
  754MPD2    H311147   4.500   3.477  12.909 -1.5098  0.5039  0.8705
  754MPD2     N11148   4.200   3.805  12.799  0.1851 -0.2056 -0.0097
  754MPD2    H511149   4.131   3.731  12.786  0.0690  0.0976 -1.1005
  754MPD2    N111150   4.651   3.889  12.992  0.9296 -0.5718  0.4324
  754MPD2    H711151   4.725   3.830  13.027 -0.1964 -0.4918  2.9671
  755MPD2     C11152   3.361   4.273  13.284 -0.7248 -0.0023 -0.4088
  755MPD2    C111153   3.494   4.326  13.272  0.2356  0.8461 -0.1632
  755MPD2    C211154   3.572   4.271  13.175  0.4517 -0.0086 -0.1867
  755MPD2    C311155   3.533   4.169  13.087 -0.4473  1.1424  0.3904
  755MPD2    C411156   3.394   4.135  13.092  0.2759 -0.1146  0.1337
  755MPD2    C511157   3.312   4.174  13.197 -0.1873 -0.6597  0.7044
  755MPD2     H11158   3.679   4.288  13.182  0.2583  0.8753  0.6372
  755MPD2    H111159   3.356   4.069  13.015  0.9638  2.1173 -2.1442
  755MPD2    H211160   3.298   4.303  13.368  1.3729 -2.4366  2.0508
  755MPD2    H311161   3.210   4.139  13.208  0.3660 -2.1237  1.1556
  755MPD2     N11162   3.612   4.088  13.002 -0.3836 -0.8307  0.1144
  755MPD2    H511163   3.575   3.997  12.976  1.5461 -1.4798 -0.4101
  755MPD2    N111164   3.550   4.415  13.372  0.4385 -0.4108 -0.4115
  755MPD2    H711165   3.646   4.443  13.354  1.1983 -2.1356  0.9246
  756MPD2     C11166   0.609   0.116   9.655  0.7512  0.2296 -0.7395
  756MPD2    C111167   0.598   4.705   9.687  0.5922 -0.0296 -0.5095
  756MPD2    C211168   0.553   4.621   9.594  0.6485 -0.0761  0.1854
  756MPD2    C311169   0.528   4.662   9.465 -0.6610 -0.2224  0.0307
  756MPD2    C411170   0.540   0.069   9.431 -0.7604  0.5648 -0.4217
  756MPD2    C511171   0.575   0.160   9.530  0.2617  0.6857 -0.0434
  756MPD2     H11172   0.566   4.517   9.621 -1.0472 -0.2438  0.3852
  756MPD2    H111173   0.531   0.106   9.329 -1.5449 -1.2177 -0.9967
  756MPD2    H211174   0.628   0.192   9.730  1.1106 -0.4129 -0.1781
  756MPD2    H311175   0.581   0.265   9.504  1.7114  0.8244  0.8664
  756MPD2     N11176   0.494   4.567   9.370 -0.5161  0.4005  0.4592
  756MPD2    H511177   0.476   4.475   9.409 -0.6359 -0.2554 -1.1362
  756MPD2    N111178   0.630   4.660   9.819 -0.2211  0.6025  0.5593
  756MPD2    H711179   0.641   4.560   9.836  1.0918  0.6485  0.0356
  757MPD2     C11180   4.360   4.178   8.925  0.4971  0.1435 -0.6387
  757MPD2    C111181   4.425   4.100   9.011  0.1600 -0.2717 -0.6898
  757MPD2    C211182   4.558   4.126   9.043  0.2281 -0.3578 -0.1989
  757MPD2    C311183   4.626   4.228   8.991  0.1613 -0.3327  0.0132
  757MPD2    C411184   4.557   4.305   8.895 -0.1903 -0.1491  0.6146
  757MPD2    C511185   4.426   4.283   8.870  0.5302  0.2051 -0.0579
  757MPD2     H11186   4.614   4.086   9.126  0.6733  1.1510  0.2294
  757MPD2    H111187   4.607   4.393   8.856 -0.5896  0.2620  1.0155
  757MPD2    H211188   4.258   4.158   8.896  0.5026 -4.3399  2.4153
  757MPD2    H311189   4.371   4.348   8.803  0.1944 -0.5186 -0.4835
  757MPD2     N11190   0.039   4.248   9.036 -0.2718  1.0911  0.7467
  757MPD2    H511191   0.063   4.187   9.114 -1.3067 -1.1293 -0.6505
  757MPD2    N111192   4.354   3.994   9.063 -0.2748  0.0116 -0.0048
  757MPD2    H711193   4.253   3.986   9.050  0.1288 -2.2625 -1.6850
  758MPD2     C11194   0.573   2.820  15.892  0.4259  0.0885 -1.0688
  758MPD2    C111195   0.651   2.825  16.005  0.0102 -0.4918  0.0361
  758MPD2    C211196   0.601   2.913  16.105 -0.0046  0.0675  0.7743
  758MPD2    C311197   0.484   2.986  16.086  0.4297  0.0005  0.4208
  758MPD2    C411198   0.413   2.967  15.967 -0.4720  0.7420 -0.2580
  758MPD2    C511199   0.456   2.873  15.877 -0.3691  0.7963  0.0898
  758MPD2     H11200   0.676   2.945  16.177 -0.0407  0.7869  0.4971
  758MPD2    H111201   0.325   3.024  15.937  0.4999  2.2897 -0.1634
  758MPD2    H211202   0.605   2.778  15.797  2.5671  1.6880 -1.0258
  758MPD2    H311203   0.417   2.865  15.776 -3.0467 -2.6454  1.3926
  758MPD2     N11204   0.446   3.090  16.175  0.4718 -0.0119 -0.7128
  758MPD2    H511205   0.370   3.151  16.145  0.8066  1.1582  0.7987
  758MPD2    N111206   0.784   2.783  15.994  0.3275  0.2061 -0.4880
  758MPD2    H711207   0.817   2.742  15.907  1.0414 -2.8710  1.2484
  759MPD2     C11208   3.468   2.680   9.294 -0.6556  0.0893 -0.8903
  759MPD2    C111209   3.527   2.584   9.381  0.0657 -0.5203 -0.8706
  759MPD2    C211210   3.617   2.504   9.315  0.1071 -0.4976 -0.1008
  759MPD2    C311211   3.647   2.518   9.183 -0.0162  0.4069 -0.7313
  759MPD2    C411212   3.602   2.620   9.110 -0.4005  0.7156  0.0757
  759MPD2    C511213   3.507   2.701   9.169  0.3167 -0.4795  0.6543
  759MPD2     H11214   3.663   2.420   9.366  1.0918  0.9945  1.4667
  759MPD2    H111215   3.620   2.646   9.006  2.5167 -0.0141  0.4144
  759MPD2    H211216   3.386   2.744   9.327  0.7096 -0.2160  3.1638
  759MPD2    H311217   3.466   2.777   9.103  0.3081  1.3736  2.7764
  759MPD2     N11218   3.744   2.429   9.123  0.3187  0.7897  0.6962
  759MPD2    H511219   3.784   2.362   9.188  2.0371  0.1586 -1.0146
  759MPD2    N111220   3.484   2.557   9.512 -0.3072 -0.1784 -0.3145
  759MPD2    H711221   3.539   2.483   9.553  0.9266  0.8430 -0.1409
  760MPD2     C11222   3.699   4.308  12.166 -0.3584  0.1376  0.1998
  760MPD2    C111223   3.776   4.326  12.050  0.2110  0.0265  0.2950
  760MPD2    C211224   3.815   4.223  11.971  0.0629  0.1693  0.3095
  760MPD2    C311225   3.785   4.095  12.025  0.5812  0.1821 -0.9528
  760MPD2    C411226   3.701   4.083  12.137  0.1063 -0.2317 -0.1101
  760MPD2    C511227   3.648   4.187  12.198 -0.2272 -0.7069  0.0419
  760MPD2     H11228   3.879   4.245  11.887  0.4108 -1.9205  0.0459
  760MPD2    H111229   3.678   3.983  12.171 -4.4180  0.0450 -2.3222
  760MPD2    H211230   3.656   4.394  12.217  1.4593  1.3034 -0.2239
  760MPD2    H311231   3.580   4.175  12.281  2.2214 -1.0078  1.9979
  760MPD2     N11232   3.825   3.977  11.958  0.3238 -0.0851  0.0621
  760MPD2    H511233   3.783   3.887  11.981 -1.6020  0.3262 -1.7902
  760MPD2    N111234   3.821   4.451  12.007  0.7512  0.1371 -0.4158
  760MPD2    H711235   3.863   4.456  11.914 -0.5134 -0.9985 -1.0339
  761MPD2     C11236   0.200   3.415  10.826  0.6500  0.4966  0.0989
  761MPD2    C111237   0.331   3.411  10.782 -0.2485  0.9041 -0.3093
  761MPD2    C211238   0.436   3.456  10.862 -0.1279  0.2908 -0.3564
  761MPD2    C311239   0.415   3.520  10.984 -0.6606  0.7560 -0.1632
  761MPD2    C411240   0.279   3.542  11.016  0.4369  0.0474  0.3752
  761MPD2    C511241   0.178   3.485  10.943 -0.5127 -0.7681 -0.2614
  761MPD2     H11242   0.535   3.425  10.834  0.3404  1.6074 -0.1868
  761MPD2    H111243   0.249   3.591  11.108  1.8599  0.4727  0.6079
  761MPD2    H211244   0.122   3.362  10.773  2.3776 -0.4648 -1.4696
  761MPD2    H311245   0.076   3.491  10.977 -0.0518  1.3432  0.7474
  761MPD2     N11246   0.515   3.569  11.066  0.1864 -0.9535  0.4716
  761MPD2    H511247   0.485   3.608  11.155  0.6389  1.6985 -0.5546
  761MPD2    N111248   0.342   3.324  10.669  0.4609 -0.3149 -1.0784
  761MPD2    H711249   0.256   3.286  10.631 -1.3314  2.9930 -0.4035
  762MPD2     C11250   0.736   3.419   9.991 -0.5745  0.4134 -0.4031
  762MPD2    C111251   0.758   3.299  10.056  0.0562 -0.1264  0.6576
  762MPD2    C211252   0.887   3.247  10.041 -0.0131 -0.4353 -0.1245
  762MPD2    C311253   0.981   3.301   9.961 -0.6689 -0.4743 -0.1063
  762MPD2    C411254   0.962   3.425   9.910  1.0406  0.4949 -0.0404
  762MPD2    C511255   0.843   3.480   9.925 -0.4340  0.4880 -0.4962
  762MPD2     H11256   0.912   3.153  10.090  0.2439  0.2046  0.9565
  762MPD2    H111257   1.039   3.461   9.842  2.3104  1.3073  1.8096
  762MPD2    H211258   0.643   3.471  10.005  0.4657  2.6732 -1.9725
  762MPD2    H311259   0.831   3.579   9.883 -0.8940  0.2822 -0.8445
  762MPD2     N11260   1.105   3.227   9.941 -0.1843  0.0120 -0.2663
  762MPD2    H511261   1.112   3.131   9.974  0.3307 -0.8369 -2.8817
  762MPD2    N111262   0.657   3.256  10.144  0.1716  0.1257  0.3182
  762MPD2    H711263   0.578   3.318  10.157 -1.4536 -1.6041 -1.3681
  763MPD2     C11264   1.748   4.133  16.357 -0.1302 -0.6641 -0.5240
  763MPD2    C111265   1.853   4.161  16.275  0.1420  0.2996 -0.1951
  763MPD2    C211266   1.951   4.245  16.322  0.3108  0.8168 -0.3178
  763MPD2    C311267   1.946   4.289  16.454 -0.5513  0.4669  0.0321
  763MPD2    C411268   1.846   4.245  16.535  0.1287  0.3042 -0.3023
  763MPD2    C511269   1.737   4.173  16.480 -0.0895  0.0462  0.5437
  763MPD2     H11270   2.039   4.251  16.258 -1.6288  0.5718 -3.0183
  763MPD2    H111271   1.840   4.274  16.639  2.7413 -1.8233  0.4476
  763MPD2    H211272   1.670   4.062  16.328 -1.4176  1.5873 -2.5104
  763MPD2    H311273   1.655   4.143  16.543  1.0944 -3.0495  0.6163
  763MPD2     N11274   2.050   4.375  16.502 -0.0798 -0.1192  0.7801
  763MPD2    H511275   2.138   4.371  16.452 -0.4523  1.5899 -0.0308
  763MPD2    N111276   1.862   4.105  16.139  0.6759  0.8532 -0.5980
  763MPD2    H711277   1.946   4.129  16.087 -0.7302  0.7026 -2.9091
  764MPD2     C11278   0.264   0.839   0.095  1.1701  0.2046 -0.1812
  764MPD2    C111279   0.301   0.775  17.684  0.8212  0.1826 -0.4380
  764MPD2    C211280   0.326   0.632  17.695  1.1857  0.3004  0.1189
  764MPD2    C311281   0.311   0.564   0.105  0.9614  0.0383 -0.5695
  764MPD2    C411282   0.277   0.637   0.218  0.0979  0.5140 -0.2220
  764MPD2    C511283   0.258   0.773   0.215 -0.4946  0.8097  0.0344
  764MPD2     H11284   0.347   0.576  17.604 -1.4839  0.9176 -0.8536
  764MPD2    H111285   0.265   0.586   0.313  0.5706 -0.3579 -0.6292
  764MPD2    H211286   0.222   0.939   0.089  0.2094 -0.1677  0.4387
  764MPD2    H311287   0.224   0.821   0.306 -2.3267 -0.2254 -0.0836
  764MPD2     N11288   0.318   0.427   0.101 -0.5406  0.2176 -0.7250
  764MPD2    H511289   0.313   0.389   0.007 -1.0946 -0.1321 -0.5548
  764MPD2    N111290   0.313   0.836  17.559 -0.1892 -0.5340 -0.0883
  764MPD2    H711291   0.344   0.783  17.479  2.1000  0.3357  0.2254
  765MPD2     C11292   4.598   2.807  16.035 -0.4696 -0.3315 -0.1724
  765MPD2    C111293   4.631   2.923  15.969  0.4817 -0.4605  0.1618
  765MPD2    C211294   0.003   2.929  15.872 -0.4015 -0.2854  0.5074
  765MPD2    C311295   0.071   2.815  15.850  0.1480  0.3623  0.0608
  765MPD2    C411296   0.055   2.700  15.929  0.2375 -0.0815  0.4578
  765MPD2    C511297   4.675   2.697  16.016 -0.1370 -0.9295  0.2057
  765MPD2     H11298   0.019   3.016  15.809 -2.1278 -0.1890  0.1833
  765MPD2    H111299   0.108   2.606  15.915  2.2049  1.3251 -1.4724
  765MPD2    H211300   4.523   2.797  16.113  0.1485 -0.8916  0.3543
  765MPD2    H311301   4.663   2.604  16.069 -1.5677 -2.0144 -2.0110
  765MPD2     N11302   0.150   2.816  15.736  0.6888  0.0347 -0.7606
  765MPD2    H511303   0.149   2.899  15.677 -2.3931  1.7236  1.6790
  765MPD2    N111304   4.557   3.040  16.005  0.2544  0.3933  0.4975
  765MPD2    H711305   4.466   3.037  16.050 -0.3807  1.2431 -0.7466
  766MPD2     C11306   4.095   2.959  15.651  0.7399 -0.2977  0.3989
  766MPD2    C111307   4.148   3.086  15.647  0.9121 -0.0204 -0.4504
  766MPD2    C211308   4.200   3.138  15.527 -0.4531  0.2845 -0.3448
  766MPD2    C311309   4.212   3.065  15.410 -0.1016  0.0671  0.9593
  766MPD2    C411310   4.148   2.946  15.409 -0.4516 -0.0944  0.4453
  766MPD2    C511311   4.093   2.895  15.525  0.4617  0.0446  0.3035
  766MPD2     H11312   4.241   3.238  15.526 -0.1718  0.1480 -2.0219
  766MPD2    H111313   4.145   2.888  15.317 -0.5105 -2.3701  1.8838
  766MPD2    H211314   4.034   2.912  15.728  0.1057  0.9819  0.6722
  766MPD2    H311315   4.039   2.801  15.526  1.8015 -0.7247  0.3430
  766MPD2     N11316   4.282   3.110  15.294  0.3941 -0.2636 -0.1643
  766MPD2    H511317   4.258   3.072  15.203 -0.8814  0.2480 -0.0470
  766MPD2    N111318   4.151   3.168  15.772  0.0482 -0.0316 -0.3157
  766MPD2    H711319   4.122   3.123  15.858 -0.1970 -1.0900 -0.9426
  767MPD2     C11320   3.957   3.331  15.378 -0.2231 -0.5607  0.7489
  767MPD2    C111321   4.047   3.393  15.291  0.3072 -0.0393 -0.6856
  767MPD2    C211322   4.024   3.383  15.158 -0.1078  0.0445 -0.0035
  767MPD2    C311323   3.921   3.309  15.104  0.0897  0.4115 -0.2899
  767MPD2    C411324   3.817   3.257  15.187 -0.1325  0.2302 -0.9138
  767MPD2    C511325   3.846   3.266  15.324 -0.3849 -0.7014  0.6502
  767MPD2     H11326   4.088   3.434  15.087  1.4227 -1.0649  0.5646
  767MPD2    H111327   3.725   3.218  15.144 -0.6555  0.5082 -0.0510
  767MPD2    H211328   3.958   3.349  15.485 -1.9460 -0.0100  0.6811
  767MPD2    H311329   3.777   3.225  15.397  2.5454 -3.0817  2.0822
  767MPD2     N11330   3.906   3.308  14.961 -0.2757  0.4600  0.0857
  767MPD2    H511331   3.980   3.340  14.900 -0.6558 -2.2439 -1.8037
  767MPD2    N111332   4.155   3.460  15.352 -0.1519 -0.1485 -0.1832
  767MPD2    H711333   4.167   3.444  15.452  1.6334  3.1529  0.1105
  768MPD2     C11334   4.299   1.619  10.885 -1.3729 -0.1766  0.2708
  768MPD2    C111335   4.413   1.679  10.837  0.0019  0.9340 -0.2300
  768MPD2    C211336   4.545   1.641  10.885 -0.1300  0.1146 -0.0754
  768MPD2    C311337   4.563   1.562  10.997 -0.4770 -0.2776 -0.1820
  768MPD2    C411338   4.452   1.493  11.039  1.3138  1.1735  1.1551
  768MPD2    C511339   4.322   1.524  10.990  0.7817  0.3676  0.0093
  768MPD2     H11340   4.629   1.693  10.843  1.0680 -1.0411  0.8741
  768MPD2    H111341   4.458   1.428  11.126 -0.5187  3.4865  3.0095
  768MPD2    H211342   4.197   1.648  10.865 -1.3375  0.5403  1.1256
  768MPD2    H311343   4.236   1.479  11.038  1.4979 -1.7331 -0.6916
  768MPD2     N11344   4.682   1.552  11.074 -0.1794  0.1611 -0.8338
  768MPD2    H511345   4.677   1.498  11.160 -1.3618  0.0161 -0.9923
  768MPD2    N111346   4.423   1.778  10.731 -0.0673  0.5108 -0.5055
  768MPD2    H711347   4.513   1.808  10.694  0.0523  0.1252 -0.5283
  769MPD2     C11348   0.658   0.430  15.152 -0.0116  0.0339 -0.5358
  769MPD2    C111349   0.659   0.321  15.231 -0.5801 -0.2351  0.0519
  769MPD2    C211350   0.758   0.305  15.329  0.0570  0.0298 -0.6508
  769MPD2    C311351   0.860   0.397  15.353 -0.0708  0.4661 -0.2560
  769MPD2    C411352   0.858   0.505  15.262 -0.5674 -0.2374 -0.4316
  769MPD2    C511353   0.754   0.524  15.171  0.1220 -0.1180  0.0449
  769MPD2     H11354   0.754   0.210  15.382  0.3877  1.3557  1.7543
  769MPD2    H111355   0.928   0.587  15.271 -1.6709  0.5795  0.6392
  769MPD2    H211356   0.580   0.439  15.078 -1.1540  2.3476  0.9680
  769MPD2    H311357   0.741   0.618  15.119  2.2289  0.4352  0.5147
  769MPD2     N11358   0.954   0.374  15.457 -0.0237 -0.1004  0.5758
  769MPD2    H511359   0.953   0.286  15.507  0.2449 -0.9958 -1.0144
  769MPD2    N111360   0.572   0.215  15.195  0.3071 -0.0002  0.0091
  769MPD2    H711361   0.529   0.211  15.103 -3.5367 -1.9923  1.9012
  770MPD2     C11362   0.573   3.934  15.579 -0.4092  0.2059  0.3402
  770MPD2    C111363   0.608   3.939  15.448 -0.1680  0.1317  0.3784
  770MPD2    C211364   0.589   4.058  15.373 -0.5575 -0.7099  0.0629
  770MPD2    C311365   0.518   4.164  15.428  0.0211 -0.2429 -0.1826
  770MPD2    C411366   0.467   4.152  15.562 -0.3647 -0.8567  0.0500
  770MPD2    C511367   0.502   4.039  15.634  0.7201 -0.1974 -0.5239
  770MPD2     H11368   0.621   4.073  15.271 -2.4935  1.4194 -0.2327
  770MPD2    H111369   0.419   4.235  15.611  0.3662 -0.8346  0.7376
  770MPD2    H211370   0.603   3.854  15.645  1.1990  0.8153  0.3417
  770MPD2    H311371   0.494   4.039  15.742  0.6924 -0.7475 -0.5259
  770MPD2     N11372   0.491   4.276  15.347  0.2144  0.1824 -0.0784
  770MPD2    H511373   0.515   4.269  15.248  0.2018 -0.0870 -0.0624
  770MPD2    N111374   0.659   3.816  15.389  0.2686 -0.5665  0.6204
  770MPD2    H711375   0.665   3.733  15.447 -1.7700  1.2468  3.3939
  771MPD2     C11376   1.593   2.553  13.555 -0.4672  0.1997  0.7823
  771MPD2    C111377   1.538   2.683  13.556 -0.3197  0.4559 -0.1148
  771MPD2    C211378   1.464   2.724  13.445 -1.0532 -0.4159 -0.2917
  771MPD2    C311379   1.435   2.640  13.340 -0.6159  0.2154 -0.1814
  771MPD2    C411380   1.500   2.515  13.337 -0.2679 -0.3299  0.3974
  771MPD2    C511381   1.574   2.472  13.445 -0.1235 -0.1993 -0.3092
  771MPD2     H11382   1.411   2.819  13.450  0.4188  0.4894 -1.7647
  771MPD2    H111383   1.497   2.452  13.248 -3.1145  3.3243 -2.1144
  771MPD2    H211384   1.641   2.511  13.643  0.1613  0.2515  0.4645
  771MPD2    H311385   1.623   2.376  13.449 -0.3570 -0.2317  1.9569
  771MPD2     N11386   1.337   2.685  13.251 -0.4564  0.8085 -0.1499
  771MPD2    H511387   1.289   2.771  13.276  0.6674  1.3293  0.1904
  771MPD2    N111388   1.541   2.772  13.669  0.1411 -0.2283  0.2610
  771MPD2    H711389   1.487   2.857  13.662  0.3827 -0.0694  0.3225
  772MPD2     C11390   1.042   3.150  13.991  0.1064  0.0546  0.5098
  772MPD2    C111391   1.092   3.030  13.963 -0.3183 -0.3925 -0.2839
  772MPD2    C211392   1.006   2.936  13.909 -0.5257  0.0983 -0.7530
  772MPD2    C311393   0.869   2.954  13.909  0.0314  0.2978 -0.6224
  772MPD2    C411394   0.821   3.079  13.944 -0.3847  0.0573 -0.6748
  772MPD2    C511395   0.905   3.176  13.982  0.4811 -0.3680 -0.3475
  772MPD2     H11396   1.047   2.842  13.873 -1.1494 -0.4661  0.0261
  772MPD2    H111397   0.716   3.102  13.933 -0.4235 -0.1600 -0.7487
  772MPD2    H211398   1.107   3.234  14.012  0.1113  0.2929 -0.4405
  772MPD2    H311399   0.869   3.276  14.003  3.7189  0.4325  1.5094
  772MPD2     N11400   0.773   2.861  13.870 -0.4601  0.0250 -0.6465
  772MPD2    H511401   0.675   2.888  13.868 -0.9235 -1.6488 -0.4688
  772MPD2    N111402   1.224   2.996  13.963 -0.1770 -0.4879 -0.4655
  772MPD2    H711403   1.252   2.900  13.946 -0.0938 -0.8015  1.4014
  773MPD2     C11404   0.923   4.266   0.812  0.4800 -0.5914 -0.0320
  773MPD2    C111405   0.897   4.199   0.699 -0.2739  0.0351 -0.4942
  773MPD2    C211406   0.975   4.096   0.655  0.4121  0.0410  0.3421
  773MPD2    C311407   1.084   4.063   0.732  0.1760 -0.4311 -0.5939
  773MPD2    C411408   1.116   4.131   0.853 -0.3291 -0.2524 -0.6918
  773MPD2    C511409   1.027   4.234   0.886 -0.8218 -0.1808 -0.0212
  773MPD2     H11410   0.962   4.047   0.559 -0.5404 -1.5424  1.2745
  773MPD2    H111411   1.196   4.103   0.920 -1.7630  0.4792  1.3345
  773MPD2    H211412   0.849   4.337   0.847  0.2883 -1.3760  1.1565
  773MPD2    H311413   1.041   4.292   0.977  2.2175  0.1975 -0.7125
  773MPD2     N11414   1.161   3.962   0.680 -0.0945 -0.1494 -0.5521
  773MPD2    H511415   1.132   3.928   0.588  1.6028 -0.9420 -0.7863
  773MPD2    N111416   0.794   4.234   0.604 -0.2542 -0.3089 -0.1198
  773MPD2    H711417   0.789   4.171   0.525 -1.2487  0.0977 -0.3661
  774MPD2     C11418   0.319   3.554  13.620  0.4268 -0.5634  0.1195
  774MPD2    C111419   0.185   3.586  13.592  0.5948  0.0846  0.9419
  774MPD2    C211420   0.167   3.682  13.490 -0.1768 -0.4617  0.0894
  774MPD2    C311421   0.269   3.746  13.429 -0.8651  0.4631 -1.0214
  774MPD2    C411422   0.398   3.721  13.470 -0.1561  0.2557  0.4286
  774MPD2    C511423   0.421   3.621  13.559  0.1194  0.3242  0.7401
  774MPD2     H11424   0.070   3.724  13.466 -0.3051  1.1318  3.3693
  774MPD2    H111425   0.483   3.768  13.423  0.2636 -0.3665  0.5654
  774MPD2    H211426   0.337   3.471  13.687  2.0230 -0.0641  0.2981
  774MPD2    H311427   0.522   3.589  13.580 -0.0671 -0.5822  0.2433
  774MPD2     N11428   0.243   3.856  13.343  0.9028 -0.1943 -0.1507
  774MPD2    H511429   0.145   3.872  13.324  0.4362 -1.0274  1.5528
  774MPD2    N111430   0.076   3.523  13.661  0.0545  0.2937  0.0308
  774MPD2    H711431   0.098   3.432  13.700 -0.5608 -0.0266 -0.3515
  775MPD2     C11432   1.447   0.004  15.748  0.1658 -0.2586  0.6630
  775MPD2    C111433   1.445   0.114  15.826 -0.0743  0.2127  0.0255
  775MPD2    C211434   1.502   0.228  15.776  0.3905  0.3398  0.2754
  775MPD2    C311435   1.548   0.238  15.645  0.2599 -0.3269  0.0077
  775MPD2    C411436   1.532   0.126  15.561 -0.1343 -0.4032  0.5839
  775MPD2    C511437   1.486   0.010  15.618 -0.2983  0.0030 -0.4806
  775MPD2     H11438   1.505   0.316  15.839  1.7416  1.6095 -1.5660
  775MPD2    H111439   1.572   0.120  15.461  0.4094 -0.6272  0.8162
  775MPD2    H211440   1.408   4.636  15.783 -0.6799  0.0995  0.6848
  775MPD2    H311441   1.471   4.652  15.551 -0.7829 -2.2589  2.4464
  775MPD2     N11442   1.605   0.354  15.604 -0.0154 -0.4107  0.5961
  775MPD2    H511443   1.593   0.382  15.507  0.2457  1.5148  1.1214
  775MPD2    N111444   1.387   0.101  15.956  0.5261 -0.5645 -0.4302
  775MPD2    H711445   1.354   0.009  15.983 -2.2282  0.5827  0.1509
  776MPD2     C11446   0.522   0.230  11.057 -0.2352  0.4397 -0.2483
  776MPD2    C111447   0.620   0.266  11.149 -0.4882  0.0981 -0.8294
  776MPD2    C211448   0.662   0.398  11.161  0.4196 -0.4625  0.0801
  776MPD2    C311449   0.627   0.488  11.063 -0.0760  0.1228 -0.1115
  776MPD2    C411450   0.529   0.446  10.965  0.5353 -1.3610 -0.6594
  776MPD2    C511451   0.474   0.327  10.972  0.1907  0.4298  0.5065
  776MPD2     H11452   0.747   0.421  11.224  0.7782 -2.1717  0.2221
  776MPD2    H111453   0.477   0.510  10.894 -0.7531 -0.4630  1.0945
  776MPD2    H211454   0.487   0.128  11.051  2.2276 -0.5655  2.6570
  776MPD2    H311455   0.395   0.300  10.903  1.6464 -1.9719 -0.2388
  776MPD2     N11456   0.693   0.611  11.052  0.4749  0.1508  0.1572
  776MPD2    H511457   0.676   0.660  10.965 -0.0526  0.1086  0.2413
  776MPD2    N111458   0.666   0.167  11.242 -0.8181 -0.7270  0.0806
  776MPD2    H711459   0.623   0.075  11.233 -0.6174 -0.7213 -0.9448
  777MPD2     C11460   0.945   2.785   0.606  0.1866 -0.1134 -0.5391
  777MPD2    C111461   0.995   2.699   0.694  0.1623  0.2171  0.5852
  777MPD2    C211462   1.027   2.567   0.654 -0.0991  0.3350 -0.9876
  777MPD2    C311463   1.025   2.527   0.522 -0.5881 -0.0384  0.1063
  777MPD2    C411464   0.975   2.621   0.435 -0.1454  0.3406  0.0675
  777MPD2    C511465   0.932   2.738   0.475  0.0686 -0.1215  0.0742
  777MPD2     H11466   1.051   2.485   0.720  0.1420  1.0513 -0.1881
  777MPD2    H111467   0.962   2.603   0.328 -1.9766  2.9773 -0.1619
  777MPD2    H211468   0.910   2.880   0.645  0.8801 -0.0430 -0.0790
  777MPD2    H311469   0.900   2.804   0.395  1.5119 -0.3926 -0.7291
  777MPD2     N11470   1.081   2.398   0.484 -0.5963 -0.3835 -0.5379
  777MPD2    H511471   1.119   2.345   0.562  1.7829  1.4763 -0.4524
  777MPD2    N111472   1.001   2.732   0.827 -0.1297  0.5048  0.3053
  777MPD2    H711473   0.969   2.824   0.858 -1.4488 -0.1865  0.9761
  778MPD2     C11474   1.972   3.129  15.033  0.3420  0.2833 -0.6879
  778MPD2    C111475   2.041   3.029  14.961  0.5719  0.3472 -0.2929
  778MPD2    C211476   2.130   3.059  14.854  0.0272 -0.3047  0.3523
  778MPD2    C311477   2.160   3.192  14.826 -0.2603 -0.2037  0.4501
  778MPD2    C411478   2.097   3.285  14.900  0.8705  0.1956 -0.2077
  778MPD2    C511479   2.006   3.256  14.999 -0.3320 -0.3259  0.5496
  778MPD2     H11480   2.165   2.976  14.794 -1.2838 -0.9357  0.4606
  778MPD2    H111481   2.106   3.390  14.874  1.1782 -0.0045 -0.8962
  778MPD2    H211482   1.903   3.114  15.115 -0.5478 -0.1955 -1.5199
  778MPD2    H311483   1.955   3.338  15.047 -0.2397  0.3006 -0.4070
  778MPD2     N11484   2.260   3.222  14.731 -0.0846  0.5324 -0.1540
  778MPD2    H511485   2.311   3.144  14.693  0.2227  2.4033 -3.5558
  778MPD2    N111486   2.015   2.892  14.981 -0.0881  0.4725 -0.5227
  778MPD2    H711487   2.055   2.824  14.917 -2.4227 -0.9752 -0.4481
  779MPD2     C11488   1.679   1.625  14.411 -0.2463 -0.2538 -0.2707
  779MPD2    C111489   1.818   1.639  14.433  0.0655  0.1583  0.6696
  779MPD2    C211490   1.880   1.746  14.366  0.0910 -0.2236  0.1077
  779MPD2    C311491   1.810   1.835  14.282  0.0391  0.2409  0.5921
  779MPD2    C411492   1.681   1.810  14.262  0.2382 -0.1879 -0.0405
  779MPD2    C511493   1.616   1.708  14.326 -0.5549  0.4798  0.2156
  779MPD2     H11494   1.988   1.750  14.379 -0.1735 -1.3512  2.7612
  779MPD2    H111495   1.608   1.864  14.201  0.8038 -2.0501 -2.3731
  779MPD2    H211496   1.628   1.540  14.454 -0.3186  0.7986  1.7355
  779MPD2    H311497   1.513   1.686  14.304  0.0408 -1.4330 -0.6219
  779MPD2     N11498   1.871   1.952  14.224  0.0326  0.3724 -0.7233
  779MPD2    H511499   1.964   1.978  14.256 -0.4476 -0.6083  1.4412
  779MPD2    N111500   1.896   1.541  14.504 -0.2582  0.2265 -0.3208
  779MPD2    H711501   1.996   1.556  14.506 -0.0720 -1.2781  1.8060
  780MPD2     C11502   1.806   0.941   1.200  1.3384 -0.1040 -1.0363
  780MPD2    C111503   1.813   0.943   1.062  0.0945 -0.9389 -0.6082
  780MPD2    C211504   1.859   1.068   1.005 -0.2768  0.0239 -0.0760
  780MPD2    C311505   1.905   1.171   1.085  0.2857  0.7082 -0.4870
  780MPD2    C411506   1.909   1.153   1.224  0.4700  0.3178 -0.7270
  780MPD2    C511507   1.850   1.039   1.268  0.7488 -0.1866 -0.0322
  780MPD2     H11508   1.880   1.082   0.900 -1.5150  0.5015 -0.2627
  780MPD2    H111509   1.949   1.229   1.291  1.1186 -1.2485  0.6622
  780MPD2    H211510   1.779   0.845   1.242  0.1327  0.9181  0.5435
  780MPD2    H311511   1.863   1.029   1.375 -0.7767  2.3516  0.3858
  780MPD2     N11512   1.943   1.289   1.022  0.2747  0.2811  0.2456
  780MPD2    H511513   1.926   1.295   0.922  0.8007 -0.0564  0.1378
  780MPD2    N111514   1.794   0.826   0.987 -0.1575 -0.7209 -0.2691
  780MPD2    H711515   1.763   0.743   1.036 -2.2888  0.0398 -0.3278
  781MPD2     C11516   2.812   3.043  11.879  0.4951  0.5945 -0.4487
  781MPD2    C111517   2.910   3.073  11.969 -0.7984  0.7489 -0.3818
  781MPD2    C211518   3.041   3.029  11.954 -0.8658  0.1746 -0.1748
  781MPD2    C311519   3.065   2.958  11.838  0.0353  0.5421 -0.3343
  781MPD2    C411520   2.972   2.941  11.737 -0.2096 -0.1403 -0.5414
  781MPD2    C511521   2.843   2.975  11.765 -0.4775  0.5625 -0.1774
  781MPD2     H11522   3.104   3.049  12.040 -2.5163  2.1960  0.5963
  781MPD2    H111523   2.993   2.887  11.646  1.5947  0.1172 -0.2798
  781MPD2    H211524   2.713   3.086  11.890  1.2795  1.9745  1.1932
  781MPD2    H311525   2.768   2.943  11.693 -1.5799  0.2608  1.1019
  781MPD2     N11526   3.187   2.893  11.809  0.3743  0.5285 -0.6075
  781MPD2    H511527   3.192   2.850  11.718  1.0419 -2.0390  0.6212
  781MPD2    N111528   2.867   3.134  12.088 -0.1320  0.0749  0.5067
  781MPD2    H711529   2.766   3.142  12.097 -0.2538  0.4823 -1.2731
  782MPD2     C11530   1.328   3.025  10.785 -0.6124  0.4364 -0.0997
  782MPD2    C111531   1.460   3.079  10.791  0.1534 -0.0516 -0.7270
  782MPD2    C211532   1.479   3.205  10.739 -0.1034  0.0269  0.4174
  782MPD2    C311533   1.370   3.276  10.681 -0.1420  0.1390  0.2866
  782MPD2    C411534   1.248   3.214  10.664  0.1564 -0.1188  0.2258
  782MPD2    C511535   1.226   3.097  10.729  0.4432  0.4100  0.7646
  782MPD2     H11536   1.578   3.248  10.745  0.0841 -0.7276  2.6613
  782MPD2    H111537   1.165   3.270  10.623 -2.3488 -1.7300  3.1189
  782MPD2    H211538   1.298   2.933  10.833 -0.2037  0.2349 -0.2285
  782MPD2    H311539   1.127   3.053  10.740  0.3476  0.3380 -0.4061
  782MPD2     N11540   1.381   3.413  10.652  0.2886 -0.2913 -0.3701
  782MPD2    H511541   1.296   3.453  10.614  1.3045  1.9014 -0.3502
  782MPD2    N111542   1.549   3.011  10.876  0.1054  0.0768  0.5204
  782MPD2    H711543   1.512   2.934  10.931 -0.1768 -0.9392 -1.1271
  783MPD2     C11544   1.044   3.229  11.482  0.1471 -0.1795 -0.4334
  783MPD2    C111545   1.104   3.314  11.397  0.1983 -0.6660  0.3495
  783MPD2    C211546   1.230   3.279  11.349  0.2720  0.7134  0.5720
  783MPD2    C311547   1.299   3.164  11.394  0.0350  0.1713  0.1999
  783MPD2    C411548   1.244   3.097  11.499  0.6021  0.9665  0.0766
  783MPD2    C511549   1.110   3.122  11.536 -0.1905 -0.0870  0.0214
  783MPD2     H11550   1.284   3.343  11.280 -1.3102  2.2814  0.8019
  783MPD2    H111551   1.288   3.005  11.537 -0.5766  1.2955  2.2553
  783MPD2    H211552   0.942   3.246  11.516  0.6403 -1.7845  1.8549
  783MPD2    H311553   1.056   3.067  11.612 -2.6514 -1.6640 -2.8937
  783MPD2     N11554   1.419   3.122  11.329  0.1598 -0.0358 -0.3444
  783MPD2    H511555   1.442   3.165  11.241  1.9760 -1.3466 -0.5190
  783MPD2    N111556   1.019   3.418  11.347 -0.0560 -0.1116 -0.1035
  783MPD2    H711557   0.922   3.415  11.378 -0.8020  0.2280 -2.3624
  784MPD2     C11558   4.449   4.336   1.188 -0.0326 -0.0126 -0.4649
  784MPD2    C111559   4.523   4.451   1.167  0.7814  0.4317 -0.8371
  784MPD2    C211560   4.505   4.534   1.058 -0.4729  0.5885 -0.3091
  784MPD2    C311561   4.409   4.494   0.968 -0.1066  0.6746 -1.1612
  784MPD2    C411562   4.334   4.377   0.979  0.0692 -0.2358 -0.2115
  784MPD2    C511563   4.347   4.301   1.098 -0.6126 -0.0009 -0.3148
  784MPD2     H11564   4.575   4.615   1.041  0.1924 -0.1192 -0.9716
  784MPD2    H111565   4.267   4.343   0.901  0.4426  0.6250 -0.9004
  784MPD2    H211566   4.463   4.277   1.278 -0.5261 -1.3152 -1.2435
  784MPD2    H311567   4.298   4.205   1.105 -0.7623  0.1967  1.2132
  784MPD2     N11568   4.419   4.571   0.847  0.1746 -0.3377 -0.3563
  784MPD2    H511569   4.496   4.633   0.824 -0.9660  0.1861 -2.7803
  784MPD2    N111570   4.624   4.507   1.253 -0.0348  0.2126  0.1841
  784MPD2    H711571   4.648   4.606   1.244 -0.2635  0.0999 -1.6452
  785MPD2     C11572   3.723   2.517  10.587 -0.0599  0.2108 -0.5709
  785MPD2    C111573   3.743   2.604  10.691  0.0488  0.0524  0.8360
  785MPD2    C211574   3.644   2.629  10.786 -0.1706  0.1172  0.0627
  785MPD2    C311575   3.520   2.565  10.781 -0.4185 -0.2068  0.3974
  785MPD2    C411576   3.502   2.480  10.668 -0.3409 -0.2338 -0.5417
  785MPD2    C511577   3.601   2.452  10.583  0.1211  0.1892 -0.1718
  785MPD2     H11578   3.660   2.709  10.858  1.5141  2.3792 -2.8113
  785MPD2    H111579   3.412   2.419  10.663  0.1928 -0.8128 -2.7890
  785MPD2    H211580   3.799   2.506  10.510 -0.1322  0.3613 -0.6634
  785MPD2    H311581   3.573   2.390  10.499  2.3469 -0.9186 -0.1121
  785MPD2     N11582   3.424   2.600  10.873 -0.3383 -0.9059  0.1347
  785MPD2    H511583   3.454   2.658  10.951 -1.5717 -1.8636  1.3198
  785MPD2    N111584   3.876   2.664  10.702  0.2611  0.1855 -0.6979
  785MPD2    H711585   3.948   2.634  10.637  0.8471  3.3534 -1.5572
  786MPD2     C11586   2.672   1.192  14.776 -0.4174 -0.1319 -0.1737
  786MPD2    C111587   2.718   1.064  14.755  0.4761  0.4250 -0.2031
  786MPD2    C211588   2.827   1.019  14.831  0.5408  0.5737 -0.5255
  786MPD2    C311589   2.888   1.101  14.921 -0.0726  0.8197  0.2588
  786MPD2    C411590   2.844   1.230  14.941 -0.4561  0.4596 -0.4858
  786MPD2    C511591   2.729   1.268  14.873  0.1922 -0.8359  0.0890
  786MPD2     H11592   2.854   0.915  14.819  1.4313  0.6370  0.9348
  786MPD2    H111593   2.897   1.294  15.010 -1.8819  0.1139  0.9266
  786MPD2    H211594   2.592   1.242  14.721 -1.5701 -0.4439  1.2157
  786MPD2    H311595   2.692   1.368  14.894 -1.1653 -0.6733 -3.1535
  786MPD2     N11596   2.988   1.060  15.011  0.1006  0.2378 -0.3340
  786MPD2    H511597   3.011   1.122  15.088 -0.9089 -1.7973  1.6249
  786MPD2    N111598   2.637   0.963  14.686 -0.0199 -0.4799 -0.3743
  786MPD2    H711599   2.675   0.871  14.704  1.7301  0.4418  0.6545
  787MPD2     C11600   2.632   0.414  14.904  0.4139 -0.4046 -0.6734
  787MPD2    C111601   2.597   0.409  14.769  0.4408 -1.0365  0.3310
  787MPD2    C211602   2.655   0.316  14.682  0.0177 -1.0336  0.5271
  787MPD2    C311603   2.742   0.224  14.725  0.0369 -0.2929  0.0478
  787MPD2    C411604   2.787   0.234  14.856 -0.5443 -0.5672  1.2085
  787MPD2    C511605   2.735   0.328  14.941 -0.0695 -0.2141  0.0216
  787MPD2     H11606   2.630   0.318  14.577  1.1919 -0.3609  0.2587
  787MPD2    H111607   2.862   0.162  14.887  0.1702  0.1528  1.1623
  787MPD2    H211608   2.604   0.495  14.970  0.8222 -2.2126  1.7213
  787MPD2    H311609   2.773   0.330  15.042 -0.4813  1.3257  0.1418
  787MPD2     N11610   2.799   0.135  14.625  0.2860  0.5133  0.6277
  787MPD2    H511611   2.741   0.130  14.542  0.4730 -1.3979  0.6224
  787MPD2    N111612   2.504   0.500  14.719  0.0477 -0.3817 -0.4004
  787MPD2    H711613   2.478   0.560  14.797  1.0698  0.1890 -0.4946
  788MPD2     C11614   4.518   3.920   0.529 -0.3065  0.1051  0.5381
  788MPD2    C111615   4.494   3.793   0.472  0.0671 -0.1615  0.4526
  788MPD2    C211616   4.539   3.771   0.339  0.3943 -0.2652 -0.3582
  788MPD2    C311617   4.596   3.876   0.268 -0.4829  0.4295 -0.0265
  788MPD2    C411618   4.624   3.995   0.328  0.4371 -0.5044 -0.2927
  788MPD2    C511619   4.591   4.015   0.460  0.1367  0.0227  0.8773
  788MPD2     H11620   4.491   3.688   0.286  1.0714 -1.7661  1.3721
  788MPD2    H111621   4.680   4.069   0.273  0.0471  0.5732  0.7751
  788MPD2    H211622   4.493   3.951   0.630 -1.5971  1.7733 -0.2943
  788MPD2    H311623   4.620   4.109   0.506  0.8599  0.2873 -0.1070
  788MPD2     N11624   4.609   3.874   0.127 -0.2198  0.6410 -0.2185
  788MPD2    H511625   4.638   3.959   0.080  1.3059  0.4918  0.4608
  788MPD2    N111626   4.428   3.692   0.543  0.0007  0.0329 -0.5448
  788MPD2    H711627   4.434   3.597   0.507  0.8326 -0.7691  1.7069
  789MPD2     C11628   4.609   3.451  16.362  0.6558  0.1144 -0.3417
  789MPD2    C111629   4.498   3.424  16.438 -0.4721 -0.4356 -0.3451
  789MPD2    C211630   4.391   3.512  16.441  0.1841  0.2350  0.1326
  789MPD2    C311631   4.396   3.636  16.381 -0.7618  0.4700 -0.0941
  789MPD2    C411632   4.512   3.668  16.308 -0.1966  0.0000 -0.2506
  789MPD2    C511633   4.607   3.576  16.306  0.3982  0.1303 -0.3267
  789MPD2     H11634   4.306   3.485  16.503 -0.1687  2.3550  0.5799
  789MPD2    H111635   4.525   3.765  16.260 -0.4848  0.6599  1.0130
  789MPD2    H211636   4.700   3.393  16.366 -0.2757 -1.2415  1.6293
  789MPD2    H311637   4.698   3.597  16.252  1.1046  0.6737  1.0987
  789MPD2     N11638   4.297   3.739  16.393 -0.1546 -0.0835  0.5586
  789MPD2    H511639   4.300   3.830  16.349  2.7067 -0.8782 -0.8627
  789MPD2    N111640   4.487   3.320  16.534 -0.1228 -0.0596  0.3994
  789MPD2    H711641   4.407   3.335  16.595  1.8367  0.0390  2.9518
  790MPD2     C11642   0.470   0.529  13.954  1.0000 -0.5099 -0.4135
  790MPD2    C111643   0.594   0.487  13.907  0.0904  0.0585 -0.0976
  790MPD2    C211644   0.602   0.456  13.771  0.1975 -0.2847  0.9392
  790MPD2    C311645   0.487   0.450  13.693  0.2256  0.6253  0.9106
  790MPD2    C411646   0.365   0.496  13.740  0.3296 -0.3653  0.2242
  790MPD2    C511647   0.361   0.529  13.869 -1.0027 -0.3610  0.0032
  790MPD2     H11648   0.692   0.421  13.723  1.8757  1.7599  2.5585
  790MPD2    H111649   0.274   0.469  13.688 -0.4538  1.2937  0.7388
  790MPD2    H211650   0.455   0.563  14.056  3.2069  0.3423 -0.3638
  790MPD2    H311651   0.262   0.553  13.906 -0.5202  1.3278  0.2133
  790MPD2     N11652   0.503   0.396  13.560  0.3501  0.2489  0.0089
  790MPD2    H511653   0.593   0.369  13.522 -0.0100 -0.2719 -0.4596
  790MPD2    N111654   0.699   0.464  13.999 -0.2959 -0.8963  0.3791
  790MPD2    H711655   0.674   0.477  14.096  1.5534 -0.4507  0.7928
  791MPD2     C11656   0.255   0.119  12.696  0.8981 -0.3040  0.9443
  791MPD2    C111657   0.230   0.080  12.827  1.0617 -0.1143  0.1844
  791MPD2    C211658   0.111   0.010  12.852  0.0283 -0.7431 -0.3362
  791MPD2    C311659   0.014   4.716  12.754 -1.0945 -0.2402 -0.3511
  791MPD2    C411660   0.053   0.024  12.621  0.1369  0.1983  0.0307
  791MPD2    C511661   0.171   0.083  12.590  0.7330 -0.0681 -0.1768
  791MPD2     H11662   0.094   4.706  12.955  0.2234 -0.8017 -0.3209
  791MPD2    H111663   4.715   0.005  12.536  0.1712 -0.8136  0.2301
  791MPD2    H211664   0.349   0.161  12.662 -0.2429  1.6826  0.2713
  791MPD2    H311665   0.185   0.107  12.486 -0.5062  1.6298  0.0532
  791MPD2     N11666   4.621   4.644  12.783 -0.1276 -0.6675  0.0959
  791MPD2    H511667   4.608   4.609  12.877  0.4886  1.2057  0.8760
  791MPD2    N111668   0.320   0.122  12.925  0.9055  0.2724  0.3362
  791MPD2    H711669   0.401   0.172  12.889  2.1145 -1.8763  0.0454
  792MPD2     C11670   1.223   4.294  10.706  0.7657 -0.2987  0.5198
  792MPD2    C111671   1.095   4.326  10.736  0.1168 -0.0335  0.1645
  792MPD2    C211672   1.009   4.222  10.757 -0.3961  0.0132  0.8021
  792MPD2    C311673   1.047   4.092  10.744 -0.3785 -0.3810 -0.3600
  792MPD2    C411674   1.173   4.060  10.706  1.2838  0.1763  0.3590
  792MPD2    C511675   1.256   4.165  10.692  0.2110 -0.4996  0.3893
  792MPD2     H11676   0.915   4.240  10.808 -1.3001 -1.1620 -0.4383
  792MPD2    H111677   1.220   3.962  10.700 -0.7115 -0.9336  2.4136
  792MPD2    H211678   1.300   4.368  10.687  0.2843  0.0384 -0.1149
  792MPD2    H311679   1.358   4.133  10.676  0.6857  0.9977  0.4518
  792MPD2     N11680   0.963   3.984  10.777  0.5369 -0.3581  0.2665
  792MPD2    H511681   1.008   3.894  10.793 -1.1827 -1.1624  0.5504
  792MPD2    N111682   1.071   4.458  10.777 -0.4199 -0.9058 -0.6845
  792MPD2    H711683   1.151   4.517  10.801 -1.1543 -0.2045  0.0361
  793MPD2     C11684   0.289   4.222  10.328  0.2939 -0.5792  0.6689
  793MPD2    C111685   0.424   4.229  10.357  0.6530  0.3797 -0.8934
  793MPD2    C211686   0.473   4.143  10.449 -0.3692  0.0994 -0.0045
  793MPD2    C311687   0.400   4.048  10.509 -1.0680  0.4336 -0.1443
  793MPD2    C411688   0.264   4.037  10.478  0.2093 -0.0186 -0.0454
  793MPD2    C511689   0.213   4.124  10.394 -0.8254 -0.0428  1.0932
  793MPD2     H11690   0.581   4.146  10.461 -0.1526  0.0881 -1.9886
  793MPD2    H111691   0.195   3.969  10.525  1.7284  0.3385  2.6661
  793MPD2    H211692   0.230   4.285  10.263 -1.2845 -3.2680 -0.5054
  793MPD2    H311693   0.108   4.105  10.377 -0.0815 -0.0923 -3.3950
  793MPD2     N11694   0.474   3.960  10.587  0.0947 -0.0542  0.1780
  793MPD2    H511695   0.570   3.983  10.608  0.0195 -1.6570  2.1925
  793MPD2    N111696   0.524   4.305  10.291 -0.4603 -0.0979 -0.2145
  793MPD2    H711697   0.621   4.285  10.315 -0.0869  1.0033 -0.8344
  794MPD2     C11698   0.598   0.095   0.036 -0.3587 -0.0110  0.3955
  794MPD2    C111699   0.531   4.704   0.005  0.1705  0.2256 -0.4167
  794MPD2    C211700   0.481   4.687  17.580  0.1129  1.0143  0.3374
  794MPD2    C311701   0.488   0.055  17.488  0.5924  0.0090 -0.2727
  794MPD2    C411702   0.544   0.175  17.521 -0.8941  0.1790  0.1601
  794MPD2    C511703   0.606   0.189  17.644  0.6522  0.3374  0.8340
  794MPD2     H11704   0.424   4.598  17.556 -0.3905  0.8128  2.3401
  794MPD2    H111705   0.544   0.266  17.461 -0.7317  0.0627 -0.0128
  794MPD2    H211706   0.650   0.121   0.128 -0.6881 -0.0338  0.5876
  794MPD2    H311707   0.646   0.285  17.674 -3.7462  3.0829 -2.0684
  794MPD2     N11708   0.434   0.046  17.360  0.2828 -0.4486 -0.0634
  794MPD2    H511709   0.431   0.133  17.310 -1.9587 -0.3185  0.3045
  794MPD2    N111710   0.504   4.597   0.093  0.0867  0.0277 -0.5852
  794MPD2    H711711   0.452   4.514   0.065 -0.2257  0.4294 -1.1933
  795MPD2     C11712   2.554   2.165  12.507 -1.0841  0.1859 -0.5356
  795MPD2    C111713   2.531   2.039  12.564  0.0952  0.6094  0.4514
  795MPD2    C211714   2.608   2.003  12.677 -0.9582 -0.3967  0.7819
  795MPD2    C311715   2.712   2.093  12.723  0.2241  0.6184 -0.6869
  795MPD2    C411716   2.712   2.225  12.674 -0.1488 -0.0628 -0.1503
  795MPD2    C511717   2.640   2.253  12.561  0.1276  0.7954 -0.5538
  795MPD2     H11718   2.583   1.906  12.718  0.3202 -1.7111 -1.5330
  795MPD2    H111719   2.790   2.293  12.706  1.0398 -1.7608  0.5217
  795MPD2    H211720   2.519   2.185  12.406 -2.2444  1.5483  0.1404
  795MPD2    H311721   2.666   2.348  12.516  0.1713  0.4276 -1.3222
  795MPD2     N11722   2.780   2.043  12.840  0.5376  0.2680 -0.2149
  795MPD2    H511723   2.767   1.945  12.867 -0.8599  0.1177 -1.4215
  795MPD2    N111724   2.450   1.940  12.504 -0.2549  0.6290  0.3103
  795MPD2    H711725   2.443   1.850  12.551 -1.9071  1.8615  2.4244
  796MPD2     C11726   2.375   3.871  16.546 -0.0669  0.3789 -0.0543
  796MPD2    C111727   2.424   3.786  16.452 -0.0322 -0.0084  0.9658
  796MPD2    C211728   2.444   3.839  16.323 -0.4229 -0.3073 -0.7349
  796MPD2    C311729   2.426   3.968  16.296 -0.7935 -0.1890 -0.6350
  796MPD2    C411730   2.382   4.057  16.395 -0.4502 -0.1437  0.9482
  796MPD2    C511731   2.356   4.008  16.518  0.6106 -1.1533  0.3364
  796MPD2     H11732   2.488   3.775  16.247  0.9296  0.7392 -0.8446
  796MPD2    H111733   2.358   4.162  16.383 -1.0341 -0.2944  0.7705
  796MPD2    H211734   2.362   3.839  16.649 -1.1599  0.9528 -0.0155
  796MPD2    H311735   2.318   4.075  16.594 -0.2323 -0.3640 -0.7702
  796MPD2     N11736   2.444   4.012  16.160 -0.5556 -0.2371 -0.2309
  796MPD2    H511737   2.441   3.942  16.086  3.0949  0.4543 -1.0331
  796MPD2    N111738   2.469   3.655  16.486 -0.2429 -0.5837 -0.0675
  796MPD2    H711739   2.460   3.628  16.583  0.5479 -0.7260 -0.0281
  797MPD2     C11740   3.192   2.977  17.681 -0.6477  0.4049 -0.0213
  797MPD2    C111741   3.294   3.063   0.014  0.4921 -0.5788 -0.0118
  797MPD2    C211742   3.296   3.186  17.668  0.3148 -0.0534 -0.4484
  797MPD2    C311743   3.201   3.234  17.578 -0.0768 -0.9016  0.3844
  797MPD2    C411744   3.088   3.157  17.553  0.2858  0.7211 -0.5276
  797MPD2    C511745   3.088   3.034  17.607  0.2613  0.2006 -0.5298
  797MPD2     H11746   3.373   3.261  17.680  1.2160 -1.3158  1.7400
  797MPD2    H111747   3.002   3.180  17.492  0.5453  2.0975 -0.3756
  797MPD2    H211748   3.174   2.876   0.010  1.1293 -0.7191 -2.4520
  797MPD2    H311749   3.008   2.964  17.584  2.1106 -1.9632 -0.4112
  797MPD2     N11750   3.217   3.354  17.519  0.2037  0.1217  0.0692
  797MPD2    H511751   3.309   3.397  17.530  0.4427  0.0481 -1.5819
  797MPD2    N111752   3.403   3.036   0.103  0.2617 -0.3185 -0.1987
  797MPD2    H711753   3.457   3.119   0.123 -2.1855  1.3883 -0.6532
  798MPD2     C11754   3.894   3.510  17.576 -0.4905  0.1714  0.3250
  798MPD2    C111755   3.763   3.479  17.595  0.1061 -0.4850 -0.6822
  798MPD2    C211756   3.733   3.391  17.695 -0.1935  0.6049 -1.1356
  798MPD2    C311757   3.832   3.335   0.070 -0.6040  0.7338 -0.5533
  798MPD2    C411758   3.965   3.365   0.047 -0.0552 -0.1697  0.0177
  798MPD2    C511759   3.990   3.459  17.654 -0.1753 -0.7308 -0.9142
  798MPD2     H11760   3.633   3.354   0.009  0.2332 -0.4251 -0.8312
  798MPD2    H111761   4.041   3.331   0.116  0.5506  0.2668 -0.4310
  798MPD2    H211762   3.916   3.577  17.494 -0.4831  2.6341  2.3222
  798MPD2    H311763   4.092   3.483  17.627  0.1972  0.4523  1.5891
  798MPD2     N11764   3.790   3.244   0.171 -0.2447  0.1966  0.2763
  798MPD2    H511765   3.689   3.239   0.182 -0.0724 -1.1214  1.2531
  798MPD2    N111766   3.667   3.530  17.496  0.0255 -0.0439  0.3734
  798MPD2    H711767   3.695   3.588  17.418 -0.3114  1.5832  1.4693
  799MPD2     C11768   2.422   4.698  14.867  0.5994 -0.1718 -0.2515
  799MPD2    C111769   2.324   4.618  14.810 -0.4443  0.2085 -0.5114
  799MPD2    C211770   2.230   4.682  14.727  0.6910  0.8238  0.8891
  799MPD2    C311771   2.235   0.093  14.693 -0.4258  0.4442 -0.1613
  799MPD2    C411772   2.346   0.165  14.741  0.9758 -0.3068  0.9579
  799MPD2    C511773   2.429   0.105  14.837 -0.2060 -0.2612  0.3532
  799MPD2     H11774   2.163   4.618  14.671  0.5567  1.2016  0.6149
  799MPD2    H111775   2.353   0.272  14.723 -0.9151 -0.4809 -0.8114
  799MPD2    H211776   2.497   4.658  14.934  0.1281 -4.0157 -2.0387
  799MPD2    H311777   2.507   0.168  14.880 -0.2644  0.7660 -1.0340
  799MPD2     N11778   2.153   0.157  14.601 -0.0695 -0.6318 -0.0014
  799MPD2    H511779   2.164   0.256  14.581  3.5006 -0.1640  4.3306
  799MPD2    N111780   2.316   4.481  14.822  0.1651  0.4918 -0.3676
  799MPD2    H711781   2.242   4.430  14.775 -1.8320  1.4674  1.7566
  800MPD2     C11782   3.144   1.057  14.600 -0.2892 -0.2975 -0.3979
  800MPD2    C111783   3.240   1.121  14.526  0.0219 -0.0782  0.1933
  800MPD2    C211784   3.220   1.129  14.395 -0.1042  0.1592 -0.7532
  800MPD2    C311785   3.105   1.070  14.334 -0.4744 -0.5679 -0.7810
  800MPD2    C411786   3.019   0.990  14.411  0.0311  0.7419 -0.0657
  800MPD2    C511787   3.047   0.985  14.544 -0.0195 -0.1377  0.8706
  800MPD2     H11788   3.289   1.186  14.333 -0.7768  2.7365  0.8605
  800MPD2    H111789   2.931   0.941  14.372  0.2213  0.9546 -0.7610
  800MPD2    H211790   3.157   1.044  14.707 -0.2476  1.1520 -0.2291
  800MPD2    H311791   2.993   0.917  14.608 -1.4436 -0.7049 -0.9244
  800MPD2     N11792   3.083   1.096  14.192 -0.3578 -0.1641 -0.2355
  800MPD2    H511793   3.151   1.146  14.136 -1.2213 -1.1872 -2.1566
  800MPD2    N111794   3.344   1.183  14.592  0.0393  0.5313  0.4391
  800MPD2    H711795   3.334   1.191  14.692  1.6119  1.6026  0.5086
  801MPD2     C11796   3.386   1.907  14.661 -0.1713 -0.6991 -0.0677
  801MPD2    C111797   3.320   1.789  14.686  0.2729 -0.3250  0.2663
  801MPD2    C211798   3.182   1.794  14.662  0.2909  0.3528  0.5500
  801MPD2    C311799   3.109   1.894  14.605  0.5086 -0.3693  0.0331
  801MPD2    C411800   3.181   2.010  14.575 -0.0159  0.5048 -0.5811
  801MPD2    C511801   3.320   2.008  14.599 -0.4200  0.4602  0.0516
  801MPD2     H11802   3.128   1.702  14.682  0.5054  0.6450  2.4804
  801MPD2    H111803   3.140   2.095  14.522 -0.7315  1.1646  1.0549
  801MPD2    H211804   3.492   1.915  14.681  0.2114  1.1017 -2.8844
  801MPD2    H311805   3.369   2.098  14.565  0.6121  0.4928  1.6017
  801MPD2     N11806   2.969   1.889  14.572 -0.6094  0.0837  0.1279
  801MPD2    H511807   2.938   1.973  14.523 -0.3516 -1.3132 -2.4389
  801MPD2    N111808   3.386   1.668  14.730 -0.1027 -0.1769 -0.3925
  801MPD2    H711809   3.324   1.591  14.749 -0.9167  0.7292  0.6585
  802MPD2     C11810   1.761   2.389  17.519  0.4495 -0.8599 -0.4778
  802MPD2    C111811   1.849   2.357  17.624 -0.2394  0.5324  0.1830
  802MPD2    C211812   1.947   2.261  17.611 -0.1419  0.1105  0.1998
  802MPD2    C311813   1.959   2.190  17.504 -0.0601 -0.5090  0.0818
  802MPD2    C411814   1.880   2.222  17.396  0.3914 -0.4257  0.3882
  802MPD2    C511815   1.790   2.331  17.402  0.1647 -0.5454 -0.1148
  802MPD2     H11816   2.011   2.227  17.692 -0.5814  0.1864  0.5822
  802MPD2    H111817   1.887   2.175  17.299 -0.1958 -1.5022  0.8723
  802MPD2    H211818   1.690   2.471  17.526  0.8313 -0.7051  1.6928
  802MPD2    H311819   1.739   2.350  17.309 -1.2852  1.7793  1.1560
  802MPD2     N11820   2.063   2.096  17.491 -0.1920 -0.1391 -0.2723
  802MPD2    H511821   2.119   2.078  17.574 -0.7423 -0.9845 -0.0815
  802MPD2    N111822   1.845   2.420   0.044 -0.0434 -0.6442 -0.1762
  802MPD2    H711823   1.923   2.398   0.105 -1.0050  0.8631  1.5658
  803MPD2     C11824   3.601   0.249  11.808  0.3663 -0.6618 -0.7689
  803MPD2    C111825   3.640   0.325  11.911  0.1692  0.3978 -0.4782
  803MPD2    C211826   3.606   0.295  12.041 -0.4153  0.0030  1.1886
  803MPD2    C311827   3.531   0.181  12.064  0.1166  0.3968 -0.6139
  803MPD2    C411828   3.477   0.111  11.954 -0.0435 -0.0940  0.3215
  803MPD2    C511829   3.513   0.147  11.833  0.0030 -0.2922 -0.7423
  803MPD2     H11830   3.635   0.357  12.125 -0.7433 -0.6126  1.7594
  803MPD2    H111831   3.413   0.024  11.962  1.7536 -1.1400  3.1265
  803MPD2    H211832   3.634   0.264  11.706 -1.1985 -1.3633 -1.3700
  803MPD2    H311833   3.479   0.087  11.749 -0.1822  1.4776 -1.9341
  803MPD2     N11834   3.509   0.139  12.200 -0.4744  0.1772 -0.6680
  803MPD2    H511835   3.536   0.204  12.273 -3.0145  0.3135  0.1258
  803MPD2    N111836   3.728   0.428  11.884 -0.2041 -0.3381  0.0573
  803MPD2    H711837   3.737   0.498  11.957 -2.7439 -1.1587  1.1222
  804MPD2     C11838   3.344   1.620  17.223  1.1036  0.4106  0.6047
  804MPD2    C111839   3.390   1.554  17.334  0.6229 -0.2453  0.2107
  804MPD2    C211840   3.437   1.632  17.434 -0.1124  0.5323 -0.0643
  804MPD2    C311841   3.448   1.768  17.418  0.4405 -0.1598 -0.3447
  804MPD2    C411842   3.410   1.828  17.300  0.2319 -0.1711 -0.4825
  804MPD2    C511843   3.351   1.750  17.208 -0.1353  0.4964  0.2734
  804MPD2     H11844   3.458   1.593  17.532  0.2239  0.7850 -0.0316
  804MPD2    H111845   3.420   1.935  17.291  3.1321 -0.4201 -0.2609
  804MPD2    H211846   3.300   1.562  17.142  4.9668  0.5399 -1.5692
  804MPD2    H311847   3.313   1.789  17.115  0.3869 -0.1121 -0.1953
  804MPD2     N11848   3.488   1.837  17.536 -0.2174 -0.0665  0.3686
  804MPD2    H511849   3.516   1.774  17.610 -1.1331  2.0750  2.5271
  804MPD2    N111850   3.373   1.414  17.357  0.0574  0.0646  0.2907
  804MPD2    H711851   3.415   1.377  17.442  0.6735 -0.4178 -0.2285
  805MPD2     C11852   1.926   0.181  15.537  0.7440 -0.7936 -0.2291
  805MPD2    C111853   2.020   0.161  15.445 -0.0543 -0.0338 -0.2894
  805MPD2    C211854   2.156   0.157  15.482  0.4888 -0.0387 -0.0967
  805MPD2    C311855   2.198   0.218  15.601  0.7182 -0.8255  0.7144
  805MPD2    C411856   2.098   0.257  15.684 -0.4099 -0.3611 -0.0301
  805MPD2    C511857   1.967   0.235  15.655 -0.7281 -0.0173 -0.4161
  805MPD2     H11858   2.233   0.137  15.408  0.9327 -0.4264  0.4666
  805MPD2    H111859   2.129   0.311  15.773 -2.3434 -2.3569  1.8512
  805MPD2    H211860   1.822   0.152  15.529  0.8280 -0.7067 -1.5691
  805MPD2    H311861   1.900   0.262  15.737 -0.6348 -1.0089 -0.0113
  805MPD2     N11862   2.330   0.237  15.644  0.3379 -0.6657 -0.3200
  805MPD2    H511863   2.347   0.301  15.721  0.3919 -2.8285  1.4597
  805MPD2    N111864   1.989   0.147  15.303  0.2693 -0.2506  0.4365
  805MPD2    H711865   2.066   0.128  15.240  0.3184  0.8646  0.1559
  806MPD2     C11866   2.374   4.065   0.207  0.2444 -0.1796 -0.8894
  806MPD2    C111867   2.445   4.138   0.299 -0.6772 -0.0479  0.1921
  806MPD2    C211868   2.551   4.205   0.245  0.6408  0.1863  0.0506
  806MPD2    C311869   2.574   4.216   0.106 -0.3550  0.1656 -0.2495
  806MPD2    C411870   2.497   4.139   0.023  0.8030 -0.7013  0.6925
  806MPD2    C511871   2.392   4.061   0.073  0.1677 -0.1940 -0.2665
  806MPD2     H11872   2.616   4.264   0.310  1.4084 -1.8250  1.1175
  806MPD2    H111873   2.524   4.120  17.625  0.7093  2.0860  0.1579
  806MPD2    H211874   2.287   4.009   0.238  1.9219 -0.6130  3.0216
  806MPD2    H311875   2.326   4.007   0.007 -0.5215  1.0554 -0.5993
  806MPD2     N11876   2.689   4.290   0.064 -0.5026 -0.4214  0.2940
  806MPD2    H511877   2.751   4.325   0.137 -0.6616  0.4994 -0.0098
  806MPD2    N111878   2.407   4.127   0.428  0.6906 -0.4362  0.2847
  806MPD2    H711879   2.340   4.051   0.444  3.0677 -2.4376  0.7117
  807MPD2     C11880   2.673   3.638   0.901 -0.2945 -0.2122 -0.0202
  807MPD2    C111881   2.567   3.685   0.978 -0.0205 -0.8877  0.3127
  807MPD2    C211882   2.544   3.628   1.103 -0.9217  0.7007 -0.2845
  807MPD2    C311883   2.630   3.532   1.155 -0.4202  0.0286 -1.2351
  807MPD2    C411884   2.741   3.493   1.084 -0.4896  0.0132 -0.1275
  807MPD2    C511885   2.760   3.544   0.951  0.0984 -0.9785 -0.8077
  807MPD2     H11886   2.448   3.648   1.149 -0.6852 -0.5679  0.7716
  807MPD2    H111887   2.822   3.431   1.120  0.6639  0.9076 -1.1761
  807MPD2    H211888   2.703   3.681   0.806 -2.3218  1.7152  0.2271
  807MPD2    H311889   2.856   3.533   0.901 -0.4411  1.1128 -2.2800
  807MPD2     N11890   2.584   3.471   1.270 -0.0879 -0.1600 -0.7409
  807MPD2    H511891   2.502   3.507   1.318 -0.4267 -0.7173 -0.9056
  807MPD2    N111892   2.476   3.779   0.931 -0.0687 -0.0462  0.1421
  807MPD2    H711893   2.410   3.817   0.998 -1.3993 -0.7023 -0.7965
  808MPD2     C11894   3.373   1.086  10.464  0.5697 -0.2466 -0.1533
  808MPD2    C111895   3.247   1.123  10.416  0.2918  0.0388  0.1875
  808MPD2    C211896   3.249   1.227  10.326  0.0748  0.4942  0.1463
  808MPD2    C311897   3.366   1.301  10.299 -0.5322  0.2174 -0.9779
  808MPD2    C411898   3.479   1.266  10.367  0.1673  0.6521 -0.0855
  808MPD2    C511899   3.486   1.145  10.439 -0.3075 -0.2661 -0.1571
  808MPD2     H11900   3.156   1.263  10.284  1.8317  0.7208 -3.5503
  808MPD2    H111901   3.565   1.326  10.342  1.3206 -1.0878 -0.3165
  808MPD2    H211902   3.379   1.005  10.536  2.5610 -0.0002 -0.0376
  808MPD2    H311903   3.582   1.113  10.480 -0.0993  0.7155  0.1279
  808MPD2     N11904   3.369   1.414  10.206  0.2140  0.7271  0.3743
  808MPD2    H511905   3.462   1.451  10.191  0.3050 -0.0137 -0.8835
  808MPD2    N111906   3.129   1.053  10.449 -0.4211  0.0960  0.0120
  808MPD2    H711907   3.044   1.092  10.410 -0.0265  1.1230  0.1989
  809MPD2     C11908   3.644   1.548   9.332  0.4179 -0.2338 -0.0102
  809MPD2    C111909   3.706   1.504   9.454  0.7370 -0.4736  0.2144
  809MPD2    C211910   3.661   1.551   9.575 -0.1705 -0.1169  0.0270
  809MPD2    C311911   3.555   1.640   9.577  0.7613  0.1794  0.0604
  809MPD2    C411912   3.509   1.692   9.463  0.4185 -0.3951  1.0831
  809MPD2    C511913   3.551   1.643   9.342 -0.1497  0.6226  0.0031
  809MPD2     H11914   3.706   1.509   9.664 -1.8440  1.3088  1.5489
  809MPD2    H111915   3.434   1.769   9.466  0.7956  0.0578 -1.2281
  809MPD2    H211916   3.652   1.507   9.232  1.7400  1.6248 -0.6643
  809MPD2    H311917   3.501   1.670   9.250 -0.4809  1.1598  0.3388
  809MPD2     N11918   3.490   1.693   9.690  0.2536  0.7890  0.2939
  809MPD2    H511919   3.420   1.764   9.670  0.0230  1.0041  1.9398
  809MPD2    N111920   3.805   1.396   9.454  0.4505 -0.1036  0.3712
  809MPD2    H711921   3.834   1.357   9.543  1.2844 -1.9791 -0.7162
  810MPD2     C11922   2.394   0.355  11.086  0.2505  0.3360 -0.3334
  810MPD2    C111923   2.360   0.292  10.968 -0.1558  1.3471 -0.6028
  810MPD2    C211924   2.317   0.365  10.861 -1.2159  0.2126 -0.2278
  810MPD2    C311925   2.296   0.500  10.873 -0.4336 -0.7799  0.3953
  810MPD2    C411926   2.330   0.565  10.990  0.2447 -0.2021  0.0332
  810MPD2    C511927   2.369   0.483  11.097 -0.0519  0.1199  0.3696
  810MPD2     H11928   2.288   0.313  10.770 -0.4458 -2.4722  1.0550
  810MPD2    H111929   2.326   0.672  10.999 -4.8124 -0.2747 -1.4359
  810MPD2    H211930   2.421   0.304  11.178 -2.3223 -0.3264  0.0493
  810MPD2    H311931   2.380   0.537  11.190 -0.3224  1.5346 -0.4277
  810MPD2     N11932   2.225   0.576  10.771  0.7172  0.2755 -0.7346
  810MPD2    H511933   2.204   0.673  10.788  0.6626 -0.1648  1.6818
  810MPD2    N111934   2.364   0.153  10.972  0.2429 -0.1027  0.0674
  810MPD2    H711935   2.405   0.106  11.052 -1.5765  0.4925  1.3489
  811MPD2     C11936   2.461   4.034  10.575  0.7654 -0.0253 -0.2040
  811MPD2    C111937   2.445   4.169  10.550 -0.1694  0.2012 -0.1638
  811MPD2    C211938   2.447   4.218  10.417  0.2273 -0.3402 -0.0277
  811MPD2    C311939   2.456   4.133  10.306  0.1367 -0.1215  0.0741
  811MPD2    C411940   2.470   3.998  10.334  0.0835 -0.0557 -0.1101
  811MPD2    C511941   2.479   3.953  10.466 -0.1138 -0.0093  0.4169
  811MPD2     H11942   2.431   4.321  10.388  0.4645 -0.6524 -1.2850
  811MPD2    H111943   2.476   3.918  10.260  2.6154 -0.8832  1.0108
  811MPD2    H211944   2.460   3.982  10.670  1.6197  1.0767  0.4118
  811MPD2    H311945   2.485   3.846  10.478 -0.6119 -0.1836 -0.8842
  811MPD2     N11946   2.481   4.184  10.178  0.0054  0.1942  0.3977
  811MPD2    H511947   2.482   4.285  10.166 -0.4238  0.2309  0.6784
  811MPD2    N111948   2.434   4.259  10.660  0.3520 -0.0545  0.6857
  811MPD2    H711949   2.454   4.226  10.754  1.0322 -0.8921  0.2506
  812MPD2     C11950   1.421   0.559  12.285  0.3696  0.0850  0.4741
  812MPD2    C111951   1.293   0.575  12.339  0.0807  0.0991 -0.1303
  812MPD2    C211952   1.265   0.479  12.441 -0.4453 -0.5275 -0.4654
  812MPD2    C311953   1.351   0.379  12.475  0.1625 -0.1931  0.3592
  812MPD2    C411954   1.465   0.356  12.401 -0.5608 -0.5041  0.3953
  812MPD2    C511955   1.500   0.456  12.313 -0.1851 -0.1246 -0.3033
  812MPD2     H11956   1.163   0.482  12.480 -0.8624  0.1483 -1.6154
  812MPD2    H111957   1.534   0.273  12.415 -0.5927 -0.8324 -1.3809
  812MPD2    H211958   1.455   0.623  12.205 -0.6472  1.3385  1.0349
  812MPD2    H311959   1.592   0.467  12.256 -0.0405  1.9952  0.3289
  812MPD2     N11960   1.311   0.293  12.580  0.6296  0.1604 -0.2121
  812MPD2    H511961   1.217   0.307  12.616  0.5116  1.4435 -1.0116
  812MPD2    N111962   1.207   0.678  12.288  0.0088 -0.0511  0.6674
  812MPD2    H711963   1.246   0.755  12.234 -0.6844  0.3423  0.7254
  813MPD2     C11964   0.015   2.026  12.621  0.0012 -0.7312  0.1610
  813MPD2    C111965   0.066   2.131  12.690  0.3485 -0.2556  0.2706
  813MPD2    C211966   4.705   2.219  12.754  0.0075 -0.1284  0.2035
  813MPD2    C311967   4.570   2.201  12.748 -0.0888  0.4025 -0.1168
  813MPD2    C411968   4.519   2.091  12.674  0.0872 -0.4773 -0.4013
  813MPD2    C511969   4.604   2.012  12.606  0.3099  0.0965  0.3917
  813MPD2     H11970   0.020   2.303  12.809  2.0187 -0.5451 -0.6259
  813MPD2    H111971   4.412   2.075  12.668 -0.2427  0.5875  2.6977
  813MPD2    H211972   0.079   1.953  12.573  0.1824 -1.0186  0.8413
  813MPD2    H311973   4.573   1.917  12.563 -0.0530  1.0375 -1.4042
  813MPD2     N11974   4.488   2.298  12.807 -0.5458  0.0580 -0.0209
  813MPD2    H511975   4.528   2.366  12.871 -2.6540  0.0464  1.3175
  813MPD2    N111976   0.205   2.151  12.680  0.4219 -0.2240  0.1862
  813MPD2    H711977   0.257   2.084  12.625 -0.8828  1.0343 -2.6457
  814MPD2     C11978   0.783   3.067  12.471  0.5157  0.3371  1.2475
  814MPD2    C111979   0.784   3.203  12.449  0.7142 -0.2797  0.3717
  814MPD2    C211980   0.865   3.281  12.535 -0.4735 -0.0033  0.4443
  814MPD2    C311981   0.927   3.224  12.645  0.4963 -0.2353  0.0423
  814MPD2    C411982   0.924   3.086  12.660  0.1265  0.2570 -0.3627
  814MPD2    C511983   0.853   3.011  12.569  0.2629 -0.9301  0.3531
  814MPD2     H11984   0.859   3.388  12.514 -0.4021 -0.3566 -1.3561
  814MPD2    H111985   0.974   3.033  12.741  0.6037  0.5345 -0.4826
  814MPD2    H211986   0.746   2.992  12.402  0.7030  1.7545 -0.3849
  814MPD2    H311987   0.852   2.903  12.575  2.2818 -0.8783  1.8820
  814MPD2     N11988   0.980   3.297  12.752 -0.0186  0.3064  0.2029
  814MPD2    H511989   1.019   3.239  12.826  1.9344  0.6953 -0.4984
  814MPD2    N111990   0.734   3.272  12.333  0.5479  0.5716  0.0317
  814MPD2    H711991   0.763   3.368  12.319  1.8558  0.3123  0.8800
  815MPD2     C11992   1.306   1.662  11.832 -0.8792 -0.7021 -0.1058
  815MPD2    C111993   1.279   1.532  11.870  0.2932  0.3529 -0.2801
  815MPD2    C211994   1.189   1.510  11.971  0.3146  0.1921 -0.2953
  815MPD2    C311995   1.130   1.618  12.035 -0.5981 -0.4598  0.3313
  815MPD2    C411996   1.171   1.748  12.008 -0.0719  0.1367 -0.1994
  815MPD2    C511997   1.265   1.768  11.909  0.3367  0.0073 -0.6680
  815MPD2     H11998   1.158   1.416  12.015  1.4770  0.5535  1.2687
  815MPD2    H111999   1.139   1.841  12.053  0.9926 -0.3251  1.5200
  815MPD2    H212000   1.376   1.684  11.753  0.8894  4.0470  2.7671
  815MPD2    H312001   1.301   1.867  11.883 -0.5327  0.3610 -0.5291
  815MPD2     N12002   1.019   1.590  12.116  0.3549  0.0082  0.5154
  815MPD2    H512003   0.984   1.495  12.119 -0.2076  0.2260  0.9276
  815MPD2    N112004   1.340   1.422  11.802 -0.1978  0.2901 -0.3630
  815MPD2    H712005   1.399   1.449  11.724  1.7642  0.2275  1.1180
  816MPD2     C12006   1.849   0.992  17.627 -0.2326 -0.4351 -0.0931
  816MPD2    C112007   1.885   1.124  17.617 -0.3724 -0.0290  0.3981
  816MPD2    C212008   1.987   1.150  17.536  0.1081 -1.1627  0.2917
  816MPD2    C312009   2.062   1.056  17.478 -0.3504  0.4592  0.6162
  816MPD2    C412010   2.038   0.929  17.508  0.1852 -0.6621 -0.4623
  816MPD2    C512011   1.930   0.889  17.579 -0.0668  0.0968  0.4215
  816MPD2     H12012   2.016   1.253  17.524 -0.8347 -1.1108 -1.5503
  816MPD2    H112013   2.104   0.851  17.472  2.2287  0.0592  1.7168
  816MPD2    H212014   1.761   0.953  17.679 -0.8156 -0.7777 -1.3273
  816MPD2    H312015   1.914   0.784  17.601  0.1499  0.3187  1.6109
  816MPD2     N12016   2.158   1.091  17.378 -0.4025 -0.7323 -0.4666
  816MPD2    H512017   2.218   1.022  17.335  0.7455  0.1330 -0.2602
  816MPD2    N112018   1.794   1.207  17.672  0.4690  0.0708  0.5915
  816MPD2    H712019   1.704   1.164  17.689 -0.8233  2.7865  0.5994
  817MPD2     C12020   0.642   2.226   9.422 -0.0223 -0.3088  0.0051
  817MPD2    C112021   0.579   2.103   9.382  0.5815  0.3916  0.3310
  817MPD2    C212022   0.464   2.117   9.316 -0.5913 -0.0367 -0.4779
  817MPD2    C312023   0.410   2.238   9.280  0.0999 -0.4959 -0.5314
  817MPD2    C412024   0.469   2.355   9.313  0.3978  0.4012  0.0559
  817MPD2    C512025   0.587   2.349   9.380 -0.0947  0.0992  0.7453
  817MPD2     H12026   0.412   2.025   9.296  0.0208  0.2068 -3.1604
  817MPD2    H112027   0.434   2.450   9.276 -1.1250  0.5366  1.8283
  817MPD2    H212028   0.736   2.231   9.475  1.3718  0.8614 -2.5601
  817MPD2    H312029   0.621   2.450   9.402 -0.8399  0.3566  0.7261
  817MPD2     N12030   0.296   2.237   9.192  0.3280  0.4567 -0.1771
  817MPD2    H512031   0.269   2.147   9.152 -0.2773  1.1031 -1.2041
  817MPD2    N112032   0.619   1.971   9.426  0.1474 -0.1452 -0.4094
  817MPD2    H712033   0.557   1.894   9.402  0.1381 -0.2791  0.0563
  818MPD2     C12034   4.483   2.148   9.723  0.3754 -0.2710 -0.5353
  818MPD2    C112035   4.526   2.268   9.771  0.3383  0.4755  0.9790
  818MPD2    C212036   4.653   2.257   9.812  0.4496  0.8102 -0.0388
  818MPD2    C312037   4.725   2.142   9.831 -0.3735  0.4203  0.1225
  818MPD2    C412038   4.677   2.023   9.796 -0.2963 -0.4379  0.2865
  818MPD2    C512039   4.558   2.035   9.739 -0.0320 -0.3352 -0.5190
  818MPD2     H12040   4.702   2.352   9.835  0.6220  0.5818  0.5444
  818MPD2    H112041   4.720   1.924   9.805 -0.4406 -0.3981  1.4903
  818MPD2    H212042   4.380   2.147   9.691  0.2399  0.2190 -0.1276
  818MPD2    H312043   4.522   1.936   9.713  0.5412 -0.5327 -0.5569
  818MPD2     N12044   0.121   2.140   9.897  0.9172 -0.1640 -0.8543
  818MPD2    H512045   0.161   2.048   9.915  1.1459  0.0205 -0.4191
  818MPD2    N112046   4.457   2.390   9.778 -0.3631  0.0316  0.1939
  818MPD2    H712047   4.498   2.457   9.841 -1.2318 -2.0895  2.9942
  819MPD2     C12048   2.797   4.494  15.573 -0.6876 -0.1858  0.5107
  819MPD2    C112049   2.776   4.373  15.632 -0.5480  0.3797 -0.1133
  819MPD2    C212050   2.880   4.323  15.716 -0.1085 -0.6331  0.3383
  819MPD2    C312051   2.997   4.393  15.733 -0.0408 -0.2641  0.4459
  819MPD2    C412052   3.012   4.514  15.660 -0.7672  0.4609 -0.2499
  819MPD2    C512053   2.913   4.563  15.585 -0.4252  0.2755  0.2740
  819MPD2     H12054   2.864   4.225  15.759 -0.4172 -1.0655 -0.7567
  819MPD2    H112055   3.104   4.570  15.665  0.6677 -1.9277  0.2834
  819MPD2    H212056   2.713   4.532  15.517  0.7860  0.7307 -1.0907
  819MPD2    H312057   2.925   4.660  15.539  0.6746 -1.1224 -2.3819
  819MPD2     N12058   3.087   4.356  15.840 -0.1986 -0.1954 -0.2872
  819MPD2    H512059   3.053   4.278  15.896 -2.7722  0.2210 -1.2570
  819MPD2    N112060   2.655   4.304  15.601  0.2803 -0.4913  0.1272
  819MPD2    H712061   2.582   4.362  15.560  0.0115 -0.7088  0.2919
  820MPD2     C12062   1.951   4.254  14.867 -0.2652  0.1967  0.1104
  820MPD2    C112063   2.008   4.355  14.949 -0.1456  0.3612  0.1590
  820MPD2    C212064   2.096   4.320  15.049 -0.0494 -0.2391  0.0002
  820MPD2    C312065   2.112   4.179  15.077 -0.2321 -0.3661  0.0123
  820MPD2    C412066   2.044   4.084  15.000  0.0219 -0.0845 -0.0164
  820MPD2    C512067   1.961   4.124  14.897 -0.0738  0.1105  0.9734
  820MPD2     H12068   2.144   4.392  15.115  2.2250 -0.9208 -0.9075
  820MPD2    H112069   2.054   3.978  15.023  3.4941  0.3047  0.2601
  820MPD2    H212070   1.884   4.280  14.785 -1.1572  0.0132  0.7777
  820MPD2    H312071   1.890   4.052  14.857 -0.9244  0.9889  0.8885
  820MPD2     N12072   2.196   4.127  15.184  0.0121  0.9546  0.0423
  820MPD2    H512073   2.178   4.029  15.203  0.6053  1.1335  1.5256
  820MPD2    N112074   1.967   4.489  14.926 -0.0762 -0.3105  0.0930
  820MPD2    H712075   1.905   4.502  14.847  0.9697  4.2884  0.0373
  821MPD2     C12076   2.887   0.600  13.603  0.0367 -1.1898  0.3648
  821MPD2    C112077   2.918   0.731  13.577  0.3206  0.5210 -0.0786
  821MPD2    C212078   2.993   0.752  13.465 -0.1464 -0.7732 -0.1139
  821MPD2    C312079   3.036   0.651  13.378  0.7684 -0.3928  0.0169
  821MPD2    C412080   2.990   0.527  13.407  0.4042 -0.3736 -0.0418
  821MPD2    C512081   2.924   0.498  13.522 -0.1921  0.0242  0.3932
  821MPD2     H12082   3.029   0.854  13.456 -0.7185 -0.4363  1.4320
  821MPD2    H112083   3.017   0.443  13.343 -1.8542 -1.4315  0.4023
  821MPD2    H212084   2.846   0.574  13.700 -1.2930  0.2874  0.2088
  821MPD2    H312085   2.889   0.396  13.527  1.5350 -0.5618  0.4970
  821MPD2     N12086   3.114   0.663  13.265  0.3907  0.1421  0.2022
  821MPD2    H512087   3.144   0.582  13.211  0.4091  0.1722  0.1679
  821MPD2    N112088   2.889   0.824  13.677  0.1775  0.3601 -0.0856
  821MPD2    H712089   2.857   0.798  13.769 -1.6368  0.8823 -0.5683
  822MPD2     C12090   3.808   1.083  15.786 -0.0338  0.1810  0.0332
  822MPD2    C112091   3.837   1.030  15.906 -0.0581 -0.4839 -0.0890
  822MPD2    C212092   3.781   1.088  16.020  0.1654  0.8013 -0.1058
  822MPD2    C312093   3.702   1.201  16.011  0.1611  0.1433  0.1578
  822MPD2    C412094   3.682   1.260  15.890 -0.1758  0.2890  0.0882
  822MPD2    C512095   3.734   1.200  15.778  0.6592  0.0235  0.6218
  822MPD2     H12096   3.793   1.046  16.120 -0.7222  2.5578  0.7480
  822MPD2    H112097   3.637   1.358  15.875 -0.1809  0.2572 -0.1074
  822MPD2    H212098   3.848   1.045  15.692 -0.8849 -2.2985  0.6777
  822MPD2    H312099   3.708   1.250  15.685 -1.3156 -1.6591  0.2697
  822MPD2     N12100   3.654   1.258  16.131  0.5485 -0.4573  0.0215
  822MPD2    H512101   3.681   1.211  16.216  0.0952 -4.0165 -1.8060
  822MPD2    N112102   3.929   0.919  15.914  0.4881  0.5636 -0.4165
  822MPD2    H712103   3.962   0.897  16.007  0.1164 -0.2347 -0.4750
  823MPD2     C12104   3.501   1.371  16.921  0.4787  0.3157 -0.0256
  823MPD2    C112105   3.467   1.289  16.812  0.1680  0.0094 -0.3087
  823MPD2    C212106   3.481   1.153  16.823  0.3636  0.5510 -0.3931
  823MPD2    C312107   3.521   1.093  16.945  0.3579  0.2750 -0.2811
  823MPD2    C412108   3.526   1.175  17.055  0.4001  0.0859  0.5195
  823MPD2    C512109   3.524   1.309  17.039 -0.0389 -0.3814  0.5099
  823MPD2     H12110   3.459   1.083  16.743 -0.8334  1.0099 -0.4614
  823MPD2    H112111   3.543   1.124  17.149  0.3312  0.5187  0.7682
  823MPD2    H212112   3.489   1.478  16.909 -0.8321  0.4188  2.1377
  823MPD2    H312113   3.536   1.373  17.126 -2.5184  0.4148  0.2690
  823MPD2     N12114   3.558   0.960  16.956 -0.0022 -0.4506 -0.4281
  823MPD2    H512115   3.590   0.936  17.049 -0.4682  0.9933  0.1080
  823MPD2    N112116   3.445   1.351  16.691 -0.5944 -0.3568 -0.1462
  823MPD2    H712117   3.430   1.452  16.691 -2.4277 -0.6279  0.5757
  824MPD2     C12118   4.047   0.085  15.711 -0.3185 -0.1578 -0.1917
  824MPD2    C112119   4.156   0.131  15.789  0.5101 -0.7019 -0.4750
  824MPD2    C212120   4.260   0.043  15.824  0.3644  0.4299 -0.0784
  824MPD2    C312121   4.266   4.639  15.777 -0.8855  0.0050 -0.1110
  824MPD2    C412122   4.156   4.597  15.699  0.6767 -0.3168 -0.2512
  824MPD2    C512123   4.048   4.680  15.668 -0.3724  0.0495  0.1384
  824MPD2     H12124   4.344   0.078  15.883  0.4685  0.4099 -0.2141
  824MPD2    H112125   4.158   4.492  15.670  0.0552 -0.5400  0.5176
  824MPD2    H212126   3.967   0.151  15.682  0.1237  1.2624  1.8134
  824MPD2    H312127   3.957   4.642  15.623 -0.5055  0.1631  0.3099
  824MPD2     N12128   4.378   4.558  15.805 -0.1828  0.9606 -0.2093
  824MPD2    H512129   4.451   4.598  15.863  1.3783 -0.1981 -1.3769
  824MPD2    N112130   4.173   0.273  15.825 -0.4166 -0.3341 -0.0163
  824MPD2    H712131   4.223   0.292  15.911 -1.7106  2.7784  0.0393
  825MPD2     C12132   0.069   4.524  15.204 -0.0002 -0.4947  0.0194
  825MPD2    C112133   0.077   4.596  15.317  0.0164  0.0938 -0.3126
  825MPD2    C212134   0.113   0.007  15.305  0.6210 -0.0859  0.2687
  825MPD2    C312135   0.154   0.054  15.181 -0.5351 -0.1587  0.1792
  825MPD2    C412136   0.152   4.702  15.068  0.0821 -0.6882 -0.0124
  825MPD2    C512137   0.107   4.581  15.082  0.2676  0.0778  0.4748
  825MPD2     H12138   0.120   0.069  15.394 -0.5039  0.7737 -0.2310
  825MPD2    H112139   0.185   0.019  14.975  1.5726 -0.3366  0.6863
  825MPD2    H212140   0.051   4.417  15.210  1.6860 -0.7771  0.1857
  825MPD2    H312141   0.109   4.512  14.998  2.1168  0.3880  0.2715
  825MPD2     N12142   0.197   0.184  15.160 -0.4549 -0.2077  0.1119
  825MPD2    H512143   0.194   0.216  15.064 -2.0842 -0.2887  0.1286
  825MPD2    N112144   0.054   4.528  15.441 -0.1516  0.0859  0.3628
  825MPD2    H712145   0.043   4.427  15.438  0.7332  0.0303 -0.9450
  826MPD2     C12146   4.222   0.219  14.060  0.3727  0.0705 -0.4685
  826MPD2    C112147   4.107   0.205  13.977 -0.5739 -0.0265 -0.1288
  826MPD2    C212148   3.996   0.287  13.997  0.3989  0.8143 -0.5426
  826MPD2    C312149   4.002   0.389  14.100  0.1378  0.0666 -0.8535
  826MPD2    C412150   4.111   0.400  14.181  0.0288 -0.5994 -0.1774
  826MPD2    C512151   4.221   0.316  14.157 -0.1563 -0.8125 -0.0137
  826MPD2     H12152   3.903   0.281  13.941  1.4181 -1.9124 -1.9010
  826MPD2    H112153   4.107   0.464  14.268  1.1563  1.0082 -1.3092
  826MPD2    H212154   4.308   0.156  14.046 -0.5351 -1.5568  1.2811
  826MPD2    H312155   4.297   0.315  14.235 -0.5864 -0.6549  0.4060
  826MPD2     N12156   3.905   0.488  14.130 -0.0495 -0.0249 -0.1309
  826MPD2    H512157   3.939   0.565  14.187 -0.7668  0.3256 -0.1663
  826MPD2    N112158   4.118   0.115  13.871  0.1022 -0.0506  0.0897
  826MPD2    H712159   4.211   0.077  13.856  0.3497  0.9111 -0.8402
  827MPD2     C12160   4.617   0.995   9.919  0.1956  0.2311  0.2462
  827MPD2    C112161   4.691   0.885   9.947  0.2298 -0.8728  0.6474
  827MPD2    C212162   4.673   0.766   9.877 -0.4241  0.8054 -0.4557
  827MPD2    C312163   4.580   0.747   9.773 -0.4111  0.3636  0.3292
  827MPD2    C412164   4.501   0.861   9.752  0.4728  0.1820 -0.2966
  827MPD2    C512165   4.528   0.981   9.817  0.5821  0.5373  0.3478
  827MPD2     H12166   4.722   0.674   9.907 -1.0035 -0.2764 -2.8398
  827MPD2    H112167   4.433   0.879   9.670 -1.3915 -0.5241  1.0933
  827MPD2    H212168   4.637   1.089   9.970 -0.2308  0.7858 -0.6117
  827MPD2    H312169   4.464   1.066   9.800 -0.5298 -0.4327 -0.3548
  827MPD2     N12170   4.570   0.621   9.708 -0.5120 -0.0838 -0.1021
  827MPD2    H512171   4.639   0.550   9.731  0.0994  0.6249  0.2298
  827MPD2    N112172   0.053   0.900  10.056  0.3302  0.4267 -0.1519
  827MPD2    H712173   0.047   0.988  10.106  1.4501 -0.3204  1.2852
  828MPD2     C12174   3.557   1.348  12.309 -0.5713 -0.2106 -0.3275
  828MPD2    C112175   3.520   1.379  12.177  0.0243 -0.0060  0.4892
  828MPD2    C212176   3.612   1.358  12.073 -0.2927 -0.2674 -0.2963
  828MPD2    C312177   3.738   1.298  12.099  0.3593 -0.7691 -0.0326
  828MPD2    C412178   3.774   1.268  12.229 -0.0235  0.3905  0.2998
  828MPD2    C512179   3.684   1.296  12.330 -0.0570 -0.0194 -0.4391
  828MPD2     H12180   3.577   1.378  11.972  1.6746 -2.8623 -1.4743
  828MPD2    H112181   3.869   1.228  12.264  1.0062  2.0298 -0.6619
  828MPD2    H212182   3.488   1.360  12.392 -2.8784  0.3526 -2.3277
  828MPD2    H312183   3.708   1.271  12.433 -0.4099  0.4467 -0.2415
  828MPD2     N12184   3.826   1.256  11.994  0.1432  0.2736 -0.1829
  828MPD2    H512185   3.903   1.199  12.029  0.2529  1.0301  0.7994
  828MPD2    N112186   3.389   1.430  12.140  0.4630  0.4854  0.5405
  828MPD2    H712187   3.364   1.451  12.044  1.7352  0.5748  0.2282
  829MPD2     C12188   2.706   1.435  11.434  0.5779 -0.2246  0.0287
  829MPD2    C112189   2.633   1.389  11.545  0.0941  0.1356  0.4679
  829MPD2    C212190   2.705   1.394  11.669 -0.6855 -0.5763  0.3021
  829MPD2    C312191   2.834   1.453  11.679  0.3744 -0.4318  0.2377
  829MPD2    C412192   2.896   1.508  11.571 -0.0076  0.1769 -1.0135
  829MPD2    C512193   2.830   1.495  11.447  0.2615  0.9102 -0.0122
  829MPD2     H12194   2.674   1.330  11.751 -0.3197 -1.1342  0.0087
  829MPD2    H112195   2.978   1.579  11.571  0.0780  0.0608  0.8546
  829MPD2    H212196   2.668   1.429  11.333 -0.1172  0.0605  0.2696
  829MPD2    H312197   2.877   1.532  11.357 -0.9539 -1.1754 -1.4880
  829MPD2     N12198   2.894   1.463  11.804  0.6776 -0.2466  0.2927
  829MPD2    H512199   2.847   1.412  11.878 -0.8697  0.8317  0.0485
  829MPD2    N112200   2.502   1.334  11.526  0.0839  0.0111  0.2696
  829MPD2    H712201   2.465   1.331  11.431 -0.6138  2.8259  0.4439
  830MPD2     C12202   3.264   3.804  16.304  0.1222 -0.1950 -0.0124
  830MPD2    C112203   3.210   3.917  16.248 -0.1815  0.1710 -0.1150
  830MPD2    C212204   3.157   3.907  16.122  0.5989  0.4852  0.0223
  830MPD2    C312205   3.184   3.799  16.044 -0.0469 -1.0381 -0.9160
  830MPD2    C412206   3.258   3.700  16.097 -0.0141 -0.3563  0.2988
  830MPD2    C512207   3.289   3.695  16.229  0.6722 -0.5160 -0.2879
  830MPD2     H12208   3.104   3.994  16.084 -1.3286 -0.6160  0.1678
  830MPD2    H112209   3.281   3.619  16.029  0.9815 -0.1662  0.4142
  830MPD2    H212210   3.296   3.814  16.407 -1.4848 -1.5170  0.6154
  830MPD2    H312211   3.334   3.604  16.268  1.1820  0.2460  0.9041
  830MPD2     N12212   3.146   3.789  15.906  0.0238  1.0730  0.2112
  830MPD2    H512213   3.177   3.701  15.866  1.2033  0.4995  2.4264
  830MPD2    N112214   3.194   4.037  16.328 -0.0135  0.6559 -0.3780
  830MPD2    H712215   3.181   4.023  16.427  0.0772 -1.9897 -0.7334
  831MPD2     C12216   3.925   1.243  16.503  0.1558  0.3364  0.2036
  831MPD2    C112217   3.934   1.164  16.395  0.3252  0.8288  0.4742
  831MPD2    C212218   3.838   1.066  16.379 -0.0044  0.5039 -0.2529
  831MPD2    C312219   3.730   1.046  16.466 -0.0789 -0.4765 -0.7343
  831MPD2    C412220   3.731   1.131  16.572  0.1094 -0.1984  0.8272
  831MPD2    C512221   3.823   1.224  16.599 -0.1535  0.1910 -0.1032
  831MPD2     H12222   3.843   0.996  16.297  0.9811  1.5208 -1.0612
  831MPD2    H112223   3.645   1.138  16.638 -0.6815 -1.3582 -0.0930
  831MPD2    H212224   4.005   1.311  16.530  2.5164 -2.6576  0.8103
  831MPD2    H312225   3.820   1.293  16.682 -0.6244  0.4689 -0.3517
  831MPD2     N12226   3.623   0.959  16.444  0.2060 -0.3037 -0.0524
  831MPD2    H512227   3.560   0.940  16.521  1.8956 -1.2246  1.0927
  831MPD2    N112228   4.024   1.194  16.288  0.0345  0.5121 -0.5312
  831MPD2    H712229   4.060   1.287  16.304 -0.7447  0.8384 -0.6853
  832MPD2     C12230   2.251   2.293  17.180 -0.6978  0.3255  0.0189
  832MPD2    C112231   2.143   2.369  17.199  0.4517  0.3971  0.9357
  832MPD2    C212232   2.032   2.336  17.132  0.3747 -0.0587  0.1901
  832MPD2    C312233   2.030   2.228  17.042  0.1180 -0.1996 -0.7188
  832MPD2    C412234   2.144   2.157  17.021  0.4933 -0.7959 -0.5127
  832MPD2    C512235   2.263   2.193  17.082  0.5231  0.5421  0.4342
  832MPD2     H12236   1.943   2.395  17.154  0.7643  1.0667 -1.2790
  832MPD2    H112237   2.157   2.092  16.935 -1.7776 -0.7161 -0.9139
  832MPD2    H212238   2.345   2.302  17.235 -1.2014  0.5240  0.8557
  832MPD2    H312239   2.357   2.143  17.065  0.1389  0.2050 -0.7140
  832MPD2     N12240   1.917   2.181  16.978  0.0137 -0.0013 -0.2394
  832MPD2    H512241   1.923   2.096  16.922 -1.3901 -0.4587  0.2830
  832MPD2    N112242   2.146   2.469  17.296 -0.0763 -0.1541 -0.2604
  832MPD2    H712243   2.233   2.486  17.346  0.5243  0.2415 -1.4402
  833MPD2     C12244   3.834   3.326  12.181 -0.1295  0.3429 -0.4538
  833MPD2    C112245   3.946   3.406  12.202  0.3288 -0.1593 -0.4407
  833MPD2    C212246   4.047   3.390  12.114  0.0148  0.0745 -0.6589
  833MPD2    C312247   4.052   3.286  12.024 -0.2547 -0.8017  0.5658
  833MPD2    C412248   3.933   3.214  12.002 -0.7777  0.2435 -0.1492
  833MPD2    C512249   3.823   3.240  12.077 -0.3585 -0.9160  0.3297
  833MPD2     H12250   4.140   3.446  12.118  0.5717 -0.7711 -1.8721
  833MPD2    H112251   3.929   3.144  11.919  0.5334 -0.2562  0.1999
  833MPD2    H212252   3.745   3.342  12.240  1.2000  3.0086  0.8411
  833MPD2    H312253   3.736   3.179  12.055 -0.8182 -0.4062  0.7314
  833MPD2     N12254   4.166   3.267  11.949 -0.4539 -0.5204 -0.3397
  833MPD2    H512255   4.249   3.305  11.993  0.7683 -1.9823 -1.3749
  833MPD2    N112256   3.953   3.502  12.313 -0.2957  0.3890 -0.1463
  833MPD2    H712257   3.871   3.511  12.371 -0.5877 -0.7962 -0.3765
  834MPD2     C12258   4.676   3.125  11.069 -0.3834  0.1466  0.9135
  834MPD2    C112259   4.573   3.029  11.095  0.2900  0.2061  0.5040
  834MPD2    C212260   4.499   3.062  11.208  0.1360  0.2349  0.3319
  834MPD2    C312261   4.511   3.192  11.274 -0.5125 -0.2622  0.0409
  834MPD2    C412262   4.613   3.280  11.238 -0.2547  0.5274 -0.3341
  834MPD2    C512263   4.695   3.244  11.132 -0.5172  0.4342  0.2956
  834MPD2     H12264   4.424   2.990  11.238 -0.0422 -0.6584 -2.2459
  834MPD2    H112265   4.634   3.374  11.287  0.1408  0.3516 -0.1659
  834MPD2    H212266   0.014   3.091  10.988 -0.9660  0.3518  0.3697
  834MPD2    H312267   0.054   3.306  11.105 -0.6326 -0.5978 -2.3974
  834MPD2     N12268   4.427   3.220  11.381 -0.5672 -0.5012 -0.0282
  834MPD2    H512269   4.373   3.143  11.419  0.4646 -1.9001 -1.4285
  834MPD2    N112270   4.565   2.914  11.014  0.1150 -0.7207 -0.1987
  834MPD2    H712271   4.623   2.915  10.931  1.6951 -1.1356  0.8984
  835MPD2     C12272   4.482   1.140  11.411  0.1075 -0.0036  0.2549
  835MPD2    C112273   4.372   1.220  11.450  0.0834 -0.9793 -0.1241
  835MPD2    C212274   4.387   1.303  11.569 -0.0673 -0.4895 -0.0546
  835MPD2    C312275   4.509   1.306  11.628  0.8508 -0.1607  0.2564
  835MPD2    C412276   4.616   1.227  11.584 -0.0946 -0.4234 -0.2929
  835MPD2    C512277   4.605   1.147  11.473  0.1829  0.1060 -0.2137
  835MPD2     H12278   4.303   1.358  11.609 -0.1468 -1.4178  1.0515
  835MPD2    H112279   4.706   1.221  11.645 -1.3184 -0.2470  1.5194
  835MPD2    H212280   4.496   1.067  11.332  0.8948 -1.2722  1.5530
  835MPD2    H312281   4.687   1.086  11.436  0.4643  0.6288 -0.4628
  835MPD2     N12282   4.537   1.384  11.745 -0.0490  0.3454 -0.2061
  835MPD2    H512283   4.626   1.385  11.793 -0.3582  1.0096  0.3630
  835MPD2    N112284   4.253   1.223  11.368  0.1517 -0.4925  0.4839
  835MPD2    H712285   4.176   1.280  11.401  2.0573  1.8114  0.9892
  836MPD2     C12286   3.959   1.613  11.871  0.4100 -0.5314 -0.0385
  836MPD2    C112287   4.008   1.623  11.997 -0.5818  0.3994  0.0988
  836MPD2    C212288   3.915   1.646  12.105 -0.6335  0.0014  0.4785
  836MPD2    C312289   3.779   1.648  12.079 -0.3376  0.2358 -0.7816
  836MPD2    C412290   3.734   1.648  11.949  0.2668 -0.5048 -0.0525
  836MPD2    C512291   3.824   1.630  11.851  0.1787 -0.2609 -0.7777
  836MPD2     H12292   3.953   1.641  12.207  1.2496  0.2566 -0.2077
  836MPD2    H112293   3.631   1.655  11.915 -0.0599  0.0401  1.0313
  836MPD2    H212294   4.028   1.623  11.787  0.1579  1.0424 -0.0625
  836MPD2    H312295   3.786   1.627  11.750 -0.2930  2.3153 -0.6674
  836MPD2     N12296   3.680   1.674  12.177 -0.3047 -0.0694 -0.0489
  836MPD2    H512297   3.581   1.685  12.156 -0.4706 -0.9872  0.2832
  836MPD2    N112298   4.149   1.632  12.011 -0.0983 -0.0373 -0.7245
  836MPD2    H712299   4.210   1.614  11.932  2.7667 -0.0401  1.4905
  837MPD2     C12300   3.020   4.512   9.673  0.2114 -1.4047 -1.2265
  837MPD2    C112301   2.921   4.559   9.752  0.3294  0.4589 -0.4228
  837MPD2    C212302   2.890   4.692   9.771 -0.3031  0.3521  1.1329
  837MPD2    C312303   2.961   0.057   9.693 -0.2104  0.4449 -0.4758
  837MPD2    C412304   3.074   0.016   9.620  0.0083  0.4263 -0.5705
  837MPD2    C512305   3.093   4.608   9.605  0.2534 -0.0838  0.7388
  837MPD2     H12306   2.811   0.004   9.834 -0.8593 -0.7302  1.0992
  837MPD2    H112307   3.127   0.082   9.552  1.3873  2.0246  2.0291
  837MPD2    H212308   3.040   4.407   9.656  0.0544 -1.3118 -1.9747
  837MPD2    H312309   3.173   4.575   9.541 -0.3686 -0.7397  0.2940
  837MPD2     N12310   2.918   0.190   9.691  0.5773  0.6562  0.6659
  837MPD2    H512311   2.836   0.214   9.747 -0.0000 -0.0033  0.1134
  837MPD2    N112312   2.835   4.472   9.814  0.2912  0.1209 -0.7927
  837MPD2    H712313   2.762   4.507   9.874 -0.4368 -1.1598 -0.9345
  838MPD2     C12314   0.672   4.102  11.478  0.2741  1.1030  0.2673
  838MPD2    C112315   0.648   4.167  11.593  0.0282 -0.3431  0.3525
  838MPD2    C212316   0.520   4.156  11.643  0.4112 -0.1062  0.3847
  838MPD2    C312317   0.426   4.062  11.584  0.1337 -0.0512 -0.8537
  838MPD2    C412318   0.465   3.997  11.467 -0.5116 -0.8999 -0.5176
  838MPD2    C512319   0.591   4.016  11.413  0.2243 -0.0533 -0.9658
  838MPD2     H12320   0.504   4.219  11.729  1.5612  0.1851  0.3888
  838MPD2    H112321   0.396   3.920  11.435 -0.2515 -1.7548  0.9447
  838MPD2    H212322   0.775   4.109  11.444 -1.0741 -1.0082 -4.1533
  838MPD2    H312323   0.624   3.967  11.323  1.6241  0.8694 -0.9480
  838MPD2     N12324   0.304   4.046  11.649 -0.0131  0.1426  0.4007
  838MPD2    H512325   0.281   4.112  11.722 -0.9518 -2.5365  2.5197
  838MPD2    N112326   0.743   4.241  11.668 -0.2318 -0.7571  0.0247
  838MPD2    H712327   0.698   4.313  11.724  1.1519  0.5665 -0.5436
  839MPD2     C12328   0.385   3.592  11.806 -0.1450  0.1573 -0.1472
  839MPD2    C112329   0.440   3.587  11.684 -0.5799 -0.3429  0.9042
  839MPD2    C212330   0.560   3.655  11.653  0.3249  0.3671 -0.3135
  839MPD2    C312331   0.624   3.721  11.757  0.2720  0.3258 -0.0763
  839MPD2    C412332   0.560   3.728  11.883 -0.0938  0.0452 -0.6368
  839MPD2    C512333   0.441   3.659  11.911  0.2827  0.2135 -0.2409
  839MPD2     H12334   0.599   3.653  11.552  1.7637  6.0984  0.1791
  839MPD2    H112335   0.607   3.779  11.967 -1.2692 -1.1907  0.7824
  839MPD2    H212336   0.306   3.523  11.832 -1.2388  1.4584 -0.0405
  839MPD2    H312337   0.398   3.648  12.010 -0.7360 -0.4828 -0.7571
  839MPD2     N12338   0.748   3.780  11.740 -0.4855  0.2846 -0.0965
  839MPD2    H512339   0.776   3.839  11.818  1.7219 -2.9462  1.5467
  839MPD2    N112340   0.373   3.527  11.582 -0.1673  0.1734 -0.2097
  839MPD2    H712341   0.407   3.559  11.492 -1.9313  2.5970 -0.0145
  840MPD2     C12342   0.410   1.421  10.196 -0.5050  0.3655  0.0291
  840MPD2    C112343   0.435   1.341  10.308  0.0491 -0.3483  0.6006
  840MPD2    C212344   0.492   1.388  10.425  0.3196  0.3089 -0.0524
  840MPD2    C312345   0.511   1.530  10.424 -0.7350 -0.3495  0.0753
  840MPD2    C412346   0.477   1.607  10.314 -0.0399  0.4324 -0.5400
  840MPD2    C512347   0.424   1.556  10.204 -0.5018 -0.6075 -0.0768
  840MPD2     H12348   0.520   1.333  10.514  1.2500  0.1874 -0.4202
  840MPD2    H112349   0.487   1.715  10.315  1.1024  0.3306 -0.8955
  840MPD2    H212350   0.374   1.383  10.100 -0.0462  1.1842 -0.4637
  840MPD2    H312351   0.395   1.622  10.123  2.0368  0.0556 -0.4672
  840MPD2     N12352   0.571   1.600  10.529 -0.3598  0.3067  0.6419
  840MPD2    H512353   0.585   1.698  10.506 -0.0354 -0.4053 -2.1647
  840MPD2    N112354   0.402   1.206  10.291  0.6901  0.2323 -0.8213
  840MPD2    H712355   0.358   1.181  10.203  0.8087  0.0042 -0.8150
  841MPD2     C12356   0.894   1.502  14.679  0.0018 -0.0403  0.4945
  841MPD2    C112357   0.957   1.385  14.667  0.0473 -0.3285 -0.2163
  841MPD2    C212358   1.098   1.376  14.693 -0.0869 -0.3277  1.0124
  841MPD2    C312359   1.177   1.481  14.729  0.2851  0.1692  0.2205
  841MPD2    C412360   1.111   1.600  14.754 -0.0487 -0.3244 -0.2001
  841MPD2    C512361   0.973   1.605  14.720 -0.8054  0.3035 -0.7603
  841MPD2     H12362   1.153   1.285  14.674 -0.4386 -0.5801  1.2017
  841MPD2    H112363   1.156   1.691  14.794  1.0410 -0.6038 -0.8141
  841MPD2    H212364   0.788   1.524  14.668  0.3415  0.5033 -1.6482
  841MPD2    H312365   0.915   1.694  14.738 -1.0640  0.3161 -1.6816
  841MPD2     N12366   1.309   1.459  14.765 -0.1565  0.0392  0.5138
  841MPD2    H512367   1.348   1.368  14.788 -0.4599 -0.4448 -0.8791
  841MPD2    N112368   0.896   1.256  14.633 -0.5340 -0.0215  0.7029
  841MPD2    H712369   0.964   1.186  14.609 -2.4677 -0.5748 -3.2656
  842MPD2     C12370   1.029   2.167  16.236  0.8484 -0.1621  0.1417
  842MPD2    C112371   0.906   2.138  16.297  0.2724 -0.2538 -0.4654
  842MPD2    C212372   0.898   2.130  16.439 -0.2008  0.6493  0.3744
  842MPD2    C312373   1.011   2.147  16.507 -0.4422 -0.0330 -0.5236
  842MPD2    C412374   1.136   2.157  16.448 -0.3930  0.2420  0.3728
  842MPD2    C512375   1.142   2.172  16.311 -0.0479  0.5606  0.4329
  842MPD2     H12376   0.804   2.111  16.491  1.0867 -0.6363  2.2199
  842MPD2    H112377   1.228   2.167  16.505 -0.8182 -0.4060  1.1775
  842MPD2    H212378   1.026   2.175  16.128  0.4860  1.5542  0.2866
  842MPD2    H312379   1.237   2.186  16.262 -0.0170  2.7477  1.1096
  842MPD2     N12380   1.001   2.156  16.649  0.7703  0.2776 -0.2247
  842MPD2    H512381   1.088   2.146  16.701  0.1319  1.1769  1.0098
  842MPD2    N112382   0.789   2.137  16.214 -0.3814  0.0609 -0.1522
  842MPD2    H712383   0.808   2.165  16.118  1.8635  2.3330  0.9510
  843MPD2     C12384   2.970   3.240   0.187 -0.3424 -0.1863  0.2666
  843MPD2    C112385   3.081   3.190   0.258  0.1462 -0.6786 -0.0893
  843MPD2    C212386   3.194   3.264   0.261  0.3683 -0.0668  0.0655
  843MPD2    C312387   3.206   3.390   0.206  0.1345 -0.9959 -0.3375
  843MPD2    C412388   3.094   3.443   0.149  0.0667 -0.1689 -0.8546
  843MPD2    C512389   2.983   3.361   0.129  0.0592  0.3884  1.0744
  843MPD2     H12390   3.284   3.222   0.304  1.6481  0.7280 -1.8035
  843MPD2    H112391   3.111   3.536   0.096  1.5836  0.2271  0.3228
  843MPD2    H212392   2.881   3.181   0.169 -0.0436 -0.2510 -0.9748
  843MPD2    H312393   2.911   3.388   0.053  0.4652 -1.1235  0.1495
  843MPD2     N12394   3.320   3.475   0.209  0.3793  0.1559 -0.0599
  843MPD2    H512395   3.313   3.573   0.184 -0.7666 -0.5432 -2.4531
  843MPD2    N112396   3.073   3.063   0.318 -0.5868 -0.0564  0.5290
  843MPD2    H712397   2.986   3.012   0.303  1.1330 -2.3346 -1.5474
  844MPD2     C12398   1.829   2.425  16.596  0.0402  0.2348  0.0167
  844MPD2    C112399   1.936   2.362  16.654 -0.2562 -0.2168 -0.0121
  844MPD2    C212400   2.010   2.423  16.761 -0.1240 -0.0049  0.7472
  844MPD2    C312401   1.972   2.538  16.812 -0.0311  0.3397 -0.0689
  844MPD2    C412402   1.866   2.603  16.754  0.2754  0.3337 -0.5780
  844MPD2    C512403   1.791   2.542  16.654  0.6005  0.5132  0.4922
  844MPD2     H12404   2.095   2.374  16.806 -0.6274 -1.2518  0.3235
  844MPD2    H112405   1.839   2.697  16.801  0.7432 -0.2321  0.8178
  844MPD2    H212406   1.777   2.386  16.509  1.0683  0.5904 -0.7588
  844MPD2    H312407   1.700   2.589  16.618  0.9109  1.3426  0.7759
  844MPD2     N12408   2.067   2.604  16.897 -0.0330  0.1805 -0.1089
  844MPD2    H512409   2.149   2.546  16.911  0.1534  0.7874  1.2848
  844MPD2    N112410   1.988   2.252  16.582 -0.6171  0.2908  0.3000
  844MPD2    H712411   1.938   2.241  16.495  0.3218 -3.2352  0.2324
  845MPD2     C12412   2.104   3.560  16.986  0.4101  0.1613  0.2956
  845MPD2    C112413   2.047   3.455  16.913 -0.7320 -0.0166 -0.1109
  845MPD2    C212414   2.099   3.333  16.923 -0.4203 -0.0743  0.4943
  845MPD2    C312415   2.203   3.307  17.012 -0.7967 -0.4870  0.0026
  845MPD2    C412416   2.261   3.405  17.087 -0.0854 -0.5339  0.6909
  845MPD2    C512417   2.204   3.530  17.078  0.5355 -0.2138 -0.6449
  845MPD2     H12418   2.050   3.244  16.886 -1.0694 -0.0670  1.3280
  845MPD2    H112419   2.328   3.390  17.171 -0.9518  1.1759  1.6900
  845MPD2    H212420   2.065   3.659  16.967  1.4421  0.4039 -0.5496
  845MPD2    H312421   2.240   3.612  17.139 -0.1230 -0.3167 -0.1184
  845MPD2     N12422   2.229   3.170  17.032  0.2922  0.1695  1.3236
  845MPD2    H512423   2.183   3.106  16.968  2.6816 -0.3204  0.1108
  845MPD2    N112424   1.936   3.473  16.837  0.0074  0.5049  0.0861
  845MPD2    H712425   1.892   3.391  16.795  1.6436 -0.2974 -0.0503
  846MPD2     C12426   3.292   3.346  13.632 -0.0800 -0.2875 -0.7144
  846MPD2    C112427   3.234   3.467  13.666  0.6829  0.5325  0.2741
  846MPD2    C212428   3.224   3.510  13.796 -0.2999  0.3645 -0.5313
  846MPD2    C312429   3.291   3.439  13.903 -0.8426  0.1774  0.0174
  846MPD2    C412430   3.358   3.326  13.862  0.3072  0.4314 -0.0241
  846MPD2    C512431   3.350   3.273  13.735  0.3835  0.2761 -0.6449
  846MPD2     H12432   3.170   3.603  13.812  0.2443  0.7122 -0.7071
  846MPD2    H112433   3.403   3.257  13.933  0.6765  0.1098 -0.5689
  846MPD2    H212434   3.292   3.291  13.538  1.6897 -1.8364  0.2072
  846MPD2    H312435   3.392   3.173  13.728 -3.3512 -1.4093  0.9552
  846MPD2     N12436   3.277   3.482  14.034  0.5651 -0.2262 -0.0223
  846MPD2    H512437   3.215   3.561  14.054  1.3875  0.0041  1.6285
  846MPD2    N112438   3.185   3.553  13.564  0.6356  0.0961  0.5447
  846MPD2    H712439   3.163   3.647  13.596 -0.8042 -0.3332  0.8430
  847MPD2     C12440   3.998   3.759  14.860 -0.1738 -0.2714 -0.1475
  847MPD2    C112441   3.980   3.897  14.847  0.0450  0.1204  0.9041
  847MPD2    C212442   4.002   3.973  14.957  0.7849 -0.4221  0.5671
  847MPD2    C312443   4.043   3.916  15.081 -0.1175 -0.6512  0.4790
  847MPD2    C412444   4.044   3.778  15.097  0.4115  0.1090  0.3019
  847MPD2    C512445   4.021   3.702  14.984 -0.1577 -0.3003 -0.1443
  847MPD2     H12446   3.990   4.079  14.943 -2.0778 -0.8130  0.1944
  847MPD2    H112447   4.068   3.727  15.190 -1.3843 -0.7166  0.3239
  847MPD2    H212448   3.968   3.684  14.788 -0.0008  0.5131 -1.0340
  847MPD2    H312449   4.004   3.596  14.998 -3.1518  0.2409  0.4545
  847MPD2     N12450   4.056   4.010  15.184 -0.7756  0.2166 -0.4597
  847MPD2    H512451   4.059   4.110  15.168  0.1771  0.0408 -1.2837
  847MPD2    N112452   3.941   3.961  14.730 -0.5107 -0.4298 -0.5187
  847MPD2    H712453   3.931   4.061  14.745 -1.6414 -0.8663  1.5380
  848MPD2     C12454   1.562   2.082  16.352  0.0208  0.2146  0.0362
  848MPD2    C112455   1.544   2.195  16.422 -0.6243  0.1710 -0.5281
  848MPD2    C212456   1.529   2.314  16.355  0.2059  0.0126 -0.6272
  848MPD2    C312457   1.535   2.317  16.215  0.1414 -1.0408 -0.1879
  848MPD2    C412458   1.563   2.206  16.147 -0.1502  0.2745  0.7152
  848MPD2    C512459   1.575   2.092  16.225 -0.2173 -0.4304  0.6614
  848MPD2     H12460   1.504   2.407  16.404  2.1960 -0.3460  1.0880
  848MPD2    H112461   1.596   2.204  16.044 -2.3174  1.7508  0.0022
  848MPD2    H212462   1.582   1.988  16.401 -0.2498 -1.5750 -3.2953
  848MPD2    H312463   1.612   2.001  16.180 -1.6871 -0.5058 -0.4097
  848MPD2     N12464   1.516   2.441  16.150  0.2776 -0.0708  0.1707
  848MPD2    H512465   1.513   2.527  16.205 -1.5720 -0.4717  0.6960
  848MPD2    N112466   1.528   2.198  16.562 -0.0260 -0.1910  0.2122
  848MPD2    H712467   1.524   2.288  16.609  1.0437 -1.2511  2.3329
  849MPD2     C12468   0.735   1.964  13.819 -0.0017  0.8031 -0.2953
  849MPD2    C112469   0.846   1.886  13.814  0.0169  0.1591  0.2548
  849MPD2    C212470   0.882   1.808  13.922  0.6154  0.3555  0.4267
  849MPD2    C312471   0.812   1.813  14.037 -0.7063  0.8874  0.3530
  849MPD2    C412472   0.694   1.886  14.044 -0.0871 -0.0784 -0.1305
  849MPD2    C512473   0.661   1.963  13.936 -0.3456 -0.0462  0.4128
  849MPD2     H12474   0.970   1.747  13.908  1.4192  1.9333 -1.2902
  849MPD2    H112475   0.635   1.879  14.134  3.1085  1.5324  2.0951
  849MPD2    H212476   0.702   2.021  13.734  0.5059  0.8401 -0.4651
  849MPD2    H312477   0.573   2.026  13.943  1.1576  2.3644 -2.4542
  849MPD2     N12478   0.848   1.744  14.148  0.1911  0.5496  0.1064
  849MPD2    H512479   0.795   1.759  14.233  0.5780 -0.3128  0.5110
  849MPD2    N112480   0.921   1.908  13.699 -0.2940 -0.2874 -0.1334
  849MPD2    H712481   0.877   1.951  13.619  0.4455  1.0568  0.1873
  850MPD2     C12482   3.860   0.133  14.678 -0.0945 -0.3449  0.0340
  850MPD2    C112483   3.901   0.163  14.808 -0.8798  0.1596 -0.0309
  850MPD2    C212484   3.964   0.276  14.830 -0.1663  0.4030  0.2233
  850MPD2    C312485   4.007   0.369  14.736 -0.2589 -0.4296  0.0138
  850MPD2    C412486   3.963   0.340  14.602  0.1519  0.1911  0.3012
  850MPD2    C512487   3.886   0.229  14.578  0.2366  0.0360  0.2572
  850MPD2     H12488   3.972   0.305  14.935  0.7236 -0.3525  0.3632
  850MPD2    H112489   3.998   0.404  14.521  1.2056 -0.5748  0.1444
  850MPD2    H212490   3.793   0.051  14.654 -0.6660  0.2337 -0.3523
  850MPD2    H312491   3.852   0.210  14.477 -1.2020 -0.2112  0.7897
  850MPD2     N12492   4.077   0.485  14.766 -0.2964 -0.4454  0.2885
  850MPD2    H512493   4.076   0.562  14.700 -1.0716 -0.2312  0.5536
  850MPD2    N112494   3.856   0.096  14.920 -0.2001 -0.2879  0.2246
  850MPD2    H712495   3.905   0.128  15.003 -1.2922 -0.1787  0.8307
  851MPD2     C12496   3.747   4.037  15.190 -0.2332 -0.6903  0.0644
  851MPD2    C112497   3.661   4.135  15.231 -0.0064 -0.1357  0.6524
  851MPD2    C212498   3.555   4.095  15.307 -0.5343 -0.1249 -0.3944
  851MPD2    C312499   3.537   3.962  15.354  0.5971 -0.6700 -0.5669
  851MPD2    C412500   3.629   3.870  15.319 -0.2061 -0.0647  0.4364
  851MPD2    C512501   3.733   3.909  15.240  0.3956 -0.7424 -0.0011
  851MPD2     H12502   3.486   4.168  15.347  2.3648  2.1645  0.3708
  851MPD2    H112503   3.625   3.764  15.342 -1.1404 -0.3110 -0.8746
  851MPD2    H212504   3.822   4.060  15.114 -0.8605 -0.8300 -0.6030
  851MPD2    H312505   3.803   3.834  15.206 -1.2495 -1.6322 -1.3614
  851MPD2     N12506   3.420   3.941  15.428 -0.0521  0.4982  0.4338
  851MPD2    H512507   3.354   4.018  15.420 -1.6876 -0.9513 -0.0874
  851MPD2    N112508   3.678   4.265  15.194 -0.2817 -0.1714 -0.0246
  851MPD2    H712509   3.766   4.287  15.148 -0.3516  0.5926  0.2076
  852MPD2     C12510   3.011   3.177  10.616  0.1981 -0.1082  0.1752
  852MPD2    C112511   3.138   3.125  10.634 -0.8471  0.0084 -0.2263
  852MPD2    C212512   3.241   3.180  10.557  0.0710  0.2886 -0.0420
  852MPD2    C312513   3.221   3.288  10.470  0.2962 -0.1071  0.0109
  852MPD2    C412514   3.095   3.348  10.469 -0.2233 -0.1308 -1.0874
  852MPD2    C512515   2.988   3.290  10.537 -0.2772  0.5883 -0.7840
  852MPD2     H12516   3.343   3.146  10.564  0.4355  1.6199  1.1251
  852MPD2    H112517   3.068   3.439  10.418 -1.6975  0.8446  1.4284
  852MPD2    H212518   2.924   3.146  10.673 -0.4858  2.3158  0.4673
  852MPD2    H312519   2.887   3.329  10.529  0.0615  0.6043 -4.8607
  852MPD2     N12520   3.331   3.337  10.403 -0.5702 -0.1171  0.7861
  852MPD2    H512521   3.412   3.277  10.396 -0.4088  0.1967 -0.0181
  852MPD2    N112522   3.170   3.025  10.733  0.3563 -0.3313 -0.1234
  852MPD2    H712523   3.267   3.006  10.754  0.9616  0.5716 -2.0351
  853MPD2     C12524   4.700   2.706  12.011  0.6663  0.2574  0.1128
  853MPD2    C112525   4.605   2.707  11.913  0.2886 -0.4279 -0.0520
  853MPD2    C212526   4.649   2.687  11.785  0.7770  0.2728  0.6309
  853MPD2    C312527   0.058   2.672  11.755  0.0754  0.2149  0.2649
  853MPD2    C412528   0.149   2.670  11.860  0.0866  0.7713  0.3942
  853MPD2    C512529   0.106   2.695  11.992 -0.0712 -0.3946  0.4704
  853MPD2     H12530   4.576   2.659  11.710  1.4146  1.5617 -0.4618
  853MPD2    H112531   0.255   2.653  11.843  0.4456  1.1929  2.2497
  853MPD2    H212532   4.673   2.711  12.116  0.4666 -1.6782  0.1399
  853MPD2    H312533   0.173   2.680  12.076 -1.0394  0.4425  1.3878
  853MPD2     N12534   0.107   2.655  11.625  0.5680 -0.7274  0.3900
  853MPD2    H512535   0.208   2.650  11.614  0.3756  0.5088 -1.9433
  853MPD2    N112536   4.473   2.742  11.950  0.3374 -0.4732 -0.9441
  853MPD2    H712537   4.456   2.758  12.049  1.7994 -0.6537 -0.6675
  854MPD2     C12538   1.634   3.405  13.105  1.2488  0.5764 -0.0153
  854MPD2    C112539   1.682   3.321  13.009  0.5192 -0.6819  0.0225
  854MPD2    C212540   1.714   3.193  13.046 -0.1448  0.0967  0.1966
  854MPD2    C312541   1.705   3.152  13.177 -0.4712 -0.2659 -0.6772
  854MPD2    C412542   1.655   3.238  13.270  0.7465 -0.2444 -0.6559
  854MPD2    C512543   1.621   3.361  13.236 -0.0668 -1.0804  0.1262
  854MPD2     H12544   1.761   3.123  12.978  0.0594  1.2082 -0.8127
  854MPD2    H112545   1.645   3.213  13.375  0.5580  0.9383 -0.3889
  854MPD2    H212546   1.593   3.503  13.084  0.2971  0.1011 -0.3640
  854MPD2    H312547   1.571   3.430  13.304  1.3549 -0.4627  0.5441
  854MPD2     N12548   1.743   3.024  13.226  0.3073 -0.8520 -0.1577
  854MPD2    H512549   1.741   3.013  13.327 -2.1282  0.3810 -0.0691
  854MPD2    N112550   1.680   3.367  12.875 -0.7543  0.2739  0.1260
  854MPD2    H712551   1.661   3.466  12.864 -0.6735  0.1981 -0.7318
  855MPD2     C12552   2.182   2.858  13.961 -0.6885 -0.2885  0.5828
  855MPD2    C112553   2.197   2.740  13.900  0.3572  0.3956 -0.2268
  855MPD2    C212554   2.134   2.722  13.780 -0.4426 -0.2173  0.7060
  855MPD2    C312555   2.048   2.815  13.717  0.1366  0.8662 -0.2832
  855MPD2    C412556   2.034   2.932  13.784  0.4831  0.0074 -0.1422
  855MPD2    C512557   2.109   2.955  13.893 -0.0211  0.7689 -0.3606
  855MPD2     H12558   2.149   2.629  13.726  0.1279 -0.3032  1.0113
  855MPD2    H112559   1.961   3.004  13.749  1.2340  1.3731  1.0793
  855MPD2    H212560   2.232   2.887  14.052  2.7284 -0.6887 -1.1735
  855MPD2    H312561   2.095   3.054  13.934  4.2050  1.1701  0.1449
  855MPD2     N12562   1.976   2.794  13.602 -0.2600  0.6679 -0.1580
  855MPD2    H512563   1.919   2.869  13.566 -2.8461 -1.0689  0.3577
  855MPD2    N112564   2.283   2.639  13.947  0.2247 -0.0040  0.7731
  855MPD2    H712565   2.294   2.557  13.888 -0.0862 -0.4198  1.3018
  856MPD2     C12566   4.057   3.632  14.131  0.4583  0.3641  1.2173
  856MPD2    C112567   4.158   3.730  14.138  0.1170  0.3026 -0.2876
  856MPD2    C212568   4.125   3.860  14.109  0.6724 -0.7698  0.8981
  856MPD2    C312569   3.993   3.896  14.081  0.1043  0.4161 -0.6617
  856MPD2    C412570   3.897   3.799  14.072 -0.5193  0.7508 -0.3663
  856MPD2    C512571   3.923   3.668  14.101 -0.4270  0.8251  0.0631
  856MPD2     H12572   4.200   3.938  14.112  0.6739 -0.7786  1.1128
  856MPD2    H112573   3.794   3.825  14.050 -0.6227  0.5252 -0.1521
  856MPD2    H212574   4.070   3.532  14.170 -0.5974  0.2080  1.1664
  856MPD2    H312575   3.838   3.602  14.111 -0.1404  0.4010 -0.3289
  856MPD2     N12576   3.950   4.027  14.047  0.1701 -0.0317  0.1257
  856MPD2    H512577   3.850   4.043  14.039  0.1351 -0.6164 -0.6366
  856MPD2    N112578   4.290   3.699  14.188  0.0618 -0.0502 -0.0279
  856MPD2    H712579   4.358   3.773  14.173 -0.9316  1.2670  1.8590
  857MPD2     C12580   0.957   0.907  12.654 -0.4422 -0.0987 -0.0928
  857MPD2    C112581   1.092   0.938  12.660 -0.0201  0.1541  0.5145
  857MPD2    C212582   1.125   1.068  12.652  0.2731  0.1986 -0.5560
  857MPD2    C312583   1.024   1.165  12.631  0.3240  0.1108 -0.1689
  857MPD2    C412584   0.892   1.136  12.615 -0.4317  0.7994 -0.1558
  857MPD2    C512585   0.858   1.007  12.631  0.1189  0.2437 -0.0350
  857MPD2     H12586   1.223   1.113  12.661  0.6114 -0.5193 -0.5919
  857MPD2    H112587   0.811   1.206  12.597 -1.7207  0.2128  3.4118
  857MPD2    H212588   0.934   0.803  12.669 -0.2842 -0.4444 -2.2626
  857MPD2    H312589   0.752   0.982  12.631  0.0402  0.5427 -1.5762
  857MPD2     N12590   1.074   1.300  12.624 -0.5800  0.1471 -0.8443
  857MPD2    H512591   1.175   1.306  12.622 -0.6558  1.8515  0.5533
  857MPD2    N112592   1.184   0.841  12.695 -0.8418 -0.1700 -0.3515
  857MPD2    H712593   1.147   0.752  12.727 -2.0542  0.6246  0.4586
  858MPD2     C12594   2.168   4.672  17.257  0.3874 -0.7530  0.2666
  858MPD2    C112595   2.269   4.694  17.164  0.1084 -0.0695  0.4606
  858MPD2    C212596   2.376   0.038  17.212  0.0055  0.1732  0.0561
  858MPD2    C312597   2.382   0.086  17.343  0.0678  0.5514  0.6005
  858MPD2    C412598   2.273   0.074  17.428  0.4260 -0.3610 -0.4019
  858MPD2    C512599   2.170   0.008  17.381 -0.6331 -0.1424  0.2521
  858MPD2     H12600   2.455   0.065  17.143  0.3022 -0.4413  0.1626
  858MPD2    H112601   2.275   0.102  17.533  1.0080 -1.2175 -0.1859
  858MPD2    H212602   2.078   4.620  17.227  0.2020 -2.7177  4.2815
  858MPD2    H312603   2.086   4.724  17.449  0.0924  2.6960  1.5739
  858MPD2     N12604   2.488   0.152  17.398 -0.8990 -0.1193  0.3777
  858MPD2    H512605   2.466   0.179  17.494 -0.8747  1.6867 -0.1193
  858MPD2    N112606   2.257   4.648  17.029  0.0191 -0.3074 -0.2346
  858MPD2    H712607   2.180   4.583  17.019  0.6886 -1.1227 -0.1629
  859MPD2     C12608   0.633   1.965  15.125  0.3264 -0.0272 -0.5484
  859MPD2    C112609   0.747   2.018  15.176 -0.4783 -0.7863 -0.0056
  859MPD2    C212610   0.795   1.954  15.290 -0.7736 -0.2770  0.0973
  859MPD2    C312611   0.734   1.844  15.345  0.2850 -0.2343 -0.4668
  859MPD2    C412612   0.613   1.800  15.307  0.5568 -0.0297  0.0791
  859MPD2    C512613   0.565   1.860  15.190 -0.3131  0.6730  0.2847
  859MPD2     H12614   0.883   1.991  15.341 -0.8818  0.8564 -0.5263
  859MPD2    H112615   0.560   1.716  15.352 -1.3961  1.8828  1.3643
  859MPD2    H212616   0.585   2.005  15.037  0.5135 -1.5918 -1.3624
  859MPD2    H312617   0.471   1.816  15.158  0.7540 -0.3972 -1.3278
  859MPD2     N12618   0.798   1.775  15.454  0.5781  0.2702  0.2670
  859MPD2    H512619   0.735   1.717  15.508  0.5544  0.4205  0.4028
  859MPD2    N112620   0.803   2.123  15.103 -0.6394 -0.5174  0.2556
  859MPD2    H712621   0.778   2.141  15.006 -0.7302 -0.5584  0.2712
  860MPD2     C12622   2.476   2.093  11.621  0.2689  0.3434  0.2245
  860MPD2    C112623   2.536   2.170  11.724 -0.1080  0.2594  0.0907
  860MPD2    C212624   2.463   2.192  11.833 -0.0263 -0.2244 -0.6113
  860MPD2    C312625   2.334   2.144  11.855  0.1960  1.1538 -0.0155
  860MPD2    C412626   2.275   2.067  11.759  0.1501  0.1366 -0.8487
  860MPD2    C512627   2.346   2.048  11.640 -0.6182 -0.1765 -0.6286
  860MPD2     H12628   2.518   2.249  11.907  0.2361 -2.1489  0.6743
  860MPD2    H112629   2.176   2.023  11.767  1.0416 -0.9730  3.8202
  860MPD2    H212630   2.530   2.060  11.533 -3.7088 -2.5007 -1.1329
  860MPD2    H312631   2.291   1.988  11.568  0.6990  0.2961 -2.0252
  860MPD2     N12632   2.257   2.182  11.964 -0.3176 -0.2463  0.0779
  860MPD2    H512633   2.157   2.173  11.955 -0.4825 -0.0642  1.6982
  860MPD2    N112634   2.673   2.210  11.733  0.1499  0.1995  0.1010
  860MPD2    H712635   2.713   2.259  11.813 -3.1881  2.7581  0.2000
  861MPD2     C12636   2.005   0.508  11.175 -0.5044  0.3485  0.4703
  861MPD2    C112637   1.896   0.431  11.208 -0.3319  0.0153  0.2300
  861MPD2    C212638   1.791   0.424  11.121  0.6320 -0.3734  0.1846
  861MPD2    C312639   1.790   0.497  11.001  0.0297 -0.4717 -0.4517
  861MPD2    C412640   1.901   0.579  10.970  0.3576 -0.1198 -0.1282
  861MPD2    C512641   2.008   0.585  11.057 -0.3756  0.0102  0.2017
  861MPD2     H12642   1.710   0.362  11.158  0.3094  0.9321  1.6579
  861MPD2    H112643   1.915   0.633  10.877  0.0284  0.9784  0.4591
  861MPD2    H212644   2.092   0.528  11.237  0.8278  1.6736 -1.7798
  861MPD2    H312645   2.095   0.648  11.040 -1.8146  1.0611 -3.3078
  861MPD2     N12646   1.692   0.503  10.904  0.5550 -0.5393 -0.6990
  861MPD2    H512647   1.709   0.552  10.817  1.8420  1.0389  0.4421
  861MPD2    N112648   1.885   0.359  11.328  0.3853 -0.4506 -0.2672
  861MPD2    H712649   1.794   0.315  11.342 -0.6735  1.8356  0.0796
  862MPD2     C12650   1.448   0.456  10.221  0.1936  0.0188  0.1312
  862MPD2    C112651   1.524   0.424  10.327  0.2573  0.5788 -0.0832
  862MPD2    C212652   1.603   0.317  10.329  0.5068  0.4450 -0.0143
  862MPD2    C312653   1.589   0.226  10.230  0.6636 -0.4690 -0.4280
  862MPD2    C412654   1.501   0.248  10.126 -0.2512 -0.2896 -0.2130
  862MPD2    C512655   1.426   0.360  10.126  0.5501 -0.3687  0.6263
  862MPD2     H12656   1.673   0.296  10.409 -0.2174  0.4636  0.6273
  862MPD2    H112657   1.468   0.175  10.053  1.1576 -2.5788  1.4278
  862MPD2    H212658   1.390   0.548  10.222  0.4761  0.2299 -1.8291
  862MPD2    H312659   1.349   0.371  10.051  0.1071 -0.9524  1.0014
  862MPD2     N12660   1.652   0.098  10.240  0.1758 -0.1468 -0.2323
  862MPD2    H512661   1.629   0.028  10.171  2.2514  1.3333 -2.4183
  862MPD2    N112662   1.531   0.494  10.447 -0.3737  0.5721 -0.2224
  862MPD2    H712663   1.578   0.443  10.521 -2.9689 -0.9557  0.3687
  863MPD2     C12664   0.652   3.138  16.893 -0.4102  0.2636 -0.6130
  863MPD2    C112665   0.620   3.269  16.853  0.6368 -0.4898  0.1165
  863MPD2    C212666   0.624   3.370  16.948  0.6257  0.3774  0.1114
  863MPD2    C312667   0.662   3.338  17.078 -0.6049 -0.0870 -0.0857
  863MPD2    C412668   0.682   3.207  17.124  0.5308  0.0352 -0.0590
  863MPD2    C512669   0.682   3.107  17.022  0.0360 -0.3588 -0.1622
  863MPD2     H12670   0.595   3.470  16.917 -0.6872  0.4162  1.4835
  863MPD2    H112671   0.690   3.184  17.229 -0.9628 -1.1062 -0.1891
  863MPD2    H212672   0.655   3.060  16.819 -2.7346 -0.8671  0.5028
  863MPD2    H312673   0.694   3.000  17.030 -2.6766 -0.7139 -0.7956
  863MPD2     N12674   0.660   3.435  17.181  0.1885  0.2236 -0.1094
  863MPD2    H512675   0.679   3.400  17.275 -1.5000 -0.4277 -0.0076
  863MPD2    N112676   0.585   3.286  16.723  0.4022 -0.5660 -0.2271
  863MPD2    H712677   0.557   3.207  16.665  1.5560 -1.6595  0.7138
  864MPD2     C12678   0.983   0.376  17.579 -0.3218  0.5270 -0.4045
  864MPD2    C112679   0.969   0.340  17.449  0.2727  0.2352  0.0121
  864MPD2    C212680   1.021   0.438  17.357  0.8944  0.1997 -0.3582
  864MPD2    C312681   1.087   0.555  17.393  0.6719 -0.0291 -0.0625
  864MPD2    C412682   1.106   0.567  17.524  0.0411  0.3976  0.0286
  864MPD2    C512683   1.052   0.489  17.622 -0.7394  0.2227 -0.0313
  864MPD2     H12684   1.000   0.421  17.252  0.0802  0.7527 -0.2893
  864MPD2    H112685   1.155   0.656  17.562 -0.5054 -0.2869  2.3252
  864MPD2    H212686   0.955   0.303  17.654 -1.4802  3.9687  2.4815
  864MPD2    H312687   1.068   0.510   0.022  2.9459 -0.4838 -0.4345
  864MPD2     N12688   1.131   0.653  17.302  0.1186 -0.4232 -0.1156
  864MPD2    H512689   1.189   0.724  17.346 -0.2910 -1.2870  1.8037
  864MPD2    N112690   0.914   0.216  17.410 -0.8608  0.0739 -0.2928
  864MPD2    H712691   0.885   0.154  17.485 -1.3105 -1.3313 -1.6274
  865MPD2     C12692   0.832   0.392  16.617 -0.1506  0.0597  0.0972
  865MPD2    C112693   0.945   0.441  16.554 -0.2614 -0.0941 -0.3538
  865MPD2    C212694   1.000   0.555  16.609  0.5649  0.4135 -0.1052
  865MPD2    C312695   0.941   0.623  16.711  0.0236  0.2573  0.0728
  865MPD2    C412696   0.818   0.581  16.761  0.1695 -0.2366 -0.4125
  865MPD2    C512697   0.763   0.469  16.712  0.0475 -0.0515 -0.7287
  865MPD2     H12698   1.097   0.587  16.573  1.4376 -2.1584 -0.0918
  865MPD2    H112699   0.762   0.639  16.834  0.9945 -0.2156  0.2042
  865MPD2    H212700   0.784   0.300  16.586 -0.8056  0.5590 -0.3654
  865MPD2    H312701   0.665   0.438  16.744 -1.1812  4.0310 -0.4923
  865MPD2     N12702   1.011   0.725  16.782  0.2553  0.7240 -0.0704
  865MPD2    H512703   0.969   0.763  16.867  0.3787  0.5953  0.0468
  865MPD2    N112704   1.007   0.359  16.458 -0.7727  0.2662  0.7128
  865MPD2    H712705   0.954   0.279  16.428  1.7815 -1.2218  0.1929
  866MPD2     C12706   2.374   0.686  11.692 -0.0650 -0.1699 -0.0589
  866MPD2    C112707   2.381   0.752  11.573 -0.0585  0.0010  0.0413
  866MPD2    C212708   2.266   0.765  11.498  0.0005 -0.3101  0.1914
  866MPD2    C312709   2.143   0.715  11.551 -0.1190 -0.9811 -0.4996
  866MPD2    C412710   2.142   0.648  11.673  0.1458  0.5099 -0.1378
  866MPD2    C512711   2.265   0.628  11.742  0.2236  0.1991  0.0427
  866MPD2     H12712   2.266   0.822  11.406 -1.2084  0.7270  0.8404
  866MPD2    H112713   2.050   0.596  11.699  0.2801  0.0000 -0.6838
  866MPD2    H212714   2.452   0.693  11.767  0.8344 -1.3673 -0.8722
  866MPD2    H312715   2.261   0.579  11.838 -2.7247 -1.1648 -0.7610
  866MPD2     N12716   2.018   0.732  11.484 -0.1967  0.1737  0.5326
  866MPD2    H512717   1.932   0.703  11.531 -0.5936  0.5399  0.0221
  866MPD2    N112718   2.497   0.825  11.552 -0.2004  0.1046  0.2018
  866MPD2    H712719   2.580   0.809  11.608  1.3496  0.9847 -1.8516
  867MPD2     C12720   0.213   0.472  16.721 -0.3830 -0.0095 -0.0031
  867MPD2    C112721   0.210   0.443  16.854  0.8370 -0.1063  1.1999
  867MPD2    C212722   0.189   0.553  16.940 -0.0598  0.2952 -0.3150
  867MPD2    C312723   0.177   0.685  16.893 -0.1620  0.6285 -0.2974
  867MPD2    C412724   0.178   0.707  16.754  0.1069  0.4733  0.0203
  867MPD2    C512725   0.204   0.603  16.675 -0.1490  0.2295 -0.1475
  867MPD2     H12726   0.187   0.537  17.047  0.1545 -1.1004 -0.5151
  867MPD2    H112727   0.157   0.803  16.708  3.9668  0.6808 -1.2978
  867MPD2    H212728   0.225   0.396  16.645 -2.0074 -1.4851  1.2059
  867MPD2    H312729   0.208   0.627  16.569  1.5121  2.3091  0.3779
  867MPD2     N12730   0.180   0.801  16.985 -0.0165  0.6385  0.4671
  867MPD2    H512731   0.163   0.890  16.939  0.0415 -0.4954 -1.7796
  867MPD2    N112732   0.216   0.307  16.888 -0.3061  0.0503  0.5275
  867MPD2    H712733   0.250   0.245  16.816  0.1055 -0.8314  1.4790
  868MPD2     C12734   1.544   4.377  13.650  0.0076 -0.3092  0.6232
  868MPD2    C112735   1.506   4.254  13.697  0.2290  0.7738  0.1930
  868MPD2    C212736   1.406   4.250  13.795 -0.0802  0.5957  0.4825
  868MPD2    C312737   1.339   4.365  13.836  0.0955 -0.1578  0.3754
  868MPD2    C412738   1.390   4.487  13.796 -0.5615 -0.1609 -0.7288
  868MPD2    C512739   1.488   4.489  13.704 -0.0496 -0.0816  0.4462
  868MPD2     H12740   1.381   4.161  13.851  3.0751 -0.6287 -0.0450
  868MPD2    H112741   1.345   4.583  13.819 -0.4130 -0.5597  1.1836
  868MPD2    H212742   1.633   4.380  13.588 -0.5824  0.6546 -0.1922
  868MPD2    H312743   1.530   4.582  13.666 -1.7645  0.4775 -0.0980
  868MPD2     N12744   1.220   4.347  13.907  0.5456 -0.0111  0.3091
  868MPD2    H512745   1.187   4.252  13.922 -0.8523 -0.0006 -2.7715
  868MPD2    N112746   1.574   4.137  13.654 -0.5326 -0.5928 -0.6445
  868MPD2    H712747   1.657   4.151  13.596 -1.8020  0.9516 -2.1192
  869MPD2     C12748   3.054   1.516   1.803 -0.0241 -0.0471  0.8016
  869MPD2    C112749   3.162   1.572   1.745 -0.2167  0.2307 -0.6185
  869MPD2    C212750   3.141   1.649   1.626  0.9203 -0.6023 -0.2207
  869MPD2    C312751   3.015   1.670   1.576  0.2377 -0.6797  0.3711
  869MPD2    C412752   2.910   1.618   1.643  0.3573  0.2017 -0.5370
  869MPD2    C512753   2.929   1.548   1.758 -0.5882 -0.6718  0.8562
  869MPD2     H12754   3.223   1.684   1.564  0.8366  2.0490  1.1674
  869MPD2    H112755   2.808   1.621   1.606 -0.1241 -0.6803  0.6916
  869MPD2    H212756   3.066   1.448   1.887 -0.3280 -0.4574  0.5104
  869MPD2    H312757   2.844   1.497   1.802  0.2278 -1.8045  1.1542
  869MPD2     N12758   2.978   1.741   1.458 -0.4369  0.0882  0.1431
  869MPD2    H512759   2.881   1.740   1.429 -0.0007 -0.4442 -1.2892
  869MPD2    N112760   3.281   1.543   1.807 -0.8820 -0.5475  0.1254
  869MPD2    H712761   3.270   1.473   1.880  2.2787 -0.8252  0.3542
  870MPD2     C12762   3.185   0.309   2.285 -0.0620 -0.3712  0.0040
  870MPD2    C112763   3.071   0.248   2.261  0.0057  0.2900  0.3251
  870MPD2    C212764   3.012   0.251   2.136  0.1787 -0.4905 -0.4025
  870MPD2    C312765   3.065   0.334   2.040 -0.3732  0.1947  0.3585
  870MPD2    C412766   3.186   0.399   2.070  0.1796  0.1859  0.7679
  870MPD2    C512767   3.242   0.386   2.194 -0.4219  0.0794  0.4005
  870MPD2     H12768   2.919   0.198   2.118 -0.6762  0.8490  0.1524
  870MPD2    H112769   3.239   0.463   2.000 -2.0010  0.8494 -0.2827
  870MPD2    H212770   3.222   0.284   2.384 -1.3352  1.8338  1.0311
  870MPD2    H312771   3.339   0.433   2.212 -0.0099 -0.6628  0.0902
  870MPD2     N12772   2.997   0.359   1.916  0.0720  0.3217  0.1831
  870MPD2    H512773   2.926   0.295   1.882  0.8739 -0.1178 -0.6740
  870MPD2    N112774   3.028   0.174   2.375 -0.4049 -0.0619 -0.0213
  870MPD2    H712775   3.084   0.191   2.458  1.9659 -1.6881 -1.3058
  871MPD2     C12776   3.830   0.652  16.376 -0.7613 -0.5659 -0.1095
  871MPD2    C112777   3.822   0.547  16.461  0.3317  0.0284  0.2590
  871MPD2    C212778   3.846   0.420  16.416 -0.3096 -0.0809 -0.3131
  871MPD2    C312779   3.884   0.399  16.289 -0.5361  0.4773 -0.2635
  871MPD2    C412780   3.892   0.503  16.205  0.8586 -0.3494 -0.0770
  871MPD2    C512781   3.877   0.628  16.251  0.7091 -0.1391  0.4741
  871MPD2     H12782   3.844   0.341  16.489  0.4675 -0.8748 -1.1553
  871MPD2    H112783   3.922   0.495  16.101  0.9836 -1.3325  0.0323
  871MPD2    H212784   3.814   0.756  16.402 -0.6519 -1.1817  2.4003
  871MPD2    H312785   3.887   0.705  16.176 -0.2338  0.4601  0.9491
  871MPD2     N12786   3.908   0.266  16.244  0.3747 -0.4280 -0.5544
  871MPD2    H512787   3.863   0.193  16.298 -0.2759  0.7526  0.4766
  871MPD2    N112788   3.784   0.574  16.598 -0.1967 -0.5433  0.1517
  871MPD2    H712789   3.773   0.673  16.622 -0.8947 -0.2503 -1.3961
  872MPD2     C12790   3.926   3.489  13.791 -0.1065 -0.1947 -0.5961
  872MPD2    C112791   4.002   3.403  13.877 -0.0022  0.2743  0.0546
  872MPD2    C212792   3.934   3.310  13.952  0.7780 -0.2351 -0.0957
  872MPD2    C312793   3.794   3.309  13.949 -0.1633  0.4155 -0.8296
  872MPD2    C412794   3.720   3.400  13.883 -0.2565 -0.1166  0.5073
  872MPD2    C512795   3.786   3.490  13.802 -0.4248 -0.0359 -0.6382
  872MPD2     H12796   3.994   3.246  14.015 -0.8552 -1.6046  0.0609
  872MPD2    H112797   3.612   3.409  13.886 -0.3798 -1.9288  1.4855
  872MPD2    H212798   3.971   3.558  13.720 -1.0816  2.0121  0.9443
  872MPD2    H312799   3.733   3.565  13.743 -2.4305 -2.0538 -1.4116
  872MPD2     N12800   3.723   3.224  14.034  0.0113  0.0362  0.3351
  872MPD2    H512801   3.624   3.239  14.054  0.1458  1.4942 -0.0953
  872MPD2    N112802   4.145   3.407  13.890  0.3321 -0.3378  0.0915
  872MPD2    H712803   4.175   3.349  13.967  0.9783 -2.6961 -1.9310
  873MPD2     C12804   1.357   2.618   0.580  0.0561  0.0146  0.1256
  873MPD2    C112805   1.406   2.648   0.702 -0.2788 -0.2599  0.0578
  873MPD2    C212806   1.500   2.563   0.756 -0.2659  0.2582 -0.7253
  873MPD2    C312807   1.521   2.434   0.698 -0.6676 -0.1878 -0.9735
  873MPD2    C412808   1.450   2.400   0.585 -0.0416 -0.0196 -0.2430
  873MPD2    C512809   1.376   2.503   0.518  0.0108  0.9047 -0.7189
  873MPD2     H12810   1.554   2.577   0.850 -0.4288  0.8108 -0.7151
  873MPD2    H112811   1.468   2.309   0.529 -2.6115 -0.8330  0.2586
  873MPD2    H212812   1.279   2.679   0.534  0.8419  0.8408 -0.1077
  873MPD2    H312813   1.329   2.487   0.422 -1.1825  0.1379 -0.0050
  873MPD2     N12814   1.593   2.338   0.764  0.1993 -1.1211  0.1060
  873MPD2    H512815   1.580   2.245   0.723 -0.4560 -1.1983  0.5009
  873MPD2    N112816   1.372   2.766   0.765  0.2426 -0.4793 -0.3107
  873MPD2    H712817   1.321   2.835   0.710  1.1957  1.4646  1.2238
  874MPD2     C12818   0.727   2.597  15.617 -0.5262 -0.4421  0.5073
  874MPD2    C112819   0.769   2.529  15.727  0.3943 -0.0652  0.3653
  874MPD2    C212820   0.904   2.539  15.766 -0.1997  0.2774  0.4595
  874MPD2    C312821   1.000   2.612  15.697  0.7480  0.0825 -0.3681
  874MPD2    C412822   0.961   2.673  15.579 -0.7723  0.0546 -0.2959
  874MPD2    C512823   0.828   2.669  15.550  0.0381 -1.0758 -0.3621
  874MPD2     H12824   0.947   2.481  15.847 -2.3749 -2.0332 -0.0435
  874MPD2    H112825   1.031   2.733  15.522 -3.5011  2.4536 -1.1181
  874MPD2    H212826   0.630   2.597  15.568 -0.5133  1.9093  0.4629
  874MPD2    H312827   0.800   2.734  15.468 -1.8969 -2.0995 -0.5079
  874MPD2     N12828   1.134   2.623  15.751  0.0464  0.2907 -0.4703
  874MPD2    H512829   1.163   2.568  15.831  2.5952  0.9625 -0.9434
  874MPD2    N112830   0.680   2.445  15.800  0.6178 -0.4072  0.0719
  874MPD2    H712831   0.584   2.439  15.770 -0.1250  0.7381  2.1447
  875MPD2     C12832   2.546   1.546  14.733 -0.1018 -0.0340 -0.3298
  875MPD2    C112833   2.434   1.489  14.791  0.7440 -0.2575 -0.1356
  875MPD2    C212834   2.421   1.494  14.927 -0.5526 -0.0870  0.6120
  875MPD2    C312835   2.523   1.553  15.006 -0.1578 -0.8744  0.2633
  875MPD2    C412836   2.630   1.606  14.947  0.1761  0.4123  0.2803
  875MPD2    C512837   2.643   1.612  14.808  0.8046 -0.1776 -0.0724
  875MPD2     H12838   2.342   1.448  14.984 -1.3611 -0.0853 -0.5010
  875MPD2    H112839   2.716   1.631  15.009  1.7020 -2.4375 -0.6660
  875MPD2    H212840   2.560   1.545  14.625 -1.2419  2.7951 -0.5082
  875MPD2    H312841   2.737   1.641  14.763  1.3565  0.1683  1.3023
  875MPD2     N12842   2.529   1.554  15.151 -0.0975 -0.3075 -0.7704
  875MPD2    H512843   2.599   1.616  15.190  0.3806  0.8960 -3.5086
  875MPD2    N112844   2.329   1.426  14.717  0.1128  0.5937 -0.3253
  875MPD2    H712845   2.253   1.389  14.775  0.4506 -1.9482 -1.5175
  876MPD2     C12846   0.829   2.125  15.599  0.0752 -0.1329  0.0423
  876MPD2    C112847   0.951   2.180  15.647 -0.9683 -1.0033  0.3340
  876MPD2    C212848   1.004   2.133  15.768 -0.1581  0.1428 -0.6062
  876MPD2    C312849   0.946   2.033  15.840 -0.0933  0.0262  0.1512
  876MPD2    C412850   0.837   1.973  15.791 -0.0403 -0.1071 -0.0605
  876MPD2    C512851   0.778   2.020  15.676  0.3505 -0.7409 -0.0730
  876MPD2     H12852   1.086   2.187  15.815 -0.5756  2.0276 -2.0283
  876MPD2    H112853   0.779   1.897  15.843  0.6385 -0.4488  0.1912
  876MPD2    H212854   0.781   2.150  15.505  0.7277 -1.2092 -0.5731
  876MPD2    H312855   0.698   1.954  15.644 -0.7302  0.5106  0.0505
  876MPD2     N12856   1.014   1.973  15.956  0.0917  0.2521 -0.1117
  876MPD2    H512857   1.111   1.999  15.969  0.8683 -1.5858 -2.2270
  876MPD2    N112858   1.008   2.278  15.559  0.0356  0.1879  0.4854
  876MPD2    H712859   0.950   2.299  15.479  0.7136 -2.7197 -0.7827
  877MPD2     C12860   0.887   2.811  15.006  0.3649  0.1915  0.0771
  877MPD2    C112861   1.019   2.776  15.002 -0.2648  0.4790 -0.5291
  877MPD2    C212862   1.085   2.806  14.888 -0.1175 -0.1162 -0.4387
  877MPD2    C312863   1.022   2.851  14.776  0.7929  0.4360  0.2426
  877MPD2    C412864   0.899   2.903  14.785  0.6386 -0.6653  0.6027
  877MPD2    C512865   0.825   2.882  14.902 -0.3163  0.2862 -0.5017
  877MPD2     H12866   1.192   2.790  14.895 -0.1237  0.7754  1.6027
  877MPD2    H112867   0.853   2.951  14.699 -0.5047  0.3341  1.7773
  877MPD2    H212868   0.827   2.797  15.095  1.6451  1.9452  1.2125
  877MPD2    H312869   0.718   2.900  14.910 -0.2212  0.7940 -0.4144
  877MPD2     N12870   1.087   2.838  14.652  0.1849  0.3306 -0.2669
  877MPD2    H512871   1.044   2.882  14.572 -0.0983  0.8850  0.1903
  877MPD2    N112872   1.086   2.707  15.106  0.2802 -0.1087 -0.1521
  877MPD2    H712873   1.184   2.681  15.096  0.0365 -1.2072  0.3138
  878MPD2     C12874   0.727   1.799  12.872 -0.0564 -0.2513  0.7549
  878MPD2    C112875   0.729   1.910  12.956  0.0084 -0.4445 -0.2530
  878MPD2    C212876   0.819   1.903  13.063  0.0259 -0.5164 -0.1910
  878MPD2    C312877   0.900   1.796  13.088  0.9962 -0.1734  0.0232
  878MPD2    C412878   0.899   1.692  12.993  0.0778 -0.2449 -0.6099
  878MPD2    C512879   0.816   1.700  12.890  0.8154 -0.2070 -0.2490
  878MPD2     H12880   0.825   1.983  13.136 -1.9261 -1.3378  0.8559
  878MPD2    H112881   0.968   1.608  13.002  0.7244  0.3085 -0.4000
  878MPD2    H212882   0.660   1.809  12.788 -0.7077 -0.7821  1.2129
  878MPD2    H312883   0.817   1.625  12.812 -1.0567  2.1993 -2.5796
  878MPD2     N12884   0.986   1.803  13.196 -0.1256  0.0270  0.1239
  878MPD2    H512885   0.990   1.892  13.246  2.1515 -0.9811  1.7299
  878MPD2    N112886   0.637   2.011  12.920  0.2548 -0.4531  0.4543
  878MPD2    H712887   0.600   2.001  12.826  0.0464  0.2456  0.4632
  879MPD2     C12888   1.049   4.122  17.091  0.5513 -0.2332 -0.3792
  879MPD2    C112889   1.126   4.033  17.163 -0.3478  0.4388  0.1784
  879MPD2    C212890   1.108   3.899  17.136 -0.8445  0.2637 -0.8793
  879MPD2    C312891   1.005   3.852  17.056  0.2711 -0.0623  0.1221
  879MPD2    C412892   0.928   3.938  16.982  0.0994 -0.3900  0.4220
  879MPD2    C512893   0.959   4.076  16.999 -0.3322 -0.4124 -0.0837
  879MPD2     H12894   1.159   3.826  17.198 -0.5776 -1.1429 -2.7520
  879MPD2    H112895   0.866   3.896  16.904 -0.8077  1.0361  0.3739
  879MPD2    H212896   1.057   4.228  17.111 -1.4336 -0.1577  0.0346
  879MPD2    H312897   0.895   4.150  16.951  0.2352  0.3751  0.3674
  879MPD2     N12898   0.994   3.709  17.038 -0.2287 -0.0130 -0.1218
  879MPD2    H512899   0.931   3.674  16.968 -0.2328  0.8996 -0.5788
  879MPD2    N112900   1.218   4.086  17.257 -0.0621 -0.0552  0.5835
  879MPD2    H712901   1.218   4.184  17.281  1.3298  0.3899 -1.2590
  880MPD2     C12902   3.639   0.228   0.253 -0.4990 -0.3104  0.3877
  880MPD2    C112903   3.670   0.288   0.372 -0.4966  0.3345 -0.5418
  880MPD2    C212904   3.790   0.252   0.435  0.6749  0.5093 -0.4173
  880MPD2    C312905   3.874   0.165   0.371 -0.2365 -0.0349  0.6617
  880MPD2    C412906   3.844   0.117   0.249 -0.8577 -0.3305  0.6699
  880MPD2    C512907   3.728   0.144   0.188  0.0065  0.3459 -0.2892
  880MPD2     H12908   3.828   0.301   0.524  0.0029  1.7908 -0.8391
  880MPD2    H112909   3.921   0.053   0.207 -0.5609 -0.5563  1.5514
  880MPD2    H212910   3.550   0.255   0.199 -0.4483  0.4190  0.6756
  880MPD2    H312911   3.710   0.107   0.088 -0.1883 -1.9184  0.5595
  880MPD2     N12912   4.002   0.138   0.435 -0.0679 -0.2136 -0.0347
  880MPD2    H512913   4.016   0.186   0.523 -0.3600 -0.9094  0.3889
  880MPD2    N112914   3.574   0.374   0.422 -0.4791  0.6938  0.4171
  880MPD2    H712915   3.499   0.407   0.361  0.2246  2.0401  0.2794
  881MPD2     C12916   3.252   1.289   0.270 -0.1415  0.4311 -0.1953
  881MPD2    C112917   3.303   1.179   0.208 -0.9271  0.3969 -0.2457
  881MPD2    C212918   3.328   1.062   0.281 -0.2979 -0.0497  0.7114
  881MPD2    C312919   3.306   1.062   0.417  0.0962 -0.7113 -0.0000
  881MPD2    C412920   3.252   1.173   0.475  0.3335 -0.8527  0.0972
  881MPD2    C512921   3.237   1.290   0.404 -1.1787 -0.5662 -0.6179
  881MPD2     H12922   3.392   0.985   0.241 -2.1814 -1.0339 -0.3736
  881MPD2    H112923   3.226   1.173   0.580 -0.8517 -0.4895 -0.1966
  881MPD2    H212924   3.227   1.381   0.218 -2.3273 -0.1193 -0.1271
  881MPD2    H312925   3.184   1.367   0.458  0.5623 -0.1759  0.5274
  881MPD2     N12926   3.345   0.953   0.503 -0.5506  0.5282  0.3488
  881MPD2    H512927   3.333   0.968   0.602  1.2442  0.6556  0.5557
  881MPD2    N112928   3.298   1.182   0.067  0.3159  0.0117  0.2928
  881MPD2    H712929   3.263   1.264   0.018  1.1788 -0.1398 -0.5989
  882MPD2     C12930   0.710   2.397  14.096 -0.0415 -0.7972 -0.0700
  882MPD2    C112931   0.740   2.521  14.145  0.4964  0.2596 -0.0569
  882MPD2    C212932   0.642   2.625  14.135 -0.1372  0.7535  0.1978
  882MPD2    C312933   0.521   2.594  14.079 -0.2800 -0.1487 -0.1357
  882MPD2    C412934   0.491   2.466  14.036  0.6363  0.1643  0.8611
  882MPD2    C512935   0.584   2.368  14.043  0.0736 -0.1838  0.4457
  882MPD2     H12936   0.662   2.730  14.156  0.7067  0.6984 -0.3326
  882MPD2    H112937   0.388   2.441  14.015  0.8170 -0.6228  0.9193
  882MPD2    H212938   0.775   2.311  14.104  4.9359  2.8690 -0.9670
  882MPD2    H312939   0.557   2.266  14.020  2.4836 -0.5601 -0.6355
  882MPD2     N12940   0.407   2.686  14.080 -0.1917  0.3930  0.0752
  882MPD2    H512941   0.318   2.646  14.052 -0.5130  2.6512 -2.1380
  882MPD2    N112942   0.868   2.537  14.205 -0.6111  0.9477  0.2833
  882MPD2    H712943   0.935   2.462  14.189 -0.9710  0.1315  2.6209
  883MPD2     C12944   2.783   3.037  16.489  0.7005 -0.0531  0.0859
  883MPD2    C112945   2.875   3.068  16.382  1.0190 -0.6201  0.0306
  883MPD2    C212946   2.999   3.115  16.416 -0.0306 -0.5727  0.1101
  883MPD2    C312947   3.034   3.131  16.550 -0.1681  0.6019  0.7404
  883MPD2    C412948   2.943   3.098  16.650 -0.0507 -0.1306 -0.1620
  883MPD2    C512949   2.822   3.058  16.615 -0.6985  0.1251  0.7257
  883MPD2     H12950   3.068   3.140  16.336 -0.9618  0.6519 -0.3093
  883MPD2    H112951   2.961   3.115  16.755 -1.8357  1.1209 -0.0584
  883MPD2    H212952   2.689   2.985  16.476  1.3814 -1.2093 -0.2345
  883MPD2    H312953   2.756   3.032  16.697  3.1961 -4.4438  2.3831
  883MPD2     N12954   3.161   3.187  16.577 -0.2719  0.2243 -0.1406
  883MPD2    H512955   3.225   3.198  16.500 -0.1749  0.1923 -0.0645
  883MPD2    N112956   2.837   3.062  16.245 -0.2599  0.6733 -0.5026
  883MPD2    H712957   2.914   3.068  16.179  0.9766 -2.6066  0.6537
  884MPD2     C12958   0.348   3.359  15.580  0.3182 -1.3966  0.2200
  884MPD2    C112959   0.330   3.455  15.483  0.3316 -0.3368  0.1490
  884MPD2    C212960   0.202   3.513  15.477  0.1275  0.0879  0.4174
  884MPD2    C312961   0.103   3.482  15.568 -0.4129  0.0783 -0.4805
  884MPD2    C412962   0.125   3.389  15.668 -0.2087 -0.7276 -0.6819
  884MPD2    C512963   0.248   3.325  15.667  0.3096 -0.1447 -0.7423
  884MPD2     H12964   0.185   3.581  15.394  1.0810  0.3613  0.4547
  884MPD2    H112965   0.050   3.338  15.727 -0.1979  2.4254  2.0660
  884MPD2    H212966   0.448   3.321  15.599  0.6574 -1.1784 -1.1320
  884MPD2    H312967   0.262   3.252  15.745  1.2016  0.8882  0.0724
  884MPD2     N12968   4.705   3.541  15.537  0.3222  0.1332  0.0652
  884MPD2    H512969   4.687   3.574  15.443  1.5192 -0.1905 -0.2848
  884MPD2    N112970   0.440   3.488  15.396  0.5415 -0.2806 -0.3721
  884MPD2    H712971   0.429   3.575  15.344 -0.5883 -0.2323 -0.0580
  885MPD2     C12972   2.878   3.977   0.124  0.0136 -0.6357 -0.1597
  885MPD2    C112973   3.013   3.998   0.099  0.0498 -0.0953 -0.0604
  885MPD2    C212974   3.064   4.004  17.675  0.6151  0.7388 -0.1053
  885MPD2    C312975   2.976   3.979  17.569 -0.2441  0.4323 -0.1523
  885MPD2    C412976   2.844   3.964  17.596  0.4715 -0.0005 -0.5012
  885MPD2    C512977   2.791   3.975   0.018 -0.9082  0.1058 -0.6074
  885MPD2     H12978   3.167   4.026  17.649  0.8438  1.0552  1.0955
  885MPD2    H112979   2.768   3.935  17.525 -0.3781 -0.2828  0.5222
  885MPD2    H212980   2.842   3.961   0.225 -1.1082 -1.4872 -0.6957
  885MPD2    H312981   2.689   3.950   0.042 -1.8917  1.6566 -3.2392
  885MPD2     N12982   3.017   3.966  17.434 -0.3077 -0.3020 -0.6447
  885MPD2    H512983   2.946   3.960  17.362 -1.1847 -0.1477  0.2041
  885MPD2    N112984   3.090   4.003   0.214  0.4661 -0.4411  0.0865
  885MPD2    H712985   3.043   4.015   0.303 -0.1045 -0.3651 -0.2214
  886MPD2     C12986   4.458   2.637  15.719 -0.1488  0.7070 -0.6944
  886MPD2    C112987   4.505   2.537  15.635  0.5467  0.0928  0.2319
  886MPD2    C212988   4.551   2.574  15.517 -0.5590  0.2888  0.0502
  886MPD2    C312989   4.561   2.701  15.471 -0.0960 -0.1626  0.1373
  886MPD2    C412990   4.519   2.802  15.555 -0.4751  0.1166 -0.2176
  886MPD2    C512991   4.456   2.766  15.675  0.5092 -0.6913  0.2427
  886MPD2     H12992   4.591   2.492  15.459 -0.4354 -0.3970  1.0994
  886MPD2    H112993   4.515   2.902  15.515  0.1774 -1.0695 -3.3200
  886MPD2    H212994   4.390   2.613  15.799  1.0962  1.0556  0.4812
  886MPD2    H312995   4.425   2.845  15.742 -0.2420 -0.6918 -0.0980
  886MPD2     N12996   4.635   2.741  15.355  0.4981  0.2202 -0.5626
  886MPD2    H512997   4.639   2.842  15.344  1.5491  0.1820 -0.4542
  886MPD2    N112998   4.503   2.397  15.661  0.0925 -0.3134  0.2712
  886MPD2    H712999   4.524   2.331  15.586 -0.1124 -0.5630  0.4368
  887MPD2     C13000   0.272   2.011  15.481 -0.6303  0.3420  0.2217
  887MPD2    C113001   0.163   2.091  15.482 -0.0181  0.1725 -0.0089
  887MPD2    C213002   0.168   2.212  15.423  0.5569  0.5461 -0.1664
  887MPD2    C313003   0.282   2.272  15.376  0.2956 -0.3357 -0.0418
  887MPD2    C413004   0.397   2.198  15.382 -0.3540 -0.0406 -0.2589
  887MPD2    C513005   0.390   2.065  15.428 -0.2582  0.0736 -0.4458
  887MPD2     H13006   0.076   2.269  15.409  1.4092  1.8007 -0.6297
  887MPD2    H113007   0.490   2.233  15.337 -1.1014  1.8161 -0.3614
  887MPD2    H213008   0.275   1.909  15.517  0.1564 -0.4335 -2.0785
  887MPD2    H313009   0.477   2.005  15.451  0.2077  0.7329 -0.4664
  887MPD2     N13010   0.274   2.405  15.336 -0.4210  0.2732 -0.9604
  887MPD2    H513011   0.183   2.447  15.349  0.2709  1.7680 -1.0261
  887MPD2    N113012   0.038   2.058  15.538 -0.8273  0.5921  0.3253
  887MPD2    H713013   4.688   2.124  15.526 -0.4368  1.0262  0.2232
  888MPD2     C13014   2.274   2.575  15.034  0.2366 -0.4599 -0.4652
  888MPD2    C113015   2.294   2.616  15.165 -0.0562 -0.5128  0.1232
  888MPD2    C213016   2.336   2.747  15.188  0.8733  0.1060  1.2082
  888MPD2    C313017   2.350   2.840  15.091 -0.2452 -0.0529 -0.2482
  888MPD2    C413018   2.323   2.799  14.962  0.5923 -0.0818  0.4116
  888MPD2    C513019   2.302   2.664  14.929  0.3604 -0.1968 -0.0887
  888MPD2     H13020   2.336   2.779  15.292  1.4340  1.6325  0.7417
  888MPD2    H113021   2.333   2.868  14.879  0.8941 -1.9064 -1.0593
  888MPD2    H213022   2.249   2.474  15.006  0.9316 -0.7166 -0.1639
  888MPD2    H313023   2.298   2.631  14.826  0.8227 -0.1382 -0.1251
  888MPD2     N13024   2.390   2.976  15.123 -0.4626  0.6286  0.4957
  888MPD2    H513025   2.389   3.006  15.220 -1.3203 -0.9793  0.9942
  888MPD2    N113026   2.262   2.526  15.263 -0.3596 -0.5705  0.1405
  888MPD2    H713027   2.237   2.434  15.229 -0.0909 -1.2058  1.6339
  889MPD2     C13028   0.818   2.159  12.552 -0.3178 -0.2480 -0.0887
  889MPD2    C113029   0.907   2.126  12.654  0.6012  0.7861  0.5681
  889MPD2    C213030   0.968   2.230  12.721 -0.4751 -0.0212  0.3044
  889MPD2    C313031   0.923   2.362  12.701 -0.7412  0.1555  0.1235
  889MPD2    C413032   0.840   2.392  12.599 -0.0503 -0.4455 -0.1014
  889MPD2    C513033   0.782   2.295  12.527  0.2085  0.3734  1.1726
  889MPD2     H13034   1.031   2.207  12.807  1.1310  1.2522 -0.5429
  889MPD2    H113035   0.798   2.490  12.577  0.2687 -0.7646 -2.1201
  889MPD2    H213036   0.766   2.084  12.492 -0.5232 -0.1443 -0.0389
  889MPD2    H313037   0.717   2.307  12.441  1.2389  0.5218  0.4091
  889MPD2     N13038   0.973   2.460  12.789  0.3107 -0.2474 -0.9154
  889MPD2    H513039   1.043   2.417  12.849 -0.0107  1.7569  0.9250
  889MPD2    N113040   0.973   2.007  12.668 -0.4299  0.2798  0.1224
  889MPD2    H713041   1.063   2.011  12.715 -1.2591  2.1505  1.5746
  890MPD2     C13042   0.588   4.058  14.675  0.3714 -0.9119 -0.4641
  890MPD2    C113043   0.721   4.083  14.686 -0.6032 -0.4329  0.0560
  890MPD2    C213044   0.801   3.984  14.724 -0.4967 -0.1192  0.2314
  890MPD2    C313045   0.749   3.857  14.750 -0.0645  0.3393 -0.0003
  890MPD2    C413046   0.614   3.839  14.746 -0.7135  0.2881 -0.2371
  890MPD2    C513047   0.539   3.938  14.708 -0.2687  0.0675  0.4275
  890MPD2     H13048   0.907   4.000  14.736 -0.5339  1.1227 -1.1066
  890MPD2    H113049   0.561   3.751  14.780 -2.6499  0.7351 -2.0894
  890MPD2    H213050   0.521   4.136  14.640  1.8083  1.7205  2.6642
  890MPD2    H313051   0.433   3.918  14.710 -0.5759  1.7737  0.6053
  890MPD2     N13052   0.827   3.753  14.803 -0.0226  0.3103  0.7290
  890MPD2    H513053   0.919   3.785  14.834 -0.9027 -0.2408  3.8336
  890MPD2    N113054   0.762   4.210  14.654 -0.2494 -0.7913 -0.5306
  890MPD2    H713055   0.689   4.260  14.603  0.5810 -0.2665 -1.2174
  891MPD2     C13056   4.098   2.812  17.191 -0.2536  0.4239 -0.7232
  891MPD2    C113057   4.014   2.736  17.269  0.2852  0.4708 -0.6514
  891MPD2    C213058   4.067   2.651  17.361 -0.6068 -0.1710  0.6176
  891MPD2    C313059   4.200   2.642  17.385  0.8896  0.5194 -0.2948
  891MPD2    C413060   4.281   2.717  17.296 -0.1361  0.5221 -0.5500
  891MPD2    C513061   4.232   2.799  17.202 -0.0127 -0.2825 -0.0469
  891MPD2     H13062   3.993   2.593  17.415 -0.7144  0.0522  0.7117
  891MPD2    H113063   4.389   2.712  17.310 -0.6974 -1.5820  3.0587
  891MPD2    H213064   4.063   2.885  17.120 -1.1021  0.7402  0.0174
  891MPD2    H313065   4.295   2.861  17.141  0.6612  0.3653  1.3236
  891MPD2     N13066   4.252   2.548  17.479 -0.3601 -0.0179 -0.2207
  891MPD2    H513067   4.190   2.491  17.534  1.3771 -0.3705  1.3655
  891MPD2    N113068   3.882   2.742  17.233 -0.4420  0.7271  0.3865
  891MPD2    H713069   3.868   2.809  17.158 -0.8808 -1.5136 -1.5393
  892MPD2     C13070   0.267   3.121  14.893  0.8043 -0.2739  0.8562
  892MPD2    C113071   0.149   3.153  14.830  0.0014  0.2050 -0.1839
  892MPD2    C213072   0.134   3.133  14.693 -0.1019 -0.0059  0.1264
  892MPD2    C313073   0.236   3.074  14.617  0.3727  0.4308  0.0616
  892MPD2    C413074   0.346   3.040  14.687 -0.1147  0.1663  0.3453
  892MPD2    C513075   0.364   3.061  14.821  0.0946  0.1921 -0.1831
  892MPD2     H13076   0.044   3.165  14.642 -0.2565 -0.4546  0.1132
  892MPD2    H113077   0.428   2.985  14.644 -2.0417 -1.7515 -0.8660
  892MPD2    H213078   0.286   3.164  14.991 -2.4298  1.3424  0.7972
  892MPD2    H313079   0.452   3.035  14.878  0.4444 -1.0969 -1.3093
  892MPD2     N13080   0.230   3.050  14.481 -0.5409  0.4869 -0.6680
  892MPD2    H513081   0.308   3.008  14.430  0.1335  0.5608  0.3036
  892MPD2    N113082   0.039   3.222  14.888  0.3144 -0.4019  0.1189
  892MPD2    H713083   4.690   3.246  14.824  0.7607  0.7390  0.0224
  893MPD2     C13084   2.930   0.499   2.639 -0.2018 -0.2118  0.3860
  893MPD2    C113085   2.850   0.476   2.537  0.7834 -0.3321 -0.7038
  893MPD2    C213086   2.736   0.398   2.561  1.3718 -1.2211 -1.0887
  893MPD2    C313087   2.710   0.350   2.685 -0.2897  0.1673  0.3794
  893MPD2    C413088   2.791   0.380   2.789 -0.1886  0.0466  1.0516
  893MPD2    C513089   2.899   0.459   2.767 -0.1095  0.2442  0.0657
  893MPD2     H13090   2.670   0.365   2.483  0.6138 -1.0396 -0.5314
  893MPD2    H113091   2.760   0.348   2.888 -2.0753 -1.1403  0.0602
  893MPD2    H213092   3.015   0.567   2.633  1.3175 -2.2863 -1.6178
  893MPD2    H313093   2.962   0.493   2.848  0.7285 -0.9094 -0.0885
  893MPD2     N13094   2.590   0.282   2.714 -0.3006  0.1370  0.8187
  893MPD2    H513095   2.554   0.285   2.809 -0.7249 -0.4291  0.6747
  893MPD2    N113096   2.889   0.524   2.411  0.2787 -0.3932 -0.1120
  893MPD2    H713097   2.959   0.598   2.411  0.0152 -0.1408  0.1094
  894MPD2     C13098   0.071   3.643   1.573 -0.1901 -0.1506  0.2627
  894MPD2    C113099   0.165   3.747   1.588 -0.5383 -0.2937 -0.4802
  894MPD2    C213100   0.173   3.848   1.488  0.1202 -0.0804 -0.6176
  894MPD2    C313101   0.077   3.852   1.385  0.0581 -0.9506 -0.3026
  894MPD2    C413102   4.705   3.755   1.376 -0.2743  0.0661 -0.0387
  894MPD2    C513103   4.709   3.655   1.469  0.6624  0.5008  0.4368
  894MPD2     H13104   0.246   3.926   1.501 -0.8166  0.6251  0.4119
  894MPD2    H113105   4.624   3.741   1.305  0.1566  0.2353 -0.5547
  894MPD2    H213106   0.059   3.564   1.646  1.5229 -0.7193 -0.0692
  894MPD2    H313107   4.635   3.576   1.462  0.2076  0.8666  1.1111
  894MPD2     N13108   0.087   3.957   1.292  0.2800 -0.5231  0.1696
  894MPD2    H513109   0.166   4.020   1.301  0.7161 -0.8017 -1.7848
  894MPD2    N113110   0.264   3.757   1.693 -0.4483 -0.3153  0.4964
  894MPD2    H713111   0.323   3.839   1.693 -2.2291  0.9707  0.6753
  895MPD2     C13112   3.681   2.775  13.773 -0.4594 -0.7008 -0.1658
  895MPD2    C113113   3.640   2.782  13.639 -0.2788 -0.0525  0.2920
  895MPD2    C213114   3.722   2.742  13.539  0.1281  0.3371 -0.4473
  895MPD2    C313115   3.830   2.660  13.568  0.2982 -0.3253 -0.7326
  895MPD2    C413116   3.869   2.650  13.702 -0.0840  0.1897  0.6751
  895MPD2    C513117   3.797   2.714  13.804  0.0582 -0.0178 -0.0329
  895MPD2     H13118   3.696   2.750  13.434  0.7917  2.0867 -0.4732
  895MPD2    H113119   3.955   2.592  13.734  1.5086  1.9065 -0.5475
  895MPD2    H213120   3.629   2.808  13.862 -0.4221  0.4466 -0.5772
  895MPD2    H313121   3.820   2.701  13.909  1.6177  0.6958 -0.2910
  895MPD2     N13122   3.885   2.590  13.462  0.6323 -0.8190 -0.1027
  895MPD2    H513123   3.831   2.585  13.376 -1.3129  1.8554  0.9653
  895MPD2    N113124   3.516   2.825  13.607  0.3222  0.2634 -0.5136
  895MPD2    H713125   3.481   2.807  13.513 -2.3043 -0.3203  0.5561
  896MPD2     C13126   1.759   4.623   2.064  0.4317  0.2344 -0.3807
  896MPD2    C113127   1.796   4.565   1.945 -0.2914 -0.0917 -0.0314
  896MPD2    C213128   1.697   4.548   1.843  0.5112  0.5264  0.3218
  896MPD2    C313129   1.576   4.603   1.860 -0.4168  0.0885 -0.2132
  896MPD2    C413130   1.549   4.666   1.974 -0.7185  0.0960  0.0488
  896MPD2    C513131   1.634   4.669   2.078  0.3790  0.0647 -0.2094
  896MPD2     H13132   1.711   4.496   1.749  0.4603  1.5348 -0.2432
  896MPD2    H113133   1.454   4.717   1.983 -1.5022 -1.5620  1.1056
  896MPD2    H213134   1.826   4.637   2.149  1.2611  0.9696 -1.1520
  896MPD2    H313135   1.611   4.712   2.174 -0.7672  1.4147 -1.0887
  896MPD2     N13136   1.482   4.603   1.746 -0.4188  0.0810 -0.5787
  896MPD2    H513137   1.511   4.543   1.670  0.1885  0.8445 -0.9399
  896MPD2    N113138   1.930   4.511   1.933 -0.5497  0.4490 -0.0831
  896MPD2    H713139   1.995   4.534   2.008  0.6229 -0.6660 -0.7690
  897MPD2     C13140   2.387   1.563  10.120 -0.4127 -0.2004  0.6802
  897MPD2    C113141   2.335   1.679  10.163  0.4950 -0.3134 -0.1238
  897MPD2    C213142   2.239   1.687  10.265 -0.3857 -0.0473 -0.2525
  897MPD2    C313143   2.191   1.566  10.311  0.1681 -0.2987  0.0965
  897MPD2    C413144   2.235   1.445  10.260  0.1719 -0.1689  0.6251
  897MPD2    C513145   2.330   1.447  10.161 -0.1711 -0.2217  0.6488
  897MPD2     H13146   2.216   1.778  10.319  3.2072  2.1127 -2.3327
  897MPD2    H113147   2.190   1.349  10.281  0.4719 -0.4466  0.0197
  897MPD2    H213148   2.461   1.557  10.041 -1.5064  0.5488 -0.3989
  897MPD2    H313149   2.366   1.357  10.112  2.8504  1.5024 -0.2854
  897MPD2     N13150   2.095   1.580  10.407 -0.4863  0.3023 -0.3351
  897MPD2    H513151   2.071   1.673  10.439 -0.7280  1.1305 -2.9602
  897MPD2    N113152   2.390   1.796  10.104 -0.3682  0.5622 -0.1399
  897MPD2    H713153   2.479   1.790  10.055 -0.0164  0.6354  0.4985
  898MPD2     C13154   4.679   2.651   0.037 -0.3085  0.1438 -0.0577
  898MPD2    C113155   0.013   2.630  17.620 -0.5860 -0.3723  0.5789
  898MPD2    C213156   4.707   2.702  17.511 -0.6888 -0.3536 -0.5426
  898MPD2    C313157   4.609   2.800  17.516 -0.2300 -0.4746  0.0993
  898MPD2    C413158   4.533   2.811  17.633 -0.1212  0.0855  0.3103
  898MPD2    C513159   4.569   2.732   0.037 -0.3466 -0.9089  1.0033
  898MPD2     H13160   0.035   2.676  17.420  0.3846  2.0045 -0.5783
  898MPD2    H113161   4.450   2.880  17.640  1.0883  1.3617  1.8781
  898MPD2    H213162   4.701   2.597   0.128  1.5019  0.1070 -0.5206
  898MPD2    H313163   4.503   2.741   0.123 -0.2311 -0.2339  1.0177
  898MPD2     N13164   4.605   2.886  17.402  0.7824  0.1887 -0.3146
  898MPD2    H513165   4.656   2.854  17.320  1.2629 -1.1722  0.5200
  898MPD2    N113166   0.120   2.535  17.603 -0.1524  0.5923 -0.1340
  898MPD2    H713167   0.174   2.533  17.517  0.9023  0.5999  0.5357
  899MPD2     C13168   0.547   3.198  17.660 -0.3297  0.6787  0.2461
  899MPD2    C113169   0.487   3.319  17.693 -0.1134  0.2670  0.4128
  899MPD2    C213170   0.435   3.335   0.119  0.3971  0.9628 -0.3063
  899MPD2    C313171   0.465   3.240   0.214  0.2362  0.4645 -0.4400
  899MPD2    C413172   0.529   3.122   0.176  0.0138  0.0924 -0.5401
  899MPD2    C513173   0.558   3.094   0.043  0.1241  0.6076  0.5656
  899MPD2     H13174   0.387   3.425   0.156 -0.1842  1.7875 -3.0541
  899MPD2    H113175   0.547   3.042   0.247 -0.6232 -0.4874 -1.0410
  899MPD2    H213176   0.584   3.200  17.559  0.0692 -0.7422  0.3708
  899MPD2    H313177   0.598   2.997   0.018 -2.7781 -0.5452  0.3144
  899MPD2     N13178   0.419   3.269   0.343  0.4038 -0.9033 -0.8522
  899MPD2    H513179   0.365   3.355   0.348  0.1019 -1.0915 -0.8356
  899MPD2    N113180   0.507   3.421  17.601 -0.2312 -0.0576 -0.3998
  899MPD2    H713181   0.554   3.397  17.514  1.0722 -0.4322  0.4132
  900MPD2     C13182   0.801   0.067  12.423 -0.4710  0.3817  0.9990
  900MPD2    C113183   0.687   0.003  12.461 -0.3448 -0.1515 -0.6127
  900MPD2    C213184   0.579   0.009  12.381  0.3987 -0.7275 -0.6023
  900MPD2    C313185   0.580   0.067  12.261  0.0114 -0.3374 -0.9617
  900MPD2    C413186   0.698   0.134  12.216 -0.3593 -0.0968 -0.6992
  900MPD2    C513187   0.807   0.133  12.300 -0.2054  0.4983 -0.7637
  900MPD2     H13188   0.486   4.690  12.415 -0.4253  0.9653 -0.6426
  900MPD2    H113189   0.701   0.194  12.126 -0.0250  1.9330  0.6592
  900MPD2    H213190   0.888   0.073  12.488 -1.5382  0.4028  2.4178
  900MPD2    H313191   0.896   0.182  12.262 -0.3327  1.7370  0.5622
  900MPD2     N13192   0.465   0.057  12.181 -0.2249 -0.2982  0.1391
  900MPD2    H513193   0.383   0.024  12.230 -0.0103 -2.1730 -0.7741
  900MPD2    N113194   0.685   4.661  12.583 -0.0646  0.0904 -0.5312
  900MPD2    H713195   0.776   4.653  12.627 -1.2282  1.4252  2.0759
  901MPD2     C13196   0.169   3.853  12.743 -0.0198 -0.4421  0.3984
  901MPD2    C113197   0.295   3.835  12.777 -0.6038  0.1765 -0.0992
  901MPD2    C213198   0.369   3.943  12.818  0.1122 -0.4723 -0.0974
  901MPD2    C313199   0.316   4.074  12.824  0.5550  0.0478  0.8827
  901MPD2    C413200   0.184   4.091  12.787  0.0456  0.2814 -0.5369
  901MPD2    C513201   0.117   3.979  12.749  0.5372  0.3305 -0.2786
  901MPD2     H13202   0.470   3.912  12.839  0.1504 -0.3336 -0.0787
  901MPD2    H113203   0.134   4.187  12.798 -0.2158  0.1942 -0.9736
  901MPD2    H213204   0.095   3.776  12.724 -0.3689 -0.1511  0.5779
  901MPD2    H313205   0.011   3.991  12.733  0.9955  3.1893 -1.1034
  901MPD2     N13206   0.399   4.184  12.859 -0.5476  0.2982 -0.1935
  901MPD2    H513207   0.496   4.166  12.880 -0.1066  0.0909 -2.3832
  901MPD2    N113208   0.344   3.704  12.754 -0.4358 -0.3851  0.0347
  901MPD2    H713209   0.286   3.643  12.698  0.0528  1.0953 -2.0615
  902MPD2     C13210   3.657   2.648  12.605  0.0418  1.0659 -0.1250
  902MPD2    C113211   3.658   2.718  12.487  0.1069  0.7072  0.4537
  902MPD2    C213212   3.759   2.689  12.397 -0.0494  0.0395 -0.3580
  902MPD2    C313213   3.851   2.587  12.421 -0.4239  0.7698 -0.8870
  902MPD2    C413214   3.842   2.511  12.536  0.6900 -0.1814  0.5363
  902MPD2    C513215   3.746   2.551  12.630 -0.5363 -0.5390  0.4018
  902MPD2     H13216   3.785   2.754  12.315 -2.0202  0.0465 -0.9759
  902MPD2    H113217   3.912   2.430  12.559  2.9407  2.1347  1.8847
  902MPD2    H213218   3.583   2.669  12.681  0.9941 -2.3485  1.7074
  902MPD2    H313219   3.739   2.488  12.719  0.1857 -1.8996 -0.5100
  902MPD2     N13220   3.954   2.543  12.334 -0.2106 -0.5563  0.4815
  902MPD2    H513221   4.018   2.468  12.355  0.4446 -0.3118 -0.6875
  902MPD2    N113222   3.580   2.830  12.484 -0.3954 -0.7109 -0.7617
  902MPD2    H713223   3.503   2.842  12.550  1.1970 -0.7461  1.1067
  903MPD2     C13224   3.773   2.126  11.664  0.0554  0.5185 -0.2912
  903MPD2    C113225   3.734   2.223  11.756  0.2760  0.0139  0.0233
  903MPD2    C213226   3.598   2.250  11.778  0.0890 -0.0522  0.5136
  903MPD2    C313227   3.500   2.189  11.701  0.0580 -0.3385 -0.5967
  903MPD2    C413228   3.538   2.091  11.611  0.1041 -0.1199  0.7095
  903MPD2    C513229   3.670   2.070  11.591  0.4799 -0.0397 -1.0477
  903MPD2     H13230   3.573   2.319  11.858  2.1427 -0.7375  1.7455
  903MPD2    H113231   3.464   2.051  11.543  1.2891  0.7469 -1.1040
  903MPD2    H213232   3.875   2.095  11.645  0.9284  2.2609  1.5962
  903MPD2    H313233   3.686   2.000  11.509  0.5855 -0.3849 -0.7326
  903MPD2     N13234   3.365   2.218  11.727 -0.0588 -0.0591  0.3681
  903MPD2    H513235   3.354   2.294  11.793 -0.3240 -0.2290  0.5200
  903MPD2    N113236   3.829   2.290  11.841  0.4057  0.4700  0.1092
  903MPD2    H713237   3.794   2.340  11.921  0.1472 -0.5765  0.6561
  904MPD2     C13238   3.504   2.253  13.555  0.5135 -0.0615  0.2111
  904MPD2    C113239   3.508   2.136  13.632 -0.5585  0.2159  0.1944
  904MPD2    C213240   3.612   2.114  13.716  0.8337 -0.4122 -0.4112
  904MPD2    C313241   3.712   2.209  13.722  0.6101 -0.1940 -0.4003
  904MPD2    C413242   3.713   2.320  13.642  0.1021 -0.5853 -0.1195
  904MPD2    C513243   3.603   2.349  13.564 -0.1458  0.0882  0.4816
  904MPD2     H13244   3.621   2.024  13.776 -0.5529 -1.1235 -1.2665
  904MPD2    H113245   3.799   2.385  13.631  0.9907 -1.6237  0.6494
  904MPD2    H213246   3.428   2.271  13.479 -0.1728 -0.2098  0.8638
  904MPD2    H313247   3.605   2.433  13.497 -1.1841  0.7418  1.2645
  904MPD2     N13248   3.833   2.179  13.789 -0.5133  0.6620  0.3527
  904MPD2    H513249   3.854   2.084  13.815 -0.7813  0.5182  0.0421
  904MPD2    N113250   3.404   2.041  13.621 -0.4030 -0.2486  0.0604
  904MPD2    H713251   3.432   1.947  13.647 -0.4493  0.1222  1.4444
  905MPD2     C13252   3.281   2.349  12.987 -0.0759 -0.5602  0.2713
  905MPD2    C113253   3.315   2.388  13.112  0.3798 -0.2008 -0.5831
  905MPD2    C213254   3.452   2.409  13.130 -0.3880  0.1022 -0.3123
  905MPD2    C313255   3.547   2.374  13.033 -0.2576 -0.3201 -0.0517
  905MPD2    C413256   3.507   2.317  12.914  0.3711 -0.6004 -0.0506
  905MPD2    C513257   3.372   2.307  12.894  0.1120  0.0604 -0.0633
  905MPD2     H13258   3.488   2.460  13.219 -1.5248  2.7328 -1.3553
  905MPD2    H113259   3.577   2.286  12.837  2.5367  1.2807  1.1724
  905MPD2    H213260   3.180   2.330  12.951  0.3659  1.5039 -2.0514
  905MPD2    H313261   3.345   2.258  12.801 -1.3597 -0.9643  0.9106
  905MPD2     N13262   3.686   2.394  13.042  0.1099 -0.0113  0.5580
  905MPD2    H513263   3.745   2.355  12.970  1.7203  2.4291  0.5446
  905MPD2    N113264   3.223   2.383  13.216 -0.5339 -0.4454  0.6728
  905MPD2    H713265   3.137   2.333  13.195  0.4888 -2.6248  1.6933
  906MPD2     C13266   0.760   1.621  11.380  0.0124  0.0182 -0.1280
  906MPD2    C113267   0.716   1.543  11.273  0.1521 -0.3121 -0.4154
  906MPD2    C213268   0.666   1.410  11.295  0.2650 -0.3016 -0.2540
  906MPD2    C313269   0.664   1.357  11.421  0.6263 -0.1234 -0.0470
  906MPD2    C413270   0.679   1.442  11.529  0.3330 -0.7356  0.2303
  906MPD2    C513271   0.734   1.565  11.503  0.2550  0.4779 -0.0087
  906MPD2     H13272   0.645   1.348  11.208 -0.3176  0.0200 -0.3478
  906MPD2    H113273   0.663   1.407  11.631  2.0012  0.4901  0.9095
  906MPD2    H213274   0.804   1.720  11.379 -0.8135  0.3901  0.2045
  906MPD2    H313275   0.753   1.632  11.585 -0.3672 -0.4657  0.9095
  906MPD2     N13276   0.646   1.224  11.453 -0.3545  0.7032 -0.0828
  906MPD2    H513277   0.659   1.204  11.552 -1.1607 -3.1628 -0.7325
  906MPD2    N113278   0.715   1.586  11.139  0.5961 -0.4490 -0.4473
  906MPD2    H713279   0.690   1.510  11.076  0.8283  1.1084 -2.4212
  907MPD2     C13280   0.724   0.734  15.486 -0.0432 -0.4760 -0.0315
  907MPD2    C113281   0.624   0.654  15.538  0.7816 -0.6530  0.5974
  907MPD2    C213282   0.641   0.597  15.667 -0.2294  0.2683  0.2608
  907MPD2    C313283   0.757   0.620  15.735  0.6712 -0.3927 -0.3937
  907MPD2    C413284   0.860   0.702  15.685  0.8333  0.4466 -0.1098
  907MPD2    C513285   0.842   0.746  15.557  0.1629  0.2616  0.1033
  907MPD2     H13286   0.558   0.541  15.708  0.6679 -0.3759  1.1844
  907MPD2    H113287   0.957   0.722  15.728  0.2731  3.5725 -0.2968
  907MPD2    H213288   0.723   0.766  15.383  0.2906 -0.2184  0.0455
  907MPD2    H313289   0.928   0.787  15.504 -1.2323  0.7039 -1.8083
  907MPD2     N13290   0.766   0.563  15.864 -0.0049  0.2224  0.4532
  907MPD2    H513291   0.675   0.534  15.899 -0.0290 -0.9977 -0.6042
  907MPD2    N113292   0.511   0.623  15.467  0.1623 -0.3261 -0.0499
  907MPD2    H713293   0.444   0.559  15.510 -1.0916 -0.5590 -2.3607
  908MPD2     C13294   2.888   1.787   9.427  0.7819  0.5005 -0.3217
  908MPD2    C113295   2.899   1.722   9.551  0.3095 -0.5004 -0.2687
  908MPD2    C213296   2.845   1.782   9.665  0.2118 -0.5336 -0.3882
  908MPD2    C313297   2.774   1.902   9.661 -0.5757 -0.0160 -0.3665
  908MPD2    C413298   2.756   1.961   9.534 -0.2791 -0.0445 -0.3097
  908MPD2    C513299   2.822   1.907   9.424  0.4671  0.3317  0.4222
  908MPD2     H13300   2.840   1.731   9.761  2.0083 -2.3637 -1.2715
  908MPD2    H113301   2.705   2.054   9.511 -1.2252 -0.4480  0.1631
  908MPD2    H213302   2.922   1.746   9.333  1.4286 -0.1619  0.2040
  908MPD2    H313303   2.800   1.945   9.324 -1.3399  0.9121  1.0449
  908MPD2     N13304   2.698   1.960   9.771  0.0855 -0.2700 -0.4393
  908MPD2    H513305   2.682   1.900   9.851  0.3780 -1.0042 -0.9298
  908MPD2    N113306   2.974   1.601   9.558  0.1631 -0.6349  1.2851
  908MPD2    H713307   3.006   1.571   9.466  0.0506  0.1681  0.9894
  909MPD2     C13308   3.227   4.293  12.380 -0.0499 -0.5223 -0.0268
  909MPD2    C113309   3.208   4.388  12.279  0.5173  0.1599  0.2062
  909MPD2    C213310   3.134   4.502  12.309  0.0332 -0.2989 -0.3394
  909MPD2    C313311   3.057   4.507  12.421  0.3087  0.8273 -0.2209
  909MPD2    C413312   3.065   4.405  12.518  0.4352  0.1606  0.0699
  909MPD2    C513313   3.152   4.300  12.494 -0.1595 -0.1547  0.0838
  909MPD2     H13314   3.129   4.574  12.228 -1.0345 -0.2252 -0.2138
  909MPD2    H113315   3.011   4.391  12.611  0.0515 -0.0392 -0.1795
  909MPD2    H213316   3.281   4.200  12.365  0.9693 -0.0781  0.9296
  909MPD2    H313317   3.171   4.230  12.575 -0.6937 -0.6465 -0.2188
  909MPD2     N13318   2.972   4.622  12.433  0.4775  0.3305 -0.4126
  909MPD2    H513319   2.975   4.684  12.353 -2.5367 -0.4773 -1.1224
  909MPD2    N113320   3.268   4.376  12.150 -0.4959  0.4426 -0.3247
  909MPD2    H713321   3.260   4.459  12.091  2.5779  0.2179 -1.0242
  910MPD2     C13322   4.485   1.401  15.684  0.3459 -0.4362 -0.3137
  910MPD2    C113323   4.488   1.386  15.549  0.1474 -0.3944 -0.3332
  910MPD2    C213324   4.447   1.496  15.474  0.0973  1.6324 -0.3418
  910MPD2    C313325   4.411   1.616  15.532  0.2024  0.4707  0.2113
  910MPD2    C413326   4.416   1.627  15.670  0.8303  0.2404  0.5458
  910MPD2    C513327   4.440   1.514  15.743  0.3721  0.3621 -0.3164
  910MPD2     H13328   4.452   1.494  15.365 -1.9874  0.3162 -0.3978
  910MPD2    H113329   4.382   1.719  15.716 -1.4170 -0.3326  0.0066
  910MPD2    H213330   4.502   1.317  15.750 -2.1837  0.4376  1.4665
  910MPD2    H313331   4.436   1.518  15.851  0.6963 -0.4830 -0.2682
  910MPD2     N13332   4.401   1.737  15.450 -0.0535  0.1718  0.5578
  910MPD2    H513333   4.377   1.820  15.504  2.0211  2.0776 -1.4999
  910MPD2    N113334   4.530   1.272  15.482 -0.0384  0.3918 -0.3075
  910MPD2    H713335   4.507   1.271  15.383  0.7950  2.0538 -0.5123
  911MPD2     C13336   2.393   2.389  16.399  0.4072  0.2261 -0.0075
  911MPD2    C113337   2.362   2.446  16.521  1.0366  0.0231  0.2771
  911MPD2    C213338   2.263   2.539  16.525 -0.6001 -0.3040 -0.0890
  911MPD2    C313339   2.200   2.590  16.410 -0.5332  0.9292 -0.1600
  911MPD2    C413340   2.228   2.535  16.290  0.0153 -0.5741  0.2368
  911MPD2    C513341   2.319   2.437  16.287  0.4944 -0.0211 -0.1011
  911MPD2     H13342   2.236   2.580  16.622 -2.1000 -1.3289 -0.0602
  911MPD2    H113343   2.173   2.563  16.201  0.7192 -1.7105 -0.5475
  911MPD2    H213344   2.459   2.309  16.369  2.0185  0.9819  1.4911
  911MPD2    H313345   2.343   2.409  16.185  1.4548 -1.5483  0.5506
  911MPD2     N13346   2.089   2.681  16.408  0.3027  0.7700  0.1033
  911MPD2    H513347   2.021   2.683  16.332 -0.2637  1.0017  0.6208
  911MPD2    N113348   2.422   2.386  16.634 -0.8025 -0.0161  0.3885
  911MPD2    H713349   2.485   2.309  16.614  1.2279  1.7582 -0.1179
  912MPD2     C13350   1.933   2.543  15.892  0.2155  0.3746 -0.3425
  912MPD2    C113351   1.889   2.552  16.024  0.4144  0.9340  0.0394
  912MPD2    C213352   1.912   2.440  16.110  0.0403 -0.0711  0.2907
  912MPD2    C313353   1.978   2.328  16.055 -0.4889 -0.5594  0.5561
  912MPD2    C413354   2.006   2.317  15.923 -0.4620  0.1098 -0.5875
  912MPD2    C513355   1.986   2.425  15.844 -0.1124 -0.5769 -0.3077
  912MPD2     H13356   1.893   2.437  16.217 -0.3067  0.4985  0.2435
  912MPD2    H113357   2.052   2.232  15.874  2.7327  1.0906  0.7770
  912MPD2    H213358   1.937   2.624  15.820  1.7619 -0.1825 -0.8722
  912MPD2    H313359   2.007   2.414  15.738 -0.7136 -1.8399 -0.2986
  912MPD2     N13360   2.029   2.232  16.146 -0.8010  0.6287  0.0443
  912MPD2    H513361   1.997   2.237  16.242 -0.2521  1.4607  0.1855
  912MPD2    N113362   1.839   2.674  16.081 -0.4330  0.2522 -0.1942
  912MPD2    H713363   1.864   2.761  16.035  1.7534 -0.9335 -1.2590
  913MPD2     C13364   2.799   4.473  11.376 -0.1957  1.0491 -0.5882
  913MPD2    C113365   2.890   4.385  11.322  0.0952 -0.3482  0.0141
  913MPD2    C213366   2.991   4.434  11.242 -0.6197  0.0819 -0.3150
  913MPD2    C313367   2.987   4.567  11.190 -0.0174 -0.4846 -0.2089
  913MPD2    C413368   2.899   4.652  11.246 -0.5502  0.5506  0.4544
  913MPD2    C513369   2.809   4.610  11.341 -0.5911 -0.4771 -0.3831
  913MPD2     H13370   3.069   4.367  11.207 -0.0986  1.9991 -2.7838
  913MPD2    H113371   2.885   0.026  11.207 -3.5861 -0.0456 -0.0288
  913MPD2    H213372   2.714   4.445  11.437  0.0083  2.2542  0.2521
  913MPD2    H313373   2.743   4.684  11.386 -0.5233 -0.2716 -0.6209
  913MPD2     N13374   3.081   4.607  11.095 -0.1246  0.7179  0.4278
  913MPD2    H513375   3.077   4.700  11.055  1.5380 -0.5284 -2.6058
  913MPD2    N113376   2.873   4.250  11.354 -0.2015 -0.2474  0.2582
  913MPD2    H713377   2.786   4.225  11.400 -0.1127 -1.8721 -0.4773
  914MPD2     C13378   0.046   3.452  12.104 -0.5711  0.4396 -0.7635
  914MPD2    C113379   0.136   3.553  12.119 -0.2699  0.2722  0.3580
  914MPD2    C213380   0.238   3.545  12.210  0.0254  0.2757  0.3973
  914MPD2    C313381   0.260   3.426  12.280 -0.0855  1.2488 -0.4519
  914MPD2    C413382   0.163   3.324  12.268 -0.0293  0.4612 -0.1996
  914MPD2    C513383   0.059   3.333  12.180  0.2281 -0.0554 -0.1207
  914MPD2     H13384   0.297   3.633  12.229  0.7757  0.1381 -1.2796
  914MPD2    H113385   0.189   3.227  12.309 -0.6988  0.9349  1.3537
  914MPD2    H213386   4.686   3.450  12.038 -0.9555 -1.4947 -0.2219
  914MPD2    H313387   4.715   3.251  12.171 -0.0373 -0.1075  2.3737
  914MPD2     N13388   0.373   3.413  12.362  0.1696  0.1012  0.3874
  914MPD2    H513389   0.427   3.497  12.383 -0.7947  0.2796  2.1829
  914MPD2    N113390   0.120   3.666  12.032  0.5319 -0.3304  0.1114
  914MPD2    H713391   0.052   3.650  11.959 -1.1346  2.8665  0.9600
  915MPD2     C13392   2.999   3.336  16.014 -0.3698  0.5144 -0.8176
  915MPD2    C113393   2.948   3.432  15.926 -0.3284 -0.0002  0.5008
  915MPD2    C213394   2.896   3.552  15.975 -0.1897 -0.8686  0.8010
  915MPD2    C313395   2.909   3.589  16.105  0.1555 -0.1488 -0.4322
  915MPD2    C413396   2.965   3.494  16.187 -0.3858 -0.4160  0.3205
  915MPD2    C513397   3.005   3.372  16.137  0.5123 -0.0409 -0.1183
  915MPD2     H13398   2.856   3.628  15.908 -0.7471 -2.1410 -0.3162
  915MPD2    H113399   2.982   3.509  16.293  0.2169 -0.6002  0.2550
  915MPD2    H213400   3.055   3.250  15.982  1.5644  1.1172  0.9465
  915MPD2    H313401   3.052   3.300  16.202  1.6172  2.8844  2.3384
  915MPD2     N13402   2.869   3.718  16.152  0.2208  0.0256  0.8087
  915MPD2    H513403   2.845   3.786  16.080 -0.1276  0.9800  1.8384
  915MPD2    N113404   2.945   3.392  15.790  0.0294 -0.4593  0.1167
  915MPD2    H713405   2.983   3.299  15.779  0.0211 -0.3042 -1.1359
  916MPD2     C13406   1.657   1.916  15.899 -0.3191  0.4247  0.0218
  916MPD2    C113407   1.592   1.818  15.966 -0.0187 -0.1460  0.4651
  916MPD2    C213408   1.664   1.702  15.989 -0.3690  0.4410 -0.2087
  916MPD2    C313409   1.792   1.677  15.950  0.0084 -0.1338 -0.3504
  916MPD2    C413410   1.859   1.777  15.889 -0.5311 -0.1189  0.3643
  916MPD2    C513411   1.789   1.898  15.862  0.1231  0.0389  0.3074
  916MPD2     H13412   1.602   1.620  16.025  0.3657  0.8256  1.9596
  916MPD2    H113413   1.964   1.776  15.863 -1.0121  0.6095 -1.5701
  916MPD2    H213414   1.613   2.014  15.887 -1.4233  0.0191  0.8210
  916MPD2    H313415   1.837   1.984  15.817  0.8132 -0.1850  0.6177
  916MPD2     N13416   1.843   1.539  15.960 -0.4045  0.2245 -0.3021
  916MPD2    H513417   1.785   1.468  16.003 -3.5257  2.0099 -1.6086
  916MPD2    N113418   1.465   1.840  16.034  0.1472 -0.1690 -0.1594
  916MPD2    H713419   1.409   1.912  15.991  1.3054  1.4998  1.1397
  917MPD2     C13420   1.681   3.962  11.635  0.0342 -0.7405  0.2003
  917MPD2    C113421   1.690   4.077  11.710 -0.1275  0.3655  0.1973
  917MPD2    C213422   1.767   4.188  11.674 -0.0575  0.0362 -0.6095
  917MPD2    C313423   1.835   4.186  11.555  0.2945  0.3933 -0.0676
  917MPD2    C413424   1.821   4.074  11.477  0.2923 -0.0844  0.1088
  917MPD2    C513425   1.747   3.964  11.513  0.1315 -0.2405 -0.3869
  917MPD2     H13426   1.758   4.279  11.732 -3.2855 -0.1029 -0.9124
  917MPD2    H113427   1.886   4.067  11.390 -0.7506 -0.0712 -0.6781
  917MPD2    H213428   1.629   3.873  11.668  0.6462 -0.8363  0.9035
  917MPD2    H313429   1.739   3.878  11.448 -0.4093  1.8069 -3.0004
  917MPD2     N13430   1.912   4.291  11.500  0.6776  0.1255  0.6102
  917MPD2    H513431   1.932   4.287  11.401 -0.0648 -0.8282  0.4985
  917MPD2    N113432   1.610   4.074  11.830  0.7675  0.3694 -0.0610
  917MPD2    H713433   1.564   3.986  11.848 -2.3674  1.6233 -2.0104
  918MPD2     C13434   1.562   4.548  12.691 -0.5024  0.3159 -0.1534
  918MPD2    C113435   1.666   4.468  12.645 -0.0671  0.1936  0.7221
  918MPD2    C213436   1.639   4.368  12.550  0.2223  0.2046 -0.5657
  918MPD2    C313437   1.514   4.336  12.510 -0.4169 -0.2530 -0.0810
  918MPD2    C413438   1.412   4.411  12.553 -0.3008 -0.8178 -0.0822
  918MPD2    C513439   1.436   4.524  12.636  0.7203  0.2825 -0.3280
  918MPD2     H13440   1.720   4.309  12.507 -1.4891 -1.0869 -1.9776
  918MPD2    H113441   1.314   4.390  12.511 -0.0896  1.2436 -1.6355
  918MPD2    H213442   1.570   4.628  12.764 -1.1298 -1.6051  2.0355
  918MPD2    H313443   1.351   4.575  12.680 -1.6821 -2.1437 -2.1215
  918MPD2     N13444   1.500   4.239  12.408 -0.4839  0.2312 -0.2636
  918MPD2    H513445   1.587   4.201  12.372 -1.6110 -2.2688 -0.3700
  918MPD2    N113446   1.801   4.483  12.685 -0.4736 -0.5321  0.1995
  918MPD2    H713447   1.870   4.428  12.636  0.6556  2.4951 -1.6224
  919MPD2     C13448   2.439   3.150  11.734 -0.3659  0.0703 -0.4626
  919MPD2    C113449   2.391   3.041  11.671 -0.6469  0.3679 -0.1288
  919MPD2    C213450   2.430   3.023  11.539  0.1456 -0.2602  0.8522
  919MPD2    C313451   2.522   3.099  11.479  0.2237  0.4669  0.2574
  919MPD2    C413452   2.560   3.213  11.539  0.2428 -0.3895 -0.0915
  919MPD2    C513453   2.519   3.233  11.662 -0.2130  0.1814  0.3690
  919MPD2     H13454   2.383   2.943  11.484  0.7864  0.1254 -0.2711
  919MPD2    H113455   2.619   3.293  11.496  0.1744  0.0078  0.5477
  919MPD2    H213456   2.409   3.182  11.833 -2.2174  1.8316 -1.6032
  919MPD2    H313457   2.562   3.318  11.712 -1.1988  0.5112  0.6697
  919MPD2     N13458   2.564   3.078  11.348 -0.1398 -0.2043 -0.3754
  919MPD2    H513459   2.618   3.153  11.305  1.9486 -1.2288  0.4716
  919MPD2    N113460   2.313   2.940  11.743 -0.1220 -0.0504 -0.0179
  919MPD2    H713461   2.271   2.868  11.685 -1.9090  0.7144  0.3205
  920MPD2     C13462   2.659   3.596  10.520 -0.3588 -0.1875  0.0536
  920MPD2    C113463   2.556   3.510  10.490  0.4850  1.1984  0.5245
  920MPD2    C213464   2.542   3.393  10.569  0.0141  0.5512  0.3350
  920MPD2    C313465   2.628   3.367  10.678 -0.1145 -0.1074  0.2688
  920MPD2    C413466   2.728   3.456  10.707 -0.3549  0.5309  0.1637
  920MPD2    C513467   2.739   3.567  10.632  0.3602  0.3471  0.1542
  920MPD2     H13468   2.469   3.319  10.538 -0.3258  1.9717 -2.2257
  920MPD2    H113469   2.794   3.446  10.792  0.4250 -1.0214 -0.6312
  920MPD2    H213470   2.641   3.698  10.489 -1.2822 -0.8197 -1.5366
  920MPD2    H313471   2.818   3.635  10.660  0.0689  0.0917  1.5656
  920MPD2     N13472   2.613   3.247  10.759  0.0436 -0.1653 -0.8223
  920MPD2    H513473   2.527   3.198  10.739  0.6860 -1.4208 -0.4901
  920MPD2    N113474   2.474   3.516  10.378  0.2438  0.3038 -0.3403
  920MPD2    H713475   2.405   3.443  10.365  1.0410 -0.8146  1.7690
  921MPD2     C13476   2.991   2.690  17.342  0.0418 -0.0107  0.0665
  921MPD2    C113477   3.044   2.611  17.237 -0.4493 -0.0586  0.0704
  921MPD2    C213478   2.952   2.536  17.160 -1.1098 -0.3245  0.3724
  921MPD2    C313479   2.819   2.523  17.204  0.5286 -0.2073  0.1340
  921MPD2    C413480   2.778   2.594  17.314 -0.3456  0.0491  0.1122
  921MPD2    C513481   2.860   2.682  17.378  0.0519  0.2870  0.5159
  921MPD2     H13482   2.976   2.498  17.061  2.6053 -0.1246  1.1821
  921MPD2    H113483   2.673   2.590  17.341 -0.3196 -0.0551  0.1966
  921MPD2    H213484   3.059   2.762  17.386  2.0112 -1.4611 -0.6096
  921MPD2    H313485   2.813   2.755  17.442  0.4944  0.4020  0.7131
  921MPD2     N13486   2.721   2.444  17.138  0.1754 -0.4858 -0.3345
  921MPD2    H513487   2.630   2.440  17.183  0.3011 -0.6079 -0.0974
  921MPD2    N113488   3.179   2.622  17.192 -0.2258 -0.2085  0.1043
  921MPD2    H713489   3.215   2.566  17.115 -0.8043 -0.3309 -0.0717
  922MPD2     C13490   4.124   0.008  16.590  0.4563 -1.0108 -0.3283
  922MPD2    C113491   4.148   4.710  16.721 -0.3066  0.2132 -0.1259
  922MPD2    C213492   4.063   4.624  16.791 -0.1519  0.5824 -0.0854
  922MPD2    C313493   3.962   4.554  16.726 -0.1848 -0.0451 -0.0886
  922MPD2    C413494   3.943   4.581  16.593  0.0627  0.8150 -0.1194
  922MPD2    C513495   4.020   4.678  16.531 -0.1089  0.0245  0.3293
  922MPD2     H13496   4.084   4.627  16.897  1.1712  0.7966 -0.3505
  922MPD2    H113497   3.851   4.547  16.548  0.6899  0.5669 -1.1962
  922MPD2    H213498   4.172   0.086  16.533 -1.5348  1.2073  1.0005
  922MPD2    H313499   3.989   4.721  16.437  1.7046  0.1183 -0.2255
  922MPD2     N13500   3.888   4.461  16.798  0.2090  0.5088 -0.0522
  922MPD2    H513501   3.890   4.462  16.899  0.1305 -0.0396 -0.0434
  922MPD2    N113502   4.249   0.045  16.791 -0.1909  0.5284  0.6398
  922MPD2    H713503   4.241   0.038  16.892 -3.5055  0.1102  0.3652
  923MPD2     C13504   0.381   1.018   9.348 -1.1365  0.2514  0.3492
  923MPD2    C113505   0.325   1.144   9.372 -0.2031 -0.1455  0.0172
  923MPD2    C213506   0.395   1.230   9.457  0.4156  0.0423 -0.2467
  923MPD2    C313507   0.511   1.193   9.523 -0.0966  0.6961 -0.0663
  923MPD2    C413508   0.567   1.067   9.481  0.5944 -0.1254  0.0276
  923MPD2    C513509   0.502   0.983   9.397  0.0950 -0.2676  0.7833
  923MPD2     H13510   0.354   1.330   9.467 -2.0502 -1.2239  2.3757
  923MPD2    H113511   0.663   1.032   9.520 -0.1231  2.6360  4.3505
  923MPD2    H213512   0.328   0.955   9.278  0.2941  1.4643 -1.8147
  923MPD2    H313513   0.552   0.891   9.368 -0.4164 -0.6254  1.0263
  923MPD2     N13514   0.577   1.268   9.631  0.4708  0.3315  1.1288
  923MPD2    H513515   0.660   1.230   9.674  0.2600 -1.1865  0.1789
  923MPD2    N113516   0.204   1.177   9.306  0.0757  0.3983  0.6364
  923MPD2    H713517   0.183   1.114   9.229 -1.9178 -0.1062  1.5678
  924MPD2     C13518   0.214   0.010  16.158  0.2796 -0.4366  0.2123
  924MPD2    C113519   0.212   0.130  16.231  0.2273  0.4249  0.7104
  924MPD2    C213520   0.324   0.212  16.238  0.2682  1.3060  0.3199
  924MPD2    C313521   0.442   0.176  16.173 -0.0603  0.6940 -0.7056
  924MPD2    C413522   0.445   0.066  16.090  0.5725  0.5476 -0.2512
  924MPD2    C513523   0.330   4.717  16.081  1.0512  0.1976  0.1137
  924MPD2     H13524   0.309   0.310  16.283  0.9148  0.8867  1.4390
  924MPD2    H113525   0.529   0.029  16.032  0.9631  0.9215  0.0818
  924MPD2    H213526   0.140   4.658  16.146 -3.0980  2.7687  0.3194
  924MPD2    H313527   0.332   4.626  16.022  1.7752  0.3879 -0.1551
  924MPD2     N13528   0.557   0.251  16.184  0.3554  0.1040 -0.4954
  924MPD2    H513529   0.635   0.214  16.130  1.5243  0.4081  1.0065
  924MPD2    N113530   0.103   0.186  16.295  0.0943 -0.5215 -0.2942
  924MPD2    H713531   0.122   0.274  16.341  1.9573 -0.5017 -1.0666
  925MPD2     C13532   3.980   2.856  14.734 -0.1147 -0.4552 -0.7947
  925MPD2    C113533   3.856   2.907  14.743 -0.2358 -0.2759  0.1217
  925MPD2    C213534   3.805   2.932  14.869  0.2527  0.0917  0.1447
  925MPD2    C313535   3.870   2.902  14.987 -0.7763  0.7426 -0.2981
  925MPD2    C413536   3.994   2.856  14.977  0.4764 -0.6394  0.0426
  925MPD2    C513537   4.043   2.825  14.855  0.3511  1.1217  0.1532
  925MPD2     H13538   3.701   2.962  14.863  0.8031  1.6855 -1.2681
  925MPD2    H113539   4.051   2.827  15.064 -0.4123  2.9720  1.8476
  925MPD2    H213540   4.037   2.820  14.649  1.1976  1.9590 -0.9214
  925MPD2    H313541   4.146   2.796  14.841 -0.0523 -1.1211  1.9320
  925MPD2     N13542   3.817   2.924  15.116  0.2342 -0.2143  0.7235
  925MPD2    H513543   3.874   2.908  15.199 -1.2843  0.3584  1.8760
  925MPD2    N113544   3.769   2.915  14.632  0.1330 -0.2700 -0.0350
  925MPD2    H713545   3.683   2.966  14.649 -1.1780 -1.3768 -3.3045
  926MPD2     C13546   2.627   1.288  12.896 -0.1154 -0.3343 -0.9586
  926MPD2    C113547   2.654   1.412  12.955  0.2296 -0.1773  0.1991
  926MPD2    C213548   2.717   1.518  12.881 -0.2078 -0.6419 -0.2412
  926MPD2    C313549   2.737   1.498  12.748  0.1549 -0.5007 -0.0235
  926MPD2    C413550   2.709   1.375  12.691 -0.7459  0.5646  0.1654
  926MPD2    C513551   2.653   1.271  12.766 -0.3831 -0.9915  0.1969
  926MPD2     H13552   2.753   1.609  12.926 -0.1921 -0.1615 -1.2206
  926MPD2    H113553   2.701   1.349  12.586  0.8090 -0.7786  0.3860
  926MPD2    H213554   2.574   1.205  12.941  3.2420 -2.6506 -1.2712
  926MPD2    H313555   2.620   1.179  12.719 -0.1579  0.3302 -2.5806
  926MPD2     N13556   2.782   1.599  12.664 -0.4202 -0.0115  0.0892
  926MPD2    H513557   2.795   1.573  12.567 -2.9896  0.9491 -0.5157
  926MPD2    N113558   2.640   1.430  13.094 -0.4756 -0.3532 -0.9203
  926MPD2    H713559   2.681   1.516  13.130  1.5409 -1.7849  0.2188
  927MPD2     C13560   2.667   3.581   0.314  0.1547  0.6799  0.4167
  927MPD2    C113561   2.527   3.603   0.314  0.0543  0.1480  0.1337
  927MPD2    C213562   2.465   3.637   0.199  0.1881 -0.2376 -0.0551
  927MPD2    C313563   2.543   3.644   0.080  0.1165  0.2167  0.9687
  927MPD2    C413564   2.677   3.612   0.079 -0.2643 -0.2198 -0.4189
  927MPD2    C513565   2.734   3.582   0.197  0.5634 -0.5650  0.6413
  927MPD2     H13566   2.359   3.649   0.186  0.1038  0.9230  1.6943
  927MPD2    H113567   2.746   3.619  17.701 -0.1248  1.7216 -0.1431
  927MPD2    H213568   2.717   3.568   0.410  0.2777 -0.5770  0.1740
  927MPD2    H313569   2.841   3.565   0.198  0.7453  0.6421  1.0919
  927MPD2     N13570   2.472   3.684  17.670 -0.1138 -0.0551 -0.7151
  927MPD2    H513571   2.371   3.682  17.680 -0.1063  0.4240 -0.5515
  927MPD2    N113572   2.466   3.580   0.436 -0.2662  0.0451 -0.0484
  927MPD2    H713573   2.526   3.554   0.514  1.4758  0.7108 -1.1522
  928MPD2     C13574   0.954   1.596   0.908  0.1825  0.0067 -0.0456
  928MPD2    C113575   0.922   1.727   0.884 -0.5063  0.3136  0.2745
  928MPD2    C213576   0.981   1.803   0.787 -0.1916  0.0957  0.5869
  928MPD2    C313577   1.067   1.749   0.694 -0.2752 -0.9530  0.1538
  928MPD2    C413578   1.100   1.620   0.713  0.0853 -0.1704  0.7395
  928MPD2    C513579   1.044   1.551   0.817 -0.0474  0.2564 -0.4966
  928MPD2     H13580   0.959   1.909   0.788 -1.3627 -0.1280 -0.1384
  928MPD2    H113581   1.180   1.571   0.659  0.4463 -1.0145  2.0213
  928MPD2    H213582   0.926   1.535   0.993  0.4854  2.2132  1.6466
  928MPD2    H313583   1.085   1.453   0.840 -0.0127  0.4128  0.1180
  928MPD2     N13584   1.122   1.829   0.596  0.5997  0.1284 -0.1954
  928MPD2    H513585   1.160   1.783   0.514  1.7416  1.3547 -0.3556
  928MPD2    N113586   0.822   1.784   0.971 -0.1884 -0.0376  0.0014
  928MPD2    H713587   0.789   1.725   1.046 -1.7599  1.2190  0.3043
  929MPD2     C13588   0.336   1.763  10.767  0.9270  0.7310  0.3600
  929MPD2    C113589   0.291   1.725  10.646  0.2051 -0.8345 -0.2200
  929MPD2    C213590   0.255   1.818  10.549  0.9512 -0.2576  0.8424
  929MPD2    C313591   0.294   1.952  10.564 -0.6024  0.0577 -0.4825
  929MPD2    C413592   0.347   1.992  10.690 -0.5221  1.1401  0.6304
  929MPD2    C513593   0.367   1.898  10.789 -0.2891  0.2644 -0.3427
  929MPD2     H13594   0.232   1.782  10.450  0.0187  1.0254  0.5786
  929MPD2    H113595   0.377   2.096  10.703 -0.4050  1.1344  0.4127
  929MPD2    H213596   0.357   1.694  10.848  0.0046 -2.2494 -1.9581
  929MPD2    H313597   0.422   1.934  10.875  1.7310 -0.1899 -1.4401
  929MPD2     N13598   0.279   2.052  10.462 -0.1740 -0.0029  0.0254
  929MPD2    H513599   0.309   2.147  10.483  0.4007 -0.4657  1.2593
  929MPD2    N113600   0.258   1.587  10.641  0.1309  0.3791 -0.5794
  929MPD2    H713601   0.290   1.537  10.723  1.8924  0.4133 -1.2645
  930MPD2     C13602   1.644   4.414  14.249 -0.3235 -0.3862 -0.0149
  930MPD2    C113603   1.762   4.346  14.255 -0.1542 -0.1115 -0.0303
  930MPD2    C213604   1.762   4.210  14.232  0.0379 -0.5734 -0.5694
  930MPD2    C313605   1.650   4.152  14.187 -0.2834 -0.1674 -0.6537
  930MPD2    C413606   1.534   4.219  14.177  0.0213  0.1281  0.4505
  930MPD2    C513607   1.526   4.350  14.205  0.0216  0.3687  0.4252
  930MPD2     H13608   1.855   4.156  14.240 -0.0990 -0.3335  2.5014
  930MPD2    H113609   1.448   4.170  14.133  0.0471 -1.3668  2.0527
  930MPD2    H213610   1.650   4.520  14.270  0.5735 -0.8777  2.1865
  930MPD2    H313611   1.429   4.399  14.211  0.0306  0.5444 -0.8465
  930MPD2     N13612   1.648   4.020  14.140  0.3655 -0.1691  0.6697
  930MPD2    H513613   1.558   3.984  14.108  0.7202 -1.8591  1.5749
  930MPD2    N113614   1.880   4.421  14.291 -0.8093 -0.3788  0.1050
  930MPD2    H713615   1.881   4.520  14.271 -2.7965 -0.5762 -0.9132
  931MPD2     C13616   2.688   3.198   0.927 -0.6213 -0.3096  0.9548
  931MPD2    C113617   2.552   3.219   0.946  0.3967  0.4651 -0.2040
  931MPD2    C213618   2.491   3.136   1.037  0.1527  0.0666  1.2891
  931MPD2    C313619   2.557   3.053   1.125  0.5576 -0.3175  0.6401
  931MPD2    C413620   2.692   3.054   1.120  0.1121 -0.2838  0.3013
  931MPD2    C513621   2.758   3.122   1.019 -0.7242  0.2094  0.1330
  931MPD2     H13622   2.382   3.132   1.036  0.1884  0.4043 -1.8320
  931MPD2    H113623   2.756   2.995   1.184 -0.5170 -0.7605  0.4864
  931MPD2    H213624   2.743   3.257   0.854  0.7270 -2.1819  0.4491
  931MPD2    H313625   2.866   3.115   1.015 -0.6702  0.8967  0.6005
  931MPD2     N13626   2.498   2.968   1.225  0.8257  0.3277 -1.5032
  931MPD2    H513627   2.557   2.911   1.285  3.5716  2.5738 -2.0489
  931MPD2    N113628   2.478   3.309   0.867 -0.0374 -0.4799 -0.5549
  931MPD2    H713629   2.528   3.357   0.793  1.6781  0.3816  1.1779
  932MPD2     C13630   4.325   2.085  10.966  0.1122 -0.1284  0.7354
  932MPD2    C113631   4.390   2.192  11.029 -0.1564  0.1960  0.1774
  932MPD2    C213632   4.473   2.167  11.136  0.4622  0.4315  0.0020
  932MPD2    C313633   4.507   2.035  11.160  0.0507 -0.3263  0.3517
  932MPD2    C413634   4.437   1.928  11.116  0.4259  0.2291  0.0107
  932MPD2    C513635   4.342   1.956  11.018  0.0389  0.1245  0.4124
  932MPD2     H13636   4.528   2.252  11.174  0.8790 -0.5099  1.4734
  932MPD2    H113637   4.453   1.825  11.142 -2.5757  0.3950  2.5554
  932MPD2    H213638   4.261   2.095  10.879 -0.4672 -1.3717  1.0104
  932MPD2    H313639   4.272   1.878  10.988  1.7196 -1.0642 -0.3772
  932MPD2     N13640   4.606   2.002  11.253 -0.1569 -0.3646  0.1096
  932MPD2    H513641   4.605   1.907  11.289  2.9719 -0.1511  0.7511
  932MPD2    N113642   4.387   2.328  10.983 -0.1558 -0.2380 -0.0920
  932MPD2    H713643   4.442   2.397  11.032  1.1807 -0.5479 -1.1457
  933MPD2     C13644   0.216   2.336   0.839 -0.4476 -0.6051  0.5363
  933MPD2    C113645   0.307   2.367   0.939  0.1217  0.0613  0.5436
  933MPD2    C213646   0.296   2.486   1.009 -0.9019 -0.6306  0.6459
  933MPD2    C313647   0.193   2.577   0.987  0.6692  0.2735  0.4222
  933MPD2    C413648   0.095   2.534   0.896 -0.8695 -0.1523  0.5480
  933MPD2    C513649   0.108   2.418   0.821  0.0164 -1.3768  0.0210
  933MPD2     H13650   0.362   2.512   1.091 -1.3456  0.3740  0.6827
  933MPD2    H113651   0.012   2.598   0.870 -0.2013  0.8497  0.8872
  933MPD2    H213652   0.227   2.243   0.785  0.8127  0.3561 -0.8615
  933MPD2    H313653   0.043   2.405   0.735 -1.2861  1.5369  0.5703
  933MPD2     N13654   0.194   2.705   1.052 -0.1126 -0.4884 -0.5376
  933MPD2    H513655   0.278   2.724   1.106 -0.4073  3.3430 -1.4354
  933MPD2    N113656   0.405   2.276   0.976  0.5962 -0.1707  0.1344
  933MPD2    H713657   0.419   2.196   0.916 -1.4964 -1.3973  1.3031
  934MPD2     C13658   1.037   0.057   2.178  0.3132 -0.4116 -0.2378
  934MPD2    C113659   1.123   4.669   2.176  0.2091 -1.2305 -0.2031
  934MPD2    C213660   1.102   4.576   2.078  0.7748  1.3925 -0.0034
  934MPD2    C313661   1.024   4.611   1.967 -0.1310 -0.0432  0.1602
  934MPD2    C413662   0.949   0.001   1.968 -0.0156  0.0218 -0.7157
  934MPD2    C513663   0.945   0.076   2.079 -0.0565  0.1993 -0.0245
  934MPD2     H13664   1.171   4.492   2.074 -0.4651  0.2745  2.7396
  934MPD2    H113665   0.888   0.029   1.883  1.2074  0.5647 -1.4078
  934MPD2    H213666   1.040   0.141   2.247  0.2398  1.2873 -2.3090
  934MPD2    H313667   0.887   0.167   2.090 -2.2550 -1.3751  1.3024
  934MPD2     N13668   1.001   4.524   1.863 -0.1352  0.0409  0.2959
  934MPD2    H513669   0.923   4.547   1.802  0.6439  1.7532 -0.0522
  934MPD2    N113670   1.230   4.645   2.271  0.3084  0.3996 -0.6428
  934MPD2    H713671   1.276   4.555   2.264 -2.5134 -1.2556  2.3512
  935MPD2     C13672   1.540   3.735   1.525  0.6147  0.5855 -0.2446
  935MPD2    C113673   1.418   3.741   1.460 -0.6183 -0.6745 -0.2679
  935MPD2    C213674   1.315   3.826   1.494  0.1434 -0.0937 -0.6553
  935MPD2    C313675   1.339   3.921   1.591  0.5406  0.1330 -0.7638
  935MPD2    C413676   1.462   3.927   1.655  0.1830  0.2298 -0.3747
  935MPD2    C513677   1.560   3.827   1.623 -0.2421 -0.7807  0.4008
  935MPD2     H13678   1.239   3.842   1.419 -2.9326 -0.2373  2.4551
  935MPD2    H113679   1.476   4.000   1.733  2.1499 -0.2536 -0.2615
  935MPD2    H213680   1.618   3.664   1.500  0.1747 -0.4272  1.2646
  935MPD2    H313681   1.649   3.825   1.684  1.1125  0.5055 -1.5728
  935MPD2     N13682   1.232   4.010   1.639 -0.8011 -0.3938 -0.1177
  935MPD2    H513683   1.260   4.087   1.698 -0.1220 -0.0427 -0.9044
  935MPD2    N113684   1.396   3.666   1.339  0.4371  0.3919  0.5076
  935MPD2    H713685   1.308   3.680   1.291  0.5888 -2.2137 -0.5153
  936MPD2     C13686   4.173   0.984  12.265 -0.0586 -0.1404  0.4720
  936MPD2    C113687   4.201   0.950  12.394 -0.3985 -0.3110  0.2562
  936MPD2    C213688   4.219   1.048  12.485  0.2749  0.9941  0.8115
  936MPD2    C313689   4.185   1.183  12.470  0.4407  0.4320  0.0496
  936MPD2    C413690   4.147   1.212  12.341 -0.4314  0.2434 -0.8630
  936MPD2    C513691   4.136   1.119  12.243  0.4321  0.4856  0.0731
  936MPD2     H13692   4.263   1.010  12.577 -0.1610 -0.2470  0.5111
  936MPD2    H113693   4.134   1.313  12.306  3.3438  0.6312 -1.1472
  936MPD2    H213694   4.158   0.907  12.191 -2.2902  0.9308 -0.1854
  936MPD2    H313695   4.100   1.155  12.147  1.2903 -1.1485 -0.8773
  936MPD2     N13696   4.213   1.291  12.561  0.3690 -0.1070  0.2379
  936MPD2    H513697   4.194   1.382  12.521 -0.7220 -0.6219 -0.4191
  936MPD2    N113698   4.206   0.816  12.452 -0.6755  0.5445 -0.1494
  936MPD2    H713699   4.237   0.802  12.548 -0.3056 -1.2145 -0.5318
  937MPD2     C13700   2.154   2.317  11.504 -0.2998 -0.1725 -0.1451
  937MPD2    C113701   2.255   2.391  11.557 -0.5093  0.4174 -0.0097
  937MPD2    C213702   2.370   2.395  11.475  0.0227  0.1620 -0.1031
  937MPD2    C313703   2.379   2.331  11.352 -0.7939 -0.0378 -0.2587
  937MPD2    C413704   2.282   2.239  11.323  0.9895  0.6259  0.1989
  937MPD2    C513705   2.168   2.241  11.390 -0.7593 -0.3209 -0.6865
  937MPD2     H13706   2.452   2.462  11.496  0.6468 -1.1609  1.6930
  937MPD2    H113707   2.288   2.167  11.242  0.7024  1.6550 -0.7358
  937MPD2    H213708   2.056   2.328  11.549 -0.0961 -0.0803  0.2788
  937MPD2    H313709   2.087   2.180  11.351 -1.4268 -0.8081  1.4399
  937MPD2     N13710   2.498   2.352  11.282  0.4116 -0.3229 -0.8512
  937MPD2    H513711   2.566   2.420  11.314 -0.4801 -0.8490  2.1244
  937MPD2    N113712   2.238   2.484  11.661 -0.1940 -0.3069 -0.1275
  937MPD2    H713713   2.322   2.536  11.685  1.3586 -2.5026 -0.8182
  938MPD2     C13714   0.126   3.837   0.755  0.4300  0.8145 -0.3941
  938MPD2    C113715   0.231   3.853   0.846  0.4519  0.1907  0.8707
  938MPD2    C213716   0.247   3.774   0.959 -0.0614 -0.1604  0.7212
  938MPD2    C313717   0.153   3.671   0.985  0.2584  0.2466  0.1753
  938MPD2    C413718   0.050   3.652   0.895 -0.7779  0.4851 -0.0834
  938MPD2    C513719   0.032   3.738   0.786 -0.4100 -0.9424  0.7320
  938MPD2     H13720   0.325   3.798   1.031  1.0413 -2.4383  0.3042
  938MPD2    H113721   4.709   3.570   0.917  3.1983 -2.4731  0.9386
  938MPD2    H213722   0.107   3.898   0.667 -2.1853  1.5647  0.6957
  938MPD2    H313723   4.676   3.731   0.715 -0.5900  0.4558  0.7994
  938MPD2     N13724   0.159   3.598   1.104  0.0570  0.3583 -0.7009
  938MPD2    H513725   0.089   3.525   1.103 -0.9741  1.3445  0.7725
  938MPD2    N113726   0.322   3.969   0.841  0.0246 -0.2988 -0.1893
  938MPD2    H713727   0.377   3.981   0.925 -0.7977 -1.9315  0.5776
  939MPD2     C13728   2.871   0.077   1.498  0.1385  0.5197 -0.0591
  939MPD2    C113729   2.792   0.111   1.398 -0.4793  0.0827 -0.0005
  939MPD2    C213730   2.853   0.159   1.278 -0.0488  0.2292 -0.6272
  939MPD2    C313731   2.992   0.175   1.275  0.1451  0.0798  0.2945
  939MPD2    C413732   3.066   0.154   1.386 -0.3693  0.5629  0.9761
  939MPD2    C513733   3.007   0.106   1.496  0.1024 -0.1714  0.0808
  939MPD2     H13734   2.792   0.176   1.190  2.3541 -0.5619 -2.4270
  939MPD2    H113735   3.166   0.195   1.388  1.1375 -3.1590  1.5335
  939MPD2    H213736   2.837   0.040   1.595 -0.1559  0.8740 -0.0292
  939MPD2    H313737   3.062   0.078   1.585  0.0213  0.0272  0.1941
  939MPD2     N13738   3.043   0.233   1.150  0.1469 -0.0696 -0.4092
  939MPD2    H513739   2.977   0.278   1.087 -0.9481  0.5626  1.1827
  939MPD2    N113740   2.651   0.085   1.409  0.4007  0.2467  0.0807
  939MPD2    H713741   2.621   0.045   1.497 -0.8785  1.1496  0.0614
  940MPD2     C13742   0.086   0.499  13.085 -0.6490  0.8325  0.3373
  940MPD2    C113743   0.180   0.589  13.131 -0.3574  0.1485 -0.0080
  940MPD2    C213744   0.292   0.608  13.052 -0.0836 -0.4297  1.0038
  940MPD2    C313745   0.317   0.537  12.938  0.3538 -0.0655  0.6432
  940MPD2    C413746   0.221   0.453  12.891 -1.0879 -1.1909  0.0340
  940MPD2    C513747   0.112   0.434  12.965  0.3127 -0.1739 -0.1103
  940MPD2     H13748   0.371   0.671  13.092  0.4133 -0.6624  0.3879
  940MPD2    H113749   0.236   0.390  12.804 -0.4443  0.7299 -1.2213
  940MPD2    H213750   4.722   0.463  13.132 -2.9929  1.8702 -3.3947
  940MPD2    H313751   0.042   0.364  12.921  0.1839  0.1785 -0.4703
  940MPD2     N13752   0.437   0.542  12.860  0.0598  0.0415 -0.4398
  940MPD2    H513753   0.441   0.489  12.773 -1.0870  0.6801 -0.8869
  940MPD2    N113754   0.163   0.661  13.248  0.0816  0.4464  0.6736
  940MPD2    H713755   0.234   0.729  13.274  0.8865 -0.7268  1.5857
  941MPD2     C13756   4.585   4.413   9.282  0.4144  0.8104 -0.0469
  941MPD2    C113757   4.603   4.400   9.423  0.8782 -0.6993 -0.0951
  941MPD2    C213758   4.505   4.339   9.498 -0.1452 -0.0981  0.1090
  941MPD2    C313759   4.386   4.314   9.438 -0.5834  0.5363  0.5035
  941MPD2    C413760   4.365   4.328   9.302 -0.0114 -0.4755 -0.6867
  941MPD2    C513761   4.463   4.377   9.232 -0.7729 -0.0983 -0.7676
  941MPD2     H13762   4.518   4.323   9.604  0.2855 -2.4729 -0.3045
  941MPD2    H113763   4.270   4.302   9.256 -0.0051  3.3170 -2.8530
  941MPD2    H213764   4.657   4.457   9.213 -0.8202  2.2500 -0.4241
  941MPD2    H313765   4.445   4.391   9.126  1.1679  0.0493 -1.0657
  941MPD2     N13766   4.278   4.262   9.512  0.1764 -0.0539  0.6384
  941MPD2    H513767   4.189   4.254   9.463  0.0882  0.2530  0.7508
  941MPD2    N113768   4.717   4.450   9.486 -0.4899  0.1456  0.4940
  941MPD2    H713769   4.723   4.454   9.587 -0.1829 -2.1722  0.5619
  942MPD2     C13770   3.481   2.167   9.174  0.7384  0.3794  0.7965
  942MPD2    C113771   3.523   2.111   9.057  0.1764  0.0445  0.0103
  942MPD2    C213772   3.621   2.011   9.065  0.1179  0.5236 -0.1062
  942MPD2    C313773   3.669   1.959   9.187 -0.4026  0.3972 -0.0453
  942MPD2    C413774   3.628   2.017   9.295  0.0682 -0.2957  0.0540
  942MPD2    C513775   3.541   2.122   9.287 -1.2495  0.2933 -0.1213
  942MPD2     H13776   3.666   1.980   8.971  0.9633  1.0404  0.1297
  942MPD2    H113777   3.665   1.996   9.395 -2.2026 -1.2657  0.6971
  942MPD2    H213778   3.410   2.248   9.189 -0.7669 -0.9481  0.8232
  942MPD2    H313779   3.523   2.184   9.375 -2.2051  0.7863 -0.6670
  942MPD2     N13780   3.775   1.862   9.191  0.0695 -0.0107 -0.1520
  942MPD2    H513781   3.816   1.850   9.283 -1.0859 -0.3253  0.3197
  942MPD2    N113782   3.461   2.154   8.939  0.4068  0.1383 -0.0493
  942MPD2    H713783   3.412   2.242   8.944  0.4084  0.2331 -1.6959
  943MPD2     C13784   4.302   4.619   9.634 -0.4193 -0.6198 -0.2065
  943MPD2    C113785   4.179   4.622   9.704  0.6680  0.4316 -0.3226
  943MPD2    C213786   4.071   4.691   9.652 -1.3165  0.0502  0.5379
  943MPD2    C313787   4.090   0.038   9.534 -0.0188 -0.5738 -0.6839
  943MPD2    C413788   4.209   0.050   9.475  1.1802  0.2984 -0.1892
  943MPD2    C513789   4.308   4.695   9.519 -0.5315 -0.2991 -0.7309
  943MPD2     H13790   3.976   4.690   9.705  0.2820 -2.2605  3.3728
  943MPD2    H113791   4.217   0.103   9.381  0.1829  4.7539  2.2418
  943MPD2    H213792   4.392   4.573   9.672  0.3305  1.1666  0.1931
  943MPD2    H313793   4.401   4.694   9.463 -0.2683 -0.7516 -0.2851
  943MPD2     N13794   3.983   0.096   9.466  0.3211  0.3347  0.1823
  943MPD2    H513795   4.008   0.136   9.377  3.3747 -0.0826  0.8458
  943MPD2    N113796   4.170   4.547   9.825  0.2733 -0.3636 -0.4740
  943MPD2    H713797   4.248   4.488   9.852  1.6975  1.0934 -1.3549
  944MPD2     C13798   3.207   4.317  11.465  0.0965 -0.5529 -0.0959
  944MPD2    C113799   3.185   4.186  11.506  0.6584  0.2248 -0.6566
  944MPD2    C213800   3.119   4.164  11.622 -0.6885  0.1080 -0.0971
  944MPD2    C313801   3.077   4.273  11.698 -0.0523  0.1269 -0.0327
  944MPD2    C413802   3.085   4.403  11.653 -0.4102  0.1361 -0.7914
  944MPD2    C513803   3.150   4.421  11.533  0.6309 -0.6713 -0.1699
  944MPD2     H13804   3.104   4.066  11.665  1.9395  0.7980  2.4282
  944MPD2    H113805   3.055   4.493  11.705 -2.4663 -2.3133  2.2602
  944MPD2    H213806   3.264   4.347  11.378  0.4705  0.6211  0.5445
  944MPD2    H313807   3.164   4.521  11.493 -1.6264 -0.2550  0.0849
  944MPD2     N13808   3.018   4.245  11.824 -0.2128  0.4038  0.2506
  944MPD2    H513809   3.004   4.146  11.845  0.8881  0.3078  0.4877
  944MPD2    N113810   3.237   4.080  11.428 -1.0419 -0.5183 -0.5730
  944MPD2    H713811   3.297   4.100  11.349 -0.1613  0.8626  0.4450
    1TCq1    O113812   1.269   4.723  14.128  0.8182  0.2069  0.2217
    1TCq1    C113813   1.210   0.001  14.251 -0.2126  0.6677 -0.1545
    1TCq1    O213814   1.085   4.717  14.273  0.0022 -0.1255  0.4278
    1TCq1    C213815   1.309   4.678  14.347 -0.9206 -0.5242  0.5653
    1TCq1    C313816   1.291   4.555  14.411 -0.2558 -0.5179 -0.7227
    1TCq1    C413817   1.392   4.518  14.498 -0.1451  0.3276 -0.3689
    1TCq1    C513818   1.506   4.595  14.516 -0.0156  0.2428  0.0270
    1TCq1    C613819   1.515   4.718  14.452  0.0115  0.1584  0.4344
    1TCq1    C713820   1.415   0.036  14.372  0.1055  0.3769 -0.7286
    1TCq1    C813821   1.616   0.091  14.499 -0.2342  0.5359 -0.3969
    1TCq1    O413822   1.691   0.044  14.585  0.6623 -0.6602 -0.4873
    1TCq1    C913823   1.382   4.393  14.578  0.5978  0.0701  0.5964
    1TCq1    O513824   1.453   4.395  14.683 -0.2450 -0.0144 -0.2881
    1TCq1    O613825   1.267   4.341  14.582 -0.1038  0.1922  0.1715
    1TCq1    H113826   1.366   0.010  14.131  0.7485  1.0000 -0.9521
    1TCq1    H213827   1.202   4.495  14.393 -0.8156 -0.4725  1.9152
    1TCq1    H313828   1.577   4.568  14.594 -1.1837 -0.6516  0.7728
    1TCq1    H413829   1.424   0.132  14.322 -0.1792  1.0155  0.4455
    2MPD2     C13830   1.696   0.546  14.699  0.0129  0.7937 -0.2797
    2MPD2    C113831   1.595   0.560  14.605  0.2381 -0.4304  0.0464
    2MPD2    C213832   1.561   0.454  14.530  0.4740 -0.1618 -0.1201
    2MPD2    C313833   1.631   0.338  14.548 -0.8926 -0.7004 -0.0196
    2MPD2    C413834   1.736   0.325  14.635 -0.2998 -0.2430  0.5226
    2MPD2    C513835   1.771   0.433  14.703 -0.0177  0.3788  0.3845
    2MPD2     H13836   1.480   0.462  14.458  1.7495 -1.4357 -1.6916
    2MPD2    H113837   1.804   0.241  14.639 -0.9600 -0.9104 -2.0088
    2MPD2    H213838   1.725   0.631  14.759  2.1693  0.1837 -0.4542
    2MPD2    H313839   1.852   0.426  14.775  0.1132 -2.6359 -0.0837
    2MPD2     N13840   1.582   0.225  14.481  0.2750  0.0544  0.2682
    2MPD2    H513841   1.494   0.242  14.432  0.2535 -0.6659  0.0548
    2MPD2    N113842   1.547   0.694  14.584  0.5496  0.6922  0.2420
    2MPD2    H713843   1.579   0.775  14.637  1.2317  0.5867 -0.0186
    3TMC2    C113844   1.438   0.877  14.491  0.1585 -0.1336 -0.1865
    3TMC2    C213845   1.492   0.948  14.594  0.5770  0.2448  0.4960
    3TMC2    C313846   1.489   1.085  14.574 -0.7404  0.2130 -0.6619
    3TMC2    C413847   1.380   0.923  14.374  0.2403 -0.2674 -0.1147
    3TMC2    C513848   1.379   1.062  14.364  0.5608  0.1572 -0.2099
    3TMC2    C613849   1.440   1.142  14.457 -0.7751 -0.8686 -0.1107
    3TMC2     C13850   1.453   0.732  14.491  0.0214  1.0915 -0.1006
    3TMC2     O13851   1.411   0.667  14.401  0.0983  0.2640 -0.7852
    3TMC2     H13852   1.506   0.909  14.694  3.4085 -1.4441 -0.5577
    3TMC2    H113853   1.355   0.861  14.289 -1.1413 -0.3818  0.3713
    3TMC2    H213854   1.445   1.247  14.432  0.9130 -1.4281 -2.1003
    3TMC2    C713855   1.400   1.105  14.223  0.1842 -0.0127 -0.1466
    3TMC2    C813856   1.530   1.174  14.677  0.3034  0.1046 -0.1287
    3TMC2    O113857   1.502   1.067  14.169  0.1302  0.0219  0.0116
    3TMC2    O213858   1.450   1.209  14.759  0.4376  0.3800  0.1837
    3TMC2    O513859   1.643   1.117  14.720 -0.2375  0.7493  0.6169
    3TMC2    H513860   1.694   1.079  14.645 -1.3817  1.0062 -0.2966
    4MPD2     C13861   4.671   1.559  14.049 -0.1881  0.7127  0.3238
    4MPD2    C113862   4.698   1.557  13.910  0.2019 -0.2828  0.3029
    4MPD2    C213863   0.105   1.558  13.873 -0.2089  0.3050  0.0515
    4MPD2    C313864   0.209   1.563  13.966  0.1302 -0.0780  0.2834
    4MPD2    C413865   0.180   1.544  14.100  0.1517 -0.8738  0.4752
    4MPD2    C513866   0.048   1.547  14.141  0.1241 -0.4560  1.2068
    4MPD2     H13867   0.134   1.559  13.769 -2.2280 -0.9395 -0.5218
    4MPD2    H113868   0.258   1.532  14.175 -0.9425 -2.1107  1.4051
    4MPD2    H213869   4.567   1.557  14.079 -0.4088 -0.2030 -0.4898
    4MPD2    H313870   0.024   1.537  14.246 -1.8392  0.3780  0.8413
    4MPD2     N13871   0.341   1.561  13.912  0.1755 -0.4156 -0.3964
    4MPD2    H513872   0.337   1.531  13.816  0.0902  2.5830 -1.3246
    4MPD2    N113873   4.591   1.553  13.819  0.1695  0.1443 -0.0245
    4MPD2    H713874   4.496   1.562  13.855 -0.1482  0.1901 -0.8503
    5TCq2    C113875   0.456   1.586  13.977  0.8941  0.1710 -0.5639
    5TCq2    O213876   0.475   1.622  14.094  0.3045  0.3745 -0.0793
    5TCq2    C213877   0.565   1.556  13.888 -1.0272 -0.0623  0.1599
    5TCq2    C313878   0.546   1.538  13.753  0.2506 -0.5054 -0.8491
    5TCq2    C413879   0.646   1.490  13.668 -0.7344  0.2229 -0.3587
    5TCq2    C513880   0.767   1.453  13.724  0.4263  0.8997 -0.5989
    5TCq2    C613881   0.791   1.475  13.857  0.0855 -0.0900 -1.2070
    5TCq2    C713882   0.686   1.518  13.938 -0.4614  0.4340  0.3202
    5TCq2    C813883   0.898   1.406  13.925  0.3810 -0.2777 -0.5302
    5TCq2    O413884   0.877   1.376  14.039 -0.0835 -0.1229 -0.2590
    5TCq2    C913885   0.632   1.462  13.531  0.1294 -0.3833  1.1895
    5TCq2    O513886   0.513   1.458  13.484 -0.6036 -0.4616 -0.4347
    5TCq2    O613887   0.735   1.432  13.467 -0.0516  0.3930 -0.4533
    5TCq2    H213888   0.464   1.581  13.696 -0.6986  0.0322  0.9136
    5TCq2    H313889   0.837   1.392  13.667 -0.4714  0.2697 -1.0389
    5TCq2    H413890   0.711   1.535  14.042 -1.0668 -0.8326  0.6819
    6MPD1     C13891   3.731   2.130  12.143 -0.6149 -1.5064 -0.0630
    6MPD1    C113892   3.749   2.217  12.250  0.5145  0.3596 -0.5009
    6MPD1    C213893   3.805   2.164  12.363  0.2317 -0.0731  0.1752
    6MPD1    C313894   3.871   2.038  12.354 -0.4802  0.0327 -0.2549
    6MPD1    C413895   3.866   1.963  12.238  0.4470 -0.2998  0.0631
    6MPD1    C513896   3.786   2.008  12.137  0.5298 -0.4115  0.1311
    6MPD1     H13897   3.787   2.213  12.458 -0.5999  1.7444 -0.9209
    6MPD1    H113898   3.917   1.869  12.220 -0.1555 -0.8273  1.1246
    6MPD1    H213899   3.677   2.170  12.058  0.4183 -0.4800 -0.2402
    6MPD1    H313900   3.791   1.959  12.041 -1.6489 -0.1499 -0.1170
    6MPD1     N13901   3.947   1.993  12.464 -0.7089  0.3306 -0.0553
    6MPD1    H513902   3.993   1.904  12.449 -1.7153 -0.3254  0.7720
    6MPD1    N113903   3.661   2.330  12.264 -0.1508 -0.3145  0.4993
    6MPD1    H613904   3.648   2.382  12.177  0.2382  0.6251  1.0070
    6MPD1    H713905   3.693   2.393  12.337 -0.6893 -0.1840  0.6204
    7MPD2     C13906   4.322   2.117  13.262  0.4336  0.8233  0.3337
    7MPD2    C113907   4.223   2.023  13.250 -0.8325  0.1171 -0.4192
    7MPD2    C213908   4.212   1.929  13.352  0.6410 -0.1150 -0.3786
    7MPD2    C313909   4.294   1.927  13.462 -0.2257 -0.1949  0.3678
    7MPD2    C413910   4.386   2.023  13.471  0.2402 -0.0369 -0.1902
    7MPD2    C513911   4.408   2.109  13.374  0.1277  0.1075 -0.7723
    7MPD2     H13912   4.139   1.850  13.339  0.4012 -0.1706  1.3694
    7MPD2    H113913   4.464   2.016  13.547  0.5275 -1.9657 -0.6721
    7MPD2    H213914   4.339   2.192  13.186 -0.9908  1.9387  1.1348
    7MPD2    H313915   4.492   2.177  13.385 -0.5881  1.1056 -1.4381
    7MPD2     N13916   4.291   1.813  13.550  0.1374 -0.0451  0.2626
    7MPD2    H513917   4.370   1.804  13.614 -0.9206 -0.1873  1.5629
    7MPD2    N113918   4.142   2.002  13.134  0.2636 -0.0922  0.4284
    7MPD2    H713919   4.071   1.930  13.138  0.6824 -0.4969  0.5570
    8TMC3    C113920   4.243   1.596  13.608 -0.5178 -0.7024 -0.4484
    8TMC3    C213921   4.368   1.617  13.663  0.7913  0.5169 -0.8461
    8TMC3    C313922   4.470   1.541  13.608  0.2898 -0.0225  0.1574
    8TMC3    C413923   4.217   1.490  13.527  0.2346 -0.4864  0.3010
    8TMC3    C513924   4.324   1.415  13.474  0.0418 -0.0674 -0.0709
    8TMC3    C613925   4.456   1.447  13.512  0.1328  0.0278  0.0366
    8TMC3     C13926   4.193   1.716  13.544  0.5255  0.3754  0.2789
    8TMC3     O13927   4.086   1.717  13.489  0.3695 -0.0019  0.2053
    8TMC3     H13928   4.377   1.678  13.752 -1.7775  0.7517 -0.7490
    8TMC3    H113929   4.115   1.469  13.497 -0.0460  2.0733 -0.5464
    8TMC3    H213930   4.541   1.391  13.475  0.5236  0.6392  0.0195
    8TMC3    C713931   4.311   1.387  13.335  0.3101  0.2333  0.2572
    8TMC3    C813932   4.598   1.528  13.681 -0.3325  0.2072 -0.2462
    8TMC3    O113933   4.404   1.410  13.252  0.3509 -0.0132 -0.0182
    8TMC3    O213934   4.698   1.493  13.616 -0.2159  0.1953 -0.7018
    9TMC3    C113935   4.045   1.988  12.673 -0.4943 -0.2773 -0.0835
    9TMC3    C213936   4.026   1.852  12.677 -0.1066  0.2265 -0.4400
    9TMC3    C313937   4.060   1.792  12.795 -0.4376  0.3087  0.8410
    9TMC3    C413938   4.074   2.062  12.782 -0.7065 -0.4687 -0.3731
    9TMC3    C513939   4.104   1.999  12.898  0.0816 -0.6572 -0.4171
    9TMC3    C613940   4.103   1.861  12.908 -0.2246 -0.3679 -0.0972
    9TMC3     C13941   3.975   2.063  12.576 -0.3220  1.0461 -0.0583
    9TMC3     O13942   3.935   2.176  12.603  0.0071 -0.0723  0.1726
    9TMC3     H13943   3.978   1.792  12.601 -1.6112 -1.0351  1.5135
    9TMC3    H113944   4.103   2.166  12.778 -2.2232 -0.0912 -1.5310
    9TMC3    H213945   4.138   1.798  12.989 -0.1917 -0.2038  0.0160
    9TMC3    C713946   4.170   2.062  13.013  0.2566  0.4621  0.5844
    9TMC3    C813947   4.017   1.657  12.818  0.1938 -0.3845 -0.6286
    9TMC3    O113948   4.239   2.156  12.980  0.4161 -0.6303  0.5557
    9TMC3    O213949   3.931   1.611  12.747  0.7167 -0.0796 -0.0448
   10MPD2     C13950   3.990   1.295  13.185 -0.1849  0.1332  0.4240
   10MPD2    C113951   4.107   1.362  13.196  0.0237 -0.6854  0.0711
   10MPD2    C213952   4.139   1.462  13.104 -0.2435 -0.8056  0.5799
   10MPD2    C313953   4.056   1.493  12.996  0.3048  0.8844  0.7546
   10MPD2    C413954   3.937   1.429  12.993 -0.0655 -0.5154 -0.8922
   10MPD2    C513955   3.901   1.331  13.087  0.3898 -0.1064 -0.3085
   10MPD2     H13956   4.235   1.512  13.111 -0.5784 -0.1943  0.8350
   10MPD2    H113957   3.859   1.458  12.924 -0.8920  1.1906  0.7348
   10MPD2    H213958   3.954   1.236  13.268 -1.2099 -0.6635 -0.5952
   10MPD2    H313959   3.807   1.277  13.082 -0.2939  0.9769  0.8556
   10MPD2     N13960   4.093   1.595  12.912  0.8689  0.1912 -0.5590
   10MPD2    H513961   4.185   1.635  12.928  1.8802 -2.4920  0.4078
   10MPD2    N113962   4.186   1.336  13.306  0.0817  0.1516  0.1879
   10MPD2    H713963   4.142   1.277  13.375  0.6945  0.7185  1.0661
   11MPD2     C13964   1.363   1.191  13.936 -0.1762  0.1911  0.1529
   11MPD2    C113965   1.268   1.198  14.037  0.5595 -0.5851 -0.0323
   11MPD2    C213966   1.155   1.269  14.014  0.0625 -0.2986 -0.1650
   11MPD2    C313967   1.119   1.316  13.885  0.1569 -0.1267  0.2601
   11MPD2    C413968   1.212   1.306  13.786  0.5512 -0.2193 -0.1766
   11MPD2    C513969   1.333   1.242  13.816  0.3388 -0.2074  0.4101
   11MPD2     H13970   1.086   1.291  14.094  0.7166  1.1351  0.0147
   11MPD2    H113971   1.187   1.340  13.686 -1.1120 -0.9751 -0.0226
   11MPD2    H213972   1.459   1.143  13.954  0.5340  1.4571 -0.2501
   11MPD2    H313973   1.396   1.237  13.728  2.4547  1.0347  1.8531
   11MPD2     N13974   0.997   1.366  13.844  1.1069  0.2386  0.0289
   11MPD2    H513975   0.985   1.412  13.755  0.3255 -0.5434 -0.2676
   11MPD2    N113976   1.285   1.157  14.169 -0.0630  0.6397  0.1043
   11MPD2    H713977   1.207   1.184  14.227 -0.3551  0.4724 -0.2070
    1MPD1     C13978   3.248   2.289   0.252  0.7867 -0.3783  0.4852
    1MPD1    C113979   3.337   2.337   0.346  0.6520  0.6025  0.2334
    1MPD1    C213980   3.458   2.391   0.305  0.1355  0.1978  0.4107
    1MPD1    C313981   3.475   2.429   0.170 -0.6646  0.4933 -0.5670
    1MPD1    C413982   3.383   2.386   0.078 -0.4526  0.2115 -0.0796
    1MPD1    C513983   3.271   2.324   0.124  0.5888  0.2815  0.0097
    1MPD1     H13984   3.542   2.406   0.371  2.0870  3.0405 -2.7142
    1MPD1    H113985   3.386   2.418  17.679  0.3955  0.7965  0.1188
    1MPD1    H213986   3.158   2.233   0.276 -0.0422  0.1448 -1.3946
    1MPD1    H313987   3.194   2.288   0.057  2.5192  0.2714 -2.1828
    1MPD1     N13988   3.587   2.489   0.118  0.3803  0.1714  0.6635
    1MPD1    H513989   3.595   2.498   0.017  2.2698  2.2876  1.0032
    1MPD1    N113990   3.314   2.311   0.485  0.0780 -0.7139  0.1190
    1MPD1    H613991   3.364   2.367   0.553  0.3169  0.9730 -1.4383
    1MPD1    H713992   3.217   2.300   0.513 -0.2629  1.2092 -0.3320
    2MPD1     C13993   4.357   2.829   0.616 -0.1794  0.3470  0.2356
    2MPD1    C113994   4.244   2.755   0.638  0.1152 -0.9506  0.7265
    2MPD1    C213995   4.172   2.715   0.529  0.1210  0.4369 -0.4754
    2MPD1    C313996   4.216   2.731   0.397 -0.2550 -0.2726  0.3521
    2MPD1    C413997   4.334   2.804   0.377 -0.3524 -0.0712 -0.4659
    2MPD1    C513998   4.402   2.856   0.490  0.4354  0.7157 -0.4996
    2MPD1     H13999   4.077   2.663   0.534 -0.2642  1.4133  2.0425
    2MPD1    H114000   4.365   2.836   0.278  0.5012  0.6414  0.0345
    2MPD1    H214001   4.407   2.880   0.697 -0.1984  2.9818 -1.4114
    2MPD1    H314002   4.493   2.914   0.489  0.5946  0.4742 -0.2234
    2MPD1     N14003   4.119   2.688   0.298  0.2574 -0.6243  0.0529
    2MPD1    H514004   4.032   2.649   0.330 -0.9158  1.2967 -0.7700
    2MPD1    N114005   4.193   2.746   0.768 -0.0903  0.0802 -0.9822
    2MPD1    H614006   4.114   2.686   0.791  0.1540  0.4409  0.7432
    2MPD1    H714007   4.257   2.747   0.847  1.8510 -0.2619 -2.5636
    3TMC3    C114008   4.000   2.705   0.096 -0.6010  0.2636  0.3157
    3TMC3    C214009   3.962   2.791   0.004 -0.6743  0.1555  1.0215
    3TMC3    C314010   3.831   2.790  17.669 -1.1986 -0.5390  0.1670
    3TMC3    C414011   3.915   2.609   0.142 -0.0450  0.3605  0.1186
    3TMC3    C514012   3.788   2.600   0.100  0.2084 -0.0002 -0.6671
    3TMC3    C614013   3.742   2.691   0.005 -0.1245  0.2751 -0.0955
    3TMC3     C14014   4.121   2.727   0.165 -0.2820  0.1259  0.1574
    3TMC3     O14015   4.208   2.787   0.108  0.3716  0.5952 -0.1875
    3TMC3     H14016   4.028   2.872  17.678 -1.2060  0.6085  1.0711
    3TMC3    H114017   3.935   2.533   0.217 -2.5791 -1.2741 -0.8354
    3TMC3    H214018   3.634   2.695  17.696 -0.2615  0.7711  1.0893
    3TMC3    C714019   3.695   2.541   0.191  0.1245  0.5808  0.0200
    3TMC3    C814020   3.791   2.898  17.578 -0.2592 -1.0301  0.2547
    3TMC3    O114021   3.717   2.542   0.310  0.5849 -0.2809  0.2381
    3TMC3    O214022   3.884   2.953  17.522  0.1275  0.3510 -0.6946
    4MPD1     C14023   3.487   3.185  17.297 -0.1793 -0.1236 -0.0071
    4MPD1    C114024   3.405   3.090  17.346  0.1248  1.0142  0.2625
    4MPD1    C214025   3.465   2.992  17.420  0.4657 -0.4824  0.0479
    4MPD1    C314026   3.603   2.998  17.456 -0.0674  0.1143  0.3217
    4MPD1    C414027   3.671   3.113  17.421 -0.1834  0.1715  0.2417
    4MPD1    C514028   3.616   3.203  17.338  0.1048 -0.4379 -0.2597
    4MPD1     H14029   3.408   2.907  17.456 -0.3120  1.1254  2.6013
    4MPD1    H114030   3.770   3.140  17.454 -0.3137  0.6558  0.2421
    4MPD1    H214031   3.444   3.259  17.231  1.7653 -0.0095 -1.1354
    4MPD1    H314032   3.669   3.290  17.303  0.5735 -0.3429  0.7136
    4MPD1     N14033   3.659   2.899  17.534  0.2927  0.2890 -0.7500
    4MPD1    H514034   3.598   2.823  17.564 -0.6320  0.4739 -2.1761
    4MPD1    N114035   3.277   3.081  17.294  0.9980 -0.2523 -0.0826
    4MPD1    H614036   3.233   3.166  17.260 -0.3582 -1.7726 -2.1023
    4MPD1    H714037   3.213   3.040  17.362  0.3538  2.3807  0.8977
    1TCq1    O114038   4.478   0.392  10.721 -0.4815 -0.3269 -0.9946
    1TCq1    C114039   4.351   0.352  10.692 -0.4064  0.4936  0.4460
    1TCq1    O214040   4.313   0.242  10.659  0.0808 -0.5809  0.7205
    1TCq1    C214041   4.297   0.471  10.629  0.7392 -0.2397  0.0645
    1TCq1    C314042   4.234   0.466  10.507 -0.0199 -0.6331 -0.4532
    1TCq1    C414043   4.238   0.579  10.424 -0.1831  0.1070  0.4880
    1TCq1    C514044   4.278   0.697  10.472  0.3223 -0.6358  0.1017
    1TCq1    C614045   4.334   0.708  10.594 -0.2131 -0.4431  0.2294
    1TCq1    C714046   4.349   0.600  10.671  0.2226 -0.0633  0.7207
    1TCq1    C814047   4.354   0.841  10.662 -0.4691 -0.1567  0.4540
    1TCq1    O414048   4.428   0.841  10.761 -0.3573  0.4037  0.4093
    1TCq1    C914049   4.159   0.574  10.309 -0.5967  0.4969  0.1099
    1TCq1    O514050   4.137   0.680  10.238  0.0812 -0.3509  0.0878
    1TCq1    O614051   4.093   0.472  10.289  0.3737  0.0868 -0.4612
    1TCq1    H114052   4.499   0.488  10.730  0.8460 -1.0665  3.8619
    1TCq1    H214053   4.218   0.370  10.460 -0.1963 -1.5363  1.4356
    1TCq1    H314054   4.267   0.778  10.401  1.5205  0.7600  1.5054
    1TCq1    H414055   4.393   0.612  10.769 -0.0883 -1.0424  0.9803
    2MPD1     C14056   4.316   1.352  10.638  0.3710 -0.3717 -0.4041
    2MPD1    C114057   4.264   1.299  10.524  0.2354 -0.6631 -0.8612
    2MPD1    C214058   4.279   1.161  10.501 -0.5486 -0.0013  0.3761
    2MPD1    C314059   4.321   1.080  10.605  0.3505  0.1631  0.6919
    2MPD1    C414060   4.363   1.133  10.725 -0.6219 -0.5909  0.6450
    2MPD1    C514061   4.369   1.270  10.737 -0.2713 -0.0216 -0.3436
    2MPD1     H14062   4.258   1.117  10.404  0.0696 -1.2813  0.8163
    2MPD1    H114063   4.386   1.066  10.807  1.9544  1.9159  1.9435
    2MPD1    H214064   4.324   1.458  10.660 -0.5273 -0.3283 -0.3266
    2MPD1    H314065   4.409   1.302  10.832  1.7476  0.5676 -1.4152
    2MPD1     N14066   4.328   0.942  10.575  0.0181 -0.2429 -0.7557
    2MPD1    H514067   4.299   0.930  10.479 -1.0344 -2.5294 -0.1496
    2MPD1    N114068   4.222   1.386  10.425  0.1286  0.6645  0.0076
    2MPD1    H614069   4.168   1.344  10.350  1.4518 -1.1228  0.0612
    2MPD1    H714070   4.174   1.472  10.453 -3.0943 -0.4943 -1.9834
    1TCq1    O114071   2.552   2.848   0.880 -0.3063  0.6427 -0.1233
    1TCq1    C114072   2.420   2.834   0.884  0.3448 -0.6283  0.2714
    1TCq1    O214073   2.351   2.756   0.946 -0.1763  0.3771 -0.0759
    1TCq1    C214074   2.355   2.942   0.805 -0.0056  0.4058 -0.3475
    1TCq1    C314075   2.233   2.989   0.846 -0.2491  0.2221  0.2107
    1TCq1    C414076   2.183   3.100   0.782 -0.0441  0.1633  0.4664
    1TCq1    C514077   2.234   3.149   0.668  0.5898  0.1494 -0.8193
    1TCq1    C614078   2.357   3.099   0.632 -0.3487 -0.3874 -0.3132
    1TCq1    C714079   2.412   2.995   0.697 -0.2841  0.6331  0.0145
    1TCq1    C814080   2.442   3.161   0.533 -0.7387 -0.7044 -0.3489
    1TCq1    O414081   2.564   3.167   0.554 -0.5407 -0.6567 -0.0374
    1TCq1    C914082   2.056   3.154   0.830  0.9313  0.2156 -0.0010
    1TCq1    O514083   2.033   3.132   0.954 -0.6210 -0.0905 -0.3225
    1TCq1    O614084   1.991   3.238   0.765 -0.4718 -0.2323  0.1609
    1TCq1    H114085   2.587   2.905   0.809 -0.5867 -0.4958 -1.1695
    1TCq1    H214086   2.191   2.970   0.944 -1.2662 -0.9989 -0.4518
    1TCq1    H314087   2.188   3.229   0.610  0.6971  0.7349 -0.1066
    1TCq1    H414088   2.510   2.961   0.664 -0.8574  0.3787 -1.3994
    2MPD1     C14089   2.470   3.311   0.044 -0.3818 -0.5251 -0.1696
    2MPD1    C114090   2.343   3.268   0.065  0.0691  0.5125  0.5922
    2MPD1    C214091   2.303   3.234   0.196 -0.3222 -0.0925  0.4051
    2MPD1    C314092   2.402   3.229   0.296  0.1077 -0.5556 -0.0615
    2MPD1    C414093   2.533   3.266   0.270  0.2299 -1.0326 -0.2392
    2MPD1    C514094   2.564   3.307   0.144  0.1875  0.4930  0.3100
    2MPD1     H14095   2.202   3.194   0.205 -0.3096  0.0140  0.9699
    2MPD1    H114096   2.616   3.253   0.339 -1.1457  0.9463  1.7976
    2MPD1    H214097   2.501   3.354  17.654 -0.6394  0.0184 -0.0097
    2MPD1    H314098   2.667   3.331   0.122 -0.1343 -0.1002 -1.8168
    2MPD1     N14099   2.360   3.196   0.427  0.2610 -0.4230 -0.7166
    2MPD1    H514100   2.262   3.173   0.440  0.1053  1.3709  1.3099
    2MPD1    N114101   2.244   3.294  17.672  0.1315  0.5655  0.1305
    2MPD1    H614102   2.166   3.229  17.677 -1.4104  2.5116  1.3059
    2MPD1    H714103   2.280   3.293  17.577 -1.3779 -0.5874 -0.4192
    1MPD1     C14104   2.211   3.631  11.917  0.3092 -0.2713  0.3416
    1MPD1    C114105   2.160   3.526  11.852  0.4072  0.7926  0.0368
    1MPD1    C214106   2.206   3.511  11.725 -0.5039  0.4261  0.4441
    1MPD1    C314107   2.302   3.596  11.673  0.5746 -0.2149 -0.7544
    1MPD1    C414108   2.356   3.704  11.746  0.0584 -0.1003 -0.2784
    1MPD1    C514109   2.303   3.718  11.872  1.3905 -0.4066  0.6599
    1MPD1     H14110   2.170   3.437  11.654  0.2078 -0.4393  0.9824
    1MPD1    H114111   2.415   3.783  11.701 -2.6502  2.1036  0.0315
    1MPD1    H214112   2.179   3.640  12.020 -0.9859  0.9518 -0.1716
    1MPD1    H314113   2.335   3.806  11.927  0.3514  1.6051 -1.9523
    1MPD1     N14114   2.332   3.560  11.538 -0.7211  0.7362 -0.5245
    1MPD1    H514115   2.299   3.470  11.506 -0.7151  0.2772  0.7702
    1MPD1    N114116   2.063   3.440  11.898 -0.0634  0.0362  0.0240
    1MPD1    H614117   2.011   3.477  11.978 -2.0721 -2.6567 -0.0527
    1MPD1    H714118   1.996   3.405  11.830  0.3869  3.3707 -2.1686
    2MPD1     C14119   0.659   2.548  11.211  0.0128 -0.2862  0.7651
    2MPD1    C114120   0.713   2.671  11.178  0.7623  0.0546  0.0763
    2MPD1    C214121   0.782   2.677  11.062 -0.6479  0.1001  0.1108
    2MPD1    C314122   0.823   2.567  10.992 -0.3637  0.3145 -0.4323
    2MPD1    C414123   0.779   2.444  11.032 -0.2591 -0.1122 -0.1866
    2MPD1    C514124   0.700   2.436  11.147 -0.2220 -0.2173 -0.0028
    2MPD1     H14125   0.796   2.780  11.033  0.3468 -0.3713 -1.0997
    2MPD1    H114126   0.816   2.352  10.987 -1.0461 -0.7641  0.5056
    2MPD1    H214127   0.582   2.541  11.287 -0.0314 -2.9441  0.4794
    2MPD1    H314128   0.657   2.340  11.174  0.9389 -0.7719 -0.1164
    2MPD1     N14129   0.909   2.571  10.875 -0.1645 -0.5944  0.4298
    2MPD1    H514130   0.925   2.483  10.827  0.6327 -1.1134  1.6569
    2MPD1    N114131   0.669   2.783  11.246  0.0194 -0.2321  0.1145
    2MPD1    H614132   0.728   2.864  11.230 -0.4841  0.6019  2.5591
    2MPD1    H714133   0.665   2.761  11.345 -1.3232  1.7373  0.4835
    3MPD1     C14134   1.705   2.070  10.521 -0.4045 -0.5573  0.2565
    3MPD1    C114135   1.694   2.172  10.434 -0.1982 -0.8408 -0.1177
    3MPD1    C214136   1.586   2.260  10.448  0.4236  0.3810  0.2833
    3MPD1    C314137   1.488   2.246  10.538 -0.0184 -0.1164 -0.0121
    3MPD1    C414138   1.501   2.141  10.627  0.1579 -0.2804  0.1805
    3MPD1    C514139   1.614   2.061  10.622  0.0604 -0.8026 -0.2086
    3MPD1     H14140   1.584   2.339  10.374 -0.1577 -0.8102 -0.9646
    3MPD1    H114141   1.431   2.124  10.708 -1.5426 -0.7036 -1.3612
    3MPD1    H214142   1.793   2.006  10.521 -2.0309 -2.7885  0.1345
    3MPD1    H314143   1.615   1.980  10.694  1.1435 -0.1339  0.5242
    3MPD1     N14144   1.386   2.351  10.544  0.0439  0.1274 -0.0070
    3MPD1    H514145   1.398   2.428  10.479 -0.1907  0.6537  0.5731
    3MPD1    N114146   1.791   2.198  10.340 -0.0838 -0.1428  0.9246
    3MPD1    H614147   1.842   2.117  10.306  0.2813  0.8125 -0.7639
    3MPD1    H714148   1.766   2.256  10.261 -0.4204 -0.2622  0.9425
    4MPD2     C14149   2.339   3.769  10.753 -0.1979  0.4089  0.5004
    4MPD2    C114150   2.355   3.641  10.795 -0.1398  0.0828 -0.2890
    4MPD2    C214151   2.291   3.530  10.737  0.2462  0.7102  0.8884
    4MPD2    C314152   2.202   3.550  10.632 -0.2585  0.0373  0.1816
    4MPD2    C414153   2.178   3.680  10.598 -1.3070  0.9163 -0.2566
    4MPD2    C514154   2.238   3.785  10.666  0.3371 -0.1378 -0.2674
    4MPD2     H14155   2.316   3.430  10.768 -0.1650 -0.6199 -3.0331
    4MPD2    H114156   2.098   3.702  10.528 -2.1406 -0.4724  0.2838
    4MPD2    H214157   2.379   3.851  10.811 -1.3905  1.8244 -0.6626
    4MPD2    H314158   2.212   3.887  10.639 -1.8408 -0.2036  1.6053
    4MPD2     N14159   2.137   3.437  10.577 -0.1597  0.4893 -0.7436
    4MPD2    H514160   2.159   3.343  10.608  0.4426  0.9200  0.1327
    4MPD2    N114161   2.429   3.614  10.908 -0.7512 -0.4219 -0.3246
    4MPD2    H714162   2.437   3.514  10.918  3.6333 -0.1460 -0.8360
    5TMC3    C114163   2.548   3.623  11.106 -0.1227  0.4350 -0.0580
    5TMC3    C214164   2.489   3.674  11.220 -0.1218  0.4964 -0.3786
    5TMC3    C314165   2.445   3.583  11.318  0.2153 -1.3251  0.0120
    5TMC3    C414166   2.538   3.490  11.083 -1.5313 -0.0093 -0.7990
    5TMC3    C514167   2.463   3.410  11.168 -0.6527  0.1359  0.6495
    5TMC3    C614168   2.420   3.452  11.290 -0.1095  0.0902  1.3454
    5TMC3     C14169   2.497   3.699  10.993 -0.1277 -0.4995 -0.0128
    5TMC3     O14170   2.491   3.818  11.010 -0.3261 -0.2602 -0.0739
    5TMC3     H14171   2.496   3.778  11.252  2.8657  0.2690 -0.3369
    5TMC3    H114172   2.586   3.451  10.993 -3.3512 -1.7955 -1.0026
    5TMC3    H214173   2.387   3.380  11.364 -0.3253 -0.8069  0.3751
    5TMC3    C714174   2.388   3.310  11.098  0.0804  0.2347 -0.5238
    5TMC3    C814175   2.401   3.640  11.448  0.5045 -0.6477  0.3804
    5TMC3    O114176   2.412   3.307  10.978 -0.5189 -0.6887 -0.0886
    5TMC3    O214177   2.447   3.749  11.469  0.3346  0.1550 -0.3295
    6TMC3    C114178   1.051   2.641  10.705  0.0469  0.7431  0.0643
    6TMC3    C214179   1.106   2.514  10.717  0.3538 -0.5417 -0.2314
    6TMC3    C314180   1.203   2.484  10.622 -0.6106 -0.3792  0.3512
    6TMC3    C414181   1.095   2.730  10.617 -0.7954 -0.6591 -0.6927
    6TMC3    C514182   1.193   2.700  10.529  0.0916  0.0385 -0.2626
    6TMC3    C614183   1.251   2.577  10.532  0.4377  0.6479  0.1027
    6TMC3     C14184   0.971   2.680  10.815  0.4979 -0.3977  0.4212
    6TMC3     O14185   0.953   2.795  10.856  0.4372 -0.3280 -0.0835
    6TMC3     H14186   1.074   2.432  10.780 -0.1139 -0.8890 -0.9139
    6TMC3    H114187   1.063   2.833  10.631 -0.1946 -0.5670 -0.0148
    6TMC3    H214188   1.340   2.562  10.472  0.8602 -1.8180  1.3321
    6TMC3    C714189   1.281   2.806  10.490  0.2401  0.1432 -0.3821
    6TMC3    C814190   1.275   2.357  10.632 -0.1508 -0.5032  0.0473
    6TMC3    O114191   1.397   2.770  10.498 -0.3405 -0.0062  0.2598
    6TMC3    O214192   1.246   2.286  10.727 -0.0024  0.6248 -0.7173
    7MPD2     C14193   2.081   2.900  11.014  0.3313 -0.3551  0.5494
    7MPD2    C114194   2.129   3.002  10.928  1.5206 -0.1488  0.3876
    7MPD2    C214195   2.209   3.109  10.977 -0.0003 -0.8844 -0.2924
    7MPD2    C314196   2.250   3.112  11.106  0.2613 -0.0697  0.2256
    7MPD2    C414197   2.196   3.015  11.188  0.8008  1.3369 -0.2604
    7MPD2    C514198   2.111   2.913  11.146 -0.4067 -1.5337  0.2886
    7MPD2     H14199   2.231   3.199  10.920 -0.7636 -0.6115 -0.1542
    7MPD2    H114200   2.216   3.038  11.292  0.2633 -1.1274  0.3832
    7MPD2    H214201   2.019   2.818  10.979  0.9529 -0.8433  0.5779
    7MPD2    H314202   2.064   2.843  11.213  1.4614 -2.2630  0.8494
    7MPD2     N14203   2.308   3.228  11.171  1.3279  0.3166 -0.3659
    7MPD2    H514204   2.291   3.236  11.271  0.4147  1.5522 -0.6253
    7MPD2    N114205   2.090   3.003  10.791  0.2763 -0.4938  0.4945
    7MPD2    H714206   2.026   2.927  10.770  1.8351 -1.2269 -1.5989
    8TMC3    C114207   2.046   3.100  10.581  0.2144  0.2744  0.1674
    8TMC3    C214208   1.915   3.066  10.589 -0.2786 -0.1869  0.3441
    8TMC3    C314209   1.829   3.156  10.522  0.2797 -0.2810  0.9702
    8TMC3    C414210   2.091   3.202  10.504  0.6179 -0.4597 -1.0302
    8TMC3    C514211   2.007   3.294  10.454 -0.5137  0.1661 -0.0364
    8TMC3    C614212   1.872   3.274  10.465  0.3309 -0.0961  0.2118
    8TMC3     C14213   2.119   3.104  10.706  0.2589  0.7171 -0.7037
    8TMC3     O14214   2.196   3.197  10.717  0.0814  1.0097 -0.2276
    8TMC3     H14215   1.879   2.993  10.660  0.9556 -0.5686  0.5685
    8TMC3    H114216   2.199   3.208  10.495  0.5283  1.9772 -0.4544
    8TMC3    H214217   1.813   3.350  10.415 -0.1976 -1.6240 -1.4909
    8TMC3    C714218   2.044   3.432  10.479  0.0037 -1.2245 -0.6550
    8TMC3    C814219   1.694   3.113  10.494 -0.1424  0.3908  0.0406
    8TMC3    O114220   1.983   3.514  10.414  0.5234  0.2533  0.5065
    8TMC3    O214221   1.687   2.998  10.538 -0.1040 -0.0835  0.1432
    9MPD2     C14222   1.407   3.253  10.302 -0.0543  0.1219  0.1543
    9MPD2    C114223   1.480   3.165  10.383  0.0688  0.3512 -0.5802
    9MPD2    C214224   1.413   3.054  10.433  0.1856  0.7800 -0.6605
    9MPD2    C314225   1.283   3.028  10.392  0.1361  0.6116  0.6343
    9MPD2    C414226   1.215   3.114  10.308  0.2188  0.5921  0.1561
    9MPD2    C514227   1.278   3.221  10.248 -0.2487 -0.4926 -0.0595
    9MPD2     H14228   1.465   2.997  10.509 -0.0963 -1.7936 -2.3890
    9MPD2    H114229   1.120   3.078  10.272  0.7587 -1.0574  0.3642
    9MPD2    H214230   1.442   3.351  10.272  0.7467 -0.8204 -1.9980
    9MPD2    H314231   1.220   3.298  10.198  2.0348  1.2561 -0.0176
    9MPD2     N14232   1.215   2.914  10.433  0.0494  0.0001  0.0369
    9MPD2    H514233   1.114   2.919  10.426 -0.0686  0.2207  1.8283
    9MPD2    N114234   1.612   3.198  10.422 -0.4766 -0.1767  0.1875
    9MPD2    H714235   1.654   3.283  10.386 -1.9677  0.4612 -0.0494
    1MPD1     C14236   4.446   2.368  16.860  0.4616 -0.3686  0.4914
    1MPD1    C114237   4.421   2.402  16.994 -0.5457  0.3418  0.4210
    1MPD1    C214238   4.430   2.297  17.081 -0.5106  0.0028  0.0108
    1MPD1    C314239   4.465   2.169  17.042 -0.1876  1.0532 -0.2697
    1MPD1    C414240   4.493   2.144  16.910  0.5354  0.0261 -0.0816
    1MPD1    C514241   4.490   2.247  16.815 -0.2931  0.2712 -0.3785
    1MPD1     H14242   4.411   2.322  17.185  2.4534  0.4264  0.4512
    1MPD1    H114243   4.520   2.046  16.872 -2.4788 -1.8347  2.7001
    1MPD1    H214244   4.440   2.447  16.786  1.2974 -1.1424 -0.4071
    1MPD1    H314245   4.511   2.226  16.711  1.4691 -0.5613  0.1512
    1MPD1     N14246   4.484   2.070  17.133  0.1295 -0.3575  0.4725
    1MPD1    H514247   4.526   1.987  17.091  0.6941 -0.0051  0.3528
    1MPD1    N114248   4.414   2.533  17.042 -0.3273  0.0849 -0.3903
    1MPD1    H614249   4.336   2.547  17.105 -0.8959 -1.3317 -0.7768
    1MPD1    H714250   4.391   2.587  16.958 -0.6765  0.4469 -0.0622
    2MPD1     C14251   4.312   1.530   0.364  0.2055  0.4211  0.3274
    2MPD1    C114252   4.403   1.462   0.286  0.7132  0.1017  0.2244
    2MPD1    C214253   4.431   1.521   0.168 -0.1603 -0.1672 -0.0371
    2MPD1    C314254   4.372   1.637   0.126  0.0215 -0.3234  0.1846
    2MPD1    C414255   4.276   1.697   0.196 -0.2707  0.2270  0.3002
    2MPD1    C514256   4.252   1.648   0.319 -0.2467  0.0291 -1.2213
    2MPD1     H14257   4.506   1.477   0.103  0.7427  0.5492  0.5025
    2MPD1    H114258   4.228   1.789   0.165 -3.0101 -0.8732  1.1848
    2MPD1    H214259   4.288   1.482   0.458 -2.0211 -1.0366 -0.9899
    2MPD1    H314260   4.184   1.690   0.392  0.6262  0.0095 -0.3981
    2MPD1     N14261   4.413   1.690   0.005  0.0383  0.6535  0.7932
    2MPD1    H514262   4.481   1.630  17.666 -0.7819 -0.3626  0.9128
    2MPD1    N114263   4.437   1.337   0.325 -0.3693  0.2926 -0.2308
    2MPD1    H614264   4.433   1.329   0.426 -0.1926 -1.7920 -0.3883
    2MPD1    H714265   4.525   1.311   0.282 -1.5060 -2.2948 -0.9849
    3TCq2    C114266   4.368   1.797  17.639  0.2058 -0.3410  0.7400
    3TCq2    O214267   4.295   1.890  17.678 -0.4554 -0.3519 -0.2058
    3TCq2    C214268   4.414   1.801  17.501 -0.2221 -0.1767 -0.5368
    3TCq2    C314269   4.464   1.696  17.436  0.2336  0.1510 -0.9036
    3TCq2    C414270   4.534   1.717  17.317  0.2815  0.0313 -0.4346
    3TCq2    C514271   4.547   1.847  17.269 -0.3090  0.4179  0.4328
    3TCq2    C614272   4.494   1.950  17.338  0.6944  0.6699  0.5663
    3TCq2    C714273   4.424   1.929  17.459 -0.5961  0.5634 -0.2014
    3TCq2    C814274   4.459   2.074  17.275  0.1057  0.3252  0.7312
    3TCq2    O414275   4.409   2.154  17.349 -0.8470 -0.1507 -0.6134
    3TCq2    C914276   4.593   1.599  17.251 -0.8066 -0.0992  0.2002
    3TCq2    O514277   4.561   1.490  17.295 -0.2362  0.2071  0.0856
    3TCq2    O614278   4.658   1.623  17.147 -0.1893  0.0371  0.1511
    3TCq2    H214279   4.457   1.596  17.477 -1.5109  0.1442 -1.2204
    3TCq2    H314280   4.611   1.852  17.182  2.9813  1.3526  2.9401
    3TCq2    H414281   4.377   2.006  17.520 -0.5805 -0.6307  1.3016
    1TCq1    O114282   3.738   0.427  12.519 -0.3642  0.4306 -0.0003
    1TCq1    C114283   3.643   0.329  12.515 -0.1994 -0.1252 -0.5432
    1TCq1    O214284   3.564   0.293  12.430 -0.3589 -0.1419  0.1348
    1TCq1    C214285   3.638   0.293  12.655 -0.2982 -0.8052 -0.2411
    1TCq1    C314286   3.528   0.327  12.732 -0.1157 -0.0239  0.1785
    1TCq1    C414287   3.533   0.301  12.867 -0.1388 -0.5175 -0.0418
    1TCq1    C514288   3.654   0.262  12.926  0.7694  0.4282 -0.3559
    1TCq1    C614289   3.766   0.249  12.848  0.3572  0.1185 -0.7491
    1TCq1    C714290   3.754   0.251  12.711  0.3061 -0.6190  0.0654
    1TCq1    C814291   3.899   0.207  12.893  0.1026  0.1338  0.3032
    1TCq1    O414292   3.984   0.172  12.810 -0.1582  0.0196 -0.6143
    1TCq1    C914293   3.412   0.308  12.941  0.1589 -0.0457 -0.1483
    1TCq1    O514294   3.316   0.375  12.896 -0.1332  0.6523  0.1386
    1TCq1    O614295   3.402   0.246  13.053  0.5857 -0.6293 -0.9334
    1TCq1    H114296   3.772   0.446  12.609 -2.8125 -0.6020  1.1417
    1TCq1    H214297   3.431   0.343  12.687 -0.6144 -1.3101  0.7850
    1TCq1    H314298   3.661   0.257  13.034 -1.1473  0.3503 -0.2383
    1TCq1    H414299   3.826   0.206  12.645  0.2533  1.8762 -1.6785
    2MPD2     C14300   4.150   0.167  13.042 -0.0678  0.2614 -0.5278
    2MPD2    C114301   4.038   0.218  13.099  0.3157 -0.6835  0.4533
    2MPD2    C214302   4.042   0.249  13.234 -0.6746  0.1408 -0.2397
    2MPD2    C314303   4.159   0.248  13.307 -0.0613 -0.0575 -0.1334
    2MPD2    C414304   4.275   0.217  13.237  0.8253 -0.9368 -0.4015
    2MPD2    C514305   4.267   0.177  13.109 -0.2666 -0.3846 -0.2713
    2MPD2     H14306   3.956   0.281  13.291 -1.5086 -2.2620 -0.1249
    2MPD2    H114307   4.374   0.213  13.281  0.0811  2.2785  1.5505
    2MPD2    H214308   4.155   0.152  12.935  2.5794  1.3881 -0.5598
    2MPD2    H314309   4.361   0.142  13.068  0.3098  1.6364 -0.6494
    2MPD2     N14310   4.154   0.290  13.442  0.5061  0.5647  0.0743
    2MPD2    H514311   4.059   0.314  13.469  1.0140  0.9933  1.4822
    2MPD2    N114312   3.915   0.232  13.028 -0.1093  0.1077  0.1221
    2MPD2    H714313   3.832   0.245  13.085  0.6954 -0.1253  1.3295
    3TCq1    O114314   3.973   0.706  13.807 -0.1272 -0.4575 -0.3502
    3TCq1    C114315   3.938   0.581  13.774  0.8664  0.2604 -0.7299
    3TCq1    O214316   3.843   0.539  13.708 -0.0901 -0.4089 -0.1854
    3TCq1    C214317   4.061   0.506  13.778  0.2418  0.0738 -0.5218
    3TCq1    C314318   4.161   0.542  13.861 -0.9788 -0.0747 -0.6675
    3TCq1    C414319   4.288   0.488  13.850 -0.1290  0.2993  0.4021
    3TCq1    C514320   4.316   0.399  13.753 -0.2119  0.4947  0.4937
    3TCq1    C614321   4.215   0.372  13.658  0.3220  0.0513  0.1391
    3TCq1    C714322   4.088   0.420  13.676  0.0650  0.4793 -0.2962
    3TCq1    C814323   4.261   0.314  13.528 -0.0161 -0.0319 -0.3383
    3TCq1    O414324   4.368   0.249  13.520  0.1019 -0.4572  0.2679
    3TCq1    C914325   4.392   0.549  13.923  0.0364 -0.1780 -0.0828
    3TCq1    O514326   4.372   0.645  14.007  0.3272  0.0151 -0.4476
    3TCq1    O614327   4.505   0.509  13.884  0.0496 -0.2488 -0.1228
    3TCq1    H114328   4.056   0.709  13.859 -2.1206 -0.8990  2.8657
    3TCq1    H214329   4.142   0.607  13.945 -1.6913  0.1803 -1.0211
    3TCq1    H314330   4.418   0.373  13.728 -0.3218 -1.5602  2.2146
    3TCq1    H414331   4.007   0.395  13.609  1.6002 -1.4603 -1.4083
    1MPD2     C14332   3.904   1.830  15.195 -0.2936 -0.0772 -0.0413
    1MPD2    C114333   3.774   1.798  15.162 -0.1166  0.2149  0.3819
    1MPD2    C214334   3.735   1.666  15.150  0.2801  0.3028  0.8652
    1MPD2    C314335   3.821   1.560  15.171  0.6435 -0.1388  0.1989
    1MPD2    C414336   3.947   1.586  15.207  0.3333 -0.8534 -0.2205
    1MPD2    C514337   3.989   1.719  15.209 -0.2389  0.7562  0.3255
    1MPD2     H14338   3.630   1.644  15.130  1.0832 -1.2237 -1.7699
    1MPD2    H114339   4.017   1.504  15.213  0.3293 -0.9708 -1.8008
    1MPD2    H214340   3.934   1.933  15.214  1.5669 -0.2678 -1.9902
    1MPD2    H314341   4.094   1.729  15.235 -0.7705 -0.0879  2.8254
    1MPD2     N14342   3.791   1.423  15.162 -0.1735 -0.1557 -0.4512
    1MPD2    H514343   3.865   1.357  15.183  0.0918  0.1628 -0.3942
    1MPD2    N114344   3.687   1.904  15.139 -0.0750  0.4858  0.4696
    1MPD2    H714345   3.716   2.002  15.136 -3.4676  1.3985 -2.2480
    2TMC3    C114346   3.477   2.024  15.118 -0.0534 -0.7462 -0.4334
    2TMC3    C214347   3.350   1.992  15.131  0.5025 -0.2482  1.0671
    2TMC3    C314348   3.261   2.022  15.031  0.1595 -0.1956  0.2968
    2TMC3    C414349   3.524   2.091  15.008  0.2890 -0.7333 -0.1955
    2TMC3    C514350   3.437   2.126  14.909  0.1024  0.1341 -0.0870
    2TMC3    C614351   3.303   2.088  14.921  0.1256 -0.3046 -0.6105
    2TMC3     C14352   3.547   1.898  15.142  0.5572 -0.7472 -0.0489
    2TMC3     O14353   3.476   1.799  15.167 -0.0720  0.3526  0.3632
    2TMC3     H14354   3.311   1.955  15.225  1.4876 -1.6835  0.9179
    2TMC3    H114355   3.629   2.102  14.984 -0.6268  1.0335 -3.4111
    2TMC3    H214356   3.230   2.129  14.852 -0.8990 -1.8559 -0.4431
    2TMC3    C714357   3.478   2.217  14.807  0.2976  0.3265 -0.6542
    2TMC3    C814358   3.166   1.917  14.997  0.6647 -0.6887  0.1197
    2TMC3    O114359   3.387   2.269  14.738 -0.2432 -0.6467 -0.3302
    2TMC3    O214360   3.058   1.941  14.937 -0.1162  0.5872 -0.3956
    3TCq1    O114361   4.640   2.332  14.415  0.0025 -0.3746 -0.5330
    3TCq1    C114362   4.531   2.414  14.402 -0.3817 -0.1241  0.1438
    3TCq1    O214363   4.517   2.502  14.316 -0.5758 -0.1561 -0.4042
    3TCq1    C214364   4.437   2.400  14.513 -0.6153  0.0362  0.2354
    3TCq1    C314365   4.484   2.383  14.643  0.2718 -0.0951  0.2368
    3TCq1    C414366   4.414   2.436  14.745 -0.3043  0.7194  0.1768
    3TCq1    C514367   4.291   2.495  14.725 -0.2412 -0.4072  0.8789
    3TCq1    C614368   4.245   2.490  14.590 -0.2387 -0.2901  0.1558
    3TCq1    C714369   4.323   2.460  14.485  0.2115  0.4701 -0.4388
    3TCq1    C814370   4.111   2.504  14.569  0.7542 -0.1922 -0.0775
    3TCq1    O414371   4.079   2.540  14.456  0.1039 -0.3676  0.0812
    3TCq1    C914372   4.483   2.449  14.871  0.0946  0.0728  0.1416
    3TCq1    O514373   4.421   2.481  14.973 -0.5884 -0.0423 -0.5999
    3TCq1    O614374   4.607   2.416  14.881 -0.0454 -0.2248  0.5979
    3TCq1    H114375   4.624   2.262  14.482  3.6343 -2.1486 -1.4788
    3TCq1    H214376   4.577   2.332  14.667 -0.3895 -1.0243  0.8219
    3TCq1    H314377   4.242   2.548  14.806  0.4216 -2.6474  2.7282
    3TCq1    H414378   4.283   2.456  14.384  1.5057 -3.3509 -0.8383
    4MPD2     C14379   3.820   2.510  14.566  0.1553  0.2090  0.0189
    4MPD2    C114380   3.891   2.430  14.651  0.0536  0.4237 -0.1501
    4MPD2    C214381   3.817   2.340  14.732  0.3912 -0.0367  0.7689
    4MPD2    C314382   3.677   2.333  14.714 -0.0012 -0.1110 -0.6179
    4MPD2    C414383   3.613   2.410  14.623  0.7755  0.5048  0.2773
    4MPD2    C514384   3.691   2.497  14.556  0.2577 -0.5029 -0.2579
    4MPD2     H14385   3.867   2.266  14.793  1.6423 -0.6035 -0.9552
    4MPD2    H114386   3.507   2.425  14.606  1.4492  2.1226 -2.4557
    4MPD2    H214387   3.868   2.596  14.520 -0.4681  1.0453  0.9395
    4MPD2    H314388   3.638   2.562  14.487 -1.9983 -1.0898  0.9033
    4MPD2     N14389   3.612   2.239  14.805 -0.3268  0.3279 -0.5491
    4MPD2    H514390   3.673   2.169  14.846  2.3062  2.4420 -0.8832
    4MPD2    N114391   4.033   2.452  14.671  0.2158  0.2691  0.3282
    4MPD2    H714392   4.086   2.395  14.736  0.1134 -0.1417  0.0517
    5TMC2    C114393   3.459   1.154  15.021  0.5503 -0.0155  0.5757
    5TMC2    C214394   3.535   1.091  14.925  0.0915 -0.1109 -0.4379
    5TMC2    C314395   3.673   1.099  14.937  0.0977  0.2053 -1.1069
    5TMC2    C414396   3.520   1.212  15.132 -0.3796  0.2552 -0.3330
    5TMC2    C514397   3.654   1.243  15.126 -0.0084  0.1177  0.4838
    5TMC2    C614398   3.736   1.167  15.040  0.5139  0.5343  0.9918
    5TMC2     C14399   3.341   1.215  14.973 -0.3550  0.3881 -0.0377
    5TMC2     O14400   3.270   1.163  14.887 -0.5558 -0.2882  0.1987
    5TMC2     H14401   3.498   1.029  14.844 -1.6649  2.1192 -1.3092
    5TMC2    H114402   3.466   1.251  15.218  0.2465 -0.9081  0.5814
    5TMC2    H214403   3.842   1.188  15.032  0.9482 -2.9004 -2.0576
    5TMC2    C714404   3.663   1.384  15.142  0.4016  0.6124 -0.7386
    5TMC2    C814405   3.748   1.027  14.833 -0.1988  0.2197  0.1421
    5TMC2    O114406   3.557   1.443  15.129 -0.2433 -0.6567  0.2392
    5TMC2    O214407   3.688   0.991  14.731 -0.3536 -0.2296 -0.3571
    5TMC2    O514408   3.875   1.008  14.860  0.1031 -0.7423 -0.0725
    5TMC2    H514409   3.892   1.013  14.957  1.7353  0.1156 -0.4100
    6MPD2     C14410   3.058   1.646  14.927 -0.7248  0.4661  0.3895
    6MPD2    C114411   3.177   1.672  14.993 -0.6734  0.2995 -0.3860
    6MPD2    C214412   3.272   1.569  15.018  0.2455 -1.3633 -0.1161
    6MPD2    C314413   3.247   1.442  14.973  0.2013  0.5743  0.3235
    6MPD2    C414414   3.133   1.420  14.897 -0.3590 -0.5537 -0.3018
    6MPD2    C514415   3.039   1.517  14.882 -0.2812  0.1629 -0.5763
    6MPD2     H14416   3.354   1.579  15.088 -0.9369  2.1763  0.8067
    6MPD2    H114417   3.114   1.325  14.849 -0.1763 -0.8692  0.2490
    6MPD2    H214418   2.992   1.727  14.899 -1.1144  0.4018  1.1343
    6MPD2    H314419   2.957   1.494  14.815  0.1360 -1.3780 -0.5424
    6MPD2     N14420   3.351   1.349  15.000 -1.0221  0.2846 -0.1579
    6MPD2    H514421   3.429   1.378  15.058  0.5590 -0.7685 -1.7592
    6MPD2    N114422   3.219   1.797  15.037 -0.8153  0.0551 -0.0622
    6MPD2    H714423   3.313   1.802  15.075 -0.7252 -2.4651  0.0034
  945NH4     N114424   1.127   1.954   2.724  0.1312  0.4971  0.5294
  945NH4     H214425   1.145   2.048   2.682 -0.1542  0.9304  1.3742
  945NH4     H314426   1.210   1.912   2.772 -0.4548  0.4295  1.4670
  945NH4     H414427   1.095   1.889   2.650 -0.9096  0.6411  0.8526
  945NH4     H514428   1.055   1.959   2.798 -0.3211 -2.2020  0.2838
  946SOD     NA14429   4.699   4.649   4.943  0.3779  0.3126 -0.3931
  947SOD     NA14430   1.182   1.991  15.323 -0.3127  0.3860  0.0841
  948SOD     NA14431   4.571   1.948   0.487  0.0794  0.0096  0.1685
  949SOD     NA14432   2.122   3.253   1.105  0.0144  0.1190 -0.2376
  950SOD     NA14433   2.213   1.200  10.522 -0.1560 -0.4554 -0.5417
  951SOD     NA14434   4.250   2.774  11.295  0.0633 -0.0682  0.3996
  952SOD     NA14435   0.574   2.424   0.418  0.0761  0.1193  0.2630
  953SOD     NA14436   4.168   3.558  11.031  0.3271  0.0997  0.0740
  954SOD     NA14437   3.629   0.111  10.232  0.0405 -0.1356 -0.4952
  955SOD     NA14438   4.606   4.610  10.856 -0.1221 -0.0450  0.0027
  956SOD     NA14439   0.503   1.322  13.093 -0.7208  0.3658 -0.2596
  957SOD     NA14440   4.389   4.065  10.662 -0.4193 -0.2342  0.2991
  958SOD     NA14441   3.753   4.242  16.414 -0.1539 -0.0988  0.3702
  959SOD     NA14442   3.973   0.676   9.117 -0.5109  0.4235  0.2654
  960SOD     NA14443   4.273   4.439  11.988 -0.4754 -0.4105  0.3319
  961SOD     NA14444   3.578   4.149   9.845  0.1785  0.3328 -0.0413
  962SOD     NA14445   2.120   3.818   0.328  0.1348  0.1842  0.1219
  963SOD     NA14446   1.321   2.919   7.726 -0.2031 -1.0298 -0.4774
  964SOD     NA14447   1.721   1.036  14.232  0.5546 -0.0388  0.0521
  965SOD     NA14448   0.384   0.753   1.495  0.1508 -0.0877  0.3969
  966SOD     NA14449   2.346   1.166   2.011  0.0292 -0.4744 -0.2864
  967SOD     NA14450   2.298   3.086   6.099 -0.5744 -0.3194  0.1141
  968SOD     NA14451   1.156   2.113  14.205 -0.3053 -0.1024 -0.3108
  969SOD     NA14452   1.782   3.186   0.753  0.0770 -0.3542  0.0986
  970SOD     NA14453   4.179   3.982   1.412 -0.3580  0.2617 -0.0235
  971SOD     NA14454   0.221   4.583  10.158  0.2214 -0.0993 -0.1087
  972SOD     NA14455   2.855   0.604  15.865  0.3244  0.3418 -0.3481
  973SOD     NA14456   0.781   1.274  15.118  0.2532 -0.1669 -0.7904
  974SOD     NA14457   3.740   3.125   2.342 -0.1547 -0.1289 -0.4991
  975SOD     NA14458   3.251   3.640  11.896  0.1771 -0.3234 -0.2049
  976SOD     NA14459   4.353   4.295  13.346 -0.4256 -0.1841 -0.1804
  977SOD     NA14460   3.607   0.805  14.604  0.0690 -0.2651 -0.1249
  978SOD     NA14461   0.063   0.232  11.491  0.0066 -0.4909 -0.1205
  979SOD     NA14462   4.374   2.348  12.430  0.0086  0.0815 -0.1010
  980SOD     NA14463   2.748   1.283  10.314 -0.0103 -0.2960 -0.3902
  981SOD     NA14464   2.866   0.969   0.992  0.3168  0.0445  0.3886
  982SOD     NA14465   4.401   0.395  11.191  0.3878 -0.1290  0.5157
  983SOD     NA14466   2.637   2.194   0.633 -0.0644  0.2822 -0.0326
  984SOD     NA14467   0.816   3.007   1.958 -0.1927  0.1702  0.0320
  985SOD     NA14468   1.185   2.598   1.629  0.1768  0.2276 -0.1904
  986SOD     NA14469   3.173   0.191  13.080  0.1228 -0.0533 -0.3795
  987SOD     NA14470   0.770   0.236  14.701 -0.3090 -0.1110 -0.3361
  988SOD     NA14471   0.345   1.471   7.573 -0.0016 -0.1899  0.3262
  989SOD     NA14472   4.365   0.432  11.587 -0.0086 -0.2609 -0.0727
  990SOD     NA14473   4.074   0.712  10.029  0.3377  0.1379 -0.1971
  991SOD     NA14474   4.692   2.223  13.956 -0.4454  0.2749  0.1020
  992SOD     NA14475   2.194   2.700  12.924 -0.3043 -0.2199  0.2401
  993SOD     NA14476   0.168   0.356  14.724  0.5455 -0.2884  0.0823
  994SOD     NA14477   4.608   2.406  15.101 -0.5528  0.3751  0.2283
  995SOD     NA14478   1.532   2.987  11.706 -0.1386  0.0255  0.2705
  996SOD     NA14479   3.740   0.865  12.427  0.1605 -0.0033 -0.2762
  997SOD     NA14480   0.263   0.037   0.627 -0.2336 -0.0666 -0.2533
  998SOD     NA14481   4.441   0.746  11.566 -0.1903  0.3058  0.7005
  999SOD     NA14482   4.586   4.316  10.669  0.5393 -0.4789  0.8390
 1000SOD     NA14483   0.993   0.567  13.721  0.0599 -0.8141  0.5859
 1001SOD     NA14484   1.408   4.508  14.863  0.1068  0.0779  0.1467
 1002SOD     NA14485   1.407   1.160  15.759  0.0885 -0.0753  0.5839
 1003SOD     NA14486   0.617   3.010   3.773 -0.5181 -0.3216 -0.3455
 1004SOD     NA14487   1.182   4.148  14.527 -0.3576 -0.0216 -0.4902
 1005SOD     NA14488   3.420   2.926   1.040  0.2616 -0.0978  0.4393
 1006SOD     NA14489   1.715   0.962  16.567  0.1561 -0.3692  0.2881
 1007SOD     NA14490   3.694   4.536   9.585  0.0356  0.8082  0.4420
 1008SOD     NA14491   4.543   1.937   1.779 -0.0072 -0.0083  0.5627
 1009SOD     NA14492   0.777   1.284  10.742  0.4242 -0.5740  0.5412
 1010SOD     NA14493   1.530   0.008   8.132 -0.0974 -0.0449  0.1156
 1011SOL     OW14494   2.737   4.516   7.466 -0.0993 -0.2814  0.3015
 1011SOL    HW114495   2.728   4.538   7.559 -1.6644  0.4577 -0.0209
 1011SOL    HW214496   2.825   4.488   7.441 -0.4692 -0.7003 -0.5331
 1012SOL     OW14497   3.019   0.272  10.233  0.2656  0.5002 -0.2955
 1012SOL    HW114498   3.076   0.313  10.298 -1.3268  1.3452  0.5597
 1012SOL    HW214499   2.960   0.343  10.211 -2.2875 -0.7293  2.6029
 1013SOL     OW14500   1.337   0.005   0.816 -0.1013  0.1893  0.3821
 1013SOL    HW114501   1.369   4.642   0.803 -2.2937 -0.4237 -0.8158
 1013SOL    HW214502   1.292   4.720   0.899 -0.1940  0.3402  0.3532
 1014SOL     OW14503   0.681   0.979   1.773 -0.6636  0.1365  0.3237
 1014SOL    HW114504   0.586   0.967   1.767 -0.4789 -0.7292 -0.7769
 1014SOL    HW214505   0.702   1.054   1.719 -0.2388  0.4540  0.9321
 1015SOL     OW14506   3.368   4.686  17.593 -0.2412  0.2836 -0.0146
 1015SOL    HW114507   3.356   0.055  17.600  0.3523  0.3229  0.4101
 1015SOL    HW214508   3.463   4.684  17.591 -0.3116 -1.6090 -1.4236
 1016SOL     OW14509   3.776   0.397   4.090 -0.0371  0.7229 -0.0421
 1016SOL    HW114510   3.831   0.392   4.011 -2.5088 -0.4345 -1.6825
 1016SOL    HW214511   3.843   0.417   4.156 -0.5157 -0.5428  0.8127
 1017SOL     OW14512   2.287   4.086   7.809  0.4231  0.3017  0.0591
 1017SOL    HW114513   2.219   4.022   7.787 -1.2333  1.4130  1.9211
 1017SOL    HW214514   2.315   4.098   7.719 -0.8256 -0.6105 -0.4409
 1018SOL     OW14515   0.516   2.219   3.391 -0.1257  0.0975  0.7557
 1018SOL    HW114516   0.551   2.198   3.304 -1.1982 -0.8124  0.5474
 1018SOL    HW214517   0.434   2.170   3.392  1.1409 -2.0102  1.8462
 1019SOL     OW14518   2.358   1.435   7.683  0.2490 -0.1434  0.4188
 1019SOL    HW114519   2.305   1.446   7.604  0.4860 -1.5957  0.0742
 1019SOL    HW214520   2.284   1.442   7.744 -0.1178 -1.8237  0.1590
 1020SOL     OW14521   0.675   0.264   5.282 -0.0042  0.2731 -0.4545
 1020SOL    HW114522   0.695   0.238   5.372 -0.0478 -0.5136 -0.6723
 1020SOL    HW214523   0.753   0.227   5.241  0.3725 -0.1444  0.6439
 1021SOL     OW14524   1.978   4.360   7.054 -0.4107 -0.0884  0.1849
 1021SOL    HW114525   1.946   4.352   7.144  2.0735  1.3836  1.2238
 1021SOL    HW214526   2.073   4.357   7.066 -0.2343 -1.0102 -1.4563
 1022SOL     OW14527   2.589   2.873   6.761 -0.1015  0.1356 -0.4376
 1022SOL    HW114528   2.525   2.919   6.706  0.7809  0.5694 -1.0856
 1022SOL    HW214529   2.648   2.941   6.793 -1.8167  1.1686  0.5265
 1023SOL     OW14530   1.558   4.132   8.719  0.2119 -0.1733  0.3398
 1023SOL    HW114531   1.467   4.127   8.748 -0.5403 -0.4613 -2.0039
 1023SOL    HW214532   1.594   4.210   8.761 -5.0341  2.2419  0.3804
 1024SOL     OW14533   4.234   1.953   8.533  0.0208  0.4062 -0.3227
 1024SOL    HW114534   4.139   1.947   8.549 -0.3746  4.0908 -1.4030
 1024SOL    HW214535   4.249   1.858   8.530  0.8260  0.4818  0.9525
 1025SOL     OW14536   3.131   1.566   8.154  0.4229 -0.2145 -0.5105
 1025SOL    HW114537   3.063   1.602   8.097 -0.1620  2.4823  1.8965
 1025SOL    HW214538   3.146   1.643   8.210  0.1218 -1.2672  1.0374
 1026SOL     OW14539   0.844   4.443   9.185  0.5506 -0.0091 -0.1728
 1026SOL    HW114540   0.854   4.366   9.241  1.4350  1.7428  2.0821
 1026SOL    HW214541   0.845   4.406   9.097  2.0155 -0.8823  0.2055
 1027SOL     OW14542   4.277   2.342   9.347 -0.1918 -0.0070  0.2116
 1027SOL    HW114543   4.208   2.276   9.353 -1.1445  0.8818 -1.0091
 1027SOL    HW214544   4.293   2.377   9.435 -1.3110  1.8286 -0.3372
 1028SOL     OW14545   1.397   3.711  14.131  0.7427  0.0836 -0.1865
 1028SOL    HW114546   1.478   3.700  14.181 -1.7219 -0.5044  3.6761
 1028SOL    HW214547   1.331   3.707  14.200 -1.8070  0.6837 -2.5916
 1029SOL     OW14548   4.207   0.904   0.303  0.1169  0.3695  0.7866
 1029SOL    HW114549   4.298   0.903   0.334 -0.1287 -2.1605  1.4178
 1029SOL    HW214550   4.228   0.913   0.210 -2.9001  0.8480  0.1571
 1030SOL     OW14551   1.113   2.555   8.904  0.1719 -0.4499 -0.2903
 1030SOL    HW114552   1.164   2.525   8.829  0.3811 -1.1117  0.1173
 1030SOL    HW214553   1.177   2.533   8.972  0.3593  2.0008  0.3375
 1031SOL     OW14554   3.734   0.103  16.404 -0.2754 -0.1194 -0.0052
 1031SOL    HW114555   3.659   0.159  16.428 -0.3515  0.2220 -1.0499
 1031SOL    HW214556   3.705   0.020  16.442  1.5445 -0.4826  0.5732
 1032SOL     OW14557   3.846   3.051   4.046 -0.5144  0.2895 -0.1504
 1032SOL    HW114558   3.810   3.086   3.965  0.3259  1.6387  0.0592
 1032SOL    HW214559   3.932   3.028   4.011 -0.7033  0.5723 -0.7882
 1033SOL     OW14560   3.942   2.556   9.324 -0.1250  0.1300 -0.3708
 1033SOL    HW114561   3.890   2.636   9.315 -0.9443 -0.5639 -1.7967
 1033SOL    HW214562   4.021   2.563   9.271  0.1577  1.4937  0.2470
 1034SOL     OW14563   4.561   0.257  13.944 -0.6977 -0.0057  0.0634
 1034SOL    HW114564   4.523   0.338  13.909 -0.3670 -0.3725 -1.1336
 1034SOL    HW214565   4.614   0.282  14.019 -2.5363 -0.0838  1.3921
 1035SOL     OW14566   0.416   2.100   4.597  0.1008 -0.0944 -0.5610
 1035SOL    HW114567   0.457   2.068   4.516  2.0177  0.8669  0.0196
 1035SOL    HW214568   0.341   2.145   4.559 -0.7872  0.0831  1.4517
 1036SOL     OW14569   3.093   0.759   7.772  0.3699 -0.2609  0.0817
 1036SOL    HW114570   3.041   0.687   7.735  0.0631  0.8734 -1.7174
 1036SOL    HW214571   3.079   0.759   7.867 -2.6746 -2.6075 -0.3526
 1037SOL     OW14572   1.466   3.776   9.578 -0.1157 -0.2027  0.1726
 1037SOL    HW114573   1.429   3.712   9.638 -2.8103  1.5766  0.4190
 1037SOL    HW214574   1.489   3.847   9.639  0.1320  0.1662 -0.3533
 1038SOL     OW14575   0.530   3.143  14.059 -0.2331  0.1477 -0.1008
 1038SOL    HW114576   0.545   3.182  14.145 -1.4262 -0.4586  0.3829
 1038SOL    HW214577   0.520   3.050  14.080 -1.7312 -0.0688 -1.7076
 1039SOL     OW14578   0.272   0.811  12.545  0.0861  0.0177  0.6265
 1039SOL    HW114579   0.237   0.727  12.575  4.7692 -2.1835 -0.0294
 1039SOL    HW214580   0.267   0.790  12.451  0.7575  3.6175 -0.2060
 1040SOL     OW14581   2.733   0.872   5.754 -0.0377 -0.5284  0.2590
 1040SOL    HW114582   2.826   0.855   5.769 -0.4203 -1.5194  1.5033
 1040SOL    HW214583   2.704   0.791   5.712  1.6071 -0.0166 -1.8732
 1041SOL     OW14584   4.723   3.777   2.997 -0.2433  0.0369 -0.4758
 1041SOL    HW114585   4.675   3.797   2.917 -0.3057  0.8280 -0.2382
 1041SOL    HW214586   4.720   3.857   3.049 -1.4498 -0.0649 -0.3861
 1042SOL     OW14587   1.742   2.666   7.138  0.3423 -0.0678  0.5640
 1042SOL    HW114588   1.825   2.660   7.186  0.4489 -0.9512  0.2659
 1042SOL    HW214589   1.686   2.705   7.205  0.2227 -1.6307  1.3603
 1043SOL     OW14590   2.482   3.543   1.967  0.1552  0.4608  0.7063
 1043SOL    HW114591   2.469   3.448   1.959  2.7343  0.4527 -3.4217
 1043SOL    HW214592   2.553   3.567   1.908 -0.4612 -0.0857 -0.2488
 1044SOL     OW14593   0.793   3.721   2.482 -0.2579  0.7838 -0.2964
 1044SOL    HW114594   0.865   3.710   2.420  0.0028 -0.1939  0.1808
 1044SOL    HW214595   0.818   3.802   2.526  2.7370  0.5474 -1.5273
 1045SOL     OW14596   1.872   1.054  10.258  0.3374  0.1755  0.1550
 1045SOL    HW114597   1.938   1.060  10.328  1.4814 -1.8169 -0.7605
 1045SOL    HW214598   1.919   1.053  10.175 -0.5886  0.9698 -0.3770
 1046SOL     OW14599   2.052   2.758   8.748  0.5005  0.3485  0.2832
 1046SOL    HW114600   2.078   2.723   8.833  1.9802  0.4844 -0.1151
 1046SOL    HW214601   2.094   2.843   8.745  2.0381 -0.4491 -0.6139
 1047SOL     OW14602   2.810   2.464   1.000  0.1840 -0.2380  0.3352
 1047SOL    HW114603   2.792   2.384   0.951  3.0124 -0.2922 -0.6474
 1047SOL    HW214604   2.720   2.496   1.008  1.0265  1.9840  0.8809
 1048SOL     OW14605   1.734   3.121   4.187  0.0477  0.1187  0.0931
 1048SOL    HW114606   1.775   3.207   4.196  3.3435 -1.4320 -0.2221
 1048SOL    HW214607   1.715   3.093   4.276  0.4040  0.1119  0.1668
 1049SOL     OW14608   3.485   2.490   5.067 -0.4506  0.4762  0.2188
 1049SOL    HW114609   3.458   2.461   5.154  0.3156  1.3660  0.7563
 1049SOL    HW214610   3.455   2.580   5.077 -0.4790  0.6179 -1.1430
 1050SOL     OW14611   2.020   0.608   2.937 -0.5974  0.5387  0.1537
 1050SOL    HW114612   1.948   0.565   2.891  0.3442  1.1939 -1.9006
 1050SOL    HW214613   1.986   0.625   3.025 -0.6863  2.1324 -0.1727
 1051SOL     OW14614   0.975   2.548   5.570  0.3826  0.1809 -0.3345
 1051SOL    HW114615   1.007   2.636   5.548  3.0850 -0.4756  0.9793
 1051SOL    HW214616   0.900   2.545   5.512 -1.4501  2.8731  1.8893
 1052SOL     OW14617   3.633   0.738   3.481  0.4236 -1.0436 -0.4894
 1052SOL    HW114618   3.625   0.713   3.389 -0.0233 -2.1023 -0.1705
 1052SOL    HW214619   3.603   0.829   3.479 -0.4326 -1.3603 -1.8479
 1053SOL     OW14620   3.536   1.063   6.754 -0.2732  0.5730  0.1866
 1053SOL    HW114621   3.478   0.996   6.717 -0.2711  0.2301  0.8094
 1053SOL    HW214622   3.619   1.033   6.717 -0.4349 -0.7410  0.8788
 1054SOL     OW14623   2.042   2.953   7.075 -0.2547  0.2346  0.0587
 1054SOL    HW114624   2.007   3.001   7.150  2.0609  0.1988  1.1380
 1054SOL    HW214625   1.958   2.951   7.028  0.7201 -1.2305 -1.6419
 1055SOL     OW14626   2.847   3.750   9.418  0.4406  0.3602  0.0531
 1055SOL    HW114627   2.889   3.694   9.483 -0.0973 -1.3833 -1.0938
 1055SOL    HW214628   2.839   3.830   9.469 -0.9432  0.7240 -0.7263
 1056SOL     OW14629   2.907   3.737   5.156  0.6890 -0.0074 -0.4805
 1056SOL    HW114630   2.970   3.742   5.083  2.5170 -0.6148  1.0612
 1056SOL    HW214631   2.861   3.821   5.146  1.2587  0.2829 -0.7274
 1057SOL     OW14632   4.000   4.327   4.906 -0.7910 -0.0042  0.0088
 1057SOL    HW114633   4.002   4.355   4.814  0.2461  1.4922  0.4956
 1057SOL    HW214634   4.086   4.355   4.936 -0.3981 -0.4922 -0.6599
 1058SOL     OW14635   4.587   2.665   7.952  0.8099  0.1708 -0.5212
 1058SOL    HW114636   4.551   2.723   7.885 -2.3502 -2.0267 -0.7273
 1058SOL    HW214637   4.544   2.585   7.921 -3.5971  2.7453 -1.0150
 1059SOL     OW14638   1.014   2.246   1.690  0.0628 -0.2098 -0.0090
 1059SOL    HW114639   1.058   2.308   1.631  0.3677  1.1992  1.6989
 1059SOL    HW214640   0.943   2.299   1.726 -0.6359 -1.3117  0.2196
 1060SOL     OW14641   4.295   4.140   1.818  0.0255 -0.4673 -0.1187
 1060SOL    HW114642   4.205   4.165   1.796  0.5083  1.1600 -0.2049
 1060SOL    HW214643   4.354   4.206   1.784 -0.7176 -0.7433 -1.9781
 1061SOL     OW14644   3.931   0.699   1.113 -0.2584  0.1253 -0.3702
 1061SOL    HW114645   3.970   0.785   1.127  0.4583 -0.1925 -0.3976
 1061SOL    HW214646   4.005   0.640   1.131  1.3136  2.2871  0.2398
 1062SOL     OW14647   2.651   3.034  10.371 -0.0404  0.5681  0.1364
 1062SOL    HW114648   2.694   3.012  10.453 -2.8666 -0.3379  1.3764
 1062SOL    HW214649   2.721   3.031  10.305 -0.7443  2.7344 -0.6892
 1063SOL     OW14650   4.547   2.447   3.545 -0.3747 -0.7128 -0.3460
 1063SOL    HW114651   4.562   2.365   3.591  1.2708  0.5013  1.3070
 1063SOL    HW214652   4.631   2.463   3.502 -0.3482  0.9841  0.3386
 1064SOL     OW14653   3.453   3.518   6.302  0.1042 -0.0415  0.0055
 1064SOL    HW114654   3.470   3.600   6.256 -2.8627  0.2363 -0.5889
 1064SOL    HW214655   3.432   3.462   6.228 -1.0556  1.3464 -0.7143
 1065SOL     OW14656   1.367   1.977   7.361  0.0743  0.1450  0.2054
 1065SOL    HW114657   1.286   1.964   7.410 -0.6786  3.3524 -0.2118
 1065SOL    HW214658   1.382   1.885   7.338 -0.7769  0.8598 -3.1590
 1066SOL     OW14659   2.976   0.389   3.713 -0.4279  0.3291  0.1367
 1066SOL    HW114660   3.020   0.472   3.693  0.7788 -0.3354  0.0386
 1066SOL    HW214661   3.003   0.338   3.636  1.7753 -0.8789  1.7027
 1067SOL     OW14662   0.381   0.526   5.514  0.2248 -0.4691  0.1963
 1067SOL    HW114663   0.311   0.465   5.489 -1.2421  0.6845  1.4919
 1067SOL    HW214664   0.390   0.581   5.437 -2.8436  0.3516  0.4445
 1068SOL     OW14665   1.929   4.359  12.426  0.3504  0.0756  0.5640
 1068SOL    HW114666   2.010   4.310  12.412  1.8517  2.9556 -0.7961
 1068SOL    HW214667   1.907   4.369  12.333  2.1660  1.6030  0.3080
 1069SOL     OW14668   1.023   2.141   9.985  0.4089 -0.3944  0.5398
 1069SOL    HW114669   1.013   2.071   9.921  0.7746 -0.1123  0.1726
 1069SOL    HW214670   1.117   2.155   9.973 -0.4285  3.9652 -1.2137
 1070SOL     OW14671   2.012   0.045  12.147 -0.4405 -0.4442 -0.3672
 1070SOL    HW114672   2.024   4.717  12.069  1.0724  1.0970 -1.2225
 1070SOL    HW214673   2.057   0.126  12.122  0.2300 -0.9008 -0.6408
 1071SOL     OW14674   1.927   1.081   2.308  0.0304  0.1503  0.1153
 1071SOL    HW114675   1.883   1.162   2.333  3.0688  2.1276 -0.9100
 1071SOL    HW214676   1.853   1.026   2.280  0.8525 -1.0615  0.3597
 1072SOL     OW14677   2.451   0.745  17.534 -0.2694  0.3637 -0.1488
 1072SOL    HW114678   2.495   0.660  17.541  1.9692  1.4881 -0.4134
 1072SOL    HW214679   2.485   0.792  17.610  1.0234 -1.4192  0.3811
 1073SOL     OW14680   3.486   0.481  14.954  0.7251  0.1894  0.3508
 1073SOL    HW114681   3.470   0.396  14.994 -0.2054 -0.5329 -1.5302
 1073SOL    HW214682   3.405   0.522  14.984  0.3917 -0.6570  0.5802
 1074SOL     OW14683   2.410   0.916  10.715  0.0178  0.6222  0.2834
 1074SOL    HW114684   2.474   0.943  10.649 -0.8307 -0.4353 -0.9752
 1074SOL    HW214685   2.340   0.973  10.681 -1.3184 -1.2837 -0.1574
 1075SOL     OW14686   0.390   0.147   2.487  0.0167  0.3376 -0.1277
 1075SOL    HW114687   0.386   0.127   2.580  0.0118 -1.5375 -0.5425
 1075SOL    HW214688   0.428   0.068   2.449  0.1334  0.0898  0.5145
 1076SOL     OW14689   2.417   3.928   6.936  0.5429  0.2863  0.8915
 1076SOL    HW114690   2.510   3.908   6.943  0.3136  0.4958  4.2568
 1076SOL    HW214691   2.398   3.979   7.015  0.3025  0.9280  0.4238
 1077SOL     OW14692   0.385   3.320  15.137 -0.4521  0.4474  0.2092
 1077SOL    HW114693   0.293   3.293  15.134  0.0496 -1.4080  1.2638
 1077SOL    HW214694   0.375   3.407  15.098 -1.8361  0.2923  0.1934
 1078SOL     OW14695   3.256   4.144   7.611  0.3117  0.2486 -0.2808
 1078SOL    HW114696   3.248   4.222   7.557 -0.1565 -0.1874 -0.8343
 1078SOL    HW214697   3.252   4.074   7.546  1.0152  0.6104 -0.7236
 1079SOL     OW14698   1.267   3.926  13.396  0.1063  0.2577  0.1144
 1079SOL    HW114699   1.231   3.999  13.446 -0.1816  0.5202 -0.4729
 1079SOL    HW214700   1.310   3.974  13.326  0.0815  0.1843  0.0480
 1080SOL     OW14701   2.899   2.891   3.085  0.0245 -0.1846 -0.2131
 1080SOL    HW114702   2.968   2.935   3.035  0.0562 -1.3663 -1.2410
 1080SOL    HW214703   2.937   2.804   3.072  0.4613  0.0809 -0.7085
 1081SOL     OW14704   2.339   2.570   3.785  0.6295 -0.3574 -0.1124
 1081SOL    HW114705   2.355   2.500   3.848  1.3451 -0.7626 -0.7461
 1081SOL    HW214706   2.360   2.655   3.822 -0.4925  0.6740 -1.8504
 1082SOL     OW14707   0.568   1.515   4.643  0.8556  0.7764  0.8425
 1082SOL    HW114708   0.613   1.509   4.727 -0.2438  2.1066  1.5212
 1082SOL    HW214709   0.512   1.589   4.665  0.7667  1.6000 -2.1242
 1083SOL     OW14710   2.879   2.261   8.181  0.1622 -0.3729  0.1300
 1083SOL    HW114711   2.810   2.326   8.172  0.0551 -0.6178 -0.7807
 1083SOL    HW214712   2.934   2.273   8.103 -0.6923  1.5393 -0.1922
 1084SOL     OW14713   3.774   0.658   0.885  0.2859 -0.2254  0.2108
 1084SOL    HW114714   3.826   0.721   0.836  1.6166 -2.7035 -1.6179
 1084SOL    HW214715   3.816   0.655   0.970  2.8363 -0.9774 -1.0739
 1085SOL     OW14716   0.779   4.290  10.534 -0.2811  0.5343 -0.0372
 1085SOL    HW114717   0.798   4.205  10.574 -1.3852  1.2050  1.9277
 1085SOL    HW214718   0.824   4.353  10.591 -3.4216  3.5147 -0.8642
 1086SOL     OW14719   3.066   3.360  10.169  0.5239 -0.4087 -0.8709
 1086SOL    HW114720   2.975   3.374  10.194  1.2757  0.5433  1.3764
 1086SOL    HW214721   3.119   3.424  10.218  0.3567 -0.4521 -0.6325
 1087SOL     OW14722   3.510   0.000  10.069  0.4154 -0.4367 -0.4357
 1087SOL    HW114723   3.549   4.639  10.071 -0.3014 -0.6934  2.5477
 1087SOL    HW214724   3.449   4.705   9.998  1.4610  0.7154 -1.6840
 1088SOL     OW14725   1.873   3.415   0.605 -0.0412 -0.3743 -0.1683
 1088SOL    HW114726   1.917   3.346   0.655  2.1531  1.0601 -0.1136
 1088SOL    HW214727   1.909   3.496   0.641  0.7531 -0.2038 -1.3467
 1089SOL     OW14728   0.042   4.312   5.479 -0.5464 -0.1337 -0.0741
 1089SOL    HW114729   0.104   4.287   5.411 -0.8579 -0.2180 -0.3279
 1089SOL    HW214730   0.024   4.400   5.446 -1.4412 -0.6168 -0.8914
 1090SOL     OW14731   4.440   0.209   2.343 -0.0170  0.0214 -0.4916
 1090SOL    HW114732   4.517   0.262   2.321 -1.0219  0.5910 -2.6532
 1090SOL    HW214733   4.456   0.180   2.433 -1.7670 -1.2285 -0.5726
 1091SOL     OW14734   0.812   0.575  13.576 -0.1436 -0.4385 -0.7127
 1091SOL    HW114735   0.827   0.560  13.483  1.8423  0.2414 -0.5076
 1091SOL    HW214736   0.726   0.617  13.587 -0.6503 -1.3722 -1.1284
 1092SOL     OW14737   0.251   1.479  15.881  0.0639  0.1860 -0.4434
 1092SOL    HW114738   0.192   1.554  15.891 -0.7232 -0.8308  2.5438
 1092SOL    HW214739   0.322   1.508  15.938 -0.2891 -1.6421  0.9315
 1093SOL     OW14740   2.497   3.907   9.283  0.0728  0.3443  0.4509
 1093SOL    HW114741   2.418   3.854   9.297  0.4087 -1.1417 -3.3962
 1093SOL    HW214742   2.538   3.943   9.362 -1.0578  1.7231  0.4302
 1094SOL     OW14743   1.847   2.392   6.193  0.7591  0.0819  0.3982
 1094SOL    HW114744   1.937   2.412   6.167 -0.5687  3.7912 -1.3148
 1094SOL    HW214745   1.808   2.479   6.192  0.7767  0.1033  2.1888
 1095SOL     OW14746   4.100   4.159   5.181 -0.3388 -1.0220 -0.1232
 1095SOL    HW114747   4.054   4.243   5.188  0.2486 -0.6705 -0.4694
 1095SOL    HW214748   4.136   4.144   5.269 -0.8477  1.3292  0.4892
 1096SOL     OW14749   3.318   1.960   7.246  0.2873 -0.2001 -0.4639
 1096SOL    HW114750   3.298   1.988   7.157 -2.0025  2.3868  0.8891
 1096SOL    HW214751   3.404   2.002   7.256  0.7270 -1.5236  1.6365
 1097SOL     OW14752   2.730   1.453   3.268  0.2586 -0.3214  0.2487
 1097SOL    HW114753   2.781   1.499   3.335  0.2825 -0.8086  0.5655
 1097SOL    HW214754   2.639   1.466   3.295  0.5721  0.0856  1.1070
 1098SOL     OW14755   1.867   4.263   9.624  0.0755  0.1710 -0.2913
 1098SOL    HW114756   1.822   4.266   9.708  0.8888  3.4352  0.0450
 1098SOL    HW214757   1.925   4.338   9.641  0.8734  0.1746 -2.9037
 1099SOL     OW14758   4.456   1.740   1.666  0.4142 -0.6173 -0.0814
 1099SOL    HW114759   4.427   1.718   1.578  1.2625  1.5923 -0.8939
 1099SOL    HW214760   4.385   1.701   1.718  0.2688 -0.0917  0.1172
 1100SOL     OW14761   4.299   2.571   1.128  0.3675  0.1888 -0.3466
 1100SOL    HW114762   4.238   2.634   1.167  1.9788  1.3278  0.3780
 1100SOL    HW214763   4.247   2.524   1.063  2.1126 -0.7029 -1.1069
 1101SOL     OW14764   1.311   2.638   5.659  0.1042 -0.8304  0.4250
 1101SOL    HW114765   1.307   2.542   5.661  2.4642 -0.8903  2.1638
 1101SOL    HW214766   1.399   2.649   5.696 -1.0408  1.3940  2.4750
 1102SOL     OW14767   0.964   0.633  10.746  0.0636 -0.0748  0.1242
 1102SOL    HW114768   0.961   0.725  10.722 -1.4399 -0.9203 -2.9410
 1102SOL    HW214769   1.022   0.596  10.680  0.2994 -0.9524  0.8144
 1103SOL     OW14770   4.239   2.291   5.240  0.5148  0.0258  0.2203
 1103SOL    HW114771   4.318   2.251   5.276 -1.3126 -1.3057  2.7369
 1103SOL    HW214772   4.245   2.372   5.291 -0.8027 -1.1168  2.2140
 1104SOL     OW14773   1.308   3.425   7.411 -0.0731  0.3179 -0.3445
 1104SOL    HW114774   1.246   3.464   7.473  0.8133 -0.3574  0.9659
 1104SOL    HW214775   1.391   3.450   7.451 -0.5978 -0.8602  1.5378
 1105SOL     OW14776   3.768   0.652  14.739 -0.0109  0.3287 -0.0595
 1105SOL    HW114777   3.764   0.655  14.834 -2.9821 -1.4452 -0.1270
 1105SOL    HW214778   3.732   0.565  14.726  0.7665 -0.1972  1.2783
 1106SOL     OW14779   0.275   4.506  11.100  0.5432  0.3466  0.5628
 1106SOL    HW114780   0.338   4.435  11.085 -0.7569 -0.9451  1.3179
 1106SOL    HW214781   0.191   4.461  11.090  1.4151 -0.5449 -2.6929
 1107SOL     OW14782   2.208   1.844   8.930  0.3199 -0.3678 -0.1852
 1107SOL    HW114783   2.288   1.846   8.877  0.1871 -1.7167 -0.4253
 1107SOL    HW214784   2.184   1.752   8.932 -0.1756 -0.2141  0.8161
 1108SOL     OW14785   3.550   2.404  15.507 -0.0757 -0.1595  0.2130
 1108SOL    HW114786   3.500   2.455  15.571  1.3763 -0.9548  1.9534
 1108SOL    HW214787   3.481   2.357  15.460 -0.7660  0.1839  0.8893
 1109SOL     OW14788   1.135   4.387   7.378 -0.2784 -0.1485  0.3917
 1109SOL    HW114789   1.072   4.430   7.436  0.0343  2.1096 -0.9678
 1109SOL    HW214790   1.085   4.309   7.353  2.0777 -1.4976 -0.1329
 1110SOL     OW14791   0.607   1.557  12.598 -0.1402 -0.2545  0.2606
 1110SOL    HW114792   0.694   1.520  12.607 -0.8831 -2.4635 -1.6253
 1110SOL    HW214793   0.552   1.483  12.572  0.0737 -0.1652 -0.4696
 1111SOL     OW14794   1.387   1.229   3.327  0.4019 -0.4817  0.6436
 1111SOL    HW114795   1.353   1.154   3.375 -0.5064 -1.2990 -1.2871
 1111SOL    HW214796   1.474   1.248   3.361  0.6827  0.3205 -0.5117
 1112SOL     OW14797   2.813   1.583  16.096 -0.5708  0.2640 -0.4009
 1112SOL    HW114798   2.762   1.509  16.130  1.0849 -0.3470  0.7911
 1112SOL    HW214799   2.743   1.635  16.057 -0.9749 -0.5489 -0.7605
 1113SOL     OW14800   1.771   2.445  10.847 -0.2340 -0.2733  0.0784
 1113SOL    HW114801   1.825   2.495  10.785 -0.4644 -0.5149 -0.3202
 1113SOL    HW214802   1.825   2.372  10.875  2.1435  0.9858 -1.1763
 1114SOL     OW14803   1.728   1.441   1.749 -0.1501  0.4097  0.0811
 1114SOL    HW114804   1.818   1.410   1.759  0.2638  1.5624 -0.0800
 1114SOL    HW214805   1.686   1.380   1.809 -0.0623  1.4814  1.2428
 1115SOL     OW14806   0.158   0.586  11.373 -0.4472 -0.1818  0.1803
 1115SOL    HW114807   0.223   0.575  11.443 -0.6813 -0.0765  0.4143
 1115SOL    HW214808   0.089   0.531  11.411 -0.1819 -0.1872  0.6544
 1116SOL     OW14809   3.234   0.980   3.882 -0.6196  1.1525 -0.4220
 1116SOL    HW114810   3.200   1.023   3.804 -2.0829 -0.7539 -0.8287
 1116SOL    HW214811   3.303   0.926   3.845  0.0593  0.8039  1.3787
 1117SOL     OW14812   4.533   0.476   4.438 -0.2302  0.2948 -0.5217
 1117SOL    HW114813   4.615   0.488   4.486 -1.1098  1.9772  0.5462
 1117SOL    HW214814   4.477   0.484   4.515  2.8095 -0.7811  1.7820
 1118SOL     OW14815   0.019   4.682   6.862 -0.3207  0.1506  0.2135
 1118SOL    HW114816   0.016   0.051   6.849  0.6628  0.0905 -0.4615
 1118SOL    HW214817   4.697   4.640   6.790  0.5683  1.6286 -1.2610
 1119SOL     OW14818   1.196   4.419   4.575  0.3803  0.4191 -0.7013
 1119SOL    HW114819   1.277   4.468   4.561  2.3056 -3.0717 -1.6759
 1119SOL    HW214820   1.154   4.462   4.650  0.2097  0.8407 -1.0393
 1120SOL     OW14821   3.129   3.141   2.383  0.3302 -0.0774 -0.2228
 1120SOL    HW114822   3.156   3.170   2.470  1.9599 -1.0900 -0.4055
 1120SOL    HW214823   3.054   3.197   2.362 -1.1073 -2.1501 -0.6064
 1121SOL     OW14824   3.815   2.033  12.952 -0.3100  0.1034 -0.1901
 1121SOL    HW114825   3.722   2.025  12.932 -0.9030 -0.0227  2.5854
 1121SOL    HW214826   3.822   1.952  13.003  2.1300  0.3731 -0.0902
 1122SOL     OW14827   3.773   3.557   2.966  0.0127  0.1149  0.0526
 1122SOL    HW114828   3.839   3.500   3.004 -0.0910 -1.4783 -2.1346
 1122SOL    HW214829   3.818   3.605   2.896  0.7678 -0.2012  0.3212
 1123SOL     OW14830   1.752   0.119   5.888  0.0791 -0.5518 -0.3010
 1123SOL    HW114831   1.693   0.194   5.903 -1.6824 -1.6638 -1.6162
 1123SOL    HW214832   1.828   0.152   5.936  1.1864 -3.1217 -0.2985
 1124SOL     OW14833   3.255   0.511   9.457 -0.6322  0.5803  0.4250
 1124SOL    HW114834   3.218   0.455   9.526 -0.8091 -0.7371 -0.7333
 1124SOL    HW214835   3.256   0.594   9.505  3.1058  0.3395  0.7120
 1125SOL     OW14836   4.149   2.153   2.413 -0.4893 -0.1213  0.0089
 1125SOL    HW114837   4.078   2.129   2.354  0.6753 -3.7704  0.1148
 1125SOL    HW214838   4.170   2.241   2.381 -2.0769  0.7901  1.4604
 1126SOL     OW14839   2.596   2.987   9.838  0.1308  0.6263  0.2406
 1126SOL    HW114840   2.673   3.043   9.851  0.3913  0.1563  0.7232
 1126SOL    HW214841   2.634   2.929   9.773 -1.9586 -1.9075  1.2976
 1127SOL     OW14842   4.414   4.674   5.372 -0.1767  0.0109  0.0612
 1127SOL    HW114843   4.452   4.607   5.429 -0.1501  1.1076  1.3394
 1127SOL    HW214844   4.339   4.627   5.336  1.2215  0.2723 -3.2265
 1128SOL     OW14845   4.700   1.195  16.309 -0.0593  0.0952  0.1163
 1128SOL    HW114846   0.011   1.275  16.346  2.0270 -0.1758 -1.3654
 1128SOL    HW214847   0.013   1.192  16.221 -1.3953 -0.6639 -0.4400
 1129SOL     OW14848   2.959   0.374   4.426 -0.0556 -0.0378 -0.0856
 1129SOL    HW114849   3.027   0.347   4.487 -0.3637  0.3179  0.4095
 1129SOL    HW214850   2.934   0.286   4.397 -0.9772  0.1051  0.2565
 1130SOL     OW14851   1.306   4.036  14.364 -0.3292  0.5215  0.3085
 1130SOL    HW114852   1.377   3.997  14.416 -1.0397 -2.5285 -0.9820
 1130SOL    HW214853   1.259   3.956  14.341 -1.2397  0.7405  1.4434
 1131SOL     OW14854   2.793   0.395  11.211  0.2674 -0.1917  0.2291
 1131SOL    HW114855   2.716   0.404  11.267  1.7166  1.4238  1.9442
 1131SOL    HW214856   2.856   0.410  11.281  1.7135  2.1282 -1.5819
 1132SOL     OW14857   3.358   1.530   3.948  0.3310 -0.3114 -0.3074
 1132SOL    HW114858   3.323   1.607   3.992  1.2743 -0.5471  0.8745
 1132SOL    HW214859   3.387   1.473   4.020  1.8173 -1.0796 -1.5047
 1133SOL     OW14860   0.592   1.627   0.036 -0.0159 -0.2436  0.4232
 1133SOL    HW114861   0.502   1.640   0.066 -0.5656 -2.7025 -0.1598
 1133SOL    HW214862   0.581   1.599  17.650  1.3206  0.7061 -0.0344
 1134SOL     OW14863   0.406   4.662   8.377  0.0857 -0.4518  0.1050
 1134SOL    HW114864   0.452   4.626   8.453 -0.9816  1.7219  1.7897
 1134SOL    HW214865   0.342   4.700   8.436  0.3888  0.1156  0.0736
 1135SOL     OW14866   2.615   0.105   2.050 -0.0367 -0.2405  0.2068
 1135SOL    HW114867   2.632   0.196   2.025 -0.3617 -0.0322  0.7323
 1135SOL    HW214868   2.566   0.131   2.128  0.2483 -0.3175  0.4152
 1136SOL     OW14869   0.519   0.206   6.525 -0.0659  0.2164 -0.3335
 1136SOL    HW114870   0.606   0.222   6.490 -0.6645  2.6827 -0.7154
 1136SOL    HW214871   0.525   0.113   6.547  1.1551  0.6873  1.3520
 1137SOL     OW14872   1.676   0.620  15.192 -0.1079  0.6564 -0.0191
 1137SOL    HW114873   1.659   0.714  15.198 -0.3599  0.5725  0.5134
 1137SOL    HW214874   1.595   0.594  15.148  0.2000  1.8085 -1.2929
 1138SOL     OW14875   3.925   4.082   4.952 -0.3059 -0.8374  0.5965
 1138SOL    HW114876   3.990   4.076   5.022  2.6208  1.6992 -1.8785
 1138SOL    HW214877   3.960   4.168   4.928 -1.0230 -0.2420  1.6710
 1139SOL     OW14878   2.811   3.429  10.229  0.0435 -0.1241  0.7268
 1139SOL    HW114879   2.754   3.476  10.290 -0.9514  0.6266 -0.7990
 1139SOL    HW214880   2.757   3.399  10.156 -0.0671 -0.3259  0.8903
 1140SOL     OW14881   0.169   3.582   3.388  0.1943  0.2349  0.6790
 1140SOL    HW114882   0.258   3.618   3.395  1.9744 -3.9022 -0.6913
 1140SOL    HW214883   0.118   3.660   3.410 -1.1161 -0.0869 -1.2508
 1141SOL     OW14884   3.219   1.283   8.167  0.6347 -0.2330 -0.6047
 1141SOL    HW114885   3.199   1.375   8.184 -0.8182 -0.6259 -0.1370
 1141SOL    HW214886   3.189   1.253   8.253  0.5415  2.7214  0.3968
 1142SOL     OW14887   4.280   1.665   2.071 -0.8615  0.3006  0.1053
 1142SOL    HW114888   4.300   1.573   2.085 -2.7729 -0.1370  0.0111
 1142SOL    HW214889   4.187   1.660   2.096 -0.7779 -1.0465  0.1144
 1143SOL     OW14890   3.094   2.086   9.487  0.1939 -0.5768  0.4349
 1143SOL    HW114891   3.041   2.081   9.407  0.3669  0.5532  0.2542
 1143SOL    HW214892   3.032   2.113   9.554 -0.7055 -0.1209 -0.5877
 1144SOL     OW14893   4.395   3.248   2.291 -0.0762  0.5313  0.5822
 1144SOL    HW114894   4.487   3.239   2.267 -0.6854 -0.4311 -1.3940
 1144SOL    HW214895   4.376   3.340   2.272  2.7901  1.0440  0.2416
 1145SOL     OW14896   3.624   1.324  14.202  0.2997 -0.4641  0.3919
 1145SOL    HW114897   3.582   1.407  14.179  0.8537 -0.6200 -1.1896
 1145SOL    HW214898   3.565   1.286  14.267  1.1501 -0.0009  1.4479
 1146SOL     OW14899   3.309   0.821   6.106 -0.0401  0.2627  0.6855
 1146SOL    HW114900   3.259   0.891   6.146  0.0702  0.3559  0.6591
 1146SOL    HW214901   3.316   0.755   6.176  0.2159  0.5881  0.9682
 1147SOL     OW14902   2.968   0.762   1.090  0.4002  0.1272 -0.1391
 1147SOL    HW114903   2.953   0.708   1.012 -0.6063 -1.4460  1.1446
 1147SOL    HW214904   2.984   0.683   1.141  1.0022 -0.0271 -0.5701
 1148SOL     OW14905   2.301   4.531   8.529 -0.4603 -0.2701  0.0149
 1148SOL    HW114906   2.300   4.598   8.460  1.6931 -0.8023 -0.5479
 1148SOL    HW214907   2.249   4.572   8.598  0.4119  0.5580  0.1743
 1149SOL     OW14908   0.082   3.152   6.857  0.1710  0.5787 -0.1488
 1149SOL    HW114909   0.072   3.118   6.769 -1.3374  2.0333 -0.5423
 1149SOL    HW214910   0.048   3.242   6.854 -0.0013  0.5509  0.7724
 1150SOL     OW14911   1.829   0.988   9.145 -0.0501  0.0272 -0.8531
 1150SOL    HW114912   1.761   0.940   9.192  2.1567  0.2612  2.6179
 1150SOL    HW214913   1.914   0.970   9.185 -1.7632 -1.1977  2.2041
 1151SOL     OW14914   3.046   0.189   6.856  0.8328 -0.4937 -0.2177
 1151SOL    HW114915   3.026   0.098   6.878 -0.6188 -0.3088 -0.7311
 1151SOL    HW214916   3.134   0.203   6.891  0.5854  1.5723 -0.4014
 1152SOL     OW14917   1.860   2.138   9.308  0.7586 -0.0383  0.4003
 1152SOL    HW114918   1.945   2.102   9.335  0.0170 -0.4692  2.1385
 1152SOL    HW214919   1.893   2.186   9.232 -0.4677  1.1520  0.6176
 1153SOL     OW14920   3.705   3.089   5.564  0.1859  0.1011  0.1111
 1153SOL    HW114921   3.793   3.093   5.527  0.1297  1.0584  0.0836
 1153SOL    HW214922   3.696   3.183   5.576  1.7655  0.1338  1.0185
 1154SOL     OW14923   3.683   2.904   8.732 -0.9244  0.3195  0.5920
 1154SOL    HW114924   3.604   2.950   8.703 -0.5625  0.5111 -0.1196
 1154SOL    HW214925   3.700   2.944   8.817  0.3173 -1.4959  1.2014
 1155SOL     OW14926   1.039   0.499   5.710  0.2180 -0.1573 -0.4617
 1155SOL    HW114927   0.944   0.494   5.700 -0.0656 -0.5925  2.4158
 1155SOL    HW214928   1.053   0.410   5.678 -2.7849 -1.0631  0.7832
 1156SOL     OW14929   2.989   4.194   1.384  0.1974  0.0064  0.0117
 1156SOL    HW114930   3.082   4.216   1.374  0.3053 -0.6054 -0.3666
 1156SOL    HW214931   2.954   4.273   1.424 -0.4623 -0.2146 -0.1326
 1157SOL     OW14932   2.698   2.211   0.020  0.0217  0.3737 -0.3458
 1157SOL    HW114933   2.706   2.294  17.678 -0.8582  0.9420  0.5154
 1157SOL    HW214934   2.765   2.221   0.087 -2.2303 -0.2957  1.9760
 1158SOL     OW14935   0.966   0.624   7.072 -0.5813 -0.2495 -0.5705
 1158SOL    HW114936   0.989   0.554   7.011 -0.9352  0.1110 -1.1204
 1158SOL    HW214937   0.995   0.586   7.154 -1.7486 -0.4843 -0.2612
 1159SOL     OW14938   1.709   3.188  17.603  0.2604  0.2714 -1.0436
 1159SOL    HW114939   1.679   3.252  17.538 -3.0056  0.3921  0.5456
 1159SOL    HW214940   1.653   3.111  17.589  0.2171 -0.0629  0.9446
 1160SOL     OW14941   1.330   2.070   4.680 -0.4652 -0.9017  0.2251
 1160SOL    HW114942   1.324   2.162   4.654  0.9134 -0.6429  0.8323
 1160SOL    HW214943   1.262   2.066   4.748  1.2770  1.5252  2.1263
 1161SOL     OW14944   3.591   3.030   5.805  0.0789 -0.0710  0.1445
 1161SOL    HW114945   3.611   2.937   5.816  0.6699  0.0686  0.2283
 1161SOL    HW214946   3.628   3.045   5.718 -2.7509  0.1968 -1.0163
 1162SOL     OW14947   0.749   0.913  16.930  0.0132  0.2833 -0.5806
 1162SOL    HW114948   0.720   0.884  16.844  0.5172 -0.2922 -0.5509
 1162SOL    HW214949   0.803   0.990  16.912  0.0095  0.6148  0.8039
 1163SOL     OW14950   3.918   1.516   6.191  0.3740  0.1349 -0.0396
 1163SOL    HW114951   3.987   1.451   6.184 -0.7328 -0.8586 -1.6421
 1163SOL    HW214952   3.885   1.491   6.277  0.4492 -0.7826 -0.2767
 1164SOL     OW14953   4.639   2.152   5.562 -0.4735 -0.3080 -0.4018
 1164SOL    HW114954   4.702   2.086   5.590 -1.7174  0.1817  3.5968
 1164SOL    HW214955   4.660   2.226   5.619  1.8646 -0.2276 -1.3883
 1165SOL     OW14956   3.616   0.828  11.616 -0.2548 -0.4834 -0.0415
 1165SOL    HW114957   3.541   0.792  11.569  0.3026 -0.1214 -1.2318
 1165SOL    HW214958   3.640   0.896  11.553  0.3206  0.0287  0.7366
 1166SOL     OW14959   0.643   3.067   2.579  0.2134  0.1193  0.0390
 1166SOL    HW114960   0.637   3.073   2.674  0.5859  2.6042 -0.1079
 1166SOL    HW214961   0.595   3.143   2.547  0.8660 -0.4497 -2.3142
 1167SOL     OW14962   3.150   4.616  11.978  0.1255  0.1852  0.0131
 1167SOL    HW114963   3.208   4.632  11.904  1.1672  0.4922  0.9103
 1167SOL    HW214964   3.070   4.581  11.938 -0.7758  1.5581  0.6186
 1168SOL     OW14965   0.910   2.339  14.444  0.0672  0.0950 -0.4843
 1168SOL    HW114966   0.823   2.338  14.484  0.7419  0.0854  0.9570
 1168SOL    HW214967   0.942   2.413  14.496  1.5237  0.4095 -1.8330
 1169SOL     OW14968   1.264   0.102   8.442  0.0806 -0.2131 -0.4572
 1169SOL    HW114969   1.200   0.172   8.450 -1.0070 -1.2273 -0.3197
 1169SOL    HW214970   1.329   0.137   8.381  1.6311 -1.1096  0.6803
 1170SOL     OW14971   2.833   1.801   5.759  0.3128  0.7021 -0.4868
 1170SOL    HW114972   2.881   1.792   5.676  0.7887 -0.8931 -0.0368
 1170SOL    HW214973   2.909   1.794   5.816  0.3803 -0.0423 -0.6699
 1171SOL     OW14974   0.958   3.743  12.266 -0.6389  0.7393 -0.0294
 1171SOL    HW114975   1.018   3.783  12.203  0.8793 -1.7976 -0.1833
 1171SOL    HW214976   0.980   3.785  12.349  2.1205 -0.0565 -0.3845
 1172SOL     OW14977   3.398   2.643   1.350 -0.6958  0.0681  0.5712
 1172SOL    HW114978   3.345   2.573   1.312  0.4331 -0.4840 -0.0047
 1172SOL    HW214979   3.378   2.639   1.443 -1.3114  0.7893  0.4625
 1173SOL     OW14980   4.330   1.329  17.246 -0.3058  0.3724  0.1255
 1173SOL    HW114981   4.410   1.367  17.282 -0.4552 -1.2385  2.1491
 1173SOL    HW214982   4.358   1.305  17.158  0.4381 -0.3866  0.5684
 1174SOL     OW14983   2.329   2.490   3.259  0.4753 -0.7667 -0.1719
 1174SOL    HW114984   2.291   2.445   3.334  2.4398 -0.9087  0.7435
 1174SOL    HW214985   2.385   2.420   3.224 -0.4194 -1.6460  0.1591
 1175SOL     OW14986   1.245   0.960   9.176 -0.1339  0.2289  0.4061
 1175SOL    HW114987   1.231   0.936   9.267 -1.8282 -0.2535  0.0299
 1175SOL    HW214988   1.269   1.052   9.185  2.3422 -0.3729 -0.2845
 1176SOL     OW14989   3.731   3.031   5.152 -0.3050 -0.1282 -0.1509
 1176SOL    HW114990   3.714   3.122   5.128  0.6917 -0.0136 -0.4341
 1176SOL    HW214991   3.794   3.035   5.225 -1.6871  0.2141  1.0239
 1177SOL     OW14992   2.875   0.445   3.123 -0.3057  0.3178  0.0851
 1177SOL    HW114993   2.902   0.355   3.145  0.7498  0.0939 -2.1963
 1177SOL    HW214994   2.949   0.490   3.084 -0.3367  1.2866  1.1424
 1178SOL     OW14995   1.053   1.922   5.687 -0.4408  0.2853  0.2369
 1178SOL    HW114996   1.003   1.958   5.614  1.7572  0.3272 -1.2420
 1178SOL    HW214997   1.002   1.843   5.706  0.4564 -0.6191 -1.1869
 1179SOL     OW14998   3.084   1.616   7.567 -0.1959  0.0916 -0.2378
 1179SOL    HW114999   3.110   1.616   7.659  0.7450  2.2234 -0.4902
 1179SOL    HW215000   3.083   1.709   7.544 -0.0344  0.1785  0.0968
 1180SOL     OW15001   0.130   0.403   6.941  0.1391 -0.7708 -0.6043
 1180SOL    HW115002   0.105   0.384   6.850  0.8666 -1.2433 -0.7124
 1180SOL    HW215003   0.060   0.460   6.971 -1.0103 -2.5019 -0.0119
 1181SOL     OW15004   4.599   1.636  13.059 -0.2007  0.0389 -0.0289
 1181SOL    HW115005   4.629   1.547  13.077 -0.6390 -0.4139 -1.5372
 1181SOL    HW215006   4.683   1.677  13.076 -1.0151  1.9075 -0.4965
 1182SOL     OW15007   0.537   3.031   7.538 -0.3605  0.0718  0.4876
 1182SOL    HW115008   0.447   3.035   7.571 -0.5785 -0.2895 -0.0407
 1182SOL    HW215009   0.583   2.963   7.587 -0.3818  1.2676  2.1403
 1183SOL     OW15010   3.824   4.706   2.056  0.1456 -0.0257  0.3896
 1183SOL    HW115011   3.789   0.044   2.117 -1.5699  0.1967 -0.8374
 1183SOL    HW215012   3.876   4.654   2.117 -1.1181 -1.7495  0.0022
 1184SOL     OW15013   3.749   0.065   4.825  0.4274 -0.2958 -0.2889
 1184SOL    HW115014   3.681   4.723   4.825 -0.3653  0.4990 -0.9001
 1184SOL    HW215015   3.767   0.083   4.733 -1.8298  2.8456 -0.1094
 1185SOL     OW15016   0.184   3.865  17.328 -0.1416 -0.0353  0.0273
 1185SOL    HW115017   0.254   3.841  17.268 -0.0642  1.1277 -0.3501
 1185SOL    HW215018   0.115   3.883  17.264  0.7418 -0.8114 -1.1367
 1186SOL     OW15019   4.427   2.958  13.210 -0.0392 -0.2180  0.5368
 1186SOL    HW115020   4.506   2.911  13.183 -0.6801 -1.2186  0.3696
 1186SOL    HW215021   4.401   2.894  13.277 -0.9866 -0.6119 -0.2058
 1187SOL     OW15022   2.881   0.802  17.072  0.9760  0.3327 -0.1151
 1187SOL    HW115023   2.891   0.761  16.987  1.1035 -0.1420  0.1342
 1187SOL    HW215024   2.880   0.734  17.139 -2.2897  2.1172  1.6714
 1188SOL     OW15025   1.771   1.410   5.464 -0.6920  0.1259  0.0828
 1188SOL    HW115026   1.839   1.476   5.454  0.1558 -0.6637  0.7188
 1188SOL    HW215027   1.717   1.454   5.530 -1.3468 -0.6339  0.0454
 1189SOL     OW15028   4.127   1.134   2.517 -0.1433  0.2187  0.5872
 1189SOL    HW115029   4.075   1.213   2.530 -2.3073 -1.4156  1.9173
 1189SOL    HW215030   4.106   1.070   2.585  3.7021  1.5114  2.9500
 1190SOL     OW15031   0.336   3.060   3.388  0.2518 -0.2173  0.1392
 1190SOL    HW115032   0.376   3.102   3.312  0.0203 -0.9689 -0.3885
 1190SOL    HW215033   0.335   3.130   3.453 -1.3500 -0.8955  0.8479
 1191SOL     OW15034   2.672   1.447   0.905  0.3065  0.0634  0.3526
 1191SOL    HW115035   2.761   1.471   0.881  0.6439 -1.2389  0.3052
 1191SOL    HW215036   2.646   1.391   0.832 -1.9241  1.2154  0.2683
 1192SOL     OW15037   3.699   2.966   1.402 -0.1021  0.1426 -0.2467
 1192SOL    HW115038   3.772   2.930   1.453  1.0110 -0.2405 -2.0906
 1192SOL    HW215039   3.743   3.039   1.357  0.3541 -0.1954 -0.3547
 1193SOL     OW15040   1.785   1.087   8.373  0.0049 -0.2559 -0.1168
 1193SOL    HW115041   1.860   1.040   8.409  0.7801  0.9923 -0.0981
 1193SOL    HW215042   1.752   1.118   8.457  1.7837 -0.0703  0.5188
 1194SOL     OW15043   2.046   3.076   2.752  0.3473 -0.4685  0.2163
 1194SOL    HW115044   2.138   3.066   2.775  0.3311  0.4350  0.6837
 1194SOL    HW215045   2.050   3.172   2.750  0.3416 -0.4793 -0.6072
 1195SOL     OW15046   0.346   2.775  17.164  0.3367  0.2530 -0.5032
 1195SOL    HW115047   0.276   2.747  17.106 -0.6184 -2.4725  1.9716
 1195SOL    HW215048   0.322   2.866  17.151  2.4122  0.9278  0.3561
 1196SOL     OW15049   3.996   2.305   4.163  0.1037 -0.1533  0.4898
 1196SOL    HW115050   4.010   2.318   4.069  0.3925  1.2687  0.7301
 1196SOL    HW215051   3.955   2.218   4.162  0.3234 -0.2622  0.7260
 1197SOL     OW15052   0.765   2.451  11.587  0.5472 -0.4674 -0.5359
 1197SOL    HW115053   0.746   2.412  11.501  0.3382  0.3785 -0.8664
 1197SOL    HW215054   0.726   2.536  11.568  1.2189 -0.0771 -0.1495
 1198SOL     OW15055   2.244   0.354   4.449  0.2575  0.1853  0.5631
 1198SOL    HW115056   2.162   0.403   4.458  0.9168  1.0710  1.9022
 1198SOL    HW215057   2.303   0.398   4.510  0.3286 -0.2261  0.7912
 1199SOL     OW15058   4.232   2.169   8.369  0.0434 -0.2828  0.4359
 1199SOL    HW115059   4.247   2.095   8.427  0.5022  0.1660  0.8852
 1199SOL    HW215060   4.158   2.203   8.419  0.9838  0.3159  1.4147
 1200SOL     OW15061   4.198   4.386   2.587 -0.0382 -0.3513 -0.5274
 1200SOL    HW115062   4.203   4.465   2.534 -0.2049 -0.4489 -0.6912
 1200SOL    HW215063   4.243   4.320   2.534  1.1983  0.7004 -0.7851
 1201SOL     OW15064   2.054   3.053   3.587  0.1977 -0.3177  0.1254
 1201SOL    HW115065   2.038   3.068   3.680 -1.4125  1.6933 -0.4656
 1201SOL    HW215066   2.057   3.146   3.564  1.7556 -0.1579  0.9842
 1202SOL     OW15067   3.353   3.085   1.218  0.2379  0.2770  0.1260
 1202SOL    HW115068   3.272   3.105   1.172  0.0033  0.7638  0.7603
 1202SOL    HW215069   3.362   3.165   1.270  0.6279 -1.5070  2.8000
 1203SOL     OW15070   2.438   2.303   7.647  0.2607 -0.3599 -0.8691
 1203SOL    HW115071   2.526   2.340   7.647 -0.8440  2.2636 -1.2608
 1203SOL    HW215072   2.446   2.216   7.686 -0.8489  0.8631  2.1535
 1204SOL     OW15073   4.437   3.442   4.726 -0.0449 -0.0202 -0.7096
 1204SOL    HW115074   4.450   3.533   4.753  1.4927 -0.7497  1.0202
 1204SOL    HW215075   4.514   3.401   4.764 -0.9964 -0.5265  0.6538
 1205SOL     OW15076   0.232   1.041   1.136  0.7513 -0.1633 -0.1192
 1205SOL    HW115077   0.270   1.055   1.049  2.6238 -0.7998  0.6144
 1205SOL    HW215078   0.196   0.953   1.130 -0.0762  0.3134 -2.1071
 1206SOL     OW15079   0.099   1.708  15.896  0.4962 -0.0333 -0.5220
 1206SOL    HW115080   0.087   1.753  15.812  0.0648  0.0874 -0.3919
 1206SOL    HW215081   0.134   1.781  15.947 -0.0952  0.3838 -0.7176
 1207SOL     OW15082   1.908   0.479  15.991  0.0085 -0.0053  0.4720
 1207SOL    HW115083   1.894   0.384  15.989  1.7488 -0.2790  1.3963
 1207SOL    HW215084   1.832   0.495  15.936 -1.0383 -1.4858  1.4745
 1208SOL     OW15085   4.005   0.181   0.707 -0.5472  0.5835  0.0543
 1208SOL    HW115086   4.010   0.267   0.750  0.3936  1.4867 -1.8427
 1208SOL    HW215087   3.922   0.142   0.732 -1.2621  2.8882  1.3005
 1209SOL     OW15088   3.941   1.382  10.584 -0.2182 -0.1659  0.0722
 1209SOL    HW115089   3.991   1.463  10.593  2.2063 -1.4462 -1.9896
 1209SOL    HW215090   4.008   1.313  10.578  0.0267  0.1779 -1.1807
 1210SOL     OW15091   2.701   1.976   8.241  0.2400 -0.0594 -0.5400
 1210SOL    HW115092   2.796   1.989   8.248 -0.1214  1.8633  0.6104
 1210SOL    HW215093   2.689   1.919   8.165  2.6207  0.4914 -1.3122
 1211SOL     OW15094   1.013   3.434   3.596 -0.3383 -0.0327 -0.1845
 1211SOL    HW115095   0.972   3.363   3.548  1.9933  0.1266 -2.4525
 1211SOL    HW215096   1.103   3.404   3.610 -0.5615 -0.1711  0.8839
 1212SOL     OW15097   1.825   2.295   6.453  0.0020 -0.4221 -0.1229
 1212SOL    HW115098   1.917   2.291   6.477 -0.2081  1.8799  1.0822
 1212SOL    HW215099   1.828   2.343   6.370 -2.5860 -2.5044 -1.4240
 1213SOL     OW15100   0.084   0.051   2.741  0.0221  0.1244 -0.0009
 1213SOL    HW115101   0.105   4.710   2.677 -0.2802 -1.7127  1.8240
 1213SOL    HW215102   0.170   0.091   2.751 -0.3479  0.8063  0.5012
 1214SOL     OW15103   2.058   0.894   4.239  0.1396 -0.3501  0.0343
 1214SOL    HW115104   2.015   0.906   4.154 -0.8606 -2.6631  0.2369
 1214SOL    HW215105   2.051   0.799   4.245 -0.1505 -0.5481 -3.2941
 1215SOL     OW15106   0.199   1.790   2.710  0.1232 -0.0552  0.4078
 1215SOL    HW115107   0.249   1.807   2.790 -1.7749 -0.7455  1.7208
 1215SOL    HW215108   0.126   1.740   2.744 -1.2857 -0.3100 -2.9641
 1216SOL     OW15109   0.924   1.168   4.606 -0.2990  0.1731 -0.9537
 1216SOL    HW115110   0.887   1.147   4.693  1.4731  1.9677  0.2168
 1216SOL    HW215111   0.882   1.104   4.549 -1.9372 -0.8151  1.3461
 1217SOL     OW15112   2.315   3.947   3.057 -0.8496  0.1728  0.1626
 1217SOL    HW115113   2.223   3.969   3.042 -1.2696 -1.4317  0.3937
 1217SOL    HW215114   2.349   3.962   2.969 -1.4894 -2.5215 -0.5528
 1218SOL     OW15115   1.707   2.589   3.683  0.7025 -0.0552 -0.5721
 1218SOL    HW115116   1.618   2.563   3.662  0.1657  0.1022  1.5119
 1218SOL    HW215117   1.736   2.592   3.592  0.6720  1.2321 -0.5333
 1219SOL     OW15118   3.923   1.787   5.372 -0.2410  0.4483  0.3375
 1219SOL    HW115119   3.955   1.821   5.456 -0.3796  0.4913  0.3727
 1219SOL    HW215120   3.832   1.761   5.386  0.0821 -1.4232 -1.1365
 1220SOL     OW15121   4.182   2.085   7.846 -0.1759 -0.1258 -0.6404
 1220SOL    HW115122   4.190   2.142   7.922 -0.2047  0.8373 -1.3551
 1220SOL    HW215123   4.131   2.139   7.785  0.1306  2.2657  1.2281
 1221SOL     OW15124   2.466   3.918  17.123  0.0521  0.0387 -0.2727
 1221SOL    HW115125   2.535   3.861  17.157  0.1584  0.6116  0.4557
 1221SOL    HW215126   2.505   4.004  17.140 -1.0709  0.6602 -0.7876
 1222SOL     OW15127   3.591   3.791   5.877 -0.4958  0.4096  0.2620
 1222SOL    HW115128   3.686   3.800   5.870 -0.2422 -1.0412  1.8660
 1222SOL    HW215129   3.566   3.863   5.935 -0.8654  1.3060 -1.0070
 1223SOL     OW15130   1.005   1.548   2.144  0.1108 -0.9970 -0.0660
 1223SOL    HW115131   1.071   1.601   2.188  0.3447 -0.2798 -1.2935
 1223SOL    HW215132   0.950   1.617   2.107 -0.1028  0.1898  2.4570
 1224SOL     OW15133   3.050   4.434   2.706  0.4567 -0.0043  0.0497
 1224SOL    HW115134   3.144   4.417   2.703  0.7257  1.2200  1.4896
 1224SOL    HW215135   3.026   4.346   2.733 -0.8423  0.7485  1.3568
 1225SOL     OW15136   0.287   0.845   3.645 -0.2749 -0.0311  0.0501
 1225SOL    HW115137   0.327   0.813   3.726  0.2217  1.6074  0.4455
 1225SOL    HW215138   0.236   0.919   3.677 -0.6084  0.4173 -1.5153
 1226SOL     OW15139   3.703   1.743  11.500  0.1871 -0.4379  0.8429
 1226SOL    HW115140   3.620   1.746  11.548 -0.9939 -1.3324 -1.1382
 1226SOL    HW215141   3.701   1.666  11.443  3.8600 -0.3554  0.6073
 1227SOL     OW15142   1.325   1.442   6.126 -0.0108  0.0209  0.0578
 1227SOL    HW115143   1.279   1.514   6.169 -3.2172 -0.5211 -2.4911
 1227SOL    HW215144   1.401   1.491   6.093 -0.6134  0.8774 -0.0306
 1228SOL     OW15145   1.778   1.883  17.384 -0.0258  0.1267 -0.1418
 1228SOL    HW115146   1.699   1.937  17.386 -0.0742  0.0094  1.0032
 1228SOL    HW215147   1.841   1.937  17.335  0.4311 -1.3439 -1.1500
 1229SOL     OW15148   1.500   0.283   3.866  0.5311 -0.0165 -0.4438
 1229SOL    HW115149   1.561   0.342   3.910 -0.6943 -0.1834  1.4850
 1229SOL    HW215150   1.462   0.231   3.937  0.7991 -0.8286 -0.9011
 1230SOL     OW15151   4.490   4.596   5.953 -0.8407  0.0937 -0.0839
 1230SOL    HW115152   4.467   4.503   5.943 -1.1008 -0.0625  1.9526
 1230SOL    HW215153   4.569   4.592   5.900 -1.6730  1.0196 -1.3766
 1231SOL     OW15154   0.387   0.360   8.316 -0.1754 -0.5704 -0.3436
 1231SOL    HW115155   0.315   0.423   8.307  2.1781  2.2228  0.2117
 1231SOL    HW215156   0.381   0.313   8.233 -1.1014 -1.8183  0.4368
 1232SOL     OW15157   4.497   1.569  10.414  0.6681 -0.0588 -0.3960
 1232SOL    HW115158   4.451   1.577  10.331 -1.0342  1.0331  0.6445
 1232SOL    HW215159   4.463   1.484  10.443  3.3744 -1.4368 -1.2354
 1233SOL     OW15160   2.833   1.770   7.391  0.0065 -0.4279  0.4674
 1233SOL    HW115161   2.824   1.795   7.483 -0.4090  0.0904  0.2899
 1233SOL    HW215162   2.913   1.814   7.364 -0.2308 -1.3967 -1.8188
 1234SOL     OW15163   2.808   3.179   2.598 -0.0743  0.0800  0.5077
 1234SOL    HW115164   2.808   3.153   2.506  2.7831  1.1258  0.2209
 1234SOL    HW215165   2.715   3.199   2.613  0.0201 -0.1087  1.3454
 1235SOL     OW15166   0.547   4.603   6.333  0.5447 -0.0721 -0.1357
 1235SOL    HW115167   0.519   4.512   6.327  0.4351 -0.2183  2.5337
 1235SOL    HW215168   0.498   4.640   6.259  1.0131  0.3283 -0.2494
 1236SOL     OW15169   4.360   3.986   2.673 -0.1326 -0.6808  0.1543
 1236SOL    HW115170   4.430   3.938   2.717 -1.2837 -0.9367  1.6999
 1236SOL    HW215171   4.355   4.062   2.732 -0.5450 -0.4190 -0.2101
 1237SOL     OW15172   0.165   2.912   4.157  0.1802 -0.2974 -0.0105
 1237SOL    HW115173   0.251   2.937   4.191 -0.2664  2.2155 -0.7278
 1237SOL    HW215174   0.104   2.926   4.229  2.6182 -0.5227  2.1219
 1238SOL     OW15175   4.577   4.482   2.406  0.4238 -0.0478 -0.3925
 1238SOL    HW115176   4.590   4.405   2.350  0.6417  0.1207 -0.5714
 1238SOL    HW215177   4.483   4.490   2.391  0.6386  0.8978 -1.2555
 1239SOL     OW15178   3.307   3.261  10.050 -0.4409  0.4674 -0.4408
 1239SOL    HW115179   3.269   3.221   9.972 -2.9683  0.6214  0.7111
 1239SOL    HW215180   3.230   3.277  10.103  0.4458  0.9201  0.7135
 1240SOL     OW15181   1.397   2.067   8.019 -0.1098  0.4761  0.1299
 1240SOL    HW115182   1.396   2.002   8.090 -0.9585  1.7332  1.2756
 1240SOL    HW215183   1.449   2.142   8.046 -0.3343 -0.3777  2.9442
 1241SOL     OW15184   0.323   3.833   7.613  0.4891 -0.5334  0.3049
 1241SOL    HW115185   0.386   3.893   7.574  0.6570  0.7248  2.5363
 1241SOL    HW215186   0.264   3.805   7.542 -2.0161  1.0875  1.7423
 1242SOL     OW15187   2.418   0.093   7.857  0.0090 -0.5902  0.6839
 1242SOL    HW115188   2.499   0.118   7.814 -0.0995  0.5646  1.1516
 1242SOL    HW215189   2.437   0.120   7.946 -0.1231  1.1688  0.1823
 1243SOL     OW15190   4.274   0.160   5.847 -0.5077  0.5493 -0.4076
 1243SOL    HW115191   4.290   0.152   5.753  1.2183  0.9344 -0.1503
 1243SOL    HW215192   4.179   0.162   5.859 -0.3972  1.4028  0.2478
 1244SOL     OW15193   3.427   4.494   9.280 -0.6655  0.4316 -0.5742
 1244SOL    HW115194   3.368   4.567   9.263 -1.7615 -0.3626 -0.2419
 1244SOL    HW215195   3.382   4.438   9.344  1.8357  1.7987  2.3512
 1245SOL     OW15196   2.739   4.277   7.762 -0.4207  0.2756 -0.0694
 1245SOL    HW115197   2.736   4.361   7.807  0.1248  1.0879 -1.5402
 1245SOL    HW215198   2.687   4.223   7.821  2.4297 -1.2315  1.0562
 1246SOL     OW15199   4.353   2.329   0.791  0.1113 -0.0804  0.6874
 1246SOL    HW115200   4.428   2.286   0.832 -0.8393  0.5148  3.0722
 1246SOL    HW215201   4.399   2.402   0.750  0.8020 -0.4808  0.7555
 1247SOL     OW15202   1.287   3.423  14.140 -0.1752 -0.3215 -0.1291
 1247SOL    HW115203   1.271   3.332  14.114  0.4316 -0.7859  1.0960
 1247SOL    HW215204   1.350   3.403  14.210 -1.0733  0.5995  0.9412
 1248SOL     OW15205   2.982   3.596   1.287 -0.4836  0.0364 -0.9422
 1248SOL    HW115206   2.960   3.506   1.262  0.2450 -0.9364  2.0150
 1248SOL    HW215207   2.935   3.641   1.217 -0.7735 -2.1478 -2.1672
 1249SOL     OW15208   0.714   2.497   7.716 -0.0455  0.4275 -0.3571
 1249SOL    HW115209   0.735   2.507   7.809  1.6162 -0.2536 -0.6561
 1249SOL    HW215210   0.789   2.453   7.677 -2.0400 -4.4794  1.2882
 1250SOL     OW15211   3.608   2.415   7.965 -0.0954  0.1926  0.3889
 1250SOL    HW115212   3.695   2.419   7.924 -0.9707 -2.2888 -1.7219
 1250SOL    HW215213   3.613   2.324   7.992  1.0573  0.5945  1.5524
 1251SOL     OW15214   0.024   1.125   3.839  0.0692  0.1069 -0.4030
 1251SOL    HW115215   4.694   1.112   3.762 -0.1602 -1.3981  0.0114
 1251SOL    HW215216   0.098   1.174   3.805 -0.1828  0.4199 -0.4972
 1252SOL     OW15217   0.415   2.890  13.518  0.0869 -0.4537  0.3737
 1252SOL    HW115218   0.331   2.895  13.473 -0.1196  0.4584  0.8451
 1252SOL    HW215219   0.447   2.811  13.475  1.5624  0.1344  0.3821
 1253SOL     OW15220   2.840   1.581   7.180 -0.1712 -0.1454 -0.4591
 1253SOL    HW115221   2.919   1.613   7.224 -0.5243  1.3948 -0.9673
 1253SOL    HW215222   2.770   1.587   7.246 -1.8693  0.7230 -2.3629
 1254SOL     OW15223   3.518   1.603   8.550 -0.3176 -0.5103 -0.3642
 1254SOL    HW115224   3.529   1.590   8.644  2.1766 -0.4472 -0.6536
 1254SOL    HW215225   3.536   1.696   8.540  0.8540 -0.4554  2.2478
 1255SOL     OW15226   1.077   2.116   4.830 -0.1380 -0.5848 -0.0634
 1255SOL    HW115227   1.104   2.065   4.907  0.4291  4.0748  2.8178
 1255SOL    HW215228   1.043   2.194   4.875  0.8215 -1.0875  1.5598
 1256SOL     OW15229   3.297   2.148   5.874  0.5617  0.0864 -0.1962
 1256SOL    HW115230   3.350   2.192   5.808 -0.0522  0.4466 -0.4567
 1256SOL    HW215231   3.334   2.195   5.949  0.3305 -1.8217  1.1329
 1257SOL     OW15232   0.624   1.376   1.644  0.2611 -0.5338 -0.2787
 1257SOL    HW115233   0.684   1.303   1.658  1.0156  0.2207  0.3664
 1257SOL    HW215234   0.631   1.413   1.732  1.2349 -0.0566 -0.5593
 1258SOL     OW15235   4.354   1.260   9.206 -0.6808 -0.4391  0.0495
 1258SOL    HW115236   4.355   1.190   9.271  2.1903 -0.6406 -0.2030
 1258SOL    HW215237   4.357   1.208   9.125 -1.1628 -0.9067  0.3278
 1259SOL     OW15238   3.125   2.821   6.661 -0.0613 -0.0992  0.6079
 1259SOL    HW115239   3.149   2.896   6.716  0.3326  0.3120 -0.1365
 1259SOL    HW215240   3.029   2.821   6.668 -0.3359  2.6638 -3.7011
 1260SOL     OW15241   2.424   1.740   5.115 -0.0546 -0.1427  0.5181
 1260SOL    HW115242   2.458   1.753   5.026 -0.1301 -2.0966  0.2035
 1260SOL    HW215243   2.342   1.698   5.089  1.4520 -0.5621 -3.5012
 1261SOL     OW15244   0.098   1.458   8.005 -0.4037  0.0660  0.0400
 1261SOL    HW115245   0.094   1.398   8.080 -1.0351 -1.7277 -1.4133
 1261SOL    HW215246   0.013   1.501   8.012  0.0336  0.7820  0.8116
 1262SOL     OW15247   4.033   2.330   7.480  0.2767  0.6368  0.0292
 1262SOL    HW115248   4.072   2.243   7.468 -1.2626  0.1441 -1.4399
 1262SOL    HW215249   4.018   2.329   7.574  1.5935 -2.7633  0.2107
 1263SOL     OW15250   1.795   4.296  13.237  0.0645 -0.2871 -0.1786
 1263SOL    HW115251   1.800   4.206  13.270  0.3420  0.1537  0.9689
 1263SOL    HW215252   1.884   4.305  13.202 -0.2590 -2.4196 -1.5829
 1264SOL     OW15253   1.929   4.515   6.813  0.0484 -0.6995  0.2551
 1264SOL    HW115254   1.963   4.589   6.863  0.5410 -1.1097  0.5225
 1264SOL    HW215255   1.942   4.445   6.877  0.4329  1.0530  2.1102
 1265SOL     OW15256   2.665   2.817  10.063 -0.2824 -0.1687  0.2257
 1265SOL    HW115257   2.627   2.851   9.982  0.0931  0.9502  0.5131
 1265SOL    HW215258   2.627   2.866  10.136  2.8300  1.4357  0.7672
 1266SOL     OW15259   0.053   1.749   9.461 -0.3729 -0.0691 -0.2413
 1266SOL    HW115260   0.010   1.766   9.545  0.9467  1.0952  0.2031
 1266SOL    HW215261   0.137   1.709   9.483 -0.3994 -0.0626 -0.1310
 1267SOL     OW15262   2.676   2.618   7.875  0.3394  0.0120 -0.2674
 1267SOL    HW115263   2.614   2.687   7.853 -1.1859 -1.3403 -0.1847
 1267SOL    HW215264   2.755   2.663   7.905  0.3954  0.1592 -0.6382
 1268SOL     OW15265   2.871   4.485   3.547  0.0935  0.3098 -0.5444
 1268SOL    HW115266   2.789   4.436   3.538  2.0407 -2.6959 -1.6191
 1268SOL    HW215267   2.851   4.574   3.516  2.1878  0.2113 -2.1871
 1269SOL     OW15268   4.439   0.009   6.370  0.2242 -0.3379  0.5551
 1269SOL    HW115269   4.448   0.067   6.295  1.0690  0.3902  1.2277
 1269SOL    HW215270   4.348   0.030   6.388 -0.1939 -2.1224  0.5448
 1270SOL     OW15271   0.347   0.682   1.071 -0.2432 -0.5991 -0.1209
 1270SOL    HW115272   0.318   0.627   0.998 -2.6489  0.1572  0.2655
 1270SOL    HW215273   0.399   0.747   1.024 -2.2661  1.7473  0.8795
 1271SOL     OW15274   3.578   2.440   1.249 -0.0322 -0.4780 -0.1282
 1271SOL    HW115275   3.487   2.435   1.278 -1.1292  0.2031 -3.4685
 1271SOL    HW215276   3.590   2.522   1.202  1.9535 -0.3933  0.5287
 1272SOL     OW15277   3.588   0.590  14.505 -0.4870  0.0807 -0.1865
 1272SOL    HW115278   3.587   0.511  14.450  1.4767  0.0637 -0.1897
 1272SOL    HW215279   3.604   0.547  14.588  2.4551  1.9260  0.2170
 1273SOL     OW15280   0.690   1.726  14.902  0.3284 -0.2576  0.9462
 1273SOL    HW115281   0.599   1.746  14.878  0.9124 -0.2600 -1.3097
 1273SOL    HW215282   0.676   1.786  14.975 -1.1182  0.2805  0.2251
 1274SOL     OW15283   0.272   4.226  15.124  0.4333  0.5815  0.3128
 1274SOL    HW115284   0.312   4.141  15.105 -0.1370  0.8319 -2.0644
 1274SOL    HW215285   0.182   4.219  15.091  0.8324 -0.9570 -0.4554
 1275SOL     OW15286   2.038   3.512   3.321 -0.0453  0.0679  0.5478
 1275SOL    HW115287   2.102   3.489   3.253 -0.3196 -0.1068  0.3461
 1275SOL    HW215288   2.069   3.602   3.333  0.4083 -0.1216  0.7811
 1276SOL     OW15289   3.383   3.851   3.554 -0.0111 -0.2952  0.0167
 1276SOL    HW115290   3.341   3.892   3.629  1.4568  0.1853  0.5870
 1276SOL    HW215291   3.475   3.873   3.569  0.3149 -0.9010 -1.1209
 1277SOL     OW15292   1.449   3.676  13.342 -0.1354  0.1063 -0.3967
 1277SOL    HW115293   1.477   3.616  13.411  1.2326 -0.8080 -1.7472
 1277SOL    HW215294   1.393   3.739  13.387  1.3451  0.7975  0.4795
 1278SOL     OW15295   1.562   3.996   5.279  0.4084  0.4967 -0.6086
 1278SOL    HW115296   1.615   3.931   5.326  1.3411  0.8843 -1.1317
 1278SOL    HW215297   1.605   3.994   5.194 -1.1040  0.0269 -1.3616
 1279SOL     OW15298   0.001   4.537  11.877 -0.1792  0.0328 -0.0542
 1279SOL    HW115299   0.056   4.462  11.853 -0.5225  0.3618 -1.8195
 1279SOL    HW215300   0.013   4.518  11.971  1.8404  2.5063  0.2016
 1280SOL     OW15301   3.835   2.015   7.007  0.4242  0.6043  0.0049
 1280SOL    HW115302   3.740   2.024   7.013  0.5709  2.2642 -0.1662
 1280SOL    HW215303   3.838   1.964   6.926 -0.0097  0.3356  0.1586
 1281SOL     OW15304   3.140   2.867   4.217  0.6598 -0.2482 -0.6893
 1281SOL    HW115305   3.125   2.813   4.294 -5.2969 -0.4344 -1.9795
 1281SOL    HW215306   3.141   2.795   4.154 -0.6154 -0.7613 -0.1042
 1282SOL     OW15307   0.811   0.949  13.669  1.0476 -0.0297  0.0377
 1282SOL    HW115308   0.778   1.038  13.657  2.1628  0.5401  1.2105
 1282SOL    HW215309   0.870   0.933  13.596 -0.7214 -1.4838 -1.0818
 1283SOL     OW15310   2.426   2.947  13.425 -0.7726 -0.4222  0.3611
 1283SOL    HW115311   2.376   3.029  13.430  0.5971  0.4739 -0.5602
 1283SOL    HW215312   2.514   2.980  13.443 -0.7469 -0.8081  0.9486
 1284SOL     OW15313   2.626   4.411   3.563  0.3367 -0.1815 -0.3324
 1284SOL    HW115314   2.607   4.318   3.578 -1.9463  0.0269 -1.8720
 1284SOL    HW215315   2.570   4.424   3.487  1.8071 -0.7571 -1.5149
 1285SOL     OW15316   3.229   3.901   3.761  0.5476 -0.0076 -0.3657
 1285SOL    HW115317   3.151   3.937   3.719  0.7377  0.2845 -0.4706
 1285SOL    HW215318   3.188   3.829   3.808 -1.6388  0.7103 -1.1873
 1286SOL     OW15319   0.935   3.245   5.948 -0.7474 -0.4270 -0.0716
 1286SOL    HW115320   0.858   3.261   5.894 -0.1002 -1.4824 -1.2841
 1286SOL    HW215321   0.990   3.184   5.899  0.1453 -0.6111  1.1324
 1287SOL     OW15322   4.287   4.310  13.744  0.3515  0.4844 -0.1578
 1287SOL    HW115323   4.235   4.232  13.762  1.4420 -0.3679 -0.6602
 1287SOL    HW215324   4.336   4.283  13.666 -1.4102 -0.3944 -0.9481
 1288SOL     OW15325   3.514   0.332   7.261  0.0633 -0.0284  0.2382
 1288SOL    HW115326   3.540   0.247   7.299 -1.2239 -0.5638 -0.1060
 1288SOL    HW215327   3.573   0.339   7.186 -1.1124  0.1109 -0.6655
 1289SOL     OW15328   1.798   1.970  16.514 -0.6222  0.2895 -0.3484
 1289SOL    HW115329   1.848   2.000  16.589  3.5254 -1.8209 -2.2699
 1289SOL    HW215330   1.761   1.887  16.543 -2.4117  1.2554  0.1179
 1290SOL     OW15331   4.662   1.716   9.730  0.1289 -0.5678  0.3102
 1290SOL    HW115332   4.697   1.628   9.739  1.5057  0.2479  2.9433
 1290SOL    HW215333   4.616   1.717   9.814 -2.8182 -1.3733 -1.3049
 1291SOL     OW15334   4.004   2.864   6.504 -0.1508  0.0672  0.4380
 1291SOL    HW115335   3.974   2.925   6.437  0.0109 -0.4698 -0.1195
 1291SOL    HW215336   3.943   2.790   6.501 -1.3570  1.0938 -0.8707
 1292SOL     OW15337   0.964   4.495  12.517 -0.1259  0.0664 -0.2008
 1292SOL    HW115338   1.042   4.533  12.477  1.2699 -1.9639  0.5297
 1292SOL    HW215339   0.946   4.561  12.584  0.8131  1.5765 -1.4637
 1293SOL     OW15340   3.704   0.303  10.391  0.0014 -0.0995  0.1806
 1293SOL    HW115341   3.635   0.339  10.448 -1.7318 -1.2554 -1.2016
 1293SOL    HW215342   3.734   0.383  10.348  0.9278 -0.3634  0.3378
 1294SOL     OW15343   2.975   0.826   2.504 -1.0355  0.5102 -0.5261
 1294SOL    HW115344   3.004   0.888   2.571 -1.0156  0.2081 -0.2518
 1294SOL    HW215345   2.891   0.859   2.472 -1.5965 -0.4411 -0.0567
 1295SOL     OW15346   3.018   1.226   3.456 -0.1678 -0.0916 -0.0129
 1295SOL    HW115347   2.957   1.153   3.446 -1.0269  0.3191  2.3608
 1295SOL    HW215348   2.961   1.281   3.508 -0.0668  0.2917 -0.3084
 1296SOL     OW15349   0.250   0.785  16.006 -0.6432  0.4493  0.3279
 1296SOL    HW115350   0.266   0.818  16.095  2.8522  0.2452 -0.1977
 1296SOL    HW215351   0.249   0.690  16.017  0.3803  0.2058 -1.7350
 1297SOL     OW15352   3.899   2.647  14.290  0.6159 -0.5319 -0.6984
 1297SOL    HW115353   3.908   2.734  14.328 -0.5247  0.3522 -2.4381
 1297SOL    HW215354   3.960   2.595  14.343  0.8841 -0.6838 -1.1547
 1298SOL     OW15355   0.623   0.815   0.952 -0.3112  0.1118  0.6293
 1298SOL    HW115356   0.607   0.728   0.917  0.7893 -0.0733  0.5991
 1298SOL    HW215357   0.715   0.829   0.931 -0.4112 -2.0961 -1.2728
 1299SOL     OW15358   0.575   0.248   1.449 -0.1602  0.6664  0.3479
 1299SOL    HW115359   0.485   0.245   1.418 -0.3463 -0.5912  1.0027
 1299SOL    HW215360   0.629   0.266   1.372  2.5876 -0.2896  2.0359
 1300SOL     OW15361   2.034   2.024  11.077 -0.1665 -0.1687 -0.0191
 1300SOL    HW115362   2.085   2.042  10.999  4.3585 -1.6656  2.6065
 1300SOL    HW215363   2.012   2.113  11.104  1.0027  0.5024 -1.2719
 1301SOL     OW15364   0.838   4.507   9.632  0.4907  0.2833 -0.9729
 1301SOL    HW115365   0.927   4.479   9.612  0.0891 -0.9765 -0.9480
 1301SOL    HW215366   0.797   4.431   9.673  0.3595  0.3598 -0.9604
 1302SOL     OW15367   4.591   1.979   6.745 -0.0197 -0.7533  0.0851
 1302SOL    HW115368   4.580   1.889   6.776 -0.0391 -0.3530  1.2481
 1302SOL    HW215369   4.656   2.005   6.810  0.0832  1.0863 -0.7249
 1303SOL     OW15370   4.615   3.188   1.972  0.2081 -0.1408 -0.1608
 1303SOL    HW115371   4.690   3.134   1.949  0.0567 -0.0240 -0.9484
 1303SOL    HW215372   4.639   3.269   1.925 -0.0837 -0.4723 -0.8862
 1304SOL     OW15373   1.011   0.314   8.817 -0.1240 -0.3176 -0.1446
 1304SOL    HW115374   0.951   0.241   8.830 -2.1721  1.7445  2.1356
 1304SOL    HW215375   1.096   0.270   8.808  0.2346  0.4317 -0.5053
 1305SOL     OW15376   2.214   3.856   8.004 -0.1904  0.0081  0.6417
 1305SOL    HW115377   2.190   3.873   7.913  0.6769  2.3281  0.8370
 1305SOL    HW215378   2.137   3.880   8.054 -0.9514  1.2012 -1.1080
 1306SOL     OW15379   4.064   2.132   6.969 -0.1805 -0.1319  0.6424
 1306SOL    HW115380   3.988   2.074   6.981 -0.8828  0.7871  0.6808
 1306SOL    HW215381   4.129   2.082   7.017  1.0525  0.3821 -0.4959
 1307SOL     OW15382   4.600   1.144   3.583 -0.0363  0.7803  0.1874
 1307SOL    HW115383   4.550   1.076   3.629  1.1181  0.9446  1.6602
 1307SOL    HW215384   4.532   1.193   3.537 -0.8984 -0.7919 -0.2154
 1308SOL     OW15385   0.353   3.019   3.016  0.3927  0.3597 -0.5373
 1308SOL    HW115386   0.366   2.972   2.934 -2.3489 -0.5867 -0.4163
 1308SOL    HW215387   0.369   2.951   3.081  1.4964  1.7313  0.6284
 1309SOL     OW15388   2.716   2.069   3.170 -0.1240  0.4258  0.1969
 1309SOL    HW115389   2.808   2.055   3.150 -0.1501 -1.6202  1.5340
 1309SOL    HW215390   2.668   2.017   3.107 -0.7932  1.0256  0.2060
 1310SOL     OW15391   4.114   2.125   6.389 -0.3173 -0.0464  0.0899
 1310SOL    HW115392   4.090   2.170   6.308 -1.0870  2.6921  1.8434
 1310SOL    HW215393   4.027   2.106   6.424  0.5094  0.4707  2.4124
 1311SOL     OW15394   0.058   4.377  12.678  0.2974  0.1713  0.1812
 1311SOL    HW115395   0.104   4.408  12.756 -0.4357 -0.5810  0.9196
 1311SOL    HW215396   0.131   4.382  12.617 -2.5918 -1.4401 -3.3930
 1312SOL     OW15397   2.732   4.612   7.716  0.3325  0.6778  0.3693
 1312SOL    HW115398   2.814   4.600   7.764 -0.4844 -2.3914  0.9850
 1312SOL    HW215399   2.671   4.605   7.790  2.1940  0.6897  1.9187
 1313SOL     OW15400   2.110   4.465   6.261 -0.0110 -0.3026 -0.0245
 1313SOL    HW115401   2.091   4.521   6.336 -1.0789  0.6217 -0.9770
 1313SOL    HW215402   2.205   4.469   6.253 -0.4424 -0.5046 -5.3167
 1314SOL     OW15403   1.539   1.858   9.510  0.5734 -0.0329 -0.0137
 1314SOL    HW115404   1.618   1.847   9.564 -0.8806 -0.9833  1.8927
 1314SOL    HW215405   1.565   1.932   9.454  0.3731  0.4052  0.4665
 1315SOL     OW15406   0.115   3.033  12.457 -0.1607  0.1869 -0.3111
 1315SOL    HW115407   0.079   3.050  12.544  0.4503 -0.4091  0.0654
 1315SOL    HW215408   0.189   3.095  12.459 -0.4532  0.5955 -2.6493
 1316SOL     OW15409   0.152   1.167  13.786  0.5632  0.3411 -0.3607
 1316SOL    HW115410   0.217   1.100  13.808 -1.7619 -0.9084  2.6856
 1316SOL    HW215411   0.202   1.234  13.739  1.7524  0.7155  1.4571
 1317SOL     OW15412   2.007   3.685   9.487 -0.1541  0.6486 -0.0169
 1317SOL    HW115413   1.996   3.591   9.498 -0.7883  0.9879  2.3756
 1317SOL    HW215414   1.923   3.727   9.508 -2.2454 -2.7216 -1.6560
 1318SOL     OW15415   3.725   0.999  10.625  0.3994 -0.4632 -0.1929
 1318SOL    HW115416   3.793   0.988  10.692  1.5134 -1.4125 -1.4873
 1318SOL    HW215417   3.713   1.094  10.628  2.2352 -0.2205 -0.4363
 1319SOL     OW15418   1.834   1.939   4.449  0.1163  0.6102  0.1622
 1319SOL    HW115419   1.820   1.946   4.544  0.0450  2.2641  0.0400
 1319SOL    HW215420   1.928   1.926   4.448  0.2669  1.7770 -1.1461
 1320SOL     OW15421   0.419   0.804   7.835  0.2970  0.3899 -0.0193
 1320SOL    HW115422   0.335   0.822   7.878 -0.5027 -0.6091 -1.1594
 1320SOL    HW215423   0.455   0.893   7.836 -0.3168  0.6522 -0.6989
 1321SOL     OW15424   1.983   1.957   9.023  0.3722  0.1201 -0.2352
 1321SOL    HW115425   2.044   1.913   8.964 -0.8748  0.1780 -1.5485
 1321SOL    HW215426   2.029   2.041   9.028  2.1113 -0.8536  0.1655
 1322SOL     OW15427   1.868   2.894   5.136  0.9071 -0.5712  0.3861
 1322SOL    HW115428   1.790   2.875   5.085  1.4067 -0.6367 -0.3619
 1322SOL    HW215429   1.919   2.937   5.067  1.1257 -1.7232 -0.1811
 1323SOL     OW15430   2.052   1.204   0.192 -0.1166 -0.7167  0.1942
 1323SOL    HW115431   2.116   1.153   0.143 -0.0277  1.0298 -1.5021
 1323SOL    HW215432   2.012   1.258   0.123 -0.6970 -1.1602  0.1836
 1324SOL     OW15433   2.384   0.410  15.896  0.7083 -0.2010 -0.5707
 1324SOL    HW115434   2.328   0.344  15.937 -0.1454  1.5797  1.0840
 1324SOL    HW215435   2.341   0.487  15.934 -1.1429 -1.3252 -0.3646
 1325SOL     OW15436   1.368   4.076  14.656  0.1709 -0.0905  0.4731
 1325SOL    HW115437   1.447   4.125  14.677  0.3546 -1.2493  2.5391
 1325SOL    HW215438   1.373   3.998  14.711  0.5858 -0.8047 -0.5911
 1326SOL     OW15439   3.395   1.940   4.160  0.5104  1.1758  0.0541
 1326SOL    HW115440   3.346   1.864   4.127  1.7115 -0.0745  1.1107
 1326SOL    HW215441   3.316   1.991   4.176  0.0847  0.9282 -1.3038
 1327SOL     OW15442   1.976   3.513  13.438  0.6687 -0.2893  0.0423
 1327SOL    HW115443   2.051   3.558  13.477 -0.4440  0.5853  1.1500
 1327SOL    HW215444   2.026   3.448  13.388  0.8236 -1.4237  1.6779
 1328SOL     OW15445   4.206   4.322   6.629 -0.0678  0.1735  0.2719
 1328SOL    HW115446   4.115   4.351   6.626 -0.2945 -0.3507  1.7663
 1328SOL    HW215447   4.252   4.396   6.589 -0.7688  1.0216  1.0274
 1329SOL     OW15448   2.835   0.052   3.732 -0.0922 -0.0206 -0.0200
 1329SOL    HW115449   2.791   4.694   3.741 -0.5812  0.0783 -1.4796
 1329SOL    HW215450   2.881   0.043   3.648  0.4870 -0.0173  0.2979
 1330SOL     OW15451   3.518   2.801   0.881 -0.7211 -0.0373 -0.8099
 1330SOL    HW115452   3.585   2.733   0.888  2.0539  2.7324 -0.1417
 1330SOL    HW215453   3.489   2.770   0.795  0.5351 -1.0605 -0.8719
 1331SOL     OW15454   1.220   1.326   8.847 -0.6962  0.2026  0.0789
 1331SOL    HW115455   1.289   1.384   8.815  0.3928 -2.2471 -2.1023
 1331SOL    HW215456   1.193   1.283   8.765 -1.4661 -0.5577  0.7399
 1332SOL     OW15457   2.893   4.636  12.880  0.2112 -0.8939 -0.1399
 1332SOL    HW115458   2.832   4.705  12.907  1.2150 -0.2191  0.4120
 1332SOL    HW215459   2.844   4.579  12.821 -1.3325  0.0882  0.1807
 1333SOL     OW15460   3.979   2.785   3.902  0.1139  0.0649 -0.5024
 1333SOL    HW115461   4.018   2.770   3.816 -2.6468 -0.2510 -1.6915
 1333SOL    HW215462   3.894   2.742   3.894  0.3058 -0.9638  2.8700
 1334SOL     OW15463   4.238   2.779   8.256  0.0706  0.2401  0.2761
 1334SOL    HW115464   4.219   2.740   8.341 -1.4615 -0.6419 -0.4721
 1334SOL    HW215465   4.217   2.709   8.194 -0.1605  1.8971 -1.5239
 1335SOL     OW15466   0.313   1.086  15.983  0.5656  0.0779  0.2901
 1335SOL    HW115467   0.347   0.996  15.984 -2.0627 -0.9407 -2.1766
 1335SOL    HW215468   0.353   1.125  15.905 -0.9096  0.9434 -0.0310
 1336SOL     OW15469   2.459   0.536  16.783 -0.2236 -0.1838  0.6736
 1336SOL    HW115470   2.390   0.564  16.843 -0.7428  1.3294 -0.6218
 1336SOL    HW215471   2.521   0.609  16.793 -1.7431  1.0561  1.0896
 1337SOL     OW15472   0.330   1.283   7.307 -0.2077 -0.2444 -0.4747
 1337SOL    HW115473   0.287   1.314   7.228 -1.7700 -2.1774 -0.3892
 1337SOL    HW215474   0.276   1.327   7.373 -2.4566 -2.0903 -1.0941
 1338SOL     OW15475   3.361   4.299   0.103  0.1179 -0.0848 -0.3918
 1338SOL    HW115476   3.405   4.214   0.102  1.0468  0.3913  0.4151
 1338SOL    HW215477   3.436   4.357   0.110 -0.1599  0.3802 -1.2305
 1339SOL     OW15478   4.155   1.931   4.517 -0.8645  0.0621  0.1525
 1339SOL    HW115479   4.100   1.934   4.439 -2.0309 -1.2379  0.9348
 1339SOL    HW215480   4.226   1.873   4.490 -0.7673  0.0704  0.3898
 1340SOL     OW15481   0.243   1.252   8.678  0.2306  0.1227 -0.1551
 1340SOL    HW115482   0.236   1.258   8.583 -0.9589  1.1957  0.0081
 1340SOL    HW215483   0.180   1.182   8.697 -0.1686  0.5853  0.2087
 1341SOL     OW15484   0.228   3.851  14.882  0.2461 -0.0412  0.2509
 1341SOL    HW115485   0.253   3.771  14.837  1.7332  1.0910 -0.9375
 1341SOL    HW215486   0.134   3.843  14.899  0.5502 -1.1364  1.4393
 1342SOL     OW15487   1.837   2.489   2.493  0.3501 -0.0602  0.2765
 1342SOL    HW115488   1.819   2.453   2.406 -1.2986 -0.8691  0.9645
 1342SOL    HW215489   1.907   2.548   2.466 -0.0156 -0.7861 -2.2143
 1343SOL     OW15490   1.705   2.076   3.758 -0.2882 -0.2254 -0.3038
 1343SOL    HW115491   1.784   2.047   3.804 -1.2298  0.9162  2.0311
 1343SOL    HW215492   1.688   1.995   3.709  1.5253 -0.9914  0.3519
 1344SOL     OW15493   4.105   3.263   6.460  0.2745  0.6561  0.1884
 1344SOL    HW115494   4.056   3.204   6.403 -0.4677  1.3735  0.0737
 1344SOL    HW215495   4.092   3.218   6.543  1.9780  1.3509  0.8233
 1345SOL     OW15496   2.079   0.475   4.840 -0.5474 -0.1039  0.2603
 1345SOL    HW115497   2.083   0.436   4.927 -4.9102  0.2963  0.6372
 1345SOL    HW215498   2.161   0.525   4.842 -0.3319 -0.5144  1.6135
 1346SOL     OW15499   1.087   4.045   3.128 -0.5230  0.1281 -0.0280
 1346SOL    HW115500   1.117   3.967   3.082 -0.9965  0.6158 -1.1535
 1346SOL    HW215501   1.128   4.109   3.070  1.4526 -0.8637  0.2746
 1347SOL     OW15502   1.127   3.273  14.438 -0.1966  0.2067  0.7959
 1347SOL    HW115503   1.156   3.226  14.515 -0.1918  0.8050  1.1563
 1347SOL    HW215504   1.086   3.204  14.385  1.2704  0.1748 -0.2960
 1348SOL     OW15505   0.882   3.692   3.034 -0.1172  0.0664  0.0112
 1348SOL    HW115506   0.940   3.632   3.081  1.7784  1.6845 -0.3058
 1348SOL    HW215507   0.836   3.622   2.987  1.2049 -1.9705  1.7388
 1349SOL     OW15508   2.243   4.382  16.303 -0.3765  0.6128  0.1105
 1349SOL    HW115509   2.337   4.367  16.310 -0.5997 -0.3077  1.2846
 1349SOL    HW215510   2.226   4.427  16.220 -1.8011  0.8929  0.5441
 1350SOL     OW15511   1.017   3.216   7.510  0.0844 -0.3331  0.4428
 1350SOL    HW115512   1.061   3.195   7.428 -0.6123  0.6145 -0.1732
 1350SOL    HW215513   1.081   3.204   7.580 -1.6352 -1.7439  1.7862
 1351SOL     OW15514   1.625   1.144   9.024  0.0255  0.1295 -0.0381
 1351SOL    HW115515   1.649   1.182   9.109 -0.2379 -0.8247  0.4567
 1351SOL    HW215516   1.680   1.066   9.031 -2.5904 -1.7008 -0.0901
 1352SOL     OW15517   0.190   4.210   9.505 -0.4474  0.0370 -0.7010
 1352SOL    HW115518   0.120   4.256   9.551  0.4916 -0.6144  1.3454
 1352SOL    HW215519   0.184   4.123   9.545  0.1952  0.0588 -0.5691
 1353SOL     OW15520   2.554   1.906   2.393  0.4386  0.5467 -0.0089
 1353SOL    HW115521   2.494   1.850   2.343 -0.2467  0.4950  0.8665
 1353SOL    HW215522   2.630   1.901   2.335  0.1192 -1.8553 -0.2309
 1354SOL     OW15523   1.740   2.871   4.736  0.4099  0.1727 -0.0768
 1354SOL    HW115524   1.755   2.826   4.653  1.6883  0.4291  0.0225
 1354SOL    HW215525   1.784   2.955   4.721 -0.0503  0.7047  1.5248
 1355SOL     OW15526   3.577   3.650  15.884  0.5005  0.5853 -0.1393
 1355SOL    HW115527   3.520   3.726  15.899 -0.8291 -0.4608  0.1168
 1355SOL    HW215528   3.609   3.669  15.796 -0.4485 -1.7095 -0.9735
 1356SOL     OW15529   3.969   2.332   7.996 -0.0374 -0.7348 -0.0171
 1356SOL    HW115530   3.951   2.313   8.088 -1.1541 -0.9423 -0.2784
 1356SOL    HW215531   4.063   2.314   7.999 -0.0501 -1.0312 -1.1670
 1357SOL     OW15532   1.544   2.967   2.584 -0.6764  0.1156 -0.2363
 1357SOL    HW115533   1.609   3.037   2.572  0.8314 -0.9562  1.5440
 1357SOL    HW215534   1.582   2.897   2.530  2.9735  0.8329  1.3520
 1358SOL     OW15535   0.641   2.602   9.741  0.0197  0.6688  0.1033
 1358SOL    HW115536   0.580   2.668   9.773 -0.9974  0.0045 -0.4576
 1358SOL    HW215537   0.615   2.593   9.649  0.1766 -0.5305  0.1706
 1359SOL     OW15538   2.462   1.826   7.110 -0.1086  0.2995  0.7790
 1359SOL    HW115539   2.522   1.782   7.171  1.6791  0.4019 -0.9094
 1359SOL    HW215540   2.392   1.760   7.112  1.9544 -1.8651  1.4396
 1360SOL     OW15541   1.024   3.513  17.478 -0.1515  0.0782 -0.0554
 1360SOL    HW115542   1.045   3.535  17.387  0.2221 -0.1326 -0.0183
 1360SOL    HW215543   0.987   3.593  17.515 -1.0304  0.2803 -1.3710
 1361SOL     OW15544   3.142   3.647   7.897 -0.1063  0.0889  0.5368
 1361SOL    HW115545   3.121   3.563   7.855 -1.5645  0.0468  1.3524
 1361SOL    HW215546   3.058   3.666   7.938 -0.5054 -0.0380 -0.2064
 1362SOL     OW15547   0.851   3.196   6.494 -0.2730 -0.4722 -0.2399
 1362SOL    HW115548   0.767   3.168   6.529 -0.3493 -1.1873 -0.9728
 1362SOL    HW215549   0.825   3.212   6.403  1.9986  0.5021 -0.7107
 1363SOL     OW15550   4.709   1.571   6.665 -0.5295 -0.4079  0.1974
 1363SOL    HW115551   4.684   1.607   6.750 -1.3928  1.2427 -0.7539
 1363SOL    HW215552   4.635   1.514   6.644  0.7097 -1.4070 -1.4573
 1364SOL     OW15553   4.018   1.862   7.884 -0.2342 -0.4773 -0.8452
 1364SOL    HW115554   3.997   1.899   7.798 -2.0859 -1.0559 -0.6526
 1364SOL    HW215555   4.094   1.913   7.911 -1.1506  0.4265  0.0425
 1365SOL     OW15556   3.098   3.838  13.745  0.2059  0.8790 -0.3792
 1365SOL    HW115557   3.082   3.917  13.797 -0.4586  0.3871  0.1663
 1365SOL    HW215558   3.011   3.800  13.734 -0.1074  0.8950  2.0812
 1366SOL     OW15559   0.723   0.602   0.605 -0.5730 -0.2619  0.3581
 1366SOL    HW115560   0.808   0.636   0.633 -0.7434 -1.9528  2.9462
 1366SOL    HW215561   0.667   0.624   0.681  0.5079  1.3343  0.6922
 1367SOL     OW15562   3.583   1.201  12.775  0.0589 -0.0652 -0.4064
 1367SOL    HW115563   3.526   1.269  12.739 -0.1136 -0.4757 -0.9288
 1367SOL    HW215564   3.535   1.172  12.853  1.4087  0.7304  0.7028
 1368SOL     OW15565   2.729   1.885   4.281  0.2160  0.3409 -0.3960
 1368SOL    HW115566   2.678   1.951   4.327 -0.2837 -0.8018  0.7016
 1368SOL    HW215567   2.816   1.901   4.318 -0.1109  0.4744  0.3116
 1369SOL     OW15568   0.756   4.231   4.610 -0.1183  0.7906 -0.3966
 1369SOL    HW115569   0.705   4.169   4.662  0.7786 -0.4656 -1.0206
 1369SOL    HW215570   0.797   4.172   4.547  1.5160  2.0500 -0.5107
 1370SOL     OW15571   4.612   2.657  12.696  0.2440  0.1453  0.1631
 1370SOL    HW115572   4.702   2.627  12.713  0.8427  1.5665 -0.5622
 1370SOL    HW215573   4.584   2.712  12.770 -0.0520  2.4854 -1.7044
 1371SOL     OW15574   3.708   2.518   7.594 -0.1759  0.0548 -0.3631
 1371SOL    HW115575   3.718   2.586   7.660  0.8356  0.8854 -1.3594
 1371SOL    HW215576   3.774   2.454   7.620 -0.4788 -1.7028 -3.9010
 1372SOL     OW15577   4.488   2.026   0.756  0.0376 -0.2403  0.2623
 1372SOL    HW115578   4.565   1.974   0.731  0.9110  0.8357  0.7480
 1372SOL    HW215579   4.523   2.109   0.788 -0.3377  0.1994 -0.4639
 1373SOL     OW15580   4.103   1.176   5.955 -0.1930 -0.2211  0.3763
 1373SOL    HW115581   4.093   1.268   5.977  2.0882 -0.1129  0.9610
 1373SOL    HW215582   4.185   1.181   5.906  0.2931 -0.4615  1.1674
 1374SOL     OW15583   1.831   1.977  12.080 -0.1392  0.2830  0.3468
 1374SOL    HW115584   1.850   1.889  12.114  0.3406 -0.0778 -0.8643
 1374SOL    HW215585   1.757   1.947  12.027  0.5508 -2.2749  0.8421
 1375SOL     OW15586   0.237   3.405   7.352 -0.0997 -0.2907  0.4669
 1375SOL    HW115587   0.253   3.419   7.446 -0.3753 -2.1169  0.7804
 1375SOL    HW215588   0.254   3.312   7.344  0.8502  0.0474 -1.3371
 1376SOL     OW15589   1.987   0.149  13.282 -0.0325 -0.3673  0.1092
 1376SOL    HW115590   1.921   0.105  13.228  1.1178  0.5430 -2.0290
 1376SOL    HW215591   2.056   0.092  13.248  0.4275 -0.2879  0.9231
 1377SOL     OW15592   0.167   3.423  14.309  0.1056 -0.1770  0.1785
 1377SOL    HW115593   0.226   3.484  14.353  0.1485 -0.6712  0.8072
 1377SOL    HW215594   0.178   3.352  14.373  3.7192 -1.5698 -1.9946
 1378SOL     OW15595   4.230   1.357   3.122  0.0697 -0.2666 -0.5133
 1378SOL    HW115596   4.306   1.403   3.085  2.0062 -1.3381  2.1331
 1378SOL    HW215597   4.272   1.291   3.177  3.0591  1.7044 -0.3918
 1379SOL     OW15598   1.144   0.647  14.427 -0.0777  0.7677 -0.0890
 1379SOL    HW115599   1.151   0.733  14.385  1.0340  0.1133 -1.2281
 1379SOL    HW215600   1.232   0.612  14.414  0.4654  1.8480  0.7237
 1380SOL     OW15601   2.637   2.831   3.076  0.0137 -0.6964 -0.0768
 1380SOL    HW115602   2.732   2.842   3.065  0.1822 -0.3127  1.6507
 1380SOL    HW215603   2.639   2.788   3.162 -1.1456  2.0645  1.3472
 1381SOL     OW15604   3.282   3.793   5.158  0.1111 -0.4406  0.1700
 1381SOL    HW115605   3.206   3.792   5.099  0.1673 -0.2138  0.0936
 1381SOL    HW215606   3.326   3.715   5.125  2.9814  1.4664 -0.5435
 1382SOL     OW15607   2.064   0.524   5.363  0.4090  0.1817  0.5332
 1382SOL    HW115608   2.158   0.511   5.360  0.2663 -0.1486 -1.8395
 1382SOL    HW215609   2.050   0.524   5.458 -2.5395 -0.7634  0.1194
 1383SOL     OW15610   2.714   1.542   3.719  0.4901 -0.1685 -0.2095
 1383SOL    HW115611   2.775   1.478   3.684  0.3497  0.3491 -1.3906
 1383SOL    HW215612   2.769   1.620   3.713  3.0588 -1.9791 -0.0764
 1384SOL     OW15613   4.419   1.106   7.877 -0.2840  0.4512 -0.2680
 1384SOL    HW115614   4.331   1.127   7.846 -0.8376  1.7244  2.1975
 1384SOL    HW215615   4.400   1.109   7.971 -0.5849  1.9511 -0.3705
 1385SOL     OW15616   3.488   2.327  16.193 -0.0070  0.0711  0.2689
 1385SOL    HW115617   3.429   2.264  16.235  1.7305 -0.2368  2.2644
 1385SOL    HW215618   3.518   2.278  16.117 -2.1637  1.3742 -1.4193
 1386SOL     OW15619   0.423   1.715  12.736  0.8892 -0.3518  0.2130
 1386SOL    HW115620   0.456   1.804  12.720  1.1826 -0.9479 -2.4573
 1386SOL    HW215621   0.492   1.663  12.694  1.1762  0.8942 -0.8558
 1387SOL     OW15622   2.969   1.409   0.076  0.4537 -0.1071 -0.7165
 1387SOL    HW115623   2.993   1.428  17.690 -1.2119  1.6630 -0.7878
 1387SOL    HW215624   2.877   1.388   0.061  0.5463 -1.4646  0.6157
 1388SOL     OW15625   1.523   0.598   4.176 -0.4514 -0.2786 -0.7315
 1388SOL    HW115626   1.578   0.569   4.249  1.9756  0.1414 -2.3784
 1388SOL    HW215627   1.589   0.630   4.115 -0.4474 -1.1652 -1.1858
 1389SOL     OW15628   3.173   0.162   3.631 -0.8748 -0.3024  0.0994
 1389SOL    HW115629   3.127   0.083   3.659  1.8999 -2.2068 -0.7467
 1389SOL    HW215630   3.125   0.183   3.550 -1.7958 -0.3332  0.6406
 1390SOL     OW15631   0.944   3.256   7.208 -0.2884 -0.1752 -0.4852
 1390SOL    HW115632   0.969   3.265   7.116 -2.1869 -0.0571 -0.9934
 1390SOL    HW215633   0.875   3.190   7.213 -1.9875  1.7525  1.4945
 1391SOL     OW15634   3.891   2.839   1.135  0.1369 -0.0996 -0.1202
 1391SOL    HW115635   3.914   2.917   1.185 -0.7255 -0.3806  0.7066
 1391SOL    HW215636   3.803   2.858   1.102  0.1953  0.2785 -0.0599
 1392SOL     OW15637   1.956   4.301  10.938  0.3791  0.4880 -0.6952
 1392SOL    HW115638   2.006   4.370  10.981  1.6348 -0.5748 -0.4499
 1392SOL    HW215639   1.957   4.334  10.848 -0.0716  1.7363 -0.2383
 1393SOL     OW15640   2.250   1.471  14.128  0.0762  0.0514  0.0974
 1393SOL    HW115641   2.283   1.475  14.038 -2.2977  0.2620 -0.7638
 1393SOL    HW215642   2.320   1.518  14.173 -0.7516 -0.9980  2.5082
 1394SOL     OW15643   3.975   3.568   8.631 -0.1147  0.3928  0.2548
 1394SOL    HW115644   4.005   3.659   8.626 -0.3478  0.5095  0.9132
 1394SOL    HW215645   3.904   3.572   8.696  1.6311  1.7402  2.0699
 1395SOL     OW15646   0.260   4.623   7.249  0.0774 -0.3554  0.2223
 1395SOL    HW115647   0.208   4.555   7.208  3.0498 -2.6127  0.1595
 1395SOL    HW215648   0.210   4.699   7.221 -1.9450 -0.4616  3.4942
 1396SOL     OW15649   2.338   0.183   0.472  0.1676  0.4834  0.5918
 1396SOL    HW115650   2.344   0.201   0.566  0.3525 -0.4770  0.7688
 1396SOL    HW215651   2.249   0.209   0.451  1.3644  1.7172 -2.9395
 1397SOL     OW15652   3.723   2.331   6.118  0.3918  0.0602 -0.3846
 1397SOL    HW115653   3.658   2.265   6.143 -0.5961  1.6960  1.4324
 1397SOL    HW215654   3.807   2.287   6.131 -0.1437 -0.5396  1.0790
 1398SOL     OW15655   4.098   1.601   4.329 -0.2585  0.0956 -0.0984
 1398SOL    HW115656   4.123   1.551   4.406 -2.0847 -0.0289  0.4258
 1398SOL    HW215657   4.003   1.588   4.320 -0.7790  3.6795  0.0329
 1399SOL     OW15658   2.680   3.422   2.890  0.5482  0.1959  0.7753
 1399SOL    HW115659   2.671   3.331   2.861  0.9963  0.8500 -1.4567
 1399SOL    HW215660   2.696   3.462   2.804  1.0850  3.8215  2.5767
 1400SOL     OW15661   1.376   2.251   4.268  0.0389  0.0400  0.4394
 1400SOL    HW115662   1.379   2.260   4.363  1.1643  0.5617  0.3469
 1400SOL    HW215663   1.461   2.282   4.239 -1.8509  2.1001 -2.9736
 1401SOL     OW15664   0.346   2.466   3.274 -0.6519 -0.6751  0.3056
 1401SOL    HW115665   0.399   2.439   3.198 -1.1022  0.7708 -0.5191
 1401SOL    HW215666   0.258   2.463   3.236  0.1930 -0.1865 -1.7132
 1402SOL     OW15667   0.638   3.108   2.049  0.3414  0.2480  0.1553
 1402SOL    HW115668   0.581   3.035   2.071 -1.0741  0.9571 -1.2222
 1402SOL    HW215669   0.595   3.173   2.104  2.9589  1.2969  0.9539
 1403SOL     OW15670   3.489   3.343   1.618 -0.1827 -0.0057 -0.1579
 1403SOL    HW115671   3.489   3.436   1.641 -2.1388  0.4461 -2.0960
 1403SOL    HW215672   3.577   3.317   1.645  0.0561  2.1177  1.1493
 1404SOL     OW15673   3.358   2.576   5.589 -0.0042  0.6553  0.5085
 1404SOL    HW115674   3.451   2.557   5.573 -0.4688 -0.7481 -0.6012
 1404SOL    HW215675   3.366   2.667   5.616 -2.1087  0.6535  1.1835
 1405SOL     OW15676   2.454   3.359  12.957 -0.3777  0.3322  0.1735
 1405SOL    HW115677   2.533   3.309  12.936 -0.1230  0.5367  0.6481
 1405SOL    HW215678   2.447   3.417  12.881  0.5461 -0.7054 -0.6998
 1406SOL     OW15679   1.220   0.587   4.787 -0.0926 -0.1308 -0.6237
 1406SOL    HW115680   1.289   0.520   4.781 -1.1245 -1.0872 -1.6521
 1406SOL    HW215681   1.166   0.554   4.716  1.0603 -0.9359 -1.1331
 1407SOL     OW15682   4.390   2.604   2.005 -0.4586 -0.2871 -0.5300
 1407SOL    HW115683   4.433   2.666   1.946 -1.0997  0.6926  0.0271
 1407SOL    HW215684   4.307   2.651   2.018 -0.2048 -0.4229  1.5513
 1408SOL     OW15685   2.406   0.737   4.681 -0.2769  0.0416  0.1407
 1408SOL    HW115686   2.435   0.827   4.692  0.0460 -0.3927  2.8822
 1408SOL    HW215687   2.362   0.736   4.596  1.4852  0.3129 -0.7662
 1409SOL     OW15688   4.714   1.113   4.401  0.1516  0.0712  0.1321
 1409SOL    HW115689   4.726   1.174   4.329  1.1346  1.9169  1.8598
 1409SOL    HW215690   4.622   1.095   4.381  0.3551  1.3678 -1.8852
 1410SOL     OW15691   3.727   4.206   8.375 -0.2765  0.1374 -0.8416
 1410SOL    HW115692   3.709   4.115   8.399  1.8220  0.2055  0.9854
 1410SOL    HW215693   3.822   4.198   8.386 -0.4730 -0.9514  0.0791
 1411SOL     OW15694   1.178   2.605   3.014 -0.1972 -0.1642  0.3251
 1411SOL    HW115695   1.272   2.605   2.993  0.6230 -1.0026  4.0123
 1411SOL    HW215696   1.160   2.513   3.033  1.1653 -0.6594 -0.7993
 1412SOL     OW15697   1.945   2.067   6.849 -0.0114  0.0939  0.1523
 1412SOL    HW115698   1.896   2.147   6.834 -1.3657 -0.5073  1.3331
 1412SOL    HW215699   1.971   2.051   6.758 -0.3809 -2.2380  0.4473
 1413SOL     OW15700   0.729   2.759   5.919 -0.2565  0.9059  0.1932
 1413SOL    HW115701   0.815   2.740   5.881 -0.0607 -1.5720  1.8502
 1413SOL    HW215702   0.683   2.675   5.906  1.2518  0.2311 -0.7437
 1414SOL     OW15703   2.018   2.038   7.108  0.1621 -0.1883 -0.2680
 1414SOL    HW115704   2.082   1.968   7.099  1.4009  0.5844  2.3299
 1414SOL    HW215705   1.994   2.055   7.017 -2.6436 -0.5353  0.3972
 1415SOL     OW15706   3.250   0.975  16.580  0.1195  0.3608  0.2801
 1415SOL    HW115707   3.296   1.049  16.540  1.1005 -1.0863 -1.2733
 1415SOL    HW215708   3.232   1.009  16.668 -1.4345 -0.2368  0.1880
 1416SOL     OW15709   0.071   3.119   3.247 -0.5487 -0.0559 -0.2897
 1416SOL    HW115710   0.153   3.122   3.297 -0.4735  0.5671 -0.4527
 1416SOL    HW215711   0.070   3.205   3.206 -0.6193  0.5552  0.9827
 1417SOL     OW15712   2.266   1.494   5.322  0.0580 -0.2208  0.5297
 1417SOL    HW115713   2.237   1.571   5.370 -3.2073  0.1446 -2.0411
 1417SOL    HW215714   2.216   1.426   5.368  0.5352 -0.4079  0.7706
 1418SOL     OW15715   1.590   1.688   3.127 -0.2145 -0.1017 -0.2271
 1418SOL    HW115716   1.503   1.650   3.113 -1.2081  2.6277 -1.3533
 1418SOL    HW215717   1.568   1.772   3.166 -0.5593 -0.8641  1.2445
 1419SOL     OW15718   3.076   0.355   7.401 -0.2459  0.2435 -0.3064
 1419SOL    HW115719   3.146   0.393   7.348  0.3700  0.2903  0.5408
 1419SOL    HW215720   3.132   0.285   7.434 -0.4455 -1.6810 -4.0728
 1420SOL     OW15721   1.780   4.549   7.884  0.4621  0.0446 -0.1864
 1420SOL    HW115722   1.848   4.523   7.822  0.0595  0.4856 -0.8250
 1420SOL    HW215723   1.700   4.543   7.831  1.5582  1.5344 -2.0052
 1421SOL     OW15724   3.505   1.564   0.223 -0.1230 -0.4090 -0.1310
 1421SOL    HW115725   3.527   1.638   0.280 -1.5926  0.3399 -0.5236
 1421SOL    HW215726   3.578   1.557   0.162  1.4992  1.8545  1.5435
 1422SOL     OW15727   4.351   1.917   0.547 -0.2463 -0.2735  0.6458
 1422SOL    HW115728   4.333   1.975   0.621 -1.6740  0.0207  0.0675
 1422SOL    HW215729   4.290   1.945   0.479 -0.6386  1.5166  1.7175
 1423SOL     OW15730   1.445   4.577   1.272 -0.6724 -0.1792 -0.0022
 1423SOL    HW115731   1.501   4.635   1.324 -1.3824 -1.0640  1.7180
 1423SOL    HW215732   1.467   4.489   1.300  2.5362 -0.1802 -2.5480
 1424SOL     OW15733   1.676   0.952   5.064 -0.0752 -0.2623 -0.2114
 1424SOL    HW115734   1.740   0.918   5.001  1.3707 -3.1747  2.8574
 1424SOL    HW215735   1.686   0.888   5.135  1.4903 -1.4746 -1.5279
 1425SOL     OW15736   1.193   2.146   5.322  0.2738 -0.1518  0.0691
 1425SOL    HW115737   1.153   2.224   5.284  2.9747  1.0311 -0.3857
 1425SOL    HW215738   1.256   2.181   5.384  0.1562  1.4674 -0.7310
 1426SOL     OW15739   1.389   0.519   5.700 -0.1230 -0.0670 -0.1317
 1426SOL    HW115740   1.441   0.484   5.627  0.5511  0.8902 -0.1130
 1426SOL    HW215741   1.374   0.442   5.755  0.2084 -1.1734 -1.5768
 1427SOL     OW15742   2.909   2.681   8.001  0.1464 -0.3743 -0.2391
 1427SOL    HW115743   2.979   2.634   7.955  0.0284 -0.7707 -0.0120
 1427SOL    HW215744   2.957   2.713   8.078  1.1565  0.0163 -1.0255
 1428SOL     OW15745   0.730   2.445   8.224 -0.0964 -0.0259  0.7054
 1428SOL    HW115746   0.696   2.407   8.306  1.0212  1.2989  1.7776
 1428SOL    HW215747   0.816   2.467   8.261 -0.0181  1.2748 -0.2390
 1429SOL     OW15748   3.202   1.039  15.817 -0.0397 -0.1103 -0.3068
 1429SOL    HW115749   3.259   1.015  15.890  0.3813  1.8025 -0.0096
 1429SOL    HW215750   3.146   1.096  15.868  0.4886  0.6908 -0.6328
 1430SOL     OW15751   0.113   2.737  14.578  0.3494 -0.5712 -0.0909
 1430SOL    HW115752   0.091   2.719  14.487  2.1149  1.7570 -0.9597
 1430SOL    HW215753   0.112   2.650  14.619 -0.7151  0.7723  2.7082
 1431SOL     OW15754   3.053   1.617   4.300 -0.4197 -0.0149 -0.4607
 1431SOL    HW115755   3.024   1.706   4.320  2.7193  0.5194  1.6316
 1431SOL    HW215756   3.119   1.601   4.367 -0.6051  0.1339 -0.2442
 1432SOL     OW15757   2.469   1.044  13.350  0.2149 -0.1409 -0.3116
 1432SOL    HW115758   2.384   1.040  13.393  0.7396 -0.1973  0.7148
 1432SOL    HW215759   2.455   1.109  13.281  0.1089  0.1542 -0.0159
 1433SOL     OW15760   3.382   1.709   5.092 -0.0272 -0.5558 -0.3000
 1433SOL    HW115761   3.350   1.778   5.149  1.2336  0.0027 -0.2629
 1433SOL    HW215762   3.322   1.714   5.019 -0.6647  1.7723  0.3835
 1434SOL     OW15763   3.748   0.413   3.278 -0.0077  0.7616 -0.5049
 1434SOL    HW115764   3.736   0.372   3.192  2.0312  0.7057 -0.7532
 1434SOL    HW215765   3.661   0.419   3.317  1.0974  2.8006  1.6986
 1435SOL     OW15766   2.258   0.472   1.205  0.1611 -0.5024  0.5371
 1435SOL    HW115767   2.350   0.467   1.179  0.2425  2.5572  0.2336
 1435SOL    HW215768   2.218   0.394   1.167 -1.6832  1.5858 -1.8572
 1436SOL     OW15769   0.036   2.348   5.741  0.2057  0.0942 -0.1252
 1436SOL    HW115770   0.034   2.352   5.836 -2.6775 -1.8523 -0.1217
 1436SOL    HW215771   4.722   2.430   5.713 -0.5868 -0.1896  0.1953
 1437SOL     OW15772   0.381   3.970   5.468  0.1052 -0.0527 -0.0394
 1437SOL    HW115773   0.410   4.044   5.520  0.0922 -0.3081  0.3325
 1437SOL    HW215774   0.327   4.009   5.398  1.9532  0.1008 -1.3887
 1438SOL     OW15775   2.940   2.592   8.619 -0.6729  0.0578 -0.5413
 1438SOL    HW115776   2.902   2.666   8.571  0.1585 -0.1770 -1.5621
 1438SOL    HW215777   3.020   2.592   8.567  0.5440 -1.3075  1.3597
 1439SOL     OW15778   2.790   2.328   4.475  0.1394  0.5344 -0.4382
 1439SOL    HW115779   2.746   2.343   4.391  1.7184  2.5058 -0.8946
 1439SOL    HW215780   2.815   2.419   4.489 -0.1685  0.4897  0.4086
 1440SOL     OW15781   1.736   0.374   7.382 -0.4757 -0.2301  0.3895
 1440SOL    HW115782   1.727   0.308   7.313 -0.3872 -0.5355  0.6654
 1440SOL    HW215783   1.770   0.448   7.333  2.4234 -1.1523  1.0173
 1441SOL     OW15784   4.346   0.763   6.817 -0.1497  0.1441 -0.3044
 1441SOL    HW115785   4.263   0.809   6.818 -0.2511 -0.0082 -2.2876
 1441SOL    HW215786   4.362   0.751   6.723  3.3351 -0.4665  0.3403
 1442SOL     OW15787   3.013   1.949  10.455 -0.0243  0.3521 -0.4340
 1442SOL    HW115788   3.068   2.028  10.458  1.8770 -0.9963  0.4721
 1442SOL    HW215789   2.972   1.940  10.541 -0.7868 -0.7456 -0.9155
 1443SOL     OW15790   0.744   2.822  17.471 -0.6318 -0.0803  0.2502
 1443SOL    HW115791   0.665   2.771  17.484 -0.3306 -0.6524 -0.1846
 1443SOL    HW215792   0.777   2.773  17.396 -0.2867 -0.2569  0.5195
 1444SOL     OW15793   2.838   0.602   5.185 -0.1978 -0.6009  0.7452
 1444SOL    HW115794   2.830   0.514   5.223 -0.0170 -0.6282  0.7229
 1444SOL    HW215795   2.902   0.630   5.251  1.3835 -0.1090 -1.0073
 1445SOL     OW15796   0.780   2.580   2.088 -0.6053 -0.2277  0.1155
 1445SOL    HW115797   0.873   2.597   2.101 -0.5958 -0.4569  0.3598
 1445SOL    HW215798   0.784   2.568   1.993 -0.2791  3.2480 -0.2905
 1446SOL     OW15799   0.776   3.642  12.100 -0.0372  0.1407 -0.2257
 1446SOL    HW115800   0.849   3.651  12.161 -1.2483  0.8149  1.1305
 1446SOL    HW215801   0.715   3.711  12.127 -0.5304 -0.2872 -0.2393
 1447SOL     OW15802   2.066   1.685  14.955 -0.5885  0.2424  0.3449
 1447SOL    HW115803   2.081   1.681  14.860 -0.2359 -2.0637  0.4908
 1447SOL    HW215804   2.094   1.594  14.967  2.5462  1.0344 -0.8480
 1448SOL     OW15805   0.991   1.056  16.623 -0.1531  1.0413 -0.1886
 1448SOL    HW115806   0.913   1.002  16.637 -0.0072  0.8139 -0.2478
 1448SOL    HW215807   1.014   1.027  16.535 -2.1093  0.7349 -0.6101
 1449SOL     OW15808   0.890   0.995   7.910  0.2241  0.2150  0.3708
 1449SOL    HW115809   0.928   0.907   7.909  0.6786  0.4233 -0.6655
 1449SOL    HW215810   0.952   1.037   7.849  2.0934  0.3606  2.3628
 1450SOL     OW15811   3.982   3.242   9.431 -0.7511 -0.8480  0.0746
 1450SOL    HW115812   3.930   3.321   9.416 -0.8887 -1.1679 -1.0969
 1450SOL    HW215813   4.065   3.268   9.390 -0.5617 -1.1269  0.2798
 1451SOL     OW15814   2.300   2.090  14.055  0.9238 -0.4734 -0.4128
 1451SOL    HW115815   2.240   2.103  13.982  2.0320  0.0007 -1.2304
 1451SOL    HW215816   2.313   1.998  14.032  1.2205 -0.5020 -0.1435
 1452SOL     OW15817   3.094   4.000   8.805  0.4657  0.4273  1.3214
 1452SOL    HW115818   3.020   3.970   8.752 -0.3139  2.5420  1.1953
 1452SOL    HW215819   3.094   3.938   8.878  0.9964 -0.1606  0.8230
 1453SOL     OW15820   0.721   4.549   8.184  0.4589  0.0487 -0.4127
 1453SOL    HW115821   0.801   4.497   8.183 -0.0428 -0.7858  1.5645
 1453SOL    HW215822   0.743   4.588   8.269  0.4597  0.5455 -0.6394
 1454SOL     OW15823   2.884   0.058   8.062  0.7332 -0.2369 -0.0736
 1454SOL    HW115824   2.922   4.696   8.066  0.3920 -0.3147  1.9482
 1454SOL    HW215825   2.946   0.109   8.114 -2.0455  2.6891  0.4076
 1455SOL     OW15826   2.291   4.337   9.331  0.4165  0.3098  0.1477
 1455SOL    HW115827   2.385   4.336   9.311  0.7342  0.6121  1.6335
 1455SOL    HW215828   2.254   4.293   9.254 -1.2154 -0.6649  1.5013
 1456SOL     OW15829   1.083   0.146   4.093 -0.1184 -0.1263 -0.1549
 1456SOL    HW115830   1.089   0.053   4.115  0.2616  0.2481  1.2842
 1456SOL    HW215831   1.104   0.157   4.000  0.0745 -1.5663 -0.2706
 1457SOL     OW15832   2.172   1.568   7.485  0.8117  0.3070 -0.2224
 1457SOL    HW115833   2.085   1.605   7.503  1.8741  2.0401  1.3083
 1457SOL    HW215834   2.156   1.501   7.418 -0.6764  0.2519  0.1745
 1458SOL     OW15835   3.017   3.171   3.518 -0.1676 -0.6748  0.7280
 1458SOL    HW115836   2.925   3.152   3.500 -0.5660  1.7754  0.2010
 1458SOL    HW215837   3.016   3.265   3.536 -1.0581 -0.6680  0.6448
 1459SOL     OW15838   4.166   0.504   5.972  0.5099 -0.2623 -0.1674
 1459SOL    HW115839   4.154   0.456   5.890  0.0079 -0.8985  0.2855
 1459SOL    HW215840   4.170   0.594   5.938 -2.2334 -0.4083 -0.8513
 1460SOL     OW15841   4.051   4.430  11.776 -0.6863  0.1108  0.5359
 1460SOL    HW115842   4.110   4.505  11.772 -0.6115 -0.0308 -1.2113
 1460SOL    HW215843   4.120   4.365  11.758  1.5952  2.2705  1.5182
 1461SOL     OW15844   3.273   3.344   9.000 -1.0186 -0.3379 -0.3196
 1461SOL    HW115845   3.247   3.390   9.079 -0.4133 -2.1901  0.9493
 1461SOL    HW215846   3.197   3.287   8.990  0.2294 -1.9810 -0.5064
 1462SOL     OW15847   3.496   0.462   8.819 -0.0087 -0.0179 -0.4623
 1462SOL    HW115848   3.494   0.372   8.851 -0.2127 -0.2906 -1.2251
 1462SOL    HW215849   3.551   0.501   8.887 -0.4363 -0.0229 -0.1176
 1463SOL     OW15850   4.050   4.637   3.502 -0.0222  0.0187 -0.0164
 1463SOL    HW115851   4.033   4.543   3.498  0.9532 -0.2229  1.7575
 1463SOL    HW215852   3.998   4.661   3.578  1.3280 -2.6163  1.7385
 1464SOL     OW15853   3.151   1.880   7.568 -0.2645  0.3152 -0.0255
 1464SOL    HW115854   3.150   1.929   7.650  2.0653 -0.8928  0.7159
 1464SOL    HW215855   3.243   1.856   7.562 -0.4889  0.1300 -2.7225
 1465SOL     OW15856   1.347   4.444   9.004 -0.0843  0.1406 -0.0791
 1465SOL    HW115857   1.400   4.368   9.029  1.2196  1.3707  0.8611
 1465SOL    HW215858   1.271   4.390   8.981 -0.2945  0.1379  0.6226
 1466SOL     OW15859   1.829   0.912   7.271  0.6148  0.7306  0.0913
 1466SOL    HW115860   1.858   0.974   7.204 -2.8170  1.7354 -0.4508
 1466SOL    HW215861   1.736   0.932   7.266  0.6679  1.0166  0.2264
 1467SOL     OW15862   1.007   1.597   4.554  0.1467  0.4943 -0.4619
 1467SOL    HW115863   1.032   1.641   4.635 -0.9616 -3.3728  1.9878
 1467SOL    HW215864   0.931   1.647   4.523 -1.0310 -0.9824  0.0628
 1468SOL     OW15865   2.880   0.264   0.603 -0.1532 -0.0395  0.7061
 1468SOL    HW115866   2.796   0.225   0.577 -0.6119 -0.2653  2.4986
 1468SOL    HW215867   2.879   0.352   0.567 -0.5680  0.6771  2.4385
 1469SOL     OW15868   0.846   1.342   0.730  0.3375  0.3495 -0.0425
 1469SOL    HW115869   0.833   1.417   0.672  0.9478  0.7680  0.3581
 1469SOL    HW215870   0.910   1.291   0.681  0.4024 -0.8541  1.2796
 1470SOL     OW15871   4.191   3.342   7.742 -0.2751 -0.2853 -0.6731
 1470SOL    HW115872   4.218   3.251   7.725  0.4583 -0.2579  0.3587
 1470SOL    HW215873   4.138   3.357   7.663  0.8861  1.3598 -1.1464
 1471SOL     OW15874   1.712   1.940  10.149  0.1701 -0.3656  0.1295
 1471SOL    HW115875   1.805   1.948  10.169  0.2435  1.9349 -1.2068
 1471SOL    HW215876   1.691   1.895  10.231  1.6712  0.5465  1.0232
 1472SOL     OW15877   1.410   3.674  11.348  0.4703 -0.0519  0.0665
 1472SOL    HW115878   1.350   3.749  11.351  0.3445 -0.2694  3.2239
 1472SOL    HW215879   1.350   3.608  11.314 -0.1971 -0.1821  1.5151
 1473SOL     OW15880   0.234   3.782   5.574 -0.2901  0.1212 -0.6114
 1473SOL    HW115881   0.318   3.741   5.593 -0.0117 -0.5579 -3.2920
 1473SOL    HW215882   0.262   3.854   5.519 -0.9339  0.5856 -0.3313
 1474SOL     OW15883   2.808   3.335   6.554 -0.6435  0.3652 -0.1332
 1474SOL    HW115884   2.759   3.392   6.613  0.1674  1.8769 -0.9176
 1474SOL    HW215885   2.897   3.348   6.586 -1.4849  2.2792  1.4758
 1475SOL     OW15886   3.830   1.571   4.281 -0.7558 -0.2054  0.2545
 1475SOL    HW115887   3.789   1.657   4.277  1.3888  0.7207 -1.5806
 1475SOL    HW215888   3.754   1.521   4.250  0.1065 -2.4072  1.6865
 1476SOL     OW15889   2.616   0.124   0.562 -1.0003 -0.3962 -0.4758
 1476SOL    HW115890   2.612   0.041   0.609  0.6789 -0.0625  0.2406
 1476SOL    HW215891   2.523   0.140   0.546 -1.4992 -2.0825  0.7130
 1477SOL     OW15892   2.376   3.434   2.913  0.4769 -0.2819 -0.1362
 1477SOL    HW115893   2.380   3.497   2.841  0.8101 -0.4066 -0.2293
 1477SOL    HW215894   2.464   3.396   2.915  0.3837 -0.6392 -2.3596
 1478SOL     OW15895   2.695   2.837   1.401 -0.5325 -0.4317 -0.1447
 1478SOL    HW115896   2.690   2.748   1.436  0.1240  0.5272  2.3564
 1478SOL    HW215897   2.688   2.891   1.480  2.7395 -1.0124  0.5613
 1479SOL     OW15898   1.272   1.151   8.375  0.2501  0.3264  0.0477
 1479SOL    HW115899   1.271   1.059   8.348 -0.8633  0.7018 -1.1941
 1479SOL    HW215900   1.319   1.141   8.458 -0.0143  1.2254  0.3134
 1480SOL     OW15901   4.393   1.282  17.605  0.1752  0.6836 -0.2540
 1480SOL    HW115902   4.431   1.234  17.531  2.8065  1.3116  0.6712
 1480SOL    HW215903   4.459   1.351  17.615  1.8398 -1.1578  1.5099
 1481SOL     OW15904   1.417   3.617  17.379  0.2446  0.2381  0.2414
 1481SOL    HW115905   1.379   3.583  17.298  1.6955  1.2496 -0.8584
 1481SOL    HW215906   1.361   3.694  17.379 -0.4207 -0.2489 -0.6373
 1482SOL     OW15907   3.620   2.292   4.400 -0.1335 -0.0125  0.4172
 1482SOL    HW115908   3.572   2.254   4.327 -0.3766  0.4031  0.3580
 1482SOL    HW215909   3.555   2.289   4.470 -0.2289 -0.5555  0.3037
 1483SOL     OW15910   1.322   1.197   0.086  0.2984  0.8099 -0.4205
 1483SOL    HW115911   1.243   1.181   0.034  0.1361  0.8703 -0.1919
 1483SOL    HW215912   1.294   1.264   0.148  0.2493  1.5412 -1.2359
 1484SOL     OW15913   3.371   4.211  11.209 -0.4850  0.3219 -0.0108
 1484SOL    HW115914   3.284   4.246  11.188 -0.9022 -0.6041  0.1683
 1484SOL    HW215915   3.419   4.250  11.135  1.7205  0.1003  1.3043
 1485SOL     OW15916   1.136   0.549   8.525 -0.2388 -0.2414 -0.1857
 1485SOL    HW115917   1.187   0.513   8.598 -1.0149 -1.2763 -0.1520
 1485SOL    HW215918   1.190   0.557   8.447  1.3308  1.1888  1.0530
 1486SOL     OW15919   1.412   1.542   5.343  0.3453  0.2655 -0.8314
 1486SOL    HW115920   1.350   1.615   5.339  0.1869  0.0993 -1.3455
 1486SOL    HW215921   1.484   1.586   5.390  0.9783 -1.5057 -0.1714
 1487SOL     OW15922   4.649   2.237   6.393 -0.3160  0.6064 -0.0271
 1487SOL    HW115923   4.629   2.152   6.434  1.5900  0.2715  0.2382
 1487SOL    HW215924   4.585   2.226   6.323  0.5467 -0.3005 -0.6777
 1488SOL     OW15925   3.692   4.695   7.446 -0.2669  0.4072  0.1074
 1488SOL    HW115926   3.763   0.008   7.498  0.1580 -0.2122 -0.0074
 1488SOL    HW215927   3.734   4.668   7.365  1.5487 -0.1377  1.2193
 1489SOL     OW15928   0.993   3.175   2.250  0.7918  0.4063  0.5943
 1489SOL    HW115929   0.965   3.104   2.191 -1.5657  1.2572  0.7042
 1489SOL    HW215930   0.909   3.196   2.291 -0.4500  0.0302 -1.7080
 1490SOL     OW15931   0.243   3.548   8.165  0.1029 -0.9281 -0.7640
 1490SOL    HW115932   0.286   3.556   8.250 -1.0515  2.4809 -0.4670
 1490SOL    HW215933   0.166   3.602   8.184  0.9837 -0.4640  1.4777
 1491SOL     OW15934   0.117   0.605   5.682  0.0365  0.8489 -0.2996
 1491SOL    HW115935   0.134   0.541   5.614  2.4884  1.5232 -0.3109
 1491SOL    HW215936   0.187   0.606   5.747 -1.3118 -0.2617  1.1559
 1492SOL     OW15937   3.554   3.560   3.219 -0.5204  0.5653  0.2459
 1492SOL    HW115938   3.637   3.600   3.191 -0.6777  0.0951 -0.9180
 1492SOL    HW215939   3.596   3.500   3.281 -0.6715  0.8450  0.6131
 1493SOL     OW15940   0.315   1.338   8.421  0.1476  0.2358  0.4707
 1493SOL    HW115941   0.395   1.307   8.463  0.1392 -0.1668  0.1830
 1493SOL    HW215942   0.356   1.372   8.342  0.2861  0.8090  0.7851
 1494SOL     OW15943   2.464   1.088   1.281 -0.5960  0.1912  0.2532
 1494SOL    HW115944   2.549   1.077   1.238 -1.5840 -3.9280 -0.6535
 1494SOL    HW215945   2.438   1.175   1.251 -0.3903 -0.4181 -1.6762
 1495SOL     OW15946   3.626   3.360   9.702  0.2983  0.0790 -0.5230
 1495SOL    HW115947   3.606   3.331   9.791 -0.7086  1.2055 -0.3737
 1495SOL    HW215948   3.721   3.345   9.697  0.6876  2.1085  0.4615
 1496SOL     OW15949   3.161   1.714   0.105  0.0464 -0.0892  0.2320
 1496SOL    HW115950   3.135   1.792   0.056  1.3932 -1.1640 -2.1798
 1496SOL    HW215951   3.203   1.752   0.182 -0.7279 -1.8817  1.5557
 1497SOL     OW15952   4.378   0.340   7.762 -0.0169 -0.3888  0.2467
 1497SOL    HW115953   4.406   0.280   7.831 -0.4301  0.3686  1.0699
 1497SOL    HW215954   4.287   0.368   7.774 -0.3548 -1.7637  0.8061
 1498SOL     OW15955   1.735   1.479   7.579 -0.2445  0.2283 -0.2057
 1498SOL    HW115956   1.653   1.431   7.565 -0.0556 -0.0250 -0.4344
 1498SOL    HW215957   1.716   1.567   7.546 -0.1232 -0.3704 -1.8552
 1499SOL     OW15958   3.899   2.075   4.068  0.5242 -0.3284 -0.3124
 1499SOL    HW115959   3.920   2.058   3.976  1.7416  0.3280 -0.1491
 1499SOL    HW215960   3.804   2.080   4.071  0.5562  0.4772 -0.6186
 1500SOL     OW15961   3.903   3.317  10.645  0.4125  0.1699  0.5230
 1500SOL    HW115962   3.875   3.311  10.554 -0.2124 -2.2214  0.8699
 1500SOL    HW215963   3.997   3.303  10.639  0.4143  1.0743 -1.4795
 1501SOL     OW15964   4.163   0.410   9.579 -0.2260 -0.1652  0.0071
 1501SOL    HW115965   4.170   0.371   9.492  1.2873 -2.3751  1.1128
 1501SOL    HW215966   4.099   0.481   9.571  0.2290  0.3189  0.6159
 1502SOL     OW15967   1.879   0.148   5.492  0.0758 -0.0610  0.6839
 1502SOL    HW115968   1.946   0.154   5.560 -0.2413 -0.4596  1.0248
 1502SOL    HW215969   1.912   0.080   5.433 -1.7780  0.5566 -1.0979
 1503SOL     OW15970   1.809   2.362  12.123 -0.2883  0.2935 -0.7486
 1503SOL    HW115971   1.738   2.392  12.067 -0.3768  0.5819 -0.4815
 1503SOL    HW215972   1.850   2.448  12.131 -2.1687  0.9325  1.8369
 1504SOL     OW15973   2.238   0.063   5.383  0.5461  0.0298  0.0407
 1504SOL    HW115974   2.222   4.698   5.358 -2.2780  0.7026 -0.7122
 1504SOL    HW215975   2.254   0.049   5.476 -1.3696 -1.3566  0.1607
 1505SOL     OW15976   1.586   3.681  12.889  0.5676  0.1092 -0.0506
 1505SOL    HW115977   1.568   3.739  12.963  1.4766  0.3438 -0.0123
 1505SOL    HW215978   1.500   3.672  12.846  0.8388  0.6809 -0.7227
 1506SOL     OW15979   1.546   1.104   0.725 -0.0840  0.0892  0.5412
 1506SOL    HW115980   1.594   1.022   0.736 -0.5121 -0.2201  0.0858
 1506SOL    HW215981   1.492   1.090   0.647 -2.0126  2.0962  1.5124
 1507SOL     OW15982   0.435   1.868  16.448  0.1903 -0.0388  0.4831
 1507SOL    HW115983   0.498   1.940  16.440  0.7956 -0.7076 -0.7239
 1507SOL    HW215984   0.486   1.788  16.442  0.2341 -0.2472  3.7953
 1508SOL     OW15985   1.712   2.009   4.214 -0.4638 -0.1366 -0.3068
 1508SOL    HW115986   1.717   1.930   4.160 -0.9765 -0.7330  0.5188
 1508SOL    HW215987   1.751   1.979   4.296 -1.5512 -1.9596 -0.4635
 1509SOL     OW15988   2.795   0.821   0.829 -0.9928  0.2876 -0.1969
 1509SOL    HW115989   2.706   0.791   0.810 -0.6752  1.1939 -3.0114
 1509SOL    HW215990   2.843   0.739   0.841 -2.0844 -0.4206 -0.6486
 1510SOL     OW15991   0.333   2.634  12.355 -0.4732 -0.3131 -0.3335
 1510SOL    HW115992   0.381   2.708  12.316  0.8914 -0.8945  0.2292
 1510SOL    HW215993   0.277   2.693  12.405 -0.3388  0.5809 -1.2304
 1511SOL     OW15994   1.464   4.709   6.047 -0.1841  0.2904  0.0830
 1511SOL    HW115995   1.397   4.688   5.982  1.0066 -1.2258 -0.6401
 1511SOL    HW215996   1.437   4.643   6.111  0.5906  0.8098  0.9402
 1512SOL     OW15997   2.635   0.077   5.966 -0.1710  0.0962 -0.1183
 1512SOL    HW115998   2.670   4.723   6.006  1.8554  0.8051 -0.4993
 1512SOL    HW215999   2.558   0.084   6.023 -1.0007 -1.7850 -1.0169
 1513SOL     OW16000   3.705   1.142   8.052  0.0694 -0.6510  0.2345
 1513SOL    HW116001   3.617   1.180   8.057 -0.0952 -1.0877  0.7219
 1513SOL    HW216002   3.754   1.208   8.100 -2.0490  0.9927  0.1536
 1514SOL     OW16003   1.793   0.767   6.123 -0.4444 -1.0022 -0.0382
 1514SOL    HW116004   1.743   0.808   6.193  0.9994 -1.1860  1.1009
 1514SOL    HW216005   1.875   0.738   6.163 -0.8740 -1.8684  0.1880
 1515SOL     OW16006   3.106   2.312  16.039 -0.1093 -0.4830 -0.2558
 1515SOL    HW116007   3.103   2.369  16.115  0.9525 -0.2898 -0.3561
 1515SOL    HW216008   3.169   2.251  16.077  1.1636  0.7772 -0.3384
 1516SOL     OW16009   3.980   4.131   2.243 -0.0729 -0.0620 -0.2759
 1516SOL    HW116010   4.003   4.049   2.199  0.8678 -0.9937  1.9689
 1516SOL    HW216011   3.990   4.103   2.334  1.7153 -1.9641 -1.0520
 1517SOL     OW16012   0.247   4.221   6.138  0.3983 -0.2172  0.1453
 1517SOL    HW116013   0.252   4.312   6.168  0.8303 -0.4283  0.7302
 1517SOL    HW216014   0.207   4.178   6.213 -2.2583  0.6141 -0.8143
 1518SOL     OW16015   1.919   3.008  12.826 -0.2439 -0.7372 -0.2895
 1518SOL    HW116016   1.861   2.979  12.896 -0.8567 -0.2513 -0.5951
 1518SOL    HW216017   1.851   3.044  12.769 -0.8388  0.4322  1.1962
 1519SOL     OW16018   2.956   3.696   1.587 -0.6422 -0.2257 -0.0029
 1519SOL    HW116019   2.982   3.625   1.529  0.6205 -0.2338  0.5675
 1519SOL    HW216020   2.960   3.771   1.528  1.5471  0.6808  1.2882
 1520SOL     OW16021   0.579   3.824  16.041  0.6443 -0.3558  0.4776
 1520SOL    HW116022   0.498   3.870  16.064  0.8072 -0.0696  0.4789
 1520SOL    HW216023   0.606   3.786  16.124  1.2775 -0.2359  0.3315
 1521SOL     OW16024   0.833   3.508   7.186 -0.2084  0.0557 -0.5381
 1521SOL    HW116025   0.745   3.476   7.202 -0.9024  0.6721 -3.1051
 1521SOL    HW216026   0.884   3.429   7.204  2.2816  1.9467  0.7597
 1522SOL     OW16027   1.970   0.764  14.048 -0.1657 -0.1375 -0.5373
 1522SOL    HW116028   2.044   0.773  14.107  0.0961  0.0416 -0.8915
 1522SOL    HW216029   2.006   0.759  13.959  0.9607 -0.8800 -0.0467
 1523SOL     OW16030   2.372   0.900  16.373 -0.4826 -0.3921 -0.2868
 1523SOL    HW116031   2.429   0.956  16.321 -1.8153  0.9803 -0.2695
 1523SOL    HW216032   2.296   0.957  16.360 -0.3511  0.0190  0.7392
 1524SOL     OW16033   1.324   3.324   0.258  0.5485  0.2117  0.3416
 1524SOL    HW116034   1.254   3.367   0.306  1.5140  0.0432  1.9311
 1524SOL    HW216035   1.304   3.332   0.165  1.2831 -2.9604 -0.1098
 1525SOL     OW16036   4.365   2.123   6.797 -0.1530 -0.1187 -0.3158
 1525SOL    HW116037   4.451   2.082   6.784  0.4146  0.9604  0.0421
 1525SOL    HW216038   4.310   2.045   6.806  0.6944 -0.6365  0.3566
 1526SOL     OW16039   3.859   0.764  10.076  0.7772 -0.6175  0.4995
 1526SOL    HW116040   3.785   0.760  10.016  0.6496  1.6742  0.4919
 1526SOL    HW216041   3.844   0.850  10.116  2.6119 -0.0131 -0.0760
 1527SOL     OW16042   4.160   0.371  17.147 -0.6477  0.3260  0.4394
 1527SOL    HW116043   4.187   0.392  17.058  0.4632  2.4929  1.2999
 1527SOL    HW216044   4.083   0.427  17.158 -0.7673  0.0955  0.7944
 1528SOL     OW16045   1.817   1.889   4.724  0.0643 -0.1463  0.3898
 1528SOL    HW116046   1.801   1.802   4.760 -2.1421 -0.5705 -1.5866
 1528SOL    HW216047   1.731   1.924   4.746  0.7640  0.0868  2.7338
 1529SOL     OW16048   3.812   0.648   5.026 -0.7370  0.1166 -0.0470
 1529SOL    HW116049   3.851   0.616   4.945 -0.0340  2.2326 -0.5461
 1529SOL    HW216050   3.779   0.736   5.005  2.2287  1.1595 -0.2699
 1530SOL     OW16051   3.001   4.342   7.612  0.1683 -0.1194 -0.2083
 1530SOL    HW116052   3.035   4.412   7.667 -1.3013 -0.8745  1.6696
 1530SOL    HW216053   2.961   4.281   7.674 -0.9261 -0.0978 -0.8946
 1531SOL     OW16054   2.132   2.892   2.087  0.0482 -0.0043 -0.2319
 1531SOL    HW116055   2.050   2.850   2.113 -0.4514  1.1504  0.0364
 1531SOL    HW216056   2.185   2.860   2.160  0.4094  1.5035  0.1571
 1532SOL     OW16057   3.928   0.242  10.511  0.3583  0.0134 -0.1777
 1532SOL    HW116058   3.981   0.232  10.432  0.4029  1.1109 -0.2942
 1532SOL    HW216059   3.838   0.238  10.480  0.5670 -1.4633 -0.5612
 1533SOL     OW16060   0.341   1.358   2.750  0.4844  0.7852  0.1880
 1533SOL    HW116061   0.401   1.284   2.738  0.5387  1.0597 -1.2781
 1533SOL    HW216062   0.382   1.418   2.813  1.0249  1.9103 -1.2217
 1534SOL     OW16063   0.833   3.013  11.698  0.5223 -0.1376 -0.1234
 1534SOL    HW116064   0.834   3.105  11.725 -2.0639  0.4070 -1.9095
 1534SOL    HW216065   0.824   3.009  11.603  1.7921 -0.4466 -0.2307
 1535SOL     OW16066   4.054   4.604   8.953 -0.3354 -0.1217 -0.3282
 1535SOL    HW116067   4.037   4.531   8.893 -1.7774  2.0540 -2.5800
 1535SOL    HW216068   4.015   4.680   8.910  1.2407 -0.3376 -2.1104
 1536SOL     OW16069   1.390   4.411   6.067 -0.4160  0.2323  0.6397
 1536SOL    HW116070   1.456   4.407   6.136  1.3899 -0.2683 -1.0989
 1536SOL    HW216071   1.406   4.329   6.021  0.7734  1.1260 -0.5434
 1537SOL     OW16072   0.288   3.105  12.793 -0.2789 -0.1568 -0.0758
 1537SOL    HW116073   0.357   3.059  12.745 -1.6433 -1.8156 -0.4301
 1537SOL    HW216074   0.215   3.042  12.792 -0.1692 -0.2692 -0.9966
 1538SOL     OW16075   1.828   2.875  15.883 -0.0566  0.2564  0.5837
 1538SOL    HW116076   1.797   2.957  15.844  1.2777  0.9235  0.9288
 1538SOL    HW216077   1.771   2.811  15.840  1.3116 -0.8640  0.4668
 1539SOL     OW16078   0.189   4.173  11.296 -0.1240  0.2366 -0.8516
 1539SOL    HW116079   0.172   4.228  11.219 -2.3872  1.8809  0.8076
 1539SOL    HW216080   0.283   4.186  11.286 -0.0019 -1.3058 -1.7015
 1540SOL     OW16081   0.608   3.981   6.181  0.2931 -0.2333 -0.0262
 1540SOL    HW116082   0.626   4.037   6.105 -1.1538  2.1672  1.4179
 1540SOL    HW216083   0.523   3.942   6.162 -0.5832  0.5756  2.3472
 1541SOL     OW16084   2.552   3.629   7.152 -0.1071 -0.2441  0.2675
 1541SOL    HW116085   2.462   3.660   7.142  0.2745  0.4336 -0.9246
 1541SOL    HW216086   2.532   3.555   7.210 -1.1576 -1.0715 -1.1441
 1542SOL     OW16087   4.152   3.392  11.206  0.3522  0.3680  0.2591
 1542SOL    HW116088   4.166   3.307  11.163 -1.4182  1.0072 -1.6237
 1542SOL    HW216089   4.103   3.362  11.282 -0.2217 -0.0041 -0.2512
 1543SOL     OW16090   2.309   1.955  15.849  0.3795 -0.0891  0.3664
 1543SOL    HW116091   2.250   2.015  15.895  2.1582  2.9634 -1.2836
 1543SOL    HW216092   2.287   1.874  15.894 -1.6085  1.0663  1.4671
 1544SOL     OW16093   1.971   0.313   7.829 -0.2780 -0.7217  0.0414
 1544SOL    HW116094   1.956   0.221   7.854  0.6642 -0.9331 -0.1884
 1544SOL    HW216095   1.914   0.369   7.882 -2.0822 -0.6102 -2.0200
 1545SOL     OW16096   0.714   3.136  11.482 -0.7364  0.1068  0.6099
 1545SOL    HW116097   0.742   3.152  11.392 -0.7300  0.2093  0.6304
 1545SOL    HW216098   0.699   3.224  11.515  0.4714  0.1478  1.0278
 1546SOL     OW16099   1.902   0.267   8.716  0.7122  0.0425  0.7931
 1546SOL    HW116100   1.866   0.269   8.805 -1.5866 -0.8109 -0.1260
 1546SOL    HW216101   1.992   0.240   8.735  0.7561 -0.8122 -0.6439
 1547SOL     OW16102   0.201   1.627  17.170 -0.4597  0.3702  0.5193
 1547SOL    HW116103   0.210   1.540  17.209  0.4149  0.2523  0.0662
 1547SOL    HW216104   0.105   1.635  17.164 -0.2987  0.4234 -2.1884
 1548SOL     OW16105   2.658   4.099   8.736  0.1001  0.0242 -0.4909
 1548SOL    HW116106   2.630   4.008   8.737 -0.0792  0.0959  0.5520
 1548SOL    HW216107   2.614   4.139   8.660  1.5758  1.6232 -0.5007
 1549SOL     OW16108   3.135   1.375  16.926  0.3163  0.2608  0.2697
 1549SOL    HW116109   3.168   1.323  16.853 -0.0627  0.7795 -0.2678
 1549SOL    HW216110   3.183   1.348  17.005 -0.1941  2.8896  1.4807
 1550SOL     OW16111   4.635   4.238   2.315  0.2802 -0.2246 -0.4590
 1550SOL    HW116112   4.637   4.148   2.347  1.6672 -0.4554 -1.1555
 1550SOL    HW216113   4.725   4.246   2.284 -0.4411  0.6681 -2.3018
 1551SOL     OW16114   3.751   1.538   2.954 -0.2755 -1.0683  0.2187
 1551SOL    HW116115   3.842   1.510   2.941  0.9968  1.3407  3.8206
 1551SOL    HW216116   3.734   1.503   3.042 -3.6133  0.4787  0.1742
 1552SOL     OW16117   3.777   1.101   7.062  0.8044  0.3443 -0.2135
 1552SOL    HW116118   3.820   1.026   7.018 -1.9333 -2.0673  1.2315
 1552SOL    HW216119   3.805   1.168   7.000  2.7590  0.0346  0.3288
 1553SOL     OW16120   0.115   3.123   6.524  0.5180  0.0769 -0.0059
 1553SOL    HW116121   0.021   3.130   6.543  0.9451  1.0707  1.7381
 1553SOL    HW216122   0.136   3.210   6.492  1.7593 -0.4404 -0.5990
 1554SOL     OW16123   2.118   2.081  13.161 -0.4188  0.3015  0.3785
 1554SOL    HW116124   2.180   2.019  13.122  3.2127  2.8585  2.1185
 1554SOL    HW216125   2.047   2.018  13.167 -1.1851  1.1235 -0.0784
 1555SOL     OW16126   0.659   3.894   5.748  0.0290  0.0193 -0.0180
 1555SOL    HW116127   0.678   3.983   5.720 -0.2093 -0.2368 -0.9759
 1555SOL    HW216128   0.613   3.855   5.674  1.3533 -2.1309  0.2877
 1556SOL     OW16129   2.832   3.538   4.880  0.1646 -0.0086 -0.1701
 1556SOL    HW116130   2.906   3.497   4.924  0.3013 -1.1711 -1.5078
 1556SOL    HW216131   2.843   3.501   4.793  0.9432  0.5553 -0.3148
 1557SOL     OW16132   4.711   2.665   4.947 -0.0981  0.2062  0.9313
 1557SOL    HW116133   0.028   2.670   4.862 -1.9291  3.8243  0.2288
 1557SOL    HW216134   0.060   2.693   5.001  1.4645  0.4315 -1.3651
 1558SOL     OW16135   2.139   3.326  13.627 -0.7021 -0.0541 -0.0781
 1558SOL    HW116136   2.190   3.402  13.601  0.1991 -1.1596 -1.5078
 1558SOL    HW216137   2.168   3.305  13.716 -1.0524  0.5063  0.1697
 1559SOL     OW16138   4.613   3.965   5.008  0.1456 -0.3074 -0.0547
 1559SOL    HW116139   4.647   3.943   5.095  0.1393 -0.0579  0.0137
 1559SOL    HW216140   4.634   3.888   4.956  1.1926  0.4546 -0.7476
 1560SOL     OW16141   1.116   1.286   9.389  1.2713 -0.5207  0.2937
 1560SOL    HW116142   1.199   1.290   9.342  0.9975 -1.2824 -0.2601
 1560SOL    HW216143   1.108   1.193   9.411 -1.4519 -0.2396  0.4604
 1561SOL     OW16144   0.802   3.106   8.135 -0.4747 -0.5228  0.3811
 1561SOL    HW116145   0.787   3.112   8.041 -0.7080 -1.4108  0.3608
 1561SOL    HW216146   0.790   3.011   8.132  0.4394 -0.6641  1.0575
 1562SOL     OW16147   0.520   2.030   6.399  0.8048 -0.5290  0.3467
 1562SOL    HW116148   0.487   2.089   6.332  0.2209  0.9035  1.9060
 1562SOL    HW216149   0.514   1.947   6.352  0.4062 -0.6441  0.5947
 1563SOL     OW16150   4.397   1.569   8.366  0.5174 -0.4614  0.0238
 1563SOL    HW116151   4.485   1.566   8.328 -0.2308 -1.0757 -1.6799
 1563SOL    HW216152   4.349   1.632   8.312  0.7113 -1.0718 -0.8733
 1564SOL     OW16153   3.065   3.242   5.142  0.7777  0.0042  0.2838
 1564SOL    HW116154   3.112   3.191   5.208  0.7842 -1.0039 -0.5163
 1564SOL    HW216155   2.994   3.263   5.203  0.0061 -0.4657 -0.4536
 1565SOL     OW16156   0.298   2.409  13.331 -0.0210 -0.3052  0.0454
 1565SOL    HW116157   0.375   2.352  13.334  0.8503  0.6604 -3.5255
 1565SOL    HW216158   0.247   2.359  13.394  1.3781 -1.3434  0.3559
 1566SOL     OW16159   1.625   4.652   7.185 -0.2579  0.0909  0.1004
 1566SOL    HW116160   1.539   4.661   7.226  0.3578  2.7893  0.7989
 1566SOL    HW216161   1.602   4.576   7.131  3.3299 -0.1645 -1.0326
 1567SOL     OW16162   1.148   4.245   8.938 -0.6140 -0.3310 -0.0748
 1567SOL    HW116163   1.138   4.213   9.028  0.3605  0.7699  0.4358
 1567SOL    HW216164   1.074   4.301   8.918 -0.7016 -0.1157  0.8198
 1568SOL     OW16165   0.065   4.101   6.697  0.1009  0.2946 -0.4974
 1568SOL    HW116166   0.096   4.037   6.633  2.1443 -0.9393  1.7138
 1568SOL    HW216167   0.136   4.165   6.708  1.2554 -0.8356 -1.3530
 1569SOL     OW16168   1.624   2.775  10.646 -0.4572  0.3682  0.1150
 1569SOL    HW116169   1.668   2.859  10.637  0.2512 -0.1067 -0.8098
 1569SOL    HW216170   1.533   2.788  10.619 -0.1869  0.5597 -0.6867
 1570SOL     OW16171   1.895   4.176   6.848 -0.7741  0.0654 -0.0856
 1570SOL    HW116172   1.955   4.104   6.865  1.0127  1.5371 -0.1159
 1570SOL    HW216173   1.872   4.208   6.935  0.6470 -0.3222  0.4203
 1571SOL     OW16174   3.225   3.683   0.748  0.2802 -0.3231  0.1056
 1571SOL    HW116175   3.227   3.636   0.832  0.7042  0.1458  0.3541
 1571SOL    HW216176   3.302   3.738   0.752  0.7923 -1.1506  1.7123
 1572SOL     OW16177   3.428   1.391   4.977  0.3133 -0.3433 -0.1579
 1572SOL    HW116178   3.459   1.479   5.000 -0.7731  0.7857 -3.0599
 1572SOL    HW216179   3.336   1.412   4.965  1.0227  2.0658 -1.6110
 1573SOL     OW16180   0.052   3.680   8.950 -0.2074 -0.0211 -0.0404
 1573SOL    HW116181   0.135   3.709   8.988 -0.6281 -0.7503  1.4514
 1573SOL    HW216182   0.024   3.760   8.907  0.2929  0.9794  1.4913
 1574SOL     OW16183   2.851   2.832   5.171  0.2678 -0.0955  0.1372
 1574SOL    HW116184   2.894   2.747   5.178 -1.0027 -0.6010  1.8319
 1574SOL    HW216185   2.767   2.801   5.137  0.8753 -0.0658 -1.3865
 1575SOL     OW16186   2.538   4.554   4.737 -0.4272  0.4998  0.4460
 1575SOL    HW116187   2.483   4.495   4.788  0.1278  0.4240  0.9617
 1575SOL    HW216188   2.474   4.610   4.693 -0.4700  1.5669  1.8574
 1576SOL     OW16189   3.570   3.624   7.543 -0.0047  0.1347 -0.2274
 1576SOL    HW116190   3.614   3.688   7.599 -0.6907  0.3803  0.0408
 1576SOL    HW216191   3.594   3.544   7.589 -0.9386  0.0806  0.1688
 1577SOL     OW16192   3.850   0.639   8.078 -0.2858  0.2715 -0.7913
 1577SOL    HW116193   3.891   0.650   8.164 -1.0952  0.5127 -0.4354
 1577SOL    HW216194   3.796   0.718   8.067 -2.6680 -1.2104  0.2423
 1578SOL     OW16195   4.396   0.198   3.645  0.1900 -0.1344 -0.8258
 1578SOL    HW116196   4.366   0.129   3.585 -3.9336  2.3659 -1.6224
 1578SOL    HW216197   4.463   0.154   3.697 -0.5151 -0.8805 -0.5367
 1579SOL     OW16198   2.376   3.358   2.345 -0.0014 -0.1889 -0.2682
 1579SOL    HW116199   2.338   3.377   2.259 -0.4197 -1.3308 -0.3404
 1579SOL    HW216200   2.296   3.332   2.391  0.0504  0.6336  0.2864
 1580SOL     OW16201   1.374   3.090  12.357  0.3511  0.0415  0.1377
 1580SOL    HW116202   1.412   3.177  12.344  1.3471 -0.2713  0.9072
 1580SOL    HW216203   1.453   3.046  12.324 -0.1064 -2.4703  2.3681
 1581SOL     OW16204   0.127   3.321  12.862 -0.0923  0.6879 -0.2467
 1581SOL    HW116205   0.074   3.259  12.914 -0.5211 -0.7839 -2.4411
 1581SOL    HW216206   0.182   3.257  12.817  0.4860  1.6040 -0.8473
 1582SOL     OW16207   4.663   1.436   1.874  0.2876 -0.4099  0.1844
 1582SOL    HW116208   4.605   1.470   1.941  1.5042 -0.9926  1.5220
 1582SOL    HW216209   4.725   1.392   1.932  0.2051 -2.0510 -0.9618
 1583SOL     OW16210   4.336   4.006   0.913  0.0705 -0.3648  0.2838
 1583SOL    HW116211   4.416   4.055   0.893 -0.2296 -1.7907 -4.5604
 1583SOL    HW216212   4.363   3.936   0.853 -0.5914  0.4170 -0.9260
 1584SOL     OW16213   0.968   1.352   3.954 -0.0854  0.7034 -0.3839
 1584SOL    HW116214   0.992   1.273   3.904 -1.4945  1.0554 -1.6011
 1584SOL    HW216215   1.049   1.359   4.005 -1.1641 -1.9744  1.6768
 1585SOL     OW16216   2.004   2.067   0.351  0.3659 -0.5238  0.0369
 1585SOL    HW116217   1.939   2.109   0.407 -0.7924 -0.1634 -1.5824
 1585SOL    HW216218   2.027   2.147   0.304  0.1182 -1.4521 -1.6823
 1586SOL     OW16219   0.787   2.858   7.908 -0.2377 -0.6484  0.0617
 1586SOL    HW116220   0.703   2.814   7.925 -0.3724  0.2260  1.6838
 1586SOL    HW216221   0.841   2.813   7.973  2.4681  2.8699  0.2125
 1587SOL     OW16222   1.552   3.871   3.268 -0.0292 -0.4804 -0.5800
 1587SOL    HW116223   1.600   3.900   3.190  1.5216 -1.7306 -0.1097
 1587SOL    HW216224   1.518   3.953   3.304  0.3583 -0.8331  0.5836
 1588SOL     OW16225   1.993   1.526  17.344  0.0448  0.3970  0.2449
 1588SOL    HW116226   2.049   1.566  17.278 -0.4057  3.0520  1.4614
 1588SOL    HW216227   1.999   1.433  17.325  2.3714  0.7490 -0.7203
 1589SOL     OW16228   0.177   0.276   7.712  0.0935 -0.2302  0.0865
 1589SOL    HW116229   0.097   0.286   7.762 -0.4104 -0.8567 -0.5893
 1589SOL    HW216230   0.240   0.298   7.780 -0.7993 -0.8984  1.1254
 1590SOL     OW16231   4.250   3.376   7.997 -0.3646  0.1780 -0.1435
 1590SOL    HW116232   4.245   3.349   7.905  3.4414  0.0004 -0.2939
 1590SOL    HW216233   4.271   3.295   8.044 -1.2417  0.3768  0.5734
 1591SOL     OW16234   1.547   3.444   6.789 -0.5633  0.3551  0.5377
 1591SOL    HW116235   1.580   3.528   6.821  0.2448 -0.9312  3.0034
 1591SOL    HW216236   1.453   3.460   6.795 -0.2911  2.0861  0.1386
 1592SOL     OW16237   1.236   0.781   2.693  0.1606 -0.1604 -0.8114
 1592SOL    HW116238   1.267   0.871   2.700 -0.8421  0.1255  0.0282
 1592SOL    HW216239   1.307   0.738   2.740 -0.1669  0.2615  0.0612
 1593SOL     OW16240   4.040   1.276   6.233  0.2491  0.5172 -0.3983
 1593SOL    HW116241   4.073   1.211   6.171 -1.2699 -0.3249 -0.3519
 1593SOL    HW216242   4.053   1.248   6.324  1.8535  0.5662 -0.6246
 1594SOL     OW16243   2.600   0.910  12.709 -0.2984 -0.3783 -0.1896
 1594SOL    HW116244   2.695   0.914  12.709 -0.2516 -1.4495 -0.6033
 1594SOL    HW216245   2.583   0.936  12.619 -1.9967  0.4992  0.3862
 1595SOL     OW16246   3.214   3.069   3.291  0.3046  0.2689 -0.7570
 1595SOL    HW116247   3.157   3.145   3.287 -1.7096 -1.1087  1.2549
 1595SOL    HW216248   3.303   3.103   3.282  0.1664  0.8126 -0.1216
 1596SOL     OW16249   1.395   2.485   2.127  0.4485 -0.1093 -0.1307
 1596SOL    HW116250   1.427   2.536   2.201  0.8282  0.4669 -0.6951
 1596SOL    HW216251   1.459   2.413   2.125  1.2594  0.6417 -1.6603
 1597SOL     OW16252   1.451   0.295   7.136  0.8006 -0.2435  0.3155
 1597SOL    HW116253   1.532   0.256   7.169  1.4454  0.5200 -0.3513
 1597SOL    HW216254   1.421   0.300   7.227 -2.0094  2.4512 -0.7675
 1598SOL     OW16255   0.100   1.964   7.555 -0.0490 -0.2376 -0.4530
 1598SOL    HW116256   0.141   2.016   7.623  1.7066 -1.2816 -0.7244
 1598SOL    HW216257   0.017   1.944   7.600 -0.2769 -2.2726 -1.7633
 1599SOL     OW16258   4.536   2.407   6.755 -0.2905  0.2585  0.2273
 1599SOL    HW116259   4.456   2.392   6.704 -0.6071  1.1992  0.4368
 1599SOL    HW216260   4.506   2.361   6.834  0.0586 -0.3552  0.0042
 1600SOL     OW16261   2.963   4.229   1.986 -0.4532 -0.1534  0.3943
 1600SOL    HW116262   2.953   4.134   1.977  0.4468 -0.2560  0.5070
 1600SOL    HW216263   3.055   4.243   2.005  0.3092 -1.0543 -2.5488
 1601SOL     OW16264   0.894   2.891  11.442  0.5739  0.0647 -0.5541
 1601SOL    HW116265   0.888   2.945  11.364 -0.8968 -2.2845 -2.0549
 1601SOL    HW216266   0.915   2.809  11.398  1.7578 -0.1185  0.3358
 1602SOL     OW16267   0.434   2.230   6.951  0.0686  0.4296  0.2971
 1602SOL    HW116268   0.415   2.277   6.870 -0.5613 -1.8303 -0.8615
 1602SOL    HW216269   0.490   2.291   6.999 -1.0869  0.3308  1.7892
 1603SOL     OW16270   1.140   2.792   5.502 -0.3201  0.7404 -0.4536
 1603SOL    HW116271   1.194   2.845   5.443  0.9556 -1.3805 -1.1941
 1603SOL    HW216272   1.211   2.755   5.554 -0.0365  0.4526 -1.0536
 1604SOL     OW16273   4.605   2.420  14.059 -0.0514  0.2396 -0.6852
 1604SOL    HW116274   4.531   2.424  14.120 -0.1687  0.5045 -0.8401
 1604SOL    HW216275   4.620   2.514  14.069 -1.4488  0.0951  2.7675
 1605SOL     OW16276   1.546   0.503   1.938  0.3396  0.2423 -0.5020
 1605SOL    HW116277   1.528   0.409   1.946  1.3707  0.0927 -0.0228
 1605SOL    HW216278   1.462   0.538   1.968  1.2289  1.7606  0.2157
 1606SOL     OW16279   3.241   2.186   1.341 -0.5819  0.0457  0.1561
 1606SOL    HW116280   3.317   2.135   1.311 -0.5248  0.0659  0.2653
 1606SOL    HW216281   3.243   2.158   1.433 -0.5269 -1.5428 -0.3209
 1607SOL     OW16282   4.284   0.552  12.993  0.1936  0.4723 -0.1375
 1607SOL    HW116283   4.346   0.489  12.957  2.3356  1.5679  1.7004
 1607SOL    HW216284   4.345   0.601  13.048  1.0102 -0.0915 -0.5445
 1608SOL     OW16285   1.066   4.098   7.415  0.4536 -0.0833  0.7898
 1608SOL    HW116286   1.099   4.111   7.326 -0.1375  3.7794  1.1271
 1608SOL    HW216287   1.146   4.112   7.465  1.8828 -0.4216 -1.4140
 1609SOL     OW16288   3.257   0.636   2.396 -0.1310  0.1527 -0.5691
 1609SOL    HW116289   3.315   0.587   2.338  0.5849  3.2446 -2.4922
 1609SOL    HW216290   3.283   0.596   2.479 -0.9568 -0.2929 -0.5276
 1610SOL     OW16291   3.986   0.731   2.895 -0.2537 -0.0831 -0.3910
 1610SOL    HW116292   4.050   0.671   2.934 -0.4859  0.7834  1.2781
 1610SOL    HW216293   3.977   0.792   2.967  2.4417 -0.0301 -0.1005
 1611SOL     OW16294   2.279   2.777   3.470  0.1202 -0.3970 -0.3978
 1611SOL    HW116295   2.300   2.758   3.379  0.8783  0.8369 -0.4820
 1611SOL    HW216296   2.263   2.690   3.508  0.2863  1.2245  3.4019
 1612SOL     OW16297   4.097   1.562  13.887  0.0125 -0.4271  0.7292
 1612SOL    HW116298   4.048   1.643  13.896  1.6491  0.6115  0.4471
 1612SOL    HW216299   4.077   1.529  13.800 -0.5518  2.4552 -0.2490
 1613SOL     OW16300   3.589   4.093   0.069  0.1839 -0.1084  0.3101
 1613SOL    HW116301   3.579   4.011   0.021 -0.5815 -0.1256  0.4962
 1613SOL    HW216302   3.614   4.066   0.157  0.0678  0.1036  0.4085
 1614SOL     OW16303   3.856   3.332   2.315 -0.1723 -0.0114 -0.3005
 1614SOL    HW116304   3.908   3.328   2.395 -0.2198  0.0453 -0.2669
 1614SOL    HW216305   3.883   3.422   2.294  0.4831  0.5286  2.8021
 1615SOL     OW16306   1.878   0.641   5.082 -0.1834  0.3908 -0.5747
 1615SOL    HW116307   1.930   0.680   5.152 -0.3504  0.0440 -0.2602
 1615SOL    HW216308   1.889   0.547   5.095  1.3841  0.5209 -0.9761
 1616SOL     OW16309   0.315   2.407   3.529  0.1154  0.6166  0.0809
 1616SOL    HW116310   0.357   2.322   3.522  1.2415  1.1457  0.4479
 1616SOL    HW216311   0.321   2.422   3.435  0.9055 -0.5580 -0.0529
 1617SOL     OW16312   3.508   2.195  17.138 -0.0663  0.3048  0.0864
 1617SOL    HW116313   3.542   2.135  17.071 -0.3633  1.0720 -0.7525
 1617SOL    HW216314   3.587   2.250  17.143  0.2769 -0.0435 -1.3805
 1618SOL     OW16315   0.194   2.560   0.501  0.2469 -0.2580 -0.2792
 1618SOL    HW116316   0.202   2.649   0.465  2.9856 -0.0537  0.9178
 1618SOL    HW216317   0.100   2.557   0.522  0.4974 -1.2408  0.6583
 1619SOL     OW16318   4.229   2.768   7.060  0.0289 -0.0869  0.0198
 1619SOL    HW116319   4.188   2.724   6.986  0.8572 -0.3002 -0.3223
 1619SOL    HW216320   4.189   2.852   7.037 -0.4478 -0.4037 -0.2998
 1620SOL     OW16321   0.302   1.588   6.689  0.3729  0.2921 -1.0999
 1620SOL    HW116322   0.210   1.576   6.713  1.0147  1.0659  1.7913
 1620SOL    HW216323   0.322   1.657   6.752  0.5928 -2.4325  1.8193
 1621SOL     OW16324   1.646   4.273   8.216  0.2477 -0.1800  0.2812
 1621SOL    HW116325   1.611   4.238   8.298  0.2215 -0.9864 -0.0800
 1621SOL    HW216326   1.715   4.329   8.252  0.2129  0.2790 -0.3564
 1622SOL     OW16327   3.741   3.135   8.173 -0.0579 -0.3271  0.2478
 1622SOL    HW116328   3.812   3.198   8.187 -0.3211 -0.0697  0.4118
 1622SOL    HW216329   3.743   3.076   8.248  0.5890  0.0085  0.4937
 1623SOL     OW16330   2.278   3.408   5.396 -0.9927 -0.7126  0.0863
 1623SOL    HW116331   2.359   3.454   5.373 -2.1055  1.5452  0.7649
 1623SOL    HW216332   2.223   3.478   5.430 -3.2250 -2.5923  0.3893
 1624SOL     OW16333   0.142   1.928   8.095 -0.2424 -0.1505  0.7661
 1624SOL    HW116334   0.133   1.835   8.118  3.7724 -0.2298  2.0379
 1624SOL    HW216335   0.224   1.939   8.047  0.3653 -0.3888  1.7486
 1625SOL     OW16336   2.853   4.416  10.518 -0.0705 -0.3014  0.1191
 1625SOL    HW116337   2.778   4.475  10.521  1.6282  1.9075 -1.1365
 1625SOL    HW216338   2.807   4.336  10.493 -1.1359 -0.6034  2.9752
 1626SOL     OW16339   2.162   2.026   0.074  0.3132 -0.0504 -0.5060
 1626SOL    HW116340   2.119   1.981   0.146 -0.0446 -0.7844 -1.1775
 1626SOL    HW216341   2.252   2.036   0.104  0.2404 -0.2367 -0.2301
 1627SOL     OW16342   3.040   1.326   4.515  1.4040 -0.4714  0.2832
 1627SOL    HW116343   3.031   1.410   4.559  3.1866  0.8247 -1.8035
 1627SOL    HW216344   3.019   1.265   4.585 -0.6825  1.3293  1.2029
 1628SOL     OW16345   3.671   1.423   3.205  0.6572 -0.4594 -0.3332
 1628SOL    HW116346   3.666   1.330   3.227 -0.3763  0.0843  1.6623
 1628SOL    HW216347   3.577   1.441   3.209  0.6530 -0.2762 -1.1548
 1629SOL     OW16348   3.831   3.856  11.018 -0.0474  0.9365 -0.2003
 1629SOL    HW116349   3.860   3.947  11.004 -3.0863  1.5004 -2.7861
 1629SOL    HW216350   3.764   3.878  11.083  0.5332 -0.7950  0.9680
 1630SOL     OW16351   0.157   0.410   3.789  0.8494  0.2677  0.0184
 1630SOL    HW116352   0.090   0.374   3.847  1.2393  2.6473  1.9800
 1630SOL    HW216353   0.101   0.485   3.772  0.1598 -0.1655  0.3795
 1631SOL     OW16354   0.019   4.464  12.152  0.2213 -1.0369  0.4630
 1631SOL    HW116355   4.704   4.507  12.227  3.5984 -3.1237  3.5251
 1631SOL    HW216356   0.073   4.400  12.199  1.3534 -0.8091 -0.5239
 1632SOL     OW16357   3.664   4.050   1.827 -0.5225  0.1911 -0.8926
 1632SOL    HW116358   3.728   3.992   1.869 -0.4024  1.4076  0.5851
 1632SOL    HW216359   3.701   4.128   1.868  0.0894 -0.8263  0.5055
 1633SOL     OW16360   1.941   0.111   7.278  0.3813  0.1972 -0.0734
 1633SOL    HW116361   2.014   0.161   7.315 -0.8282  0.9274  1.3254
 1633SOL    HW216362   1.957   0.023   7.312 -1.6121  0.6743  2.0697
 1634SOL     OW16363   1.422   0.115  11.049 -0.2337  0.1045  1.0517
 1634SOL    HW116364   1.444   0.206  11.071  2.1829  0.2951 -2.1470
 1634SOL    HW216365   1.370   0.119  10.968  1.6241  1.0133 -0.1042
 1635SOL     OW16366   4.716   0.611  17.505  0.1556  0.5585  0.5566
 1635SOL    HW116367   4.624   0.623  17.484  0.4743  3.5984  0.8711
 1635SOL    HW216368   0.025   0.567  17.428 -0.4206  1.1357 -0.0333
 1636SOL     OW16369   3.261   1.244   1.908 -0.0276  0.3020  0.2989
 1636SOL    HW116370   3.170   1.218   1.922 -0.3400  1.4734  0.4837
 1636SOL    HW216371   3.306   1.179   1.854  1.8490  1.0656  0.9401
 1637SOL     OW16372   2.910   1.151  10.234  0.9485  0.1675 -0.3164
 1637SOL    HW116373   2.945   1.173  10.148  1.5317  0.3661 -0.0308
 1637SOL    HW216374   2.882   1.063  10.209 -1.3920  0.4412  1.3934
 1638SOL     OW16375   2.899   1.797  15.901 -0.1934  0.5933 -0.1491
 1638SOL    HW116376   2.815   1.788  15.947 -0.5179  0.3886 -0.7819
 1638SOL    HW216377   2.884   1.889  15.881 -4.2636  0.0278  0.3016
 1639SOL     OW16378   1.315   0.303  15.373 -0.7056  0.0761 -0.1728
 1639SOL    HW116379   1.346   0.215  15.349 -2.1265  0.1768 -2.3121
 1639SOL    HW216380   1.394   0.340  15.413 -0.4914  2.0455 -2.3961
 1640SOL     OW16381   1.556   0.484   8.003 -0.8032 -0.3736 -0.2268
 1640SOL    HW116382   1.508   0.402   8.015  1.3098 -1.6033 -0.2544
 1640SOL    HW216383   1.508   0.508   7.924 -0.4726 -0.1870 -0.3695
 1641SOL     OW16384   4.159   0.174   7.492  0.1611 -0.2039  0.4812
 1641SOL    HW116385   4.234   0.227   7.516  0.9760  0.0606 -2.7200
 1641SOL    HW216386   4.191   0.085   7.480 -1.7783 -0.8319 -0.1555
 1642SOL     OW16387   2.361   3.082  13.107 -0.1253  0.1022 -0.6349
 1642SOL    HW116388   2.446   3.097  13.066 -1.0570 -0.2480 -2.6608
 1642SOL    HW216389   2.375   3.117  13.196  1.0322  0.7250 -1.0633
 1643SOL     OW16390   1.519   0.945  17.423  0.2774 -0.1584 -0.3029
 1643SOL    HW116391   1.521   1.002  17.500 -0.2734 -1.2164  0.4962
 1643SOL    HW216392   1.502   1.008  17.353  0.5360 -0.3273 -0.5157
 1644SOL     OW16393   0.380   2.141   8.053  0.1091 -0.0142  0.2968
 1644SOL    HW116394   0.385   2.123   8.147 -1.9838  0.1799  0.4459
 1644SOL    HW216395   0.425   2.070   8.009 -1.3998 -0.4295 -0.5580
 1645SOL     OW16396   0.504   4.712  10.828 -0.0002 -0.1108  0.1027
 1645SOL    HW116397   0.432   0.009  10.886 -1.8259 -3.2851 -0.8997
 1645SOL    HW216398   0.543   4.638  10.874  1.1039  0.7953  0.6220
 1646SOL     OW16399   1.216   0.524   1.347 -0.0316 -0.1889  0.0673
 1646SOL    HW116400   1.206   0.596   1.409 -1.2486 -0.2056 -0.1152
 1646SOL    HW216401   1.169   0.451   1.387 -0.6994 -0.0278 -0.4235
 1647SOL     OW16402   3.609   0.697   5.375 -0.7928 -0.2522  0.2650
 1647SOL    HW116403   3.661   0.768   5.337 -0.7332 -0.6926 -0.4816
 1647SOL    HW216404   3.601   0.631   5.306 -0.1312  0.7976 -0.8105
 1648SOL     OW16405   1.029   2.020  14.878 -0.0982 -0.6558  0.0837
 1648SOL    HW116406   1.045   2.090  14.814  1.4656 -0.6549  0.4629
 1648SOL    HW216407   0.946   1.994  14.839 -0.8333  1.9227 -0.1032
 1649SOL     OW16408   4.223   2.207   8.094  0.3475  0.0711 -0.0134
 1649SOL    HW116409   4.231   2.221   8.189  1.3573 -0.7123  0.0111
 1649SOL    HW216410   4.314   2.194   8.067  0.4030  0.9928 -0.2648
 1650SOL     OW16411   3.827   3.519   4.609 -0.2734  0.4793 -0.4120
 1650SOL    HW116412   3.747   3.515   4.557 -0.7990 -1.2836  0.5213
 1650SOL    HW216413   3.877   3.469   4.544 -0.7949  0.0493 -0.4828
 1651SOL     OW16414   0.261   0.503   2.179 -0.1693 -0.0004 -0.0730
 1651SOL    HW116415   0.313   0.489   2.258 -1.4160 -5.0440 -0.0835
 1651SOL    HW216416   0.256   0.413   2.145  1.9228 -0.9149  2.0795
 1652SOL     OW16417   0.696   4.352   6.053 -0.2600  0.2581 -0.4843
 1652SOL    HW116418   0.777   4.336   6.103 -0.4773 -0.9085 -0.4976
 1652SOL    HW216419   0.694   4.447   6.041  0.0841  0.2223 -0.8198
 1653SOL     OW16420   3.842   1.753   8.637 -0.4730  0.1232  0.0585
 1653SOL    HW116421   3.894   1.808   8.694  0.1003 -1.4686  1.0623
 1653SOL    HW216422   3.841   1.674   8.691  1.1817 -0.2462 -0.4526
 1654SOL     OW16423   4.236   3.780   5.655  0.4261  1.1166 -0.9869
 1654SOL    HW116424   4.324   3.809   5.633  0.5937  0.0834 -1.6519
 1654SOL    HW216425   4.195   3.857   5.696 -1.9159 -0.8315  0.3469
 1655SOL     OW16426   2.657   0.968   1.096  0.1601 -0.2147 -0.3015
 1655SOL    HW116427   2.610   1.038   1.052 -0.9879 -0.9715 -0.2861
 1655SOL    HW216428   2.590   0.900   1.095  0.3914 -0.4474 -0.3042
 1656SOL     OW16429   4.356   1.287  14.790 -0.4481 -0.5837 -0.0392
 1656SOL    HW116430   4.436   1.293  14.842  0.3754  2.1716 -1.6333
 1656SOL    HW216431   4.356   1.194  14.765  1.5542 -0.5282 -0.2461
 1657SOL     OW16432   4.191   2.407   7.037  0.4680 -0.2690  0.5396
 1657SOL    HW116433   4.180   2.464   6.961  0.1017 -0.3247  0.5517
 1657SOL    HW216434   4.140   2.332   7.006  0.9489 -0.5679  0.4697
 1658SOL     OW16435   4.723   1.343   5.562 -0.3193  0.2075  0.1180
 1658SOL    HW116436   0.024   1.315   5.650 -1.7019  0.0851  0.4968
 1658SOL    HW216437   4.716   1.257   5.521 -0.6478  0.9557 -1.4129
 1659SOL     OW16438   3.414   3.901   8.774  0.1027  0.3591 -0.1616
 1659SOL    HW116439   3.470   3.967   8.816 -1.2924  2.0964 -1.0193
 1659SOL    HW216440   3.344   3.951   8.734 -2.3479 -3.0353 -0.1120
 1660SOL     OW16441   4.324   1.439   4.435 -0.5233 -0.0117  0.2754
 1660SOL    HW116442   4.419   1.446   4.446 -0.0225 -1.7204 -3.0704
 1660SOL    HW216443   4.291   1.509   4.492  0.3696  2.7830 -2.6663
 1661SOL     OW16444   0.674   2.492  10.055 -0.1288  0.9841 -0.1850
 1661SOL    HW116445   0.690   2.493   9.960 -1.2956  2.5487 -0.3697
 1661SOL    HW216446   0.763   2.479  10.086 -0.6991  0.3830  1.2044
 1662SOL     OW16447   3.341   0.926   8.862  0.3912  0.2209 -0.1972
 1662SOL    HW116448   3.324   0.835   8.888 -1.2154  1.6203  3.6885
 1662SOL    HW216449   3.344   0.916   8.767 -0.3737  0.6239 -0.2598
 1663SOL     OW16450   1.858   0.261   6.244 -0.1479 -0.6054 -0.5987
 1663SOL    HW116451   1.773   0.302   6.224 -0.8618 -1.9893 -0.3784
 1663SOL    HW216452   1.866   0.283   6.337 -1.1352  1.6776 -1.0390
 1664SOL     OW16453   0.600   3.397   5.596 -0.3774 -0.4739 -0.3862
 1664SOL    HW116454   0.633   3.393   5.506  0.2296  3.5919 -0.3666
 1664SOL    HW216455   0.567   3.309   5.611  1.0906 -1.2803 -1.8781
 1665SOL     OW16456   0.435   3.803   8.272 -0.2184 -0.5880  0.4887
 1665SOL    HW116457   0.520   3.820   8.231 -0.0407  0.1488  1.1864
 1665SOL    HW216458   0.378   3.823   8.197 -1.7061 -0.2196  1.7220
 1666SOL     OW16459   0.196   0.020   5.558  0.1289  0.0174  0.2162
 1666SOL    HW116460   0.186   0.004   5.652 -3.2487 -0.5745 -0.2570
 1666SOL    HW216461   0.291   0.019   5.552  0.1949  2.5337  1.0484
 1667SOL     OW16462   3.996   0.066   1.185 -0.4077 -0.0213  0.0460
 1667SOL    HW116463   3.969   0.002   1.251 -2.1126 -0.9167 -1.5085
 1667SOL    HW216464   4.025   0.141   1.237  1.5814 -0.2492 -0.7335
 1668SOL     OW16465   2.828   2.641   4.142 -0.2249  0.0822 -0.2459
 1668SOL    HW116466   2.798   2.610   4.056  1.5575 -1.7466 -0.2294
 1668SOL    HW216467   2.806   2.734   4.143 -0.5077 -0.0330  3.1600
 1669SOL     OW16468   4.675   2.492  12.964  0.4334  0.0294  0.4982
 1669SOL    HW116469   4.650   2.573  12.921  0.4434 -2.2877 -3.8441
 1669SOL    HW216470   0.015   2.534  13.020  1.4479 -3.0289  1.5968
 1670SOL     OW16471   1.403   1.685   6.490  0.0692  0.8385 -0.1172
 1670SOL    HW116472   1.490   1.685   6.450 -1.2472  0.0242 -2.9332
 1670SOL    HW216473   1.373   1.594   6.489  2.6631 -0.0629  2.6932
 1671SOL     OW16474   2.735   4.714   4.464  0.0896  0.1150  0.9646
 1671SOL    HW116475   2.811   0.013   4.411 -1.0469 -3.9166 -2.5728
 1671SOL    HW216476   2.752   4.620   4.477 -0.3779 -0.4349 -2.3378
 1672SOL     OW16477   2.927   3.489  17.083 -0.5199  0.1314  0.0451
 1672SOL    HW116478   2.904   3.441  17.004 -0.4289  1.2144 -0.6397
 1672SOL    HW216479   2.906   3.430  17.156  0.4344 -0.2998 -0.0329
 1673SOL     OW16480   3.893   2.495   9.579  0.4611 -0.7269  0.3899
 1673SOL    HW116481   3.882   2.402   9.558  0.6642 -0.4087 -1.0612
 1673SOL    HW216482   3.928   2.520   9.494 -1.5283 -0.1510 -0.2582
 1674SOL     OW16483   1.471   2.996   7.063  0.4130  0.4145  0.3475
 1674SOL    HW116484   1.454   3.048   6.985 -0.3993  0.1505  0.3494
 1674SOL    HW216485   1.391   3.011   7.113 -1.5858 -3.5772 -1.6826
 1675SOL     OW16486   1.594   4.720   8.638 -0.5376  0.0979 -0.3892
 1675SOL    HW116487   1.655   0.034   8.577 -0.2801 -0.9615 -0.8232
 1675SOL    HW216488   1.619   0.044   8.715  0.3395 -1.1769  0.1528
 1676SOL     OW16489   2.718   3.512   2.599 -0.7698 -0.2063  0.3672
 1676SOL    HW116490   2.666   3.569   2.542 -1.9279 -0.7916  0.8545
 1676SOL    HW216491   2.804   3.515   2.556 -0.5881 -1.0128  0.6810
 1677SOL     OW16492   0.317   0.269   6.725 -0.3550 -0.2385 -0.5158
 1677SOL    HW116493   0.257   0.212   6.676 -0.4882  0.7401 -1.4860
 1677SOL    HW216494   0.392   0.284   6.667 -1.9239  0.9442 -2.2577
 1678SOL     OW16495   1.298   1.622   1.984  0.2781  0.0828  0.1312
 1678SOL    HW116496   1.237   1.687   2.018 -1.3049 -0.5805 -1.4262
 1678SOL    HW216497   1.350   1.669   1.918 -1.0929  0.2387 -0.8444
 1679SOL     OW16498   3.540   4.187   7.909  0.4535  0.3677  0.0678
 1679SOL    HW116499   3.560   4.166   8.000 -0.1608  2.5977  0.7133
 1679SOL    HW216500   3.563   4.279   7.901 -0.9507  0.8077  1.0406
 1680SOL     OW16501   3.336   4.219   5.200 -0.0544 -0.6686 -0.0385
 1680SOL    HW116502   3.302   4.146   5.252 -1.6327  0.5207  0.6049
 1680SOL    HW216503   3.323   4.186   5.110  0.9463  3.1444 -1.5747
 1681SOL     OW16504   1.923   1.153   4.480 -0.1295 -0.6160  0.6180
 1681SOL    HW116505   1.984   1.196   4.421 -1.2201 -1.6378 -1.2781
 1681SOL    HW216506   1.846   1.152   4.422  0.0094  0.2377  0.4221
 1682SOL     OW16507   0.792   2.877   6.576  0.2660 -0.2657  0.1588
 1682SOL    HW116508   0.733   2.875   6.651  1.9336 -0.0194  1.4533
 1682SOL    HW216509   0.748   2.827   6.507 -1.4186 -1.5457  2.1481
 1683SOL     OW16510   2.936   0.510   6.156  0.4684  0.4495  0.1262
 1683SOL    HW116511   2.910   0.476   6.071  0.2315  0.7512  0.0761
 1683SOL    HW216512   2.875   0.459   6.210  0.0240  2.5423  1.5831
 1684SOL     OW16513   1.248   1.941   8.500 -0.4196  0.1279 -0.1602
 1684SOL    HW116514   1.156   1.917   8.517  0.4105 -1.5865  1.9424
 1684SOL    HW216515   1.267   1.963   8.591 -1.4218  0.8978 -0.1266
 1685SOL     OW16516   2.446   2.304   0.696  0.4061 -0.3828 -0.0884
 1685SOL    HW116517   2.422   2.368   0.763  0.3235  1.5991 -2.0225
 1685SOL    HW216518   2.381   2.236   0.714 -1.8658  2.2247  1.4769
 1686SOL     OW16519   3.094   2.155  10.925 -0.2216 -0.1021 -0.1609
 1686SOL    HW116520   3.156   2.084  10.937 -0.8657 -0.3751  1.4798
 1686SOL    HW216521   3.022   2.119  10.977  0.4816 -1.6068 -0.2194
 1687SOL     OW16522   2.069   1.228   3.125  0.1702  0.1973 -0.0523
 1687SOL    HW116523   2.159   1.258   3.142  1.1183 -1.5263 -2.0023
 1687SOL    HW216524   2.071   1.195   3.035  0.1629  0.1835 -0.0474
 1688SOL     OW16525   3.435   0.925   8.239  0.4157  0.6152 -0.7008
 1688SOL    HW116526   3.414   0.925   8.145  0.0697 -0.8248 -0.6166
 1688SOL    HW216527   3.419   0.832   8.256  1.6964  0.6502  0.6613
 1689SOL     OW16528   2.584   1.423  10.422  0.5498 -0.0402 -0.0373
 1689SOL    HW116529   2.586   1.397  10.514  1.1371  1.4264  0.3711
 1689SOL    HW216530   2.492   1.413  10.399  0.5180  0.2707 -0.0466
 1690SOL     OW16531   2.919   0.064  10.938  0.3988  0.1344 -0.1092
 1690SOL    HW116532   2.833   0.100  10.914 -0.6679 -2.3675 -0.0557
 1690SOL    HW216533   2.927   0.101  11.026 -1.0063  1.7071 -0.6357
 1691SOL     OW16534   3.999   1.884   0.485 -0.2282  0.4512  0.1186
 1691SOL    HW116535   3.932   1.852   0.424 -1.0100  0.7941  0.8017
 1691SOL    HW216536   4.054   1.942   0.433 -1.1514  0.6472 -0.6227
 1692SOL     OW16537   2.499   2.231   4.125  1.2882  0.1901 -0.4299
 1692SOL    HW116538   2.468   2.141   4.137 -1.0258  1.1977  1.2684
 1692SOL    HW216539   2.577   2.230   4.181  1.8888 -1.4895 -1.3035
 1693SOL     OW16540   1.449   2.722   6.913  0.2172 -0.1008  0.2123
 1693SOL    HW116541   1.441   2.704   7.006 -0.0149  2.9950  0.8124
 1693SOL    HW216542   1.358   2.748   6.898 -0.3855 -1.6769  1.2004
 1694SOL     OW16543   0.610   2.483  16.277  0.0519 -0.7772  0.0209
 1694SOL    HW116544   0.601   2.410  16.338 -1.7097 -0.4912  0.1086
 1694SOL    HW216545   0.701   2.511  16.285 -0.0173 -0.8456  0.9908
 1695SOL     OW16546   3.276   3.882   3.008  0.2779  0.0761  0.7697
 1695SOL    HW116547   3.181   3.889   3.005  0.4143  1.4220 -0.3338
 1695SOL    HW216548   3.293   3.873   3.102  0.7466 -0.6430  0.6172
 1696SOL     OW16549   2.942   1.441   2.640  0.3376 -0.5550  0.0456
 1696SOL    HW116550   2.891   1.493   2.577  1.9131 -0.7104 -1.3570
 1696SOL    HW216551   3.024   1.416   2.597 -0.1252  3.2641 -3.1320
 1697SOL     OW16552   2.121   1.755   5.303 -0.2448  0.2220 -0.0326
 1697SOL    HW116553   2.127   1.840   5.258  0.9108  0.7667  1.1528
 1697SOL    HW216554   2.181   1.702   5.251 -0.7617  1.1818 -1.6312
 1698SOL     OW16555   0.642   0.819   5.608  0.0234 -0.5839 -0.0676
 1698SOL    HW116556   0.710   0.754   5.623  1.6057  1.0173 -0.3245
 1698SOL    HW216557   0.572   0.763   5.643  0.2424 -1.3336 -0.8456
 1699SOL     OW16558   1.964   3.348   3.533 -0.0355  0.8268 -0.4199
 1699SOL    HW116559   2.005   3.404   3.467  0.9258  1.1308  0.4200
 1699SOL    HW216560   1.943   3.417   3.596  0.9217 -0.0327  0.8507
 1700SOL     OW16561   1.876   1.175   3.991 -0.3022  0.2043  0.2609
 1700SOL    HW116562   1.791   1.179   3.947  0.6672 -1.5593 -1.7481
 1700SOL    HW216563   1.881   1.266   4.021 -2.8769 -0.2389  2.0755
 1701SOL     OW16564   4.013   3.424   3.018  1.0558 -0.4184  0.7403
 1701SOL    HW116565   4.103   3.457   3.010  0.3538  1.4857  0.8761
 1701SOL    HW216566   3.994   3.427   3.112  0.4149 -0.5640  0.6142
 1702SOL     OW16567   2.068   4.177   7.588  0.2189  0.1793  0.1256
 1702SOL    HW116568   1.989   4.223   7.558  0.6199  0.5427 -0.3725
 1702SOL    HW216569   2.091   4.128   7.510 -1.4304  0.6532 -0.6761
 1703SOL     OW16570   0.667   4.611   5.514  0.1169  0.3633 -0.3240
 1703SOL    HW116571   0.713   4.621   5.431  1.0526 -2.2301 -0.1047
 1703SOL    HW216572   0.733   4.570   5.570 -0.3549  0.4660  0.3104
 1704SOL     OW16573   3.913   4.439  11.359  0.1779  0.1236 -0.4032
 1704SOL    HW116574   3.871   4.479  11.435 -0.7742  0.4076 -1.0856
 1704SOL    HW216575   3.859   4.361  11.352 -0.6050  0.7733 -1.5073
 1705SOL     OW16576   2.084   1.094   9.419  0.1487 -0.1863 -0.5060
 1705SOL    HW116577   1.993   1.126   9.418  0.6434  1.2209  0.7389
 1705SOL    HW216578   2.134   1.170   9.391  0.7977 -0.2118  0.6101
 1706SOL     OW16579   1.000   4.586   7.559  0.6388  0.4014  0.0012
 1706SOL    HW116580   1.061   4.530   7.606  0.2266 -0.4813 -0.5160
 1706SOL    HW216581   0.969   4.652   7.621 -0.1163 -0.4006  0.4753
 1707SOL     OW16582   0.659   2.741   3.422 -0.2041 -0.2599  0.0561
 1707SOL    HW116583   0.587   2.680   3.436 -1.2435  1.3960  1.9923
 1707SOL    HW216584   0.723   2.677   3.393  2.8615  2.7474  0.1862
 1708SOL     OW16585   2.797   2.121   3.700  0.3493 -0.3345  0.1890
 1708SOL    HW116586   2.792   2.065   3.623 -0.6527 -0.2142  0.1701
 1708SOL    HW216587   2.751   2.077   3.771  2.0568 -2.9983 -0.3763
 1709SOL     OW16588   1.667   2.698   7.863  0.2667 -0.2769  0.1988
 1709SOL    HW116589   1.628   2.611   7.861  2.9038 -1.4032 -2.8513
 1709SOL    HW216590   1.638   2.732   7.948  0.6087  0.6913 -0.0676
 1710SOL     OW16591   4.210   2.188   2.783  0.2470 -0.3295 -0.2152
 1710SOL    HW116592   4.140   2.128   2.757 -0.0856  0.4279 -1.0488
 1710SOL    HW216593   4.282   2.131   2.810  0.0290 -0.6780 -0.3679
 1711SOL     OW16594   1.065   4.388   5.753  0.3862  0.6082  0.2669
 1711SOL    HW116595   1.108   4.331   5.816  0.7654 -0.3071 -0.8219
 1711SOL    HW216596   1.101   4.344   5.676 -0.6831 -0.0320  0.1310
 1712SOL     OW16597   4.316   0.410  11.830 -0.9962  0.0349 -0.2052
 1712SOL    HW116598   4.247   0.356  11.868 -0.6312 -0.8259 -0.7630
 1712SOL    HW216599   4.315   0.490  11.884  1.8660  0.1047 -0.2554
 1713SOL     OW16600   1.109   1.231   2.878 -0.7524 -0.2080 -0.1799
 1713SOL    HW116601   1.045   1.160   2.885 -0.1527 -1.0610 -3.5689
 1713SOL    HW216602   1.055   1.295   2.831  0.9098  0.8488 -0.6492
 1714SOL     OW16603   4.019   0.972   2.717  0.4979 -0.3354 -0.0897
 1714SOL    HW116604   3.926   0.968   2.695  0.0206  2.5486  1.2871
 1714SOL    HW216605   4.029   0.906   2.786 -0.2681  1.5809  1.8596
 1715SOL     OW16606   3.554   3.795  12.182  0.5946  0.0625 -0.4275
 1715SOL    HW116607   3.470   3.834  12.206  1.5895  0.6470  2.1240
 1715SOL    HW216608   3.604   3.816  12.262  0.2068  1.5708 -0.5987
 1716SOL     OW16609   1.185   1.089   4.852 -0.4633 -0.4407  0.7997
 1716SOL    HW116610   1.268   1.058   4.889  0.6703 -0.9179 -2.1365
 1716SOL    HW216611   1.217   1.179   4.840  0.5378 -1.1748 -1.9318
 1717SOL     OW16612   0.876   1.177  14.261  0.2731 -0.0195 -0.2926
 1717SOL    HW116613   0.826   1.238  14.208 -1.1413 -0.3482  0.6659
 1717SOL    HW216614   0.883   1.104  14.198 -0.2749 -0.8436  0.6092
 1718SOL     OW16615   1.478   3.857   8.252 -0.5540  0.3016  0.7599
 1718SOL    HW116616   1.443   3.929   8.201 -0.9780 -2.0722 -2.2906
 1718SOL    HW216617   1.398   3.807   8.267 -0.8861  0.8423  0.7870
 1719SOL     OW16618   4.152   3.050  16.350 -0.6283 -0.0112  0.3233
 1719SOL    HW116619   4.100   2.969  16.348 -1.0282  0.2409  0.6304
 1719SOL    HW216620   4.213   3.034  16.277  1.1404 -0.1242  1.8191
 1720SOL     OW16621   4.320   1.832   4.970 -0.1785 -0.4238  0.4776
 1720SOL    HW116622   4.324   1.893   5.043 -0.2255 -0.7989  0.7993
 1720SOL    HW216623   4.227   1.810   4.969 -0.1828 -0.2839 -0.9760
 1721SOL     OW16624   1.143   3.951   2.490 -1.0185  0.3536 -0.2155
 1721SOL    HW116625   1.204   3.993   2.430  0.6472 -2.0523 -0.1966
 1721SOL    HW216626   1.127   3.871   2.440 -1.4355 -0.4247  1.1585
 1722SOL     OW16627   2.142   3.868   7.754 -0.1313 -0.3723  0.1582
 1722SOL    HW116628   2.150   3.778   7.723 -1.6033  0.4508 -2.5950
 1722SOL    HW216629   2.048   3.873   7.740 -0.0330  0.5908 -0.1598
 1723SOL     OW16630   2.393   2.506   0.869  0.7387 -0.5577  0.2710
 1723SOL    HW116631   2.408   2.477   0.959 -2.3616 -0.7328  0.7145
 1723SOL    HW216632   2.393   2.601   0.881 -0.0472 -0.7268  1.6516
 1724SOL     OW16633   0.596   1.376   4.953  0.3120 -0.0416  0.2415
 1724SOL    HW116634   0.602   1.331   5.038  1.9756  2.1804  1.2798
 1724SOL    HW216635   0.532   1.440   4.982 -1.6291 -1.6186 -0.5275
 1725SOL     OW16636   4.690   2.822   3.492  0.0048  0.0300 -0.3813
 1725SOL    HW116637   0.022   2.757   3.534 -0.4658 -1.2498 -1.7113
 1725SOL    HW216638   4.677   2.896   3.551 -1.6130  0.4074 -1.2137
 1726SOL     OW16639   3.102   0.961   1.820 -0.2513 -0.4328  0.2646
 1726SOL    HW116640   3.051   1.034   1.786  1.0926 -0.2230 -1.3175
 1726SOL    HW216641   3.089   0.973   1.914 -3.0222  0.6681 -0.2780
 1727SOL     OW16642   4.193   0.389  11.087  0.0007  1.1265  0.2159
 1727SOL    HW116643   4.138   0.467  11.080 -1.8311 -0.1912 -0.3122
 1727SOL    HW216644   4.157   0.340  11.013  1.3348  0.6423 -0.1100
 1728SOL     OW16645   2.159   0.261   7.346 -0.4053  0.2115 -0.0760
 1728SOL    HW116646   2.197   0.308   7.420 -0.2248  1.5062 -0.9853
 1728SOL    HW216647   2.140   0.329   7.282  0.8978  1.4408  0.8368
 1729SOL     OW16648   0.981   2.235  13.865  0.7674 -0.3199 -0.0111
 1729SOL    HW116649   0.916   2.176  13.903 -0.8104  1.8454  0.6528
 1729SOL    HW216650   0.923   2.264  13.795  0.1602 -0.8612  0.2690
 1730SOL     OW16651   0.181   0.178   3.224  0.3541  0.0118 -0.5818
 1730SOL    HW116652   0.166   0.103   3.282  1.0979  2.3878  2.7172
 1730SOL    HW216653   0.113   0.168   3.158 -1.1344  2.8001  0.5099
 1731SOL     OW16654   4.139   2.459   0.939 -0.5413 -0.7144  0.4573
 1731SOL    HW116655   4.188   2.405   0.878  1.3226  1.3096  0.1497
 1731SOL    HW216656   4.098   2.396   0.998 -0.1207 -1.4605 -0.0492
 1732SOL     OW16657   2.175   0.041   3.988 -0.0985 -0.4271  0.0975
 1732SOL    HW116658   2.186   0.110   3.923  4.1569 -0.8482  0.3534
 1732SOL    HW216659   2.173   4.685   3.937  0.9821 -0.2692 -0.1960
 1733SOL     OW16660   1.401   0.091  15.253 -0.5837  0.2471 -0.8349
 1733SOL    HW116661   1.462   0.022  15.229  1.7817  2.5215 -1.3857
 1733SOL    HW216662   1.346   0.077  15.176 -0.1540 -0.9773 -0.9064
 1734SOL     OW16663   3.058   1.487  17.519  0.4891 -0.0195 -0.2574
 1734SOL    HW116664   3.135   1.540  17.540 -0.0957 -0.4508  2.8954
 1734SOL    HW216665   3.014   1.546  17.457  0.3455 -0.6178 -0.7278
 1735SOL     OW16666   3.615   0.066   8.348  0.3883  0.6333 -0.8815
 1735SOL    HW116667   3.628   0.071   8.443 -0.9384  0.0317 -0.6690
 1735SOL    HW216668   3.599   0.159   8.329  1.8541  0.6057 -2.2118
 1736SOL     OW16669   2.465   0.407   2.976 -0.0561 -0.2572  0.5248
 1736SOL    HW116670   2.487   0.446   3.061 -1.3142 -1.8064  1.5553
 1736SOL    HW216671   2.372   0.386   2.987 -0.1632  0.3306  0.7817
 1737SOL     OW16672   2.515   1.453   4.960 -0.7398 -0.6420 -0.3938
 1737SOL    HW116673   2.425   1.421   4.964 -1.2694  0.9526  0.1677
 1737SOL    HW216674   2.564   1.377   4.930  0.1284  0.2722 -1.2925
 1738SOL     OW16675   0.115   1.694  16.346  0.3569  0.5493  0.8140
 1738SOL    HW116676   0.107   1.789  16.338  0.7516  0.5092 -0.0840
 1738SOL    HW216677   0.187   1.680  16.284 -1.0856 -0.3026 -0.7029
 1739SOL     OW16678   1.653   3.572   9.780 -0.5377  0.1421 -0.0446
 1739SOL    HW116679   1.714   3.583   9.853 -1.9105 -0.2411  1.1573
 1739SOL    HW216680   1.567   3.595   9.816  0.0780  3.7758 -0.8218
 1740SOL     OW16681   2.850   2.266   0.227 -0.2655  0.1245  0.2339
 1740SOL    HW116682   2.901   2.187   0.244  0.1304  0.6788  1.6594
 1740SOL    HW216683   2.900   2.317   0.290 -1.5915 -0.5327  1.8388
 1741SOL     OW16684   0.311   0.900  15.566  0.5805  0.4329  0.8755
 1741SOL    HW116685   0.254   0.973  15.591  0.9689  0.3541  1.9831
 1741SOL    HW216686   0.303   0.843  15.642 -0.8387 -1.6059 -0.8094
 1742SOL     OW16687   1.569   3.813  16.828 -0.3686 -0.3096 -0.0996
 1742SOL    HW116688   1.628   3.888  16.825 -1.3063  0.5066  1.7497
 1742SOL    HW216689   1.573   3.794  16.921  3.1528  0.0540 -0.1926
 1743SOL     OW16690   1.536   2.144  10.074  0.0257  0.2521 -0.1520
 1743SOL    HW116691   1.597   2.217  10.086 -0.5815  0.6921  0.2632
 1743SOL    HW216692   1.597   2.073  10.095  1.6793  1.4210 -1.0051
 1744SOL     OW16693   2.717   0.213  14.184  0.3922  0.4888  0.8399
 1744SOL    HW116694   2.692   0.122  14.194  0.1905  0.5030  0.4697
 1744SOL    HW216695   2.653   0.233  14.116 -0.5071  0.5714  1.7104
 1745SOL     OW16696   0.268   1.665   3.771  0.3837 -0.2059 -0.1753
 1745SOL    HW116697   0.195   1.630   3.822  1.6222 -1.8073  0.5069
 1745SOL    HW216698   0.240   1.648   3.681  0.5026 -3.0960  0.3202
 1746SOL     OW16699   2.297   4.008  12.468  0.1344  0.5686  0.0584
 1746SOL    HW116700   2.377   3.969  12.433 -0.7387  1.1055 -2.5051
 1746SOL    HW216701   2.310   4.003  12.563 -1.7647 -2.8461  0.1576
 1747SOL     OW16702   3.973   2.186   1.504 -0.3170 -0.1081  0.0706
 1747SOL    HW116703   3.927   2.102   1.503 -0.6672  0.1049 -2.2741
 1747SOL    HW216704   3.933   2.233   1.430 -0.0762 -3.2142 -2.0587
 1748SOL     OW16705   1.371   1.961   8.269 -0.0901 -0.1247  0.0792
 1748SOL    HW116706   1.406   1.873   8.258 -1.3260 -0.4717 -0.9616
 1748SOL    HW216707   1.320   1.959   8.350 -0.2772  0.1845 -0.0282
 1749SOL     OW16708   0.684   1.833  14.423  0.4152 -0.2888 -0.3831
 1749SOL    HW116709   0.654   1.742  14.430 -4.6703  1.4330  0.1986
 1749SOL    HW216710   0.714   1.842  14.513  0.4318 -1.6401 -0.2416
 1750SOL     OW16711   1.254   4.347   3.357 -0.2395 -0.2438 -0.3733
 1750SOL    HW116712   1.320   4.402   3.313 -1.4053  1.2932 -0.1631
 1750SOL    HW216713   1.187   4.340   3.289 -0.0446 -1.1946 -0.4693
 1751SOL     OW16714   1.971   3.358   4.845  0.2297  0.7857 -0.2686
 1751SOL    HW116715   1.927   3.413   4.781 -2.2220  0.6262  1.2677
 1751SOL    HW216716   2.020   3.426   4.892  0.0331  1.4207 -0.9980
 1752SOL     OW16717   4.383   0.723   7.100  0.7428  0.7287  0.4599
 1752SOL    HW116718   4.301   0.677   7.113  0.8108 -0.0792 -1.9856
 1752SOL    HW216719   4.381   0.725   7.004  2.5923  0.6520  0.4230
 1753SOL     OW16720   1.574   3.553   9.253 -0.8752  0.2310 -0.0333
 1753SOL    HW116721   1.605   3.544   9.342 -1.0129  1.2848  0.1296
 1753SOL    HW216722   1.536   3.470   9.224 -0.0171 -0.4358  0.7854
 1754SOL     OW16723   1.343   1.533   4.291  0.7301 -0.3687  0.1548
 1754SOL    HW116724   1.354   1.487   4.374  3.1314  0.4275  0.2861
 1754SOL    HW216725   1.412   1.600   4.293 -0.1831  0.6358 -1.6472
 1755SOL     OW16726   0.472   0.228  14.366  0.2962 -0.3025 -0.2811
 1755SOL    HW116727   0.465   0.207  14.460 -3.4786 -0.2418 -0.5575
 1755SOL    HW216728   0.564   0.252  14.357 -0.2769  1.9415  0.0297
 1756SOL     OW16729   1.635   4.326  12.950  0.1929  0.2390  0.1301
 1756SOL    HW116730   1.720   4.281  12.946 -0.4018 -1.0636  1.7033
 1756SOL    HW216731   1.661   4.409  12.912  1.8739 -0.1366  0.4500
 1757SOL     OW16732   4.665   0.586   0.819 -0.3322  0.2428  0.2331
 1757SOL    HW116733   4.688   0.603   0.728 -1.5948 -2.2734 -0.5416
 1757SOL    HW216734   4.577   0.619   0.834 -1.2493 -2.4122  0.6710
 1758SOL     OW16735   1.829   1.526  12.433 -0.2862  0.3001  0.3219
 1758SOL    HW116736   1.770   1.466  12.479  0.4087  0.3824  1.3100
 1758SOL    HW216737   1.760   1.561  12.376  0.7028 -0.1999 -1.1729
 1759SOL     OW16738   1.033   3.297   2.548  0.0861 -0.4013  0.2521
 1759SOL    HW116739   0.993   3.235   2.609 -1.8298  1.0444  0.4341
 1759SOL    HW216740   1.052   3.235   2.477  1.3039 -1.2502  1.3212
 1760SOL     OW16741   3.714   3.850   2.486  0.2306  0.4261 -0.2001
 1760SOL    HW116742   3.724   3.759   2.514 -0.8111  0.4533  0.2479
 1760SOL    HW216743   3.627   3.876   2.517 -0.7393 -3.8044  0.6238
 1761SOL     OW16744   1.276   0.851   9.662  0.1115  0.0048  0.0724
 1761SOL    HW116745   1.318   0.789   9.722  0.6129  0.5482  0.2808
 1761SOL    HW216746   1.315   0.828   9.578  1.9560 -2.2078  1.5398
 1762SOL     OW16747   0.054   1.761   7.829 -0.4485  0.4582 -0.2203
 1762SOL    HW116748   4.702   1.724   7.869 -0.0705  0.9545  0.9814
 1762SOL    HW216749   0.017   1.836   7.782 -0.4211  1.3527  1.1768
 1763SOL     OW16750   2.590   4.588   7.968 -0.0002 -0.0069  0.1404
 1763SOL    HW116751   2.554   4.627   8.048 -1.0564 -1.9280  0.5996
 1763SOL    HW216752   2.615   4.502   8.001 -2.2622 -1.0723 -0.9178
 1764SOL     OW16753   1.536   3.382   4.345  0.6690 -0.0621  0.5134
 1764SOL    HW116754   1.453   3.344   4.317 -1.5963  3.8362  1.8880
 1764SOL    HW216755   1.581   3.394   4.261  0.0109 -0.6132  0.0901
 1765SOL     OW16756   0.898   1.040   5.735  0.4791  0.1898  0.2058
 1765SOL    HW116757   0.934   0.952   5.728  1.0774  0.4573 -0.1093
 1765SOL    HW216758   0.960   1.075   5.800  0.6545 -0.8020  0.5670
 1766SOL     OW16759   0.968   2.665   3.908 -0.0919 -0.2140 -0.1556
 1766SOL    HW116760   0.947   2.748   3.865 -1.0965 -0.9753 -1.1709
 1766SOL    HW216761   0.898   2.612   3.868 -0.3287 -0.2016  0.2447
 1767SOL     OW16762   2.286   0.027  15.198  0.2602 -0.2279 -0.4322
 1767SOL    HW116763   2.227   4.716  15.132  0.3481 -2.9396  0.9935
 1767SOL    HW216764   2.354   4.685  15.203 -1.2864 -1.8711 -1.6130
 1768SOL     OW16765   2.666   3.269   1.963  0.1906 -0.0035 -0.2760
 1768SOL    HW116766   2.577   3.241   1.939 -0.1463  0.4701  0.3969
 1768SOL    HW216767   2.707   3.195   2.008 -0.8675  0.1126  0.9136
 1769SOL     OW16768   3.386   2.938   2.785  0.1323 -0.5080 -0.7025
 1769SOL    HW116769   3.343   2.852   2.788  0.0344 -0.4428 -0.1939
 1769SOL    HW216770   3.479   2.917   2.782  0.2594 -0.1857  1.0982
 1770SOL     OW16771   1.440   3.000   7.389 -0.7416  0.4890 -0.3080
 1770SOL    HW116772   1.409   2.924   7.439  0.3631 -1.3591 -2.4162
 1770SOL    HW216773   1.353   3.027   7.361 -2.5561 -2.6898  2.2345
 1771SOL     OW16774   3.175   3.748  12.080 -0.3638  0.3711 -0.0883
 1771SOL    HW116775   3.107   3.811  12.103  0.3041  1.0782 -0.0524
 1771SOL    HW216776   3.251   3.776  12.132  0.0404 -0.8107 -0.0422
 1772SOL     OW16777   4.286   4.416   1.533 -0.5432 -0.2026 -0.2270
 1772SOL    HW116778   4.220   4.451   1.593 -0.2359  0.9874 -0.6047
 1772SOL    HW216779   4.324   4.494   1.494 -0.5799  0.1755  0.5043
 1773SOL     OW16780   3.420   1.450   3.187 -0.0852 -0.0072  0.1953
 1773SOL    HW116781   3.347   1.400   3.223  0.4209 -3.1506 -3.1520
 1773SOL    HW216782   3.405   1.538   3.220 -0.5805  0.5690 -1.5752
 1774SOL     OW16783   2.034   3.047   4.974  0.6938  0.4208 -0.5521
 1774SOL    HW116784   2.061   3.085   5.057  1.2770 -1.0110 -0.0851
 1774SOL    HW216785   2.113   3.014   4.932  0.6484 -0.7290  0.2573
 1775SOL     OW16786   4.561   4.194  12.732 -0.3745 -0.2427  0.3210
 1775SOL    HW116787   4.638   4.249  12.712 -0.8771  0.6775  0.9172
 1775SOL    HW216788   4.563   4.163  12.822  1.2630 -1.5592 -0.1790
 1776SOL     OW16789   0.396   2.855  11.943 -0.0323 -0.3470 -0.2064
 1776SOL    HW116790   0.344   2.927  11.981  0.8251 -0.4604  1.1822
 1776SOL    HW216791   0.486   2.886  11.952  0.4427 -2.1462  1.2064
 1777SOL     OW16792   1.088   4.414   9.630 -0.2488 -0.0235 -0.0148
 1777SOL    HW116793   1.165   4.359   9.614 -1.8298 -0.9499 -4.5518
 1777SOL    HW216794   1.117   4.498   9.597  0.1503 -0.8292 -1.7081
 1778SOL     OW16795   2.138   3.550   0.048  0.1440  0.0129 -0.4145
 1778SOL    HW116796   2.174   3.464   0.027  0.9013  0.8295 -2.4869
 1778SOL    HW216797   2.076   3.521   0.114  1.6918 -0.2855  0.9088
 1779SOL     OW16798   0.482   0.911   3.467  0.0576 -0.6968  0.0502
 1779SOL    HW116799   0.396   0.886   3.502  1.1100 -2.8723  1.0674
 1779SOL    HW216800   0.460   1.004   3.470  1.4636 -0.4213  1.6518
 1780SOL     OW16801   2.893   4.636   4.824  0.0019 -0.0878 -0.2539
 1780SOL    HW116802   2.857   4.551   4.796  0.2560 -0.4912  0.6638
 1780SOL    HW216803   2.958   4.603   4.885 -2.2577 -0.4032  1.9797
 1781SOL     OW16804   3.207   0.699   0.121  0.1155 -0.5437 -0.3317
 1781SOL    HW116805   3.228   0.786   0.156 -0.3925 -0.8110  0.6291
 1781SOL    HW216806   3.236   0.645   0.195  1.9794  0.1649 -0.5346
 1782SOL     OW16807   3.966   2.242   1.880 -0.7057 -0.2320 -0.2387
 1782SOL    HW116808   4.031   2.242   1.810 -0.3129  0.0559  0.1209
 1782SOL    HW216809   3.955   2.332   1.912  0.8459 -0.4913  1.0388
 1783SOL     OW16810   2.909   3.168   0.613 -0.1859  0.4631 -0.8555
 1783SOL    HW116811   2.921   3.173   0.518 -2.1181  3.7838 -0.9503
 1783SOL    HW216812   2.990   3.206   0.647 -0.1300 -0.4012 -0.0219
 1784SOL     OW16813   4.636   2.817   6.529  0.2006  0.7813  0.4771
 1784SOL    HW116814   4.641   2.723   6.511  0.3416  0.7495  0.6837
 1784SOL    HW216815   4.653   2.818   6.623 -0.3080  0.0752  0.5819
 1785SOL     OW16816   1.632   1.819   9.915  0.4079  0.3731 -0.2389
 1785SOL    HW116817   1.658   1.866   9.994  1.2922  1.7201 -1.3547
 1785SOL    HW216818   1.606   1.738   9.960 -1.6742  1.1759  0.0226
 1786SOL     OW16819   1.509   2.967   6.317  0.3600  0.4600  0.0531
 1786SOL    HW116820   1.450   2.942   6.387 -2.9716  2.0046 -2.2368
 1786SOL    HW216821   1.461   2.928   6.244 -0.8809  1.6741  0.2389
 1787SOL     OW16822   0.499   1.475  16.035 -0.5614  0.2764 -0.9566
 1787SOL    HW116823   0.550   1.409  16.081 -0.6210  0.7011 -0.2832
 1787SOL    HW216824   0.565   1.516  15.980  1.4009 -0.5994  0.7672
 1788SOL     OW16825   3.084   3.703   9.247 -0.1551  0.0395 -0.3840
 1788SOL    HW116826   3.169   3.745   9.259 -0.7987  1.6342 -1.5487
 1788SOL    HW216827   3.028   3.765   9.294 -0.3154 -1.0884  0.9371
 1789SOL     OW16828   1.357   3.086  14.897 -0.3030  0.3428 -0.4961
 1789SOL    HW116829   1.333   3.038  14.976 -0.1878  0.2077 -0.5424
 1789SOL    HW216830   1.417   3.150  14.933 -0.1996 -0.8712  1.4695
 1790SOL     OW16831   2.886   0.014   3.468  0.4706  0.0305  0.3479
 1790SOL    HW116832   2.885   0.098   3.422 -0.0245  1.3343  2.7568
 1790SOL    HW216833   2.968   4.709   3.429  0.4360  1.1392 -0.6101
 1791SOL     OW16834   2.061   1.434  12.562  1.1957  0.3784 -0.0384
 1791SOL    HW116835   2.001   1.493  12.517  0.3205  0.7138  1.5977
 1791SOL    HW216836   1.998   1.407  12.629  2.9488  0.1780  1.5323
 1792SOL     OW16837   0.728   1.314   4.088 -0.3781 -0.4661 -0.2563
 1792SOL    HW116838   0.705   1.376   4.157  0.1345  0.6787 -1.1151
 1792SOL    HW216839   0.817   1.337   4.061 -0.0370 -0.1442  1.1219
 1793SOL     OW16840   3.191   1.767   6.332  0.2246 -0.1918 -0.3927
 1793SOL    HW116841   3.138   1.697   6.293 -0.4571 -0.8342  1.6767
 1793SOL    HW216842   3.147   1.780   6.415 -0.1072 -1.4089 -0.3704
 1794SOL     OW16843   0.506   2.802   4.775 -0.6756 -0.0811  0.0806
 1794SOL    HW116844   0.565   2.727   4.774  0.7015  1.0456 -3.2282
 1794SOL    HW216845   0.555   2.861   4.832  0.7215 -2.1040  0.9703
 1795SOL     OW16846   3.725   4.323   8.140  0.2007 -0.1237 -0.0200
 1795SOL    HW116847   3.778   4.279   8.073  0.8463  1.8811 -0.8254
 1795SOL    HW216848   3.724   4.266   8.217  2.3961  2.1379  1.6946
 1796SOL     OW16849   3.552   0.383  14.366 -0.0390  0.8392  0.5651
 1796SOL    HW116850   3.514   0.381  14.279  0.1965 -2.1168  0.5424
 1796SOL    HW216851   3.562   0.289  14.380 -1.7854  0.4597 -0.8024
 1797SOL     OW16852   3.522   4.008   2.171  0.3842  0.2990 -0.5381
 1797SOL    HW116853   3.597   3.957   2.200  0.8777  0.7467 -1.0358
 1797SOL    HW216854   3.494   3.967   2.089  0.6183 -2.3667  0.7175
 1798SOL     OW16855   0.546   4.672  10.485 -0.4569 -0.3874 -0.5441
 1798SOL    HW116856   0.553   4.594  10.540  0.1294 -1.2825 -1.8955
 1798SOL    HW216857   0.532   0.017  10.549 -0.6149 -1.7071  0.8887
 1799SOL     OW16858   2.239   3.280   3.613  0.0602  0.5410  0.0215
 1799SOL    HW116859   2.281   3.362   3.640  2.3801 -0.6741  0.0959
 1799SOL    HW216860   2.150   3.307   3.592  0.2774  1.2267 -0.0447
 1800SOL     OW16861   3.699   3.057   6.697 -0.8002 -0.2173 -0.0218
 1800SOL    HW116862   3.703   3.051   6.601 -0.4651  1.7225 -0.1372
 1800SOL    HW216863   3.741   3.142   6.705 -1.3216 -0.0385  0.8335
 1801SOL     OW16864   0.341   1.709   0.077  0.0924 -1.0681  0.1846
 1801SOL    HW116865   0.259   1.659   0.067 -0.2832 -0.1902 -1.3009
 1801SOL    HW216866   0.316   1.751   0.159 -0.2560  0.5873 -0.7548
 1802SOL     OW16867   3.624   0.527   4.794  0.4321 -0.1989 -0.9482
 1802SOL    HW116868   3.627   0.444   4.842 -0.3343 -0.7390 -1.8232
 1802SOL    HW216869   3.580   0.511   4.711 -1.6285 -0.0444  0.1239
 1803SOL     OW16870   2.321   2.199   7.390  0.1102 -0.4084 -0.3731
 1803SOL    HW116871   2.338   2.236   7.477  0.6326  0.1994 -0.7373
 1803SOL    HW216872   2.377   2.251   7.333  2.0412 -3.3413 -1.1463
 1804SOL     OW16873   3.567   3.266   9.975  0.1959 -0.1149 -1.2049
 1804SOL    HW116874   3.476   3.274  10.002  0.2769 -1.9472 -0.4054
 1804SOL    HW216875   3.590   3.178  10.007  0.8936  0.0818 -1.1562
 1805SOL     OW16876   0.890   4.581   4.883  0.2557  0.4833  0.5495
 1805SOL    HW116877   0.978   4.546   4.896 -0.1539  0.1633  2.4986
 1805SOL    HW216878   0.875   4.557   4.792  3.4673  1.1450 -0.1250
 1806SOL     OW16879   0.392   1.835   5.585 -0.0706  0.0529  0.4815
 1806SOL    HW116880   0.451   1.764   5.610 -0.3901 -0.0350  0.9979
 1806SOL    HW216881   0.403   1.896   5.658  1.7083 -0.4931  0.6777
 1807SOL     OW16882   3.937   1.637   4.703  0.2614 -0.3146 -0.0299
 1807SOL    HW116883   3.851   1.602   4.727  0.3211 -0.9153 -0.6907
 1807SOL    HW216884   3.942   1.729   4.729  1.8302 -0.2351 -0.5938
 1808SOL     OW16885   4.080   4.481   9.371  0.1060  0.2734 -0.0409
 1808SOL    HW116886   4.124   4.534   9.305 -0.7857  1.5437  0.3732
 1808SOL    HW216887   4.099   4.540   9.444 -1.0510  2.3480 -1.4067
 1809SOL     OW16888   0.174   3.891  16.774 -0.0121  0.4113  0.3869
 1809SOL    HW116889   0.134   3.875  16.859  2.5130 -1.2546  1.2540
 1809SOL    HW216890   0.243   3.825  16.767  0.7244  1.0537  1.6718
 1810SOL     OW16891   2.486   3.186   7.040  0.0707 -0.1790 -0.2354
 1810SOL    HW116892   2.561   3.228   7.081  0.9265 -1.4044 -0.5303
 1810SOL    HW216893   2.518   3.098   7.019 -0.5239 -0.7311  1.1342
 1811SOL     OW16894   0.719   4.636   5.990 -0.0862 -0.4412 -0.0258
 1811SOL    HW116895   0.675   4.717   5.964  0.8501 -0.3524 -1.3047
 1811SOL    HW216896   0.776   4.632   5.913 -0.0921  0.3737 -0.0698
 1812SOL     OW16897   1.520   1.290   8.805 -0.1355  0.6839 -0.0447
 1812SOL    HW116898   1.589   1.269   8.742  0.1766  1.7264 -0.0464
 1812SOL    HW216899   1.548   1.251   8.888  0.4670  0.8484 -0.1765
 1813SOL     OW16900   4.114   1.883   9.805  0.2917 -0.4233 -0.8415
 1813SOL    HW116901   4.202   1.854   9.827 -0.5469 -0.9412  1.8143
 1813SOL    HW216902   4.061   1.803   9.797  1.1527 -0.8441 -2.3373
 1814SOL     OW16903   0.122   2.316   0.370  0.4018 -0.1243  0.3043
 1814SOL    HW116904   0.122   2.373   0.294 -1.4763 -0.5224  0.0122
 1814SOL    HW216905   0.134   2.380   0.440  1.3596 -2.2146  2.0599
 1815SOL     OW16906   3.950   4.028   6.128  0.9109 -0.6174  0.0698
 1815SOL    HW116907   3.910   3.966   6.189  0.3445  0.6668  1.0073
 1815SOL    HW216908   4.036   4.029   6.171  1.2718 -1.2693 -0.6285
 1816SOL     OW16909   0.314   1.966   1.114  0.2599  0.0331  0.1105
 1816SOL    HW116910   0.275   1.923   1.190 -0.2305  0.5360  0.1414
 1816SOL    HW216911   0.357   1.890   1.074  0.5986  0.2451  0.0682
 1817SOL     OW16912   2.619   4.135  17.306 -0.0719  0.0100 -0.3309
 1817SOL    HW116913   2.677   4.190  17.359 -0.9193 -0.5068  1.1523
 1817SOL    HW216914   2.535   4.167  17.339 -0.3082 -0.7979 -0.1483
 1818SOL     OW16915   2.760   0.074  13.257 -0.1807 -0.2154  0.2926
 1818SOL    HW116916   2.684   0.131  13.271 -0.8958 -1.1719  0.3307
 1818SOL    HW216917   2.789   0.067  13.348  0.8036  1.4754  0.1109
 1819SOL     OW16918   3.178   0.017   4.440 -0.5371 -0.0310  0.1261
 1819SOL    HW116919   3.169   4.695   4.522  0.7389 -1.5923 -0.6602
 1819SOL    HW216920   3.241   0.085   4.466 -0.2373  0.4559 -1.8375
 1820SOL     OW16921   2.327   2.163   3.023 -0.0165  0.5817 -0.5424
 1820SOL    HW116922   2.291   2.234   3.077 -0.2995 -0.7395  1.0074
 1820SOL    HW216923   2.257   2.099   3.037 -0.5571  1.5155  1.0885
 1821SOL     OW16924   0.353   3.634   4.038 -0.3009 -0.2218  0.8349
 1821SOL    HW116925   0.351   3.579   3.960  0.7137  0.0459  0.6249
 1821SOL    HW216926   0.430   3.691   4.037 -1.1224  0.8662 -1.2149
 1822SOL     OW16927   4.195   4.182   0.678 -0.0978 -0.5780  0.6508
 1822SOL    HW116928   4.261   4.136   0.730  1.9385  1.7073  0.0642
 1822SOL    HW216929   4.224   4.272   0.690 -2.0183 -0.0059  1.0576
 1823SOL     OW16930   4.514   0.763  16.028  0.5923 -0.2315  0.2023
 1823SOL    HW116931   4.471   0.804  16.103  1.0278  3.3314 -1.5147
 1823SOL    HW216932   4.474   0.814  15.957 -2.3804 -0.5375  1.6490
 1824SOL     OW16933   1.568   2.155   8.301  0.0127  0.2098  0.3147
 1824SOL    HW116934   1.494   2.095   8.289 -0.2773  0.8859 -1.2634
 1824SOL    HW216935   1.563   2.171   8.395 -2.1517  1.7175 -0.0248
 1825SOL     OW16936   2.686   2.095   8.672 -0.5000  0.0586 -0.0817
 1825SOL    HW116937   2.724   2.008   8.670 -1.8453 -0.4959 -1.8528
 1825SOL    HW216938   2.648   2.097   8.584 -0.7738 -1.9141 -0.0062
 1826SOL     OW16939   3.145   4.513   8.999  0.9581 -0.6876 -0.1810
 1826SOL    HW116940   3.231   4.471   9.004  0.0522 -2.5012  0.3510
 1826SOL    HW216941   3.129   4.490   8.907 -0.1477  0.0212 -0.1729
 1827SOL     OW16942   3.885   0.413   2.771 -0.0965  0.1240 -0.4868
 1827SOL    HW116943   3.887   0.440   2.679 -0.1676 -1.4798 -0.9520
 1827SOL    HW216944   3.867   0.319   2.776  0.7587 -0.0172  0.0732
 1828SOL     OW16945   4.479   1.701   3.630 -0.5542  0.4214 -0.3320
 1828SOL    HW116946   4.456   1.792   3.611 -0.4370  0.3729 -0.6951
 1828SOL    HW216947   4.394   1.666   3.656  0.1676 -1.4727 -0.5549
 1829SOL     OW16948   2.928   2.662   2.283 -0.1999  0.2685  0.1805
 1829SOL    HW116949   3.006   2.695   2.239 -0.8000  0.3919 -0.8081
 1829SOL    HW216950   2.885   2.620   2.208  0.7385  2.2242 -1.4453
 1830SOL     OW16951   3.430   1.779  11.536 -0.2071  0.2778 -0.1087
 1830SOL    HW116952   3.399   1.817  11.618 -0.0885 -0.2128  0.1593
 1830SOL    HW216953   3.356   1.725  11.510 -1.3713  0.7902  2.2124
 1831SOL     OW16954   3.720   4.450   1.453  0.7049 -0.9958 -0.1612
 1831SOL    HW116955   3.656   4.458   1.383  0.1696  0.6778  0.5190
 1831SOL    HW216956   3.657   4.459   1.525  0.7950 -0.9193 -0.0923
 1832SOL     OW16957   1.140   0.407  15.184  0.1453 -0.1374  0.4884
 1832SOL    HW116958   1.113   0.490  15.225  0.1522  0.5855 -0.9835
 1832SOL    HW216959   1.170   0.362  15.263  2.4427 -1.7665 -1.3351
 1833SOL     OW16960   3.894   3.349   6.157 -0.0473 -0.1867 -0.1960
 1833SOL    HW116961   3.965   3.385   6.210 -2.3248 -0.3463  2.9233
 1833SOL    HW216962   3.822   3.355   6.219  0.7056  1.0082  0.5432
 1834SOL     OW16963   2.227   1.796   8.367  0.3187  0.7385 -0.8350
 1834SOL    HW116964   2.292   1.733   8.336 -0.3283  0.6125 -1.9276
 1834SOL    HW216965   2.252   1.876   8.320 -1.7915  1.2372 -1.1103
 1835SOL     OW16966   0.812   2.087   8.519  0.4730  0.5995 -0.0905
 1835SOL    HW116967   0.721   2.059   8.527  0.9800 -0.3089  2.4568
 1835SOL    HW216968   0.824   2.138   8.599  1.2596  2.4072 -1.3485
 1836SOL     OW16969   0.108   2.337   2.206 -0.6707  0.2753  0.2768
 1836SOL    HW116970   0.052   2.259   2.202 -1.1049  0.6565 -0.9404
 1836SOL    HW216971   0.044   2.398   2.244  0.2431  0.6337  1.2368
 1837SOL     OW16972   2.946   2.566   4.455 -0.5351  0.9842 -0.4929
 1837SOL    HW116973   2.888   2.643   4.460 -0.8924  0.7796 -1.4284
 1837SOL    HW216974   3.023   2.592   4.405 -0.3803 -0.1375 -0.8135
 1838SOL     OW16975   0.923   3.158   4.538  0.0861 -0.5487  0.6981
 1838SOL    HW116976   0.853   3.198   4.486  0.9854 -2.4405 -1.9277
 1838SOL    HW216977   0.970   3.240   4.556  1.9078 -1.5982  0.6241
 1839SOL     OW16978   2.858   2.087   2.018 -0.0493 -0.1579  0.0101
 1839SOL    HW116979   2.941   2.075   1.972 -0.1836  0.8981 -0.5091
 1839SOL    HW216980   2.875   2.177   2.046  0.6128 -0.3222  0.1381
 1840SOL     OW16981   4.264   4.533   2.347  0.0187  0.2864  0.8869
 1840SOL    HW116982   4.266   4.452   2.297 -1.4138  1.8917 -1.7329
 1840SOL    HW216983   4.241   4.580   2.267  1.8367  0.1205  0.2524
 1841SOL     OW16984   4.544   3.777   3.418  0.1996 -0.5000 -0.4000
 1841SOL    HW116985   4.481   3.787   3.346  0.2336  2.1668 -0.0438
 1841SOL    HW216986   4.491   3.741   3.488  1.3564 -1.4503 -0.0258
 1842SOL     OW16987   4.615   0.608  10.817 -0.9091 -0.9222 -0.1564
 1842SOL    HW116988   4.632   0.701  10.833  4.5194 -1.9046 -0.5212
 1842SOL    HW216989   4.702   0.578  10.843 -0.6118  0.3498  0.3176
 1843SOL     OW16990   1.704   1.983   2.040  0.3297 -0.3578 -0.3962
 1843SOL    HW116991   1.694   1.933   2.121  1.4942 -0.8959 -0.5866
 1843SOL    HW216992   1.798   1.979   2.024  0.2312 -1.6836 -0.6053
 1844SOL     OW16993   0.376   2.531   5.025  0.4227 -0.0866 -0.3705
 1844SOL    HW116994   0.330   2.607   5.061 -0.0839 -0.4956 -0.1622
 1844SOL    HW216995   0.322   2.510   4.949  1.0893  0.0403 -0.8778
 1845SOL     OW16996   1.147   1.908  15.090  0.1835  0.1795  0.0190
 1845SOL    HW116997   1.084   1.942  15.027 -0.1192 -0.1382  0.1498
 1845SOL    HW216998   1.224   1.909  15.033 -0.4931  1.8085 -0.8622
 1846SOL     OW16999   1.196   3.992  16.178 -0.4170  0.3402  0.3679
 1846SOL    HW117000   1.247   3.946  16.245 -0.6791 -1.1187 -0.4367
 1846SOL    HW217001   1.270   4.023  16.126 -1.1940 -1.3218 -1.7309
 1847SOL     OW17002   0.235   4.173   4.187 -0.4520  0.3274 -0.2967
 1847SOL    HW117003   0.232   4.215   4.101 -0.5595 -0.1415 -0.5206
 1847SOL    HW217004   0.321   4.132   4.181 -0.0014  0.8237  2.6646
 1848SOL     OW17005   1.412   1.572  10.923  1.2263 -0.0472  0.1022
 1848SOL    HW117006   1.476   1.616  10.979  1.1247 -0.1877  0.3320
 1848SOL    HW217007   1.460   1.494  10.897  1.5110  0.6269 -1.3440
 1849SOL     OW17008   4.550   3.041   4.588  0.2104 -0.5507 -0.1736
 1849SOL    HW117009   4.578   3.125   4.625  0.0183 -0.5227 -0.0932
 1849SOL    HW217010   4.457   3.061   4.597 -0.1359 -1.9925 -0.5907
 1850SOL     OW17011   4.025   2.601   1.567 -0.1313  0.1767  0.3983
 1850SOL    HW117012   4.063   2.542   1.502 -0.3476  0.1408  0.3041
 1850SOL    HW217013   4.089   2.598   1.638  1.5157 -1.5253 -1.1525
 1851SOL     OW17014   4.449   0.876  14.082  0.0429 -0.2028 -0.0492
 1851SOL    HW117015   4.437   0.785  14.055  0.8764 -0.4271  0.3313
 1851SOL    HW217016   4.498   0.917  14.010 -1.7021  0.3053 -0.9478
 1852SOL     OW17017   1.186   3.644  15.030 -0.7016 -0.0496 -0.5670
 1852SOL    HW117018   1.172   3.639  15.125  1.2623 -0.3161 -0.2826
 1852SOL    HW217019   1.260   3.584  15.023  0.6502  1.4142  1.0987
 1853SOL     OW17020   0.717   1.421   2.210 -0.1269 -0.9995  0.0784
 1853SOL    HW117021   0.734   1.327   2.208  0.0497 -0.9569 -0.4072
 1853SOL    HW217022   0.648   1.422   2.277 -0.2873  0.4292 -0.0992
 1854SOL     OW17023   4.409   3.635   2.439  0.0896 -0.0323 -0.3847
 1854SOL    HW117024   4.503   3.651   2.451  0.1247  1.0099 -2.0870
 1854SOL    HW217025   4.400   3.578   2.364 -0.6502 -0.8480  0.3219
 1855SOL     OW17026   4.315   2.532  15.319 -0.2967  0.1577  0.6621
 1855SOL    HW117027   4.384   2.470  15.299 -0.3578 -0.0215  1.0102
 1855SOL    HW217028   4.324   2.522  15.414  0.1753 -1.5358  0.4355
 1856SOL     OW17029   4.624   3.462   4.420  0.4300  0.0454  0.6514
 1856SOL    HW117030   4.687   3.534   4.426 -0.0937  0.6360 -1.0479
 1856SOL    HW217031   4.656   3.406   4.491  0.3733 -1.8979 -0.8473
 1857SOL     OW17032   4.043   2.360   1.205  0.4725 -0.0616  0.0144
 1857SOL    HW117033   3.963   2.404   1.234  1.0210  0.4375  0.7866
 1857SOL    HW217034   4.030   2.266   1.211 -0.6999 -0.0290 -1.8349
 1858SOL     OW17035   0.432   1.372   0.515  0.1769 -0.0013  0.2112
 1858SOL    HW117036   0.360   1.310   0.524  0.0991 -0.1769 -1.5527
 1858SOL    HW217037   0.389   1.456   0.500  1.0060  0.1183 -1.4849
 1859SOL     OW17038   1.887   3.719  10.216  0.7225  0.4468 -0.3947
 1859SOL    HW117039   1.845   3.758  10.292  1.6349 -0.1841  0.4314
 1859SOL    HW217040   1.895   3.628  10.244  0.2620 -0.0651 -1.9009
 1860SOL     OW17041   4.314   3.504   3.029 -0.0544  0.1641 -0.0163
 1860SOL    HW117042   4.405   3.528   3.044 -1.2260  3.1057  2.4814
 1860SOL    HW217043   4.325   3.409   3.023 -0.8407  0.0154  0.7356
 1861SOL     OW17044   3.432   0.945  13.286  0.1220  0.2664  0.2703
 1861SOL    HW117045   3.401   0.861  13.320  0.6204  0.0212  0.1229
 1861SOL    HW217046   3.498   0.958  13.355  0.0658  1.7979  0.0430
 1862SOL     OW17047   1.955   0.747   2.252  1.1270 -1.0068  0.5784
 1862SOL    HW117048   1.958   0.663   2.297  0.6239 -1.6837 -0.6483
 1862SOL    HW217049   1.866   0.780   2.266  1.5973  0.9549 -1.0211
 1863SOL     OW17050   4.010   2.217   5.355  0.0583  0.4046 -0.1675
 1863SOL    HW117051   4.097   2.243   5.325 -0.2320  0.2215 -1.1482
 1863SOL    HW217052   3.970   2.228   5.269  1.7559  0.0560 -0.9842
 1864SOL     OW17053   2.179   1.369   7.311 -0.1108 -0.1926 -0.1150
 1864SOL    HW117054   2.119   1.302   7.279  1.8417 -2.3478  0.7246
 1864SOL    HW217055   2.237   1.314   7.364  2.1471  0.9549 -1.3785
 1865SOL     OW17056   3.571   2.201   8.089  0.6790  0.0154 -0.1241
 1865SOL    HW117057   3.655   2.154   8.093  0.3247 -0.8025 -1.9335
 1865SOL    HW217058   3.523   2.153   8.157 -0.8317  1.1382 -0.4095
 1866SOL     OW17059   1.406   4.606   8.493  0.2687 -0.0846  0.5757
 1866SOL    HW117060   1.355   4.686   8.504 -0.9125 -0.6243 -0.8625
 1866SOL    HW217061   1.468   4.622   8.563  0.6867  1.9200 -0.2362
 1867SOL     OW17062   2.491   1.984   4.739  0.7293 -0.0557 -0.0872
 1867SOL    HW117063   2.440   1.914   4.779 -1.4278  0.7125 -1.5237
 1867SOL    HW217064   2.444   1.983   4.656  1.9420 -0.6166 -0.7602
 1868SOL     OW17065   1.660   3.075   9.230 -0.4378 -0.2677  0.5990
 1868SOL    HW117066   1.616   2.989   9.224  1.4991 -0.9818 -3.0448
 1868SOL    HW217067   1.654   3.106   9.140 -1.0353 -1.0141  0.3780
 1869SOL     OW17068   2.159   4.312   3.374  0.2147 -1.1824 -0.4404
 1869SOL    HW117069   2.240   4.275   3.337  0.2993 -0.8893 -0.5508
 1869SOL    HW217070   2.105   4.334   3.298  1.6624 -2.9124 -1.9770
 1870SOL     OW17071   2.663   4.524   2.240  0.7126  0.4997 -0.1141
 1870SOL    HW117072   2.682   4.618   2.236 -1.4085  0.8470 -2.3429
 1870SOL    HW217073   2.748   4.490   2.214  0.3332 -1.0812  0.7387
 1871SOL     OW17074   1.633   1.891  13.727 -0.2863  0.6565  0.6131
 1871SOL    HW117075   1.602   1.810  13.689  0.4886  0.5660  0.1742
 1871SOL    HW217076   1.601   1.953  13.662 -0.0714 -1.6528 -1.6578
 1872SOL     OW17077   2.584   4.363   1.199  0.5921 -0.2643 -0.4260
 1872SOL    HW117078   2.501   4.379   1.243  0.6715  0.0556 -0.3959
 1872SOL    HW217079   2.594   4.268   1.204 -0.6057 -0.5298 -2.9406
 1873SOL     OW17080   1.243   1.935  12.426 -0.0271  0.0735  0.1633
 1873SOL    HW117081   1.178   1.984  12.376  1.0379  0.7663 -0.5335
 1873SOL    HW217082   1.259   1.982  12.508  1.3333 -0.5566  0.2485
 1874SOL     OW17083   0.175   1.621   3.413  0.1745 -0.1923 -0.1390
 1874SOL    HW117084   0.105   1.687   3.415 -0.9977 -1.3836 -1.7668
 1874SOL    HW217085   0.151   1.561   3.484 -1.2545 -0.6433 -0.9974
 1875SOL     OW17086   4.372   1.198   8.415  0.1957  0.4248 -0.2900
 1875SOL    HW117087   4.285   1.171   8.444  0.4352 -0.0296  0.0269
 1875SOL    HW217088   4.383   1.278   8.467  1.2180 -0.4508  0.8615
 1876SOL     OW17089   4.390   3.061   7.255 -0.5296  0.1184 -0.0766
 1876SOL    HW117090   4.442   2.994   7.210  0.7301  0.7521  0.4410
 1876SOL    HW217091   4.416   3.149   7.230 -0.1460 -0.0039 -0.1155
 1877SOL     OW17092   0.952   4.024   7.974  0.5576 -0.2963 -0.3190
 1877SOL    HW117093   0.858   4.043   7.982  0.5209 -0.3059 -0.7333
 1877SOL    HW217094   0.979   4.113   7.952  0.6962  0.0621  1.3185
 1878SOL     OW17095   1.873   1.555   5.144  0.0676 -0.5430  0.2036
 1878SOL    HW117096   1.871   1.638   5.192 -2.2478 -0.0405 -0.7634
 1878SOL    HW217097   1.788   1.539   5.103  0.5481 -0.7612 -0.6921
 1879SOL     OW17098   1.460   4.431   4.365 -0.3063 -0.3089 -0.2011
 1879SOL    HW117099   1.463   4.479   4.448 -0.1686  0.4794 -0.6650
 1879SOL    HW217100   1.547   4.454   4.332 -0.6925  0.9136 -0.3418
 1880SOL     OW17101   2.136   3.067  16.746  0.0300 -0.1790  0.4035
 1880SOL    HW117102   2.210   3.106  16.699 -0.3474 -0.3590 -0.3387
 1880SOL    HW217103   2.153   2.976  16.721 -1.8932 -0.1295 -1.0558
 1881SOL     OW17104   1.737   1.577   3.507  0.1157  0.5692 -0.2385
 1881SOL    HW117105   1.702   1.615   3.588 -0.9008  1.1028 -0.9290
 1881SOL    HW217106   1.827   1.609   3.509  0.1444  0.4983 -0.3761
 1882SOL     OW17107   1.491   3.702  15.528  0.1368  0.6039 -0.7509
 1882SOL    HW117108   1.470   3.638  15.460 -0.0663  1.1338 -1.1915
 1882SOL    HW217109   1.404   3.727  15.557  2.0153  1.4128  4.1599
 1883SOL     OW17110   2.644   1.279   5.942  0.1066  0.3439  0.1067
 1883SOL    HW117111   2.610   1.218   5.876  2.3134  1.4611 -2.0566
 1883SOL    HW217112   2.737   1.260   5.940 -0.1422 -0.8703 -0.1509
 1884SOL     OW17113   2.274   2.995   4.872  1.0106  0.4186 -0.5377
 1884SOL    HW117114   2.233   2.959   4.792  2.2239  0.4027 -1.1460
 1884SOL    HW217115   2.308   3.079   4.842 -1.8046  1.3035 -1.3145
 1885SOL     OW17116   2.965   0.591  10.218 -0.1338 -0.0716  0.6590
 1885SOL    HW117117   3.000   0.680  10.226 -3.2718  1.1498  1.0961
 1885SOL    HW217118   2.949   0.570  10.310 -1.6887 -0.2432  0.3649
 1886SOL     OW17119   0.796   1.532   0.539 -0.5130  0.5890  0.2937
 1886SOL    HW117120   0.763   1.515   0.450  0.2998  0.5012  0.0016
 1886SOL    HW217121   0.720   1.578   0.572 -1.1481 -0.7771  0.7315
 1887SOL     OW17122   2.493   1.823   9.169  0.2863  0.5226 -0.4119
 1887SOL    HW117123   2.539   1.846   9.087  1.5815 -1.2138 -0.1777
 1887SOL    HW217124   2.490   1.910   9.209  1.0602 -0.0322  0.8458
 1888SOL     OW17125   2.693   1.122   0.202 -0.4562  0.8438 -0.4157
 1888SOL    HW117126   2.683   1.217   0.207  0.7612  0.8733  1.4352
 1888SOL    HW217127   2.769   1.110   0.259 -0.6619  1.8249  0.0593
 1889SOL     OW17128   1.744   1.872   9.682 -0.6110 -0.2005  0.1241
 1889SOL    HW117129   1.700   1.851   9.764 -1.7385  1.8447  0.0423
 1889SOL    HW217130   1.751   1.966   9.697 -0.1026 -0.5321  2.0554
 1890SOL     OW17131   1.045   0.489  10.048  0.5843 -0.4431 -0.1211
 1890SOL    HW117132   0.959   0.460  10.018  0.5931  0.9428 -1.4523
 1890SOL    HW217133   1.102   0.459   9.977 -0.4715  1.7265 -1.8617
 1891SOL     OW17134   4.211   2.202   3.638  0.2301 -0.0099  0.2182
 1891SOL    HW117135   4.255   2.117   3.637  2.5725  1.1985  0.1172
 1891SOL    HW217136   4.155   2.190   3.561  1.0755 -4.0491  0.2310
 1892SOL     OW17137   3.013   3.397   2.713 -0.4641 -0.0975  0.4328
 1892SOL    HW117138   3.002   3.449   2.634  1.8056  0.0730  0.2252
 1892SOL    HW217139   2.978   3.313   2.682 -0.3273 -0.7238  1.9520
 1893SOL     OW17140   4.201   1.599  11.551 -0.1955  0.2040 -0.3077
 1893SOL    HW117141   4.272   1.587  11.614 -0.1059  0.1889 -0.4122
 1893SOL    HW217142   4.156   1.682  11.567  0.2515  0.0407  1.8206
 1894SOL     OW17143   4.724   2.017   1.659  0.2883  0.6482 -0.4215
 1894SOL    HW117144   0.066   2.077   1.689 -0.1513  1.5273 -1.1894
 1894SOL    HW217145   0.053   1.954   1.612  0.3665  0.9370 -0.7173
 1895SOL     OW17146   2.560   0.903  10.177 -0.4464 -0.0410  0.3581
 1895SOL    HW117147   2.477   0.875  10.216 -0.8931  0.9137  0.0747
 1895SOL    HW217148   2.539   0.932  10.088  0.5678 -1.6349 -0.4068
 1896SOL     OW17149   2.846   2.926  10.552 -0.0775  0.2230  0.4924
 1896SOL    HW117150   2.895   2.844  10.553 -0.9540 -0.3196 -0.7122
 1896SOL    HW217151   2.889   2.955  10.633  0.4925 -1.4978  0.8028
 1897SOL     OW17152   0.570   3.232  13.643 -0.1067  0.1051  0.3314
 1897SOL    HW117153   0.544   3.315  13.682  2.1030  1.2875 -0.7700
 1897SOL    HW217154   0.663   3.244  13.627 -0.3558  1.3126 -0.2024
 1898SOL     OW17155   4.051   3.262   4.122  0.0701  0.4208  0.2765
 1898SOL    HW117156   4.085   3.205   4.191 -1.6397 -0.6775  0.2127
 1898SOL    HW217157   3.972   3.212   4.106  0.2484  1.1783 -3.0053
 1899SOL     OW17158   1.843   3.376   7.920  0.0789  0.3119  0.2518
 1899SOL    HW117159   1.857   3.443   7.853  0.0678 -0.8597 -0.9182
 1899SOL    HW217160   1.921   3.321   7.905 -1.0496 -1.3349  0.4704
 1900SOL     OW17161   1.254   3.758   4.539 -0.4227 -0.5241 -0.3616
 1900SOL    HW117162   1.348   3.738   4.540 -0.6273 -1.4009  1.5694
 1900SOL    HW217163   1.220   3.678   4.498 -2.4136 -0.0013  0.2886
 1901SOL     OW17164   3.887   3.180   1.325  0.0613  0.1032  0.2506
 1901SOL    HW117165   3.918   3.262   1.361 -1.9827 -0.3628  3.1226
 1901SOL    HW217166   3.971   3.142   1.299  1.7405  2.2153  2.5494
 1902SOL     OW17167   0.318   4.088  10.020  0.2324 -0.6677 -0.0579
 1902SOL    HW117168   0.277   4.159  10.068  2.7055 -0.0712  1.1553
 1902SOL    HW217169   0.253   4.064   9.954  0.4999 -1.1677 -0.1406
 1903SOL     OW17170   2.926   1.167   3.148  0.0683 -0.6886  0.1189
 1903SOL    HW117171   3.018   1.188   3.129 -0.1408 -0.7424 -0.9815
 1903SOL    HW217172   2.883   1.248   3.123  1.3589  0.1859  0.7080
 1904SOL     OW17173   0.493   0.039   3.588  0.3618  0.0444 -0.8179
 1904SOL    HW117174   0.539   4.724   3.515  0.1178 -1.9150  0.1384
 1904SOL    HW217175   0.406   0.009   3.562  0.2827 -1.4866  1.2118
 1905SOL     OW17176   2.463   3.285   4.400  0.4638 -0.1050  0.5495
 1905SOL    HW117177   2.393   3.259   4.459 -0.5491  1.2844 -0.0442
 1905SOL    HW217178   2.540   3.245   4.440  0.4415 -1.8317 -1.1285
 1906SOL     OW17179   1.958   4.441   6.036  0.3179 -0.1600  0.5222
 1906SOL    HW117180   1.880   4.436   6.091 -0.9835  1.2863 -1.2095
 1906SOL    HW217181   2.024   4.466   6.102 -0.2855  1.1259  0.6403
 1907SOL     OW17182   1.829   1.463   7.260 -0.3438  0.2891 -0.1068
 1907SOL    HW117183   1.760   1.527   7.271  2.0673  2.6832  1.1296
 1907SOL    HW217184   1.883   1.495   7.188  1.1504  1.4456  1.5186
 1908SOL     OW17185   2.425   2.448   8.852  0.8020 -0.1748 -0.4590
 1908SOL    HW117186   2.386   2.450   8.765 -0.8114 -1.2741  0.2272
 1908SOL    HW217187   2.505   2.398   8.837  0.0568 -1.5096  0.0113
 1909SOL     OW17188   4.300   1.696   6.386 -0.3042  0.2364  0.6380
 1909SOL    HW117189   4.304   1.755   6.311 -1.3129 -2.2866 -1.3984
 1909SOL    HW217190   4.304   1.609   6.346  0.5325 -0.5380  2.4192
 1910SOL     OW17191   1.255   0.950  15.727 -0.3053 -0.4604 -0.3897
 1910SOL    HW117192   1.292   0.863  15.715  0.4249 -0.4398  1.8032
 1910SOL    HW217193   1.180   0.942  15.785 -0.5567  1.2107 -0.4673
 1911SOL     OW17194   0.902   1.018   4.838  0.1255  0.4735  0.3939
 1911SOL    HW117195   0.990   1.050   4.859  0.3445  0.8681 -1.1002
 1911SOL    HW217196   0.926   0.926   4.840 -0.6738  0.2591  0.0507
 1912SOL     OW17197   1.174   4.649   9.523 -0.1817  0.1475  0.2514
 1912SOL    HW117198   1.123   4.616   9.449 -0.2117 -2.0088  1.2278
 1912SOL    HW217199   1.177   0.015   9.494 -2.0762 -0.2034 -1.0602
 1913SOL     OW17200   0.687   2.659  12.404  0.0748 -0.5790 -0.4171
 1913SOL    HW117201   0.703   2.677  12.497 -1.2936 -0.9332 -0.1214
 1913SOL    HW217202   0.598   2.693  12.400  0.1748 -0.0906  1.2704
 1914SOL     OW17203   4.693   1.810   2.124 -0.2263  0.2608 -0.1802
 1914SOL    HW117204   4.698   1.801   2.029  1.7133  1.7746 -0.2130
 1914SOL    HW217205   4.632   1.740   2.147 -1.8828  1.9596  0.5686
 1915SOL     OW17206   3.219   4.410   3.869 -0.4564 -0.4263  0.0531
 1915SOL    HW117207   3.303   4.377   3.837 -2.2878 -2.8365 -2.2454
 1915SOL    HW217208   3.162   4.335   3.851 -1.0744  0.5672 -2.1702
 1916SOL     OW17209   3.259   3.659   2.481 -0.2670  0.2150 -0.5310
 1916SOL    HW117210   3.213   3.692   2.558 -1.9937 -0.2832 -1.3461
 1916SOL    HW217211   3.309   3.590   2.525 -0.4057 -0.8329 -2.0305
 1917SOL     OW17212   3.033   1.522   3.360  0.1591 -0.1237  0.1346
 1917SOL    HW117213   3.110   1.494   3.410  1.3466  0.6510 -1.2549
 1917SOL    HW217214   2.986   1.439   3.361 -0.9172  0.5001  0.7431
 1918SOL     OW17215   0.865   1.158   8.620  0.0235  0.4574 -0.2732
 1918SOL    HW117216   0.784   1.114   8.643  0.5036  0.2257  0.9941
 1918SOL    HW217217   0.934   1.096   8.646 -0.5409 -0.3904 -0.8245
 1919SOL     OW17218   0.979   3.293   8.243  0.0476 -0.4421  0.2354
 1919SOL    HW117219   1.019   3.255   8.322 -0.5830 -0.8129  0.3744
 1919SOL    HW217220   0.913   3.227   8.224 -2.1452  1.3548  1.6475
 1920SOL     OW17221   3.344   0.787   4.947 -0.3794  0.2200 -0.1754
 1920SOL    HW117222   3.313   0.752   5.031  1.8991 -0.1659  0.5096
 1920SOL    HW217223   3.437   0.781   4.971 -0.1248  0.2125 -1.1900
 1921SOL     OW17224   0.999   4.656  11.915  0.4138 -0.0629 -0.3911
 1921SOL    HW117225   0.912   4.652  11.875  0.3394  1.5144 -0.3707
 1921SOL    HW217226   1.058   4.688  11.847 -0.3204  0.2176 -0.8983
 1922SOL     OW17227   3.503   0.429  11.188 -0.6917  0.5875  0.0370
 1922SOL    HW117228   3.445   0.503  11.167  0.3496  0.6092 -2.7117
 1922SOL    HW217229   3.576   0.450  11.131 -0.2761 -0.5704  0.1495
 1923SOL     OW17230   4.271   3.906   3.067  0.0792 -0.2761  0.3900
 1923SOL    HW117231   4.204   3.972   3.086 -0.0455  0.3803 -2.3705
 1923SOL    HW217232   4.343   3.969   3.067 -0.6649  0.5711  2.9957
 1924SOL     OW17233   3.798   0.705  15.003  0.1367 -0.5409  0.5672
 1924SOL    HW117234   3.758   0.679  15.086 -1.0425 -2.2945 -0.5503
 1924SOL    HW217235   3.849   0.782  15.027  1.5768 -1.3369  0.0811
 1925SOL     OW17236   1.895   1.873  16.813  0.0676 -0.4473  0.4719
 1925SOL    HW117237   1.925   1.876  16.904  0.4482  0.3693  0.3232
 1925SOL    HW217238   1.927   1.787  16.785 -0.5906 -1.3820  2.5349
 1926SOL     OW17239   3.930   3.583  11.003  0.2209  0.3091  0.7336
 1926SOL    HW117240   3.898   3.673  10.998 -1.9085 -0.4438  1.0229
 1926SOL    HW217241   3.861   3.521  10.979  1.4908 -0.8254  0.0257
 1927SOL     OW17242   2.441   4.358   6.505 -0.3158  0.0263  0.5643
 1927SOL    HW117243   2.365   4.319   6.548 -0.6550 -1.4629 -1.3611
 1927SOL    HW217244   2.502   4.285   6.509 -0.4529 -0.2816 -2.5492
 1928SOL     OW17245   3.967   1.880  17.617  0.5436 -0.3586 -0.0388
 1928SOL    HW117246   4.001   1.823  17.548  1.6588  0.7619 -0.4005
 1928SOL    HW217247   3.956   1.955  17.558  1.5054 -1.6932 -1.9196
 1929SOL     OW17248   3.000   3.568   8.405  0.1738  0.3564  0.1561
 1929SOL    HW117249   3.063   3.628   8.366  1.7918 -0.8502  0.9555
 1929SOL    HW217250   3.017   3.577   8.498 -0.6837 -0.1077  0.3659
 1930SOL     OW17251   4.372   3.249   4.047 -0.1167 -0.3732 -0.6589
 1930SOL    HW117252   4.294   3.305   4.046  0.7521  0.8175 -2.0266
 1930SOL    HW217253   4.427   3.301   4.105  1.1163 -2.5820  0.1327
 1931SOL     OW17254   2.405   0.056   7.483 -0.1891 -0.2443 -0.5297
 1931SOL    HW117255   2.360   0.139   7.498  1.1104  0.0958  1.4501
 1931SOL    HW217256   2.487   0.066   7.531  0.2843 -0.1698 -1.3578
 1932SOL     OW17257   3.155   4.639  17.419 -0.1224 -0.2163  0.0398
 1932SOL    HW117258   3.098   4.686  17.479  0.6452 -1.3198  1.6561
 1932SOL    HW217259   3.235   4.651  17.471 -1.2975  3.3066  1.0353
 1933SOL     OW17260   2.902   1.597  14.092 -0.0351  0.6535  0.2053
 1933SOL    HW117261   2.940   1.561  14.012  0.4319 -1.3043  1.3183
 1933SOL    HW217262   2.905   1.521  14.150  1.2554  0.8412  0.3678
 1934SOL     OW17263   4.292   1.852   6.153 -0.1280 -0.3456  0.1071
 1934SOL    HW117264   4.329   1.766   6.133  1.7206  0.9701 -2.1378
 1934SOL    HW217265   4.336   1.902   6.083 -2.1371  1.7959  0.3638
 1935SOL     OW17266   4.084   2.118   1.081 -0.3571  0.0774 -0.5086
 1935SOL    HW117267   4.055   2.031   1.055 -0.7501 -0.0519  0.3702
 1935SOL    HW217268   4.176   2.118   1.052  0.2305  1.3994  1.3420
 1936SOL     OW17269   4.437   3.516   2.214  0.2562 -0.0281  0.0798
 1936SOL    HW117270   4.361   3.532   2.158  2.1250  0.7590 -2.2445
 1936SOL    HW217271   4.495   3.580   2.173  0.2316  0.5510  0.9409
 1937SOL     OW17272   3.448   4.629   8.746 -0.7773  0.1941 -0.0334
 1937SOL    HW117273   3.534   4.593   8.769 -0.1395  0.8187 -1.3962
 1937SOL    HW217274   3.461   4.619   8.651  1.0905  0.3204  0.1984
 1938SOL     OW17275   3.271   1.659   8.614 -0.2149 -0.0134  0.1223
 1938SOL    HW117276   3.194   1.606   8.592  0.4040 -1.2922  1.0718
 1938SOL    HW217277   3.336   1.630   8.551 -2.6455  0.3728 -2.5695
 1939SOL     OW17278   0.887   0.425   2.595  0.5680  0.1798  0.1787
 1939SOL    HW117279   0.865   0.441   2.687  1.8436  3.5034 -0.0971
 1939SOL    HW217280   0.959   0.363   2.594 -0.2592 -0.8099  1.7485
 1940SOL     OW17281   4.358   4.540   2.836  0.5671 -0.2764  0.4776
 1940SOL    HW117282   4.342   4.572   2.747  0.6410  0.7581  0.8304
 1940SOL    HW217283   4.429   4.600   2.855  0.2263 -0.2052  1.5379
 1941SOL     OW17284   1.372   2.954   9.623  0.2212 -0.5256 -0.6545
 1941SOL    HW117285   1.386   2.866   9.657  0.4989  1.0430  3.2168
 1941SOL    HW217286   1.324   2.934   9.542 -0.4870  1.1646 -0.6616
 1942SOL     OW17287   4.151   3.678  10.661  0.1362 -0.4524  0.0206
 1942SOL    HW117288   4.079   3.728  10.701 -1.9638 -3.1665 -0.3965
 1942SOL    HW217289   4.217   3.697  10.728  1.1414 -1.8627 -0.5696
 1943SOL     OW17290   3.058   0.248   5.907 -0.0193 -0.5350 -0.1461
 1943SOL    HW117291   3.122   0.214   5.845 -1.1501  1.6451 -2.4871
 1943SOL    HW217292   3.116   0.288   5.972 -1.1099 -0.5456  0.8276
 1944SOL     OW17293   2.662   4.040   5.386 -0.0608  0.0182  0.3441
 1944SOL    HW117294   2.644   3.982   5.460  0.2185  0.4767  0.7725
 1944SOL    HW217295   2.699   4.124   5.415 -1.7452  1.0678 -0.5634
 1945SOL     OW17296   0.779   0.790   1.943  0.2240  1.0419 -0.0079
 1945SOL    HW117297   0.755   0.870   1.898  1.9033  1.5836  0.0571
 1945SOL    HW217298   0.809   0.740   1.867 -1.8279 -0.6783  0.2941
 1946SOL     OW17299   3.628   2.137   2.273 -0.7729  0.0322  0.0241
 1946SOL    HW117300   3.623   2.042   2.274 -1.5515  0.0386 -2.0750
 1946SOL    HW217301   3.542   2.146   2.231  0.6662 -0.7528 -3.1509
 1947SOL     OW17302   0.547   1.806   9.111  0.4635  0.1478 -0.2786
 1947SOL    HW117303   0.590   1.724   9.086  0.4403 -0.4915  1.8476
 1947SOL    HW217304   0.622   1.865   9.119 -0.3300  1.0485  0.4445
 1948SOL     OW17305   3.519   1.161   5.080 -0.1132  0.2488  0.4574
 1948SOL    HW117306   3.603   1.173   5.037 -0.6379  3.1730  0.2664
 1948SOL    HW217307   3.475   1.234   5.038 -0.8218 -0.2958  0.2517
 1949SOL     OW17308   1.626   1.750  16.602 -0.2846 -0.2749  0.2371
 1949SOL    HW117309   1.604   1.715  16.688  4.3765 -2.7304  0.4036
 1949SOL    HW217310   1.556   1.816  16.595  0.2189 -0.0583 -3.0914
 1950SOL     OW17311   0.849   2.436  16.437 -0.1445 -0.3787  0.9752
 1950SOL    HW117312   0.898   2.365  16.479 -0.3785 -2.0018 -1.5506
 1950SOL    HW217313   0.789   2.454  16.509 -4.1024 -0.6414 -2.2965
 1951SOL     OW17314   2.339   3.647   2.267  0.4784  0.0343  0.2654
 1951SOL    HW117315   2.419   3.617   2.224 -1.7300 -3.2494 -1.5660
 1951SOL    HW217316   2.324   3.733   2.228  0.2662 -0.0851  0.0801
 1952SOL     OW17317   4.114   1.618   0.922 -0.2030 -0.3294 -0.1932
 1952SOL    HW117318   4.188   1.679   0.925 -0.7542  0.3164  0.2437
 1952SOL    HW217319   4.167   1.538   0.927  1.8903  1.0961  0.5104
 1953SOL     OW17320   2.338   1.394   5.952 -0.7856 -0.0037 -0.0366
 1953SOL    HW117321   2.380   1.444   6.021  1.0139  0.7752 -1.7231
 1953SOL    HW217322   2.351   1.459   5.883  3.4867 -0.3181  0.5186
 1954SOL     OW17323   1.964   0.190   3.633  0.6902  0.2132 -0.0204
 1954SOL    HW117324   2.029   0.172   3.701  1.8029 -0.4266 -1.2585
 1954SOL    HW217325   1.975   0.119   3.570  1.9413 -1.5655  2.1864
 1955SOL     OW17326   0.428   2.123   2.724 -0.0388  0.2137  0.2451
 1955SOL    HW117327   0.345   2.076   2.738 -0.3100  1.0087  1.2732
 1955SOL    HW217328   0.479   2.101   2.802  1.5503 -1.2119 -1.1941
 1956SOL     OW17329   3.054   4.328  10.688 -0.0170 -0.3874  0.1005
 1956SOL    HW117330   3.115   4.358  10.620 -0.0482 -1.0548 -0.2225
 1956SOL    HW217331   2.980   4.375  10.650 -0.8398 -0.1900  1.9647
 1957SOL     OW17332   0.315   2.858   5.355  0.2502 -0.0756  0.0285
 1957SOL    HW117333   0.353   2.940   5.385  0.2245  0.0178 -0.1933
 1957SOL    HW217334   0.362   2.798   5.413  2.3756 -0.1012 -1.7329
 1958SOL     OW17335   2.921   3.768   8.001 -0.4622 -0.4143  0.4308
 1958SOL    HW117336   2.875   3.780   8.083  0.8063 -2.6430  1.4580
 1958SOL    HW217337   2.850   3.784   7.938  1.6199 -0.1134 -1.8748
 1959SOL     OW17338   3.571   0.256   4.903  0.0725  0.7419 -0.2025
 1959SOL    HW117339   3.512   0.225   4.835 -0.8721  0.8626  0.5665
 1959SOL    HW217340   3.642   0.195   4.882  0.8432  2.2564 -1.9604
 1960SOL     OW17341   1.964   4.188   5.136  0.1896 -0.2429 -0.3753
 1960SOL    HW117342   1.953   4.228   5.222 -3.0377  0.1222 -0.9790
 1960SOL    HW217343   2.000   4.256   5.080  0.3189 -0.7890 -0.9571
 1961SOL     OW17344   1.730   0.721   4.034 -0.3746 -0.5711 -0.3181
 1961SOL    HW117345   1.812   0.750   4.076 -0.6367  1.0345 -0.9120
 1961SOL    HW217346   1.694   0.808   4.020  1.4135  0.0388 -1.1657
 1962SOL     OW17347   1.937   0.221   3.089 -0.3040 -0.0450  0.4824
 1962SOL    HW117348   1.922   0.238   3.182  2.0070 -0.0311  0.8326
 1962SOL    HW217349   1.949   0.126   3.090  0.9928  0.1313  1.2234
 1963SOL     OW17350   4.600   4.031   7.128 -0.1168 -0.7266 -0.2369
 1963SOL    HW117351   4.518   4.036   7.177 -0.5375 -3.1253 -0.6994
 1963SOL    HW217352   4.668   4.003   7.188 -1.3392 -2.5942  0.2657
 1964SOL     OW17353   0.080   2.396  15.833  0.1343 -0.3424 -0.5368
 1964SOL    HW117354   0.109   2.473  15.784  0.5061  0.6422  1.2521
 1964SOL    HW217355   0.004   2.436  15.876 -0.2744 -1.2578 -0.4090
 1965SOL     OW17356   1.508   1.718   8.647  0.1449 -0.3505 -0.9023
 1965SOL    HW117357   1.532   1.693   8.558  0.4304  0.3360 -1.0176
 1965SOL    HW217358   1.581   1.768   8.682 -1.2901  0.4361  0.9951
 1966SOL     OW17359   4.132   1.883   3.674 -0.4941  0.5503  0.3135
 1966SOL    HW117360   4.222   1.875   3.703 -0.0725  0.0665 -1.1292
 1966SOL    HW217361   4.135   1.849   3.585 -1.0946 -0.1258  0.5513
 1967SOL     OW17362   4.025   2.984   5.668 -0.8341 -0.7556  0.0322
 1967SOL    HW117363   4.100   3.029   5.629 -0.1574 -0.0745  2.0795
 1967SOL    HW217364   4.000   3.052   5.731  0.0732 -0.6654  0.2981
 1968SOL     OW17365   3.023   0.659   9.184  0.7408  0.1312  0.1939
 1968SOL    HW117366   3.035   0.753   9.199 -0.5476  0.1815  0.8767
 1968SOL    HW217367   2.961   0.671   9.113 -1.9542  2.4153  2.9654
 1969SOL     OW17368   3.589   4.029   0.910  0.4033 -0.2523 -0.1015
 1969SOL    HW117369   3.657   4.083   0.871 -0.8907  1.0383 -0.5778
 1969SOL    HW217370   3.519   4.092   0.928 -0.2386 -0.4905 -1.7959
 1970SOL     OW17371   2.524   4.476   7.317 -0.0918  0.1206 -0.1272
 1970SOL    HW117372   2.603   4.471   7.370  0.4118 -1.5141 -1.0288
 1970SOL    HW217373   2.502   4.566   7.339  1.9199  0.7753 -0.8841
 1971SOL     OW17374   3.938   3.181  13.576  0.1045  0.0977  0.5638
 1971SOL    HW117375   3.996   3.115  13.615 -0.2998 -0.9210 -0.5572
 1971SOL    HW217376   3.859   3.161  13.627 -0.0275 -1.9455 -0.4357
 1972SOL     OW17377   3.535   3.754   6.203  0.1470 -0.4374  0.3484
 1972SOL    HW117378   3.581   3.820   6.151 -0.9769  0.2046  0.1772
 1972SOL    HW217379   3.573   3.755   6.290 -0.7112 -1.3645  0.7275
 1973SOL     OW17380   3.479   0.238   6.709  0.1051  0.2465  0.4325
 1973SOL    HW117381   3.408   0.303   6.703  0.1789  0.3638  0.8503
 1973SOL    HW217382   3.556   0.284   6.675 -0.3346 -0.3419 -1.3508
 1974SOL     OW17383   2.108   0.961   4.671  0.2283 -0.1860  0.2863
 1974SOL    HW117384   2.088   1.046   4.711  1.2750  0.2876 -0.1846
 1974SOL    HW217385   2.140   0.917   4.750 -0.8809  0.5317  1.1232
 1975SOL     OW17386   1.768   3.797   5.389 -0.1731  0.2024 -0.2761
 1975SOL    HW117387   1.791   3.728   5.327 -1.0505 -0.9788  0.7059
 1975SOL    HW217388   1.837   3.853   5.355 -1.0053  0.6848 -1.1707
 1976SOL     OW17389   4.285   0.797  14.311  0.4132  0.2558 -1.1584
 1976SOL    HW117390   4.333   0.818  14.231  0.4414  1.8863 -0.7094
 1976SOL    HW217391   4.298   0.882  14.354 -2.3347 -0.5859  1.3265
 1977SOL     OW17392   1.304   4.606  10.850  0.2629  0.1184  0.0650
 1977SOL    HW117393   1.323   4.699  10.834  2.9929 -0.3844  0.3591
 1977SOL    HW217394   1.391   4.566  10.855 -1.6967 -4.0373  0.4294
 1978SOL     OW17395   3.382   3.749   8.993 -0.1195  0.0161  0.1758
 1978SOL    HW117396   3.372   3.784   8.904  0.0302 -0.4623 -0.0296
 1978SOL    HW217397   3.407   3.825   9.046 -0.4747 -0.5186  1.1097
 1979SOL     OW17398   2.078   1.837   8.588 -0.0836  0.5117 -0.4555
 1979SOL    HW117399   2.115   1.788   8.661 -0.6204 -0.7491 -1.0366
 1979SOL    HW217400   2.144   1.836   8.519 -0.4023 -0.4269 -0.7399
 1980SOL     OW17401   3.780   0.384   8.063 -0.5237 -0.0953  0.1504
 1980SOL    HW117402   3.765   0.384   7.969 -1.2524 -0.9866  0.2613
 1980SOL    HW217403   3.800   0.475   8.082  2.2180 -0.6126 -0.2455
 1981SOL     OW17404   0.342   2.640   4.282 -0.2547  0.0825 -0.5139
 1981SOL    HW117405   0.283   2.584   4.231  0.3812 -1.0542 -0.0101
 1981SOL    HW217406   0.359   2.712   4.221  0.9530 -0.6849 -1.0724
 1982SOL     OW17407   1.768   3.614   6.309  0.1202  0.7606 -0.2688
 1982SOL    HW117408   1.861   3.597   6.292  0.5458  1.7488  1.0403
 1982SOL    HW217409   1.763   3.572   6.395  0.5575  1.9380  0.3285
 1983SOL     OW17410   0.428   3.609   6.975  0.0399 -0.4239  0.1827
 1983SOL    HW117411   0.382   3.609   6.891  0.2670  1.6381  0.0631
 1983SOL    HW217412   0.383   3.538   7.021 -0.2087 -0.5631 -0.2776
 1984SOL     OW17413   0.166   4.467  10.437  0.4845  0.0215  0.1458
 1984SOL    HW117414   0.214   4.389  10.464 -0.5332 -0.8043 -0.4717
 1984SOL    HW217415   0.202   4.539  10.491  1.5403  0.2919 -0.9108
 1985SOL     OW17416   0.167   3.382   6.479  0.0946 -0.1535  0.2939
 1985SOL    HW117417   0.112   3.423   6.412 -0.4609  1.2495  1.6056
 1985SOL    HW217418   0.245   3.438   6.481 -0.0387 -0.0336  2.3751
 1986SOL     OW17419   4.195   0.762   2.370 -0.4426  0.1467  0.0868
 1986SOL    HW117420   4.222   0.731   2.456 -2.2841 -0.3312  0.4949
 1986SOL    HW217421   4.226   0.682   2.328 -0.9447  0.4070 -0.7880
 1987SOL     OW17422   4.108   1.168   8.543  0.0910 -0.0094 -0.2765
 1987SOL    HW117423   4.049   1.119   8.486  0.9537 -0.4471 -0.7941
 1987SOL    HW217424   4.055   1.246   8.558  0.0328  0.0068 -0.5791
 1988SOL     OW17425   0.185   2.448   4.816 -0.4218 -0.1514  0.2778
 1988SOL    HW117426   0.129   2.516   4.778 -0.6789  0.7957  2.3475
 1988SOL    HW217427   0.251   2.431   4.749 -1.7128  1.4990 -1.3982
 1989SOL     OW17428   2.150   2.904  13.323 -0.2589 -0.4257 -0.2134
 1989SOL    HW117429   2.245   2.891  13.316 -0.1485 -0.0815  0.5751
 1989SOL    HW217430   2.135   2.996  13.343  0.5883 -0.2547 -0.3891
 1990SOL     OW17431   0.324   1.776   8.520 -0.0634 -0.1459 -0.0666
 1990SOL    HW117432   0.316   1.847   8.584 -1.2387 -0.4063  0.0774
 1990SOL    HW217433   0.270   1.701   8.547  2.1703 -1.9312 -0.5134
 1991SOL     OW17434   4.007   4.045   4.026 -0.1873 -0.0583  0.5319
 1991SOL    HW117435   4.041   4.125   3.985 -0.3615 -0.0545  0.3930
 1991SOL    HW217436   4.074   3.980   4.004  2.0506  2.0548  0.9828
 1992SOL     OW17437   1.038   3.509   3.136 -0.1561  0.4834 -0.2197
 1992SOL    HW117438   1.071   3.552   3.215  1.3924 -0.4747 -0.3414
 1992SOL    HW217439   1.070   3.419   3.144 -1.0862  0.3564  1.9622
 1993SOL     OW17440   1.080   0.879  15.922  0.3006  0.5142  0.0514
 1993SOL    HW117441   1.129   0.905  16.000 -1.1471 -1.0600  1.4951
 1993SOL    HW217442   1.043   0.794  15.947  2.2182 -0.2483  0.2845
 1994SOL     OW17443   1.694   0.960  11.603 -0.3632 -0.7008  0.1342
 1994SOL    HW117444   1.699   0.961  11.699  0.6257  2.3994  0.0331
 1994SOL    HW217445   1.618   0.902  11.589  0.7781 -2.7357  2.2833
 1995SOL     OW17446   4.202   1.953   7.134  0.4517 -0.0639  0.3894
 1995SOL    HW117447   4.175   1.879   7.080  0.5102 -0.1245  0.4431
 1995SOL    HW217448   4.295   1.953   7.113  0.3704  1.1801  0.0199
 1996SOL     OW17449   0.145   4.039   5.258 -0.3679  0.4863 -0.2166
 1996SOL    HW117450   0.224   3.983   5.260  0.1365  1.2229  0.4200
 1996SOL    HW217451   0.078   3.971   5.263 -0.1130  0.1690 -1.1613
 1997SOL     OW17452   1.204   2.299   6.503 -0.6125  0.2156 -0.5740
 1997SOL    HW117453   1.155   2.335   6.429  2.8566 -1.2784 -3.5777
 1997SOL    HW217454   1.290   2.283   6.465 -0.6299 -0.7407 -0.2010
 1998SOL     OW17455   1.161   3.580   3.385  0.3045  0.4302 -0.6141
 1998SOL    HW117456   1.106   3.615   3.455  0.9113 -0.6127  0.3902
 1998SOL    HW217457   1.178   3.487   3.402  0.0868  0.6484  0.7943
 1999SOL     OW17458   0.843   1.298   4.880  0.4302 -0.1207 -0.3783
 1999SOL    HW117459   0.849   1.208   4.911  1.4001  0.5742  1.4315
 1999SOL    HW217460   0.761   1.334   4.915  0.9429 -0.3472  1.0430
 2000SOL     OW17461   4.709   2.683   1.999  0.4755 -0.1682 -0.0805
 2000SOL    HW117462   0.020   2.639   1.923 -2.9405  2.2500 -3.1701
 2000SOL    HW217463   4.631   2.721   1.958 -0.9132 -1.1357  1.6551
 2001SOL     OW17464   1.652   1.727   2.604  0.1612 -0.2908 -0.3254
 2001SOL    HW117465   1.638   1.818   2.578  0.9905  0.5372  2.2064
 2001SOL    HW217466   1.650   1.730   2.699 -0.6254  2.6250 -0.4426
 2002SOL     OW17467   4.094   2.520   1.853 -0.2075  0.0625  0.0904
 2002SOL    HW117468   4.000   2.527   1.870 -0.7877  0.5456 -3.2296
 2002SOL    HW217469   4.111   2.614   1.866 -0.7261  0.0042  1.1805
 2003SOL     OW17470   2.937   0.673  16.826 -0.4222 -0.2068  0.0158
 2003SOL    HW117471   3.010   0.692  16.768 -0.0994  0.4581  0.6310
 2003SOL    HW217472   2.978   0.593  16.857  1.5495  0.3045 -1.2339
 2004SOL     OW17473   0.104   0.937   4.064 -0.2198 -0.0248 -0.0900
 2004SOL    HW117474   0.029   0.978   4.107  0.0108 -0.0182  0.3038
 2004SOL    HW217475   0.093   0.959   3.971 -0.8991 -0.5701 -0.1419
 2005SOL     OW17476   0.019   2.114   5.157  0.1338 -0.1173 -0.1068
 2005SOL    HW117477   0.089   2.151   5.103  1.4615  0.0482  1.7315
 2005SOL    HW217478   4.701   2.193   5.187  0.4540 -0.4944  1.3609
 2006SOL     OW17479   4.282   4.209  12.614  0.2463  0.7409 -0.1027
 2006SOL    HW117480   4.258   4.165  12.696 -0.2989 -0.2249 -0.7748
 2006SOL    HW217481   4.366   4.250  12.632  0.8241 -0.6077  0.2217
 2007SOL     OW17482   0.304   1.010   2.165 -0.4234 -0.1290 -0.6796
 2007SOL    HW117483   0.255   1.055   2.234 -1.2281 -0.4654 -1.0317
 2007SOL    HW217484   0.292   0.916   2.176 -1.7642 -0.1007 -2.0223
 2008SOL     OW17485   3.729   3.039   7.277  0.8104  0.0183  0.5046
 2008SOL    HW117486   3.803   2.984   7.252  0.5644 -0.2874  0.4542
 2008SOL    HW217487   3.658   2.986   7.240  1.3328  0.3617 -1.0054
 2009SOL     OW17488   1.666   0.651   1.729 -0.3930 -0.1963  0.4910
 2009SOL    HW117489   1.575   0.645   1.700 -0.0886  1.9091 -0.8512
 2009SOL    HW217490   1.665   0.600   1.810  2.6084 -2.9222 -1.1811
 2010SOL     OW17491   2.761   2.572   1.485 -0.5682 -0.4573  0.4598
 2010SOL    HW117492   2.846   2.608   1.459  0.1019 -1.9124  0.6090
 2010SOL    HW217493   2.742   2.516   1.409  0.8440 -0.1266 -0.1373
 2011SOL     OW17494   1.976   2.599   7.270 -0.0249  0.1081 -0.0370
 2011SOL    HW117495   2.039   2.646   7.325  0.3412  0.3199 -0.6410
 2011SOL    HW217496   2.024   2.519   7.247 -1.2006  0.2123 -2.7415
 2012SOL     OW17497   1.077   3.694   5.068 -0.1846 -0.2435  0.1864
 2012SOL    HW117498   1.167   3.714   5.042 -0.9067 -0.5686 -2.5057
 2012SOL    HW217499   1.096   3.684   5.162 -0.9562  1.2177  0.4805
 2013SOL     OW17500   1.616   1.749   6.982  0.6148  0.2994  0.0871
 2013SOL    HW117501   1.536   1.785   6.943  0.2909 -0.3903  0.1121
 2013SOL    HW217502   1.669   1.758   6.903 -1.8086 -1.6085 -1.7506
 2014SOL     OW17503   2.386   4.589   4.146 -0.5960  0.0541  0.0726
 2014SOL    HW117504   2.319   4.523   4.160 -1.1193  0.7209  0.6723
 2014SOL    HW217505   2.335   4.664   4.116  1.8280  1.6134 -0.2409
 2015SOL     OW17506   2.851   3.598   0.632 -0.1183 -0.4081 -0.4692
 2015SOL    HW117507   2.759   3.570   0.625 -1.2257  3.9756 -3.2204
 2015SOL    HW217508   2.896   3.536   0.574  1.8444 -0.0938  0.7469
 2016SOL     OW17509   2.047   0.612  16.194  0.5561 -0.1340 -0.0539
 2016SOL    HW117510   1.979   0.574  16.139  0.0711 -1.0452  1.1728
 2016SOL    HW217511   2.030   0.705  16.176  1.3107 -0.6960 -3.5243
 2017SOL     OW17512   1.480   1.316   1.421  0.0393 -0.3684  0.7724
 2017SOL    HW117513   1.537   1.393   1.412 -0.8438  0.0473 -1.0906
 2017SOL    HW217514   1.413   1.344   1.483  0.2811  2.0357 -0.0415
 2018SOL     OW17515   1.461   2.876   6.697 -0.5895 -0.2284 -0.0728
 2018SOL    HW117516   1.553   2.895   6.714 -0.4886 -1.6810  0.9570
 2018SOL    HW217517   1.444   2.830   6.779 -1.2374  0.4186  0.1593
 2019SOL     OW17518   0.811   2.438   5.387  0.9106  0.0565  0.1443
 2019SOL    HW117519   0.745   2.384   5.431  0.2934  1.2674  0.7117
 2019SOL    HW217520   0.855   2.376   5.329 -0.0836  2.0829 -2.7958
 2020SOL     OW17521   1.247   1.032   3.977 -0.4388  0.2633  1.0580
 2020SOL    HW117522   1.234   0.975   4.052 -1.0149 -2.0335 -0.8030
 2020SOL    HW217523   1.269   1.109   4.029  1.4427  0.7082 -0.3963
 2021SOL     OW17524   3.156   2.765  11.527 -0.2727  0.0762  0.4421
 2021SOL    HW117525   3.200   2.847  11.509  0.0443 -0.4034 -0.9283
 2021SOL    HW217526   3.088   2.772  11.461 -1.2130 -0.2644  1.3691
 2022SOL     OW17527   0.587   3.237  14.686 -0.3248 -0.2577 -0.1127
 2022SOL    HW117528   0.562   3.186  14.609  0.2797 -0.8400  0.0725
 2022SOL    HW217529   0.681   3.234  14.667 -0.3225 -0.1768 -0.1138
 2023SOL     OW17530   3.863   2.328   5.576  0.2217 -0.3890 -0.0137
 2023SOL    HW117531   3.907   2.314   5.492  0.8502 -0.0294  0.2538
 2023SOL    HW217532   3.833   2.238   5.586  0.0986 -0.4110 -0.5837
 2024SOL     OW17533   3.981   4.462  12.361  0.4861  0.1648  0.3204
 2024SOL    HW117534   3.903   4.497  12.317 -0.3365 -1.5323  0.4055
 2024SOL    HW217535   3.966   4.499  12.448  2.4798 -1.4214  1.3191
 2025SOL     OW17536   2.876   1.307  13.375  0.3388  0.0550 -0.6078
 2025SOL    HW117537   2.861   1.225  13.327  0.6292 -0.3079 -0.0760
 2025SOL    HW217538   2.848   1.370  13.308 -1.8027 -1.2474 -0.9600
 2026SOL     OW17539   2.076   1.321   4.295  0.5258 -0.2940  0.2234
 2026SOL    HW117540   2.099   1.374   4.372  2.0577 -1.5228  0.6268
 2026SOL    HW217541   2.126   1.355   4.221  0.3618  0.2985  0.3901
 2027SOL     OW17542   1.936   2.910  14.488 -0.4108 -0.5803 -0.5958
 2027SOL    HW117543   1.992   2.843  14.526 -2.2464 -1.9230 -0.2451
 2027SOL    HW217544   2.005   2.964  14.449 -2.2480  0.5418 -2.2835
 2028SOL     OW17545   1.783   1.877  11.026  0.2655 -0.3509  0.0628
 2028SOL    HW117546   1.854   1.941  11.025 -0.1666  0.1064 -2.5597
 2028SOL    HW217547   1.826   1.812  10.971  0.1687 -1.0488  0.8116
 2029SOL     OW17548   0.919   0.096   7.687  0.7280  0.0682  0.2800
 2029SOL    HW117549   0.866   0.041   7.744  2.2611 -0.0886  1.5611
 2029SOL    HW217550   0.852   0.135   7.630 -0.2069  1.2594  2.2037
 2030SOL     OW17551   0.180   0.517   8.035  0.1827  0.7255  0.0024
 2030SOL    HW117552   0.206   0.609   8.033  1.0327  0.4533 -1.2176
 2030SOL    HW217553   0.131   0.511   8.117 -2.1115  3.3060 -1.1546
 2031SOL     OW17554   3.535   2.835   7.931 -0.5051  0.1496  0.7063
 2031SOL    HW117555   3.540   2.856   8.024 -1.0580 -0.4096  0.8589
 2031SOL    HW217556   3.572   2.910   7.885  1.1961 -1.5153 -0.6207
 2032SOL     OW17557   2.283   2.567   6.554 -0.0907 -0.1029 -0.7277
 2032SOL    HW117558   2.335   2.554   6.633 -0.7741 -0.6382 -0.3681
 2032SOL    HW217559   2.321   2.644   6.510  0.9897 -1.5971 -2.4110
 2033SOL     OW17560   2.051   0.499   3.413  0.1982 -0.3390 -0.3026
 2033SOL    HW117561   2.067   0.577   3.359 -0.1998 -0.5987 -0.8017
 2033SOL    HW217562   2.075   0.527   3.501  0.6588 -2.7836  0.3490
 2034SOL     OW17563   4.309   3.601   7.739  0.0457 -0.3676  0.0521
 2034SOL    HW117564   4.400   3.577   7.726  0.3529 -0.1893  1.8642
 2034SOL    HW217565   4.273   3.521   7.702 -4.2373  1.1475  0.7992
 2035SOL     OW17566   0.420   1.665  11.657  0.0976  0.0822 -0.1657
 2035SOL    HW117567   0.325   1.657  11.650  0.0134  1.7350 -0.8950
 2035SOL    HW217568   0.416   1.696  11.748 -0.2215 -0.6345  0.0572
 2036SOL     OW17569   1.618   2.274  15.110 -0.4119 -0.2621  0.1771
 2036SOL    HW117570   1.535   2.321  15.099 -0.8536 -1.0644  0.0721
 2036SOL    HW217571   1.600   2.180  15.100 -0.6052 -0.0996 -1.0901
 2037SOL     OW17572   1.488   4.150   0.935 -0.4450 -0.0365  0.7325
 2037SOL    HW117573   1.522   4.193   0.856 -0.6998  2.4751  1.9694
 2037SOL    HW217574   1.416   4.101   0.895 -0.6108  2.2445 -1.8066
 2038SOL     OW17575   1.864   3.285   5.753 -0.1377 -0.0431 -0.4662
 2038SOL    HW117576   1.841   3.369   5.791  1.8974 -0.0103  0.6552
 2038SOL    HW217577   1.774   3.252   5.745 -0.0732 -0.7461  1.7858
 2039SOL     OW17578   4.195   2.788   6.289 -0.3888 -0.4555 -0.0140
 2039SOL    HW117579   4.148   2.815   6.368  0.6960  0.3162  0.3672
 2039SOL    HW217580   4.268   2.739   6.325 -1.8847 -2.2676  0.5389
 2040SOL     OW17581   4.062   3.445   6.761 -0.5298 -0.2701  0.4083
 2040SOL    HW117582   3.989   3.391   6.790 -1.4362  1.1472  0.7593
 2040SOL    HW217583   4.094   3.474   6.847  0.5920  0.6250 -0.3133
 2041SOL     OW17584   0.115   3.446   5.276  0.1063  0.0309 -0.7098
 2041SOL    HW117585   0.071   3.479   5.354  1.7038  0.1884  0.1074
 2041SOL    HW217586   0.142   3.531   5.242 -1.1128  0.3314 -0.9218
 2042SOL     OW17587   1.321   4.116   5.674  0.2063  0.3145 -0.2251
 2042SOL    HW117588   1.266   4.120   5.753  1.7648  2.1223  0.7644
 2042SOL    HW217589   1.365   4.032   5.684 -1.9581 -0.6569  1.2773
 2043SOL     OW17590   2.057   3.197  13.014  0.4198  0.6806  0.0244
 2043SOL    HW117591   2.143   3.211  12.973  0.7188 -2.3730 -0.3281
 2043SOL    HW217592   2.023   3.135  12.950  1.2772  0.1087  0.1273
 2044SOL     OW17593   1.579   1.789   3.739 -0.1439 -0.1116  0.0263
 2044SOL    HW117594   1.516   1.853   3.771 -0.9571 -1.3210  0.8300
 2044SOL    HW217595   1.526   1.714   3.713 -3.4831  2.3807 -0.3695
 2045SOL     OW17596   4.597   3.313   5.286 -0.4916 -0.3030 -0.0985
 2045SOL    HW117597   4.546   3.364   5.223 -2.3030  2.0480  3.2390
 2045SOL    HW217598   4.681   3.360   5.287 -0.9193  0.4281  1.2706
 2046SOL     OW17599   4.462   3.655  15.033  0.0663  0.2665  0.1820
 2046SOL    HW117600   4.414   3.735  15.013  0.8121  0.9295  1.0696
 2046SOL    HW217601   4.403   3.611  15.095  0.5353 -0.1353  0.3480
 2047SOL     OW17602   0.365   3.753   8.533  0.2512  0.3893  0.2628
 2047SOL    HW117603   0.352   3.794   8.447 -1.3094 -0.2240  0.2154
 2047SOL    HW217604   0.369   3.663   8.502 -1.6503  0.3073  0.2863
 2048SOL     OW17605   1.797   0.380   5.364  0.3857  0.2447 -0.0646
 2048SOL    HW117606   1.888   0.412   5.359  0.0109  1.0161 -2.1946
 2048SOL    HW217607   1.811   0.303   5.418 -0.1687  0.9666  1.1077
 2049SOL     OW17608   0.283   3.048   5.706  0.3657 -0.3279 -0.3488
 2049SOL    HW117609   0.323   2.968   5.740  1.4700  0.1831 -0.4447
 2049SOL    HW217610   0.222   3.081   5.772  0.8286 -0.1356 -0.0167
 2050SOL     OW17611   1.488   2.239   8.554 -0.3158 -0.2726 -0.5704
 2050SOL    HW117612   1.443   2.178   8.613  1.9401 -1.5297 -0.1343
 2050SOL    HW217613   1.536   2.303   8.606 -0.0337 -2.4847  1.9327
 2051SOL     OW17614   1.179   2.378   9.830  0.1035 -0.2488 -0.2377
 2051SOL    HW117615   1.211   2.299   9.874 -0.9093 -0.0571  0.8261
 2051SOL    HW217616   1.204   2.354   9.740 -1.5724  1.6399 -1.1868
 2052SOL     OW17617   3.527   3.859  17.407  0.2450 -0.2578  0.2049
 2052SOL    HW117618   3.575   3.840  17.487  1.2629  0.4446 -0.2275
 2052SOL    HW217619   3.453   3.910  17.440  0.8847  0.5987  0.3372
 2053SOL     OW17620   4.639   4.162   4.264 -0.0283 -0.1734 -0.2287
 2053SOL    HW117621   4.598   4.079   4.242 -1.3818  0.6311 -0.7014
 2053SOL    HW217622   4.649   4.162   4.359 -1.4289 -0.0169 -0.0911
 2054SOL     OW17623   0.130   2.892  12.763  0.0812  0.4558 -0.6317
 2054SOL    HW117624   0.150   2.804  12.795 -0.9225  1.8417  3.8686
 2054SOL    HW217625   0.046   2.885  12.718  0.3346  0.5128 -1.1036
 2055SOL     OW17626   1.001   2.631   9.207  0.2150 -0.2786 -0.2410
 2055SOL    HW117627   0.981   2.585   9.288 -0.8431 -0.4649 -0.6016
 2055SOL    HW217628   1.061   2.577   9.155  0.7361  1.7555 -1.7640
 2056SOL     OW17629   1.495   1.038  16.679 -0.0948  0.2694  0.0154
 2056SOL    HW117630   1.424   1.095  16.649  0.5923  1.2312  0.2372
 2056SOL    HW217631   1.488   1.066  16.770  1.1677  1.2392 -0.1907
 2057SOL     OW17632   0.452   0.126   3.940 -0.1624  0.7076  0.2305
 2057SOL    HW117633   0.368   0.168   3.961 -1.3437 -0.5907 -1.8598
 2057SOL    HW217634   0.491   0.190   3.880  1.4604  0.5531  1.1242
 2058SOL     OW17635   4.278   0.094  17.504 -0.1683 -0.0185 -0.4458
 2058SOL    HW117636   4.296   0.134  17.589  1.7611 -0.2234 -0.7705
 2058SOL    HW217637   4.270   0.001  17.523 -1.7324 -0.0668 -1.3875
 2059SOL     OW17638   4.092   3.093   1.209 -0.5699  0.0972  0.3019
 2059SOL    HW117639   4.167   3.038   1.229  1.5544  4.1083  3.4571
 2059SOL    HW217640   4.084   3.090   1.114 -1.2236 -2.0759  0.4282
 2060SOL     OW17641   4.289   4.217   8.215  0.9744  0.4398 -0.2879
 2060SOL    HW117642   4.273   4.309   8.194  1.1262  0.1472 -1.6488
 2060SOL    HW217643   4.314   4.175   8.133 -0.1840 -0.9956  0.0946
 2061SOL     OW17644   1.716   1.882   0.446  0.3391 -0.5955 -0.0747
 2061SOL    HW117645   1.755   1.820   0.507  3.4788  1.0761 -0.3957
 2061SOL    HW217646   1.684   1.819   0.381 -2.3440  1.1529 -0.4370
 2062SOL     OW17647   0.067   2.454   8.570 -0.1913 -0.0206 -0.4987
 2062SOL    HW117648   0.100   2.434   8.483  1.9242  0.5555  0.1765
 2062SOL    HW217649   0.133   2.512   8.609  0.5251 -0.9784 -0.2750
 2063SOL     OW17650   4.614   4.157  10.214  0.1807 -0.1562  0.4170
 2063SOL    HW117651   4.674   4.135  10.142  2.0153  2.1353  1.2303
 2063SOL    HW217652   4.530   4.178  10.172  0.1903  0.2185  0.5837
 2064SOL     OW17653   2.406   4.044  12.744  0.5491  0.7469 -0.0072
 2064SOL    HW117654   2.430   4.118  12.800 -1.0265  1.7284 -0.6198
 2064SOL    HW217655   2.481   4.045  12.685  0.8277 -0.8587  0.3220
 2065SOL     OW17656   1.532   0.493  17.371  0.1115 -0.1719  0.3763
 2065SOL    HW117657   1.589   0.566  17.393  1.6671 -1.1141 -0.5878
 2065SOL    HW217658   1.598   0.435  17.334  2.0396  1.4877  1.2409
 2066SOL     OW17659   0.112   0.840   1.804  0.7458 -0.5451 -0.0693
 2066SOL    HW117660   0.131   0.820   1.712  0.6612 -2.2345  0.2744
 2066SOL    HW217661   0.181   0.791   1.847  0.8438  0.4322  0.8800
 2067SOL     OW17662   1.047   2.671  13.642  0.0489  0.0848  0.1104
 2067SOL    HW117663   1.113   2.604  13.658  0.9948  1.0497  0.1997
 2067SOL    HW217664   0.986   2.661  13.716  0.3697  0.9385  0.4813
 2068SOL     OW17665   1.183   0.675   6.272  0.4721  0.3517 -0.2224
 2068SOL    HW117666   1.215   0.736   6.338  0.5350 -2.8014  2.6989
 2068SOL    HW217667   1.264   0.629   6.249  1.0799 -0.0027  2.6681
 2069SOL     OW17668   2.041   3.121   2.229 -0.1902 -0.0650  0.6077
 2069SOL    HW117669   2.039   3.057   2.159 -0.7174  0.4313  0.1712
 2069SOL    HW217670   2.004   3.069   2.300  1.0078  0.8406  1.9256
 2070SOL     OW17671   3.824   1.709  10.571 -0.5340 -0.0210  0.0446
 2070SOL    HW117672   3.820   1.732  10.478 -1.6878  0.9980  0.3384
 2070SOL    HW217673   3.738   1.738  10.604  0.0670  0.0058  1.5663
 2071SOL     OW17674   0.435   2.670  13.364 -0.2537  0.0108 -0.3971
 2071SOL    HW117675   0.397   2.583  13.353  1.0704 -0.5940 -0.0870
 2071SOL    HW217676   0.402   2.702  13.280  0.7715 -0.5030 -0.9982
 2072SOL     OW17677   0.782   0.827   7.122  0.3008  0.0767  0.2732
 2072SOL    HW117678   0.852   0.887   7.148  0.2088 -0.5328  1.8996
 2072SOL    HW217679   0.841   0.752   7.109 -0.2843 -0.2377 -0.5671
 2073SOL     OW17680   1.461   3.244   8.298  0.3897 -0.2240 -0.4067
 2073SOL    HW117681   1.441   3.280   8.385  2.0033  0.0873 -0.1649
 2073SOL    HW217682   1.536   3.292   8.263  0.7594 -0.8062 -0.4072
 2074SOL     OW17683   2.553   2.492   4.709  0.6964  0.0150  0.2565
 2074SOL    HW117684   2.494   2.568   4.703  0.2081 -0.2457  1.8226
 2074SOL    HW217685   2.635   2.540   4.721  2.0266 -2.8560  2.5185
 2075SOL     OW17686   3.672   3.558  16.142  0.3311 -0.2386  0.3951
 2075SOL    HW117687   3.579   3.544  16.158 -0.4926  2.9380 -1.5071
 2075SOL    HW217688   3.661   3.596  16.055  1.5057  0.8377  0.7061
 2076SOL     OW17689   4.668   4.117  12.322  0.3344 -0.5259  0.1129
 2076SOL    HW117690   4.721   4.192  12.349  0.1565 -0.1423 -0.5787
 2076SOL    HW217691   4.577   4.145  12.325  0.7689  0.7493  1.1045
 2077SOL     OW17692   3.570   0.853   5.995  0.4585 -0.5059 -0.4097
 2077SOL    HW117693   3.488   0.822   6.033  1.8175 -1.6413  1.5812
 2077SOL    HW217694   3.535   0.927   5.945 -0.8966 -0.0489  1.2288
 2078SOL     OW17695   2.701   0.615   1.037 -0.4987  0.6060 -0.2865
 2078SOL    HW117696   2.702   0.707   1.060 -0.6197  0.7545 -0.8784
 2078SOL    HW217697   2.784   0.610   0.989  0.1747 -3.1038  1.2652
 2079SOL     OW17698   3.445   4.441   1.795 -0.2994 -0.6597  0.5988
 2079SOL    HW117699   3.476   4.367   1.742  1.9323  0.3958  0.4302
 2079SOL    HW217700   3.526   4.444   1.845 -0.2163 -0.8317  0.4722
 2080SOL     OW17701   1.965   0.287   1.539 -0.3782  0.4321 -0.3341
 2080SOL    HW117702   2.027   0.220   1.568  0.6154  1.0883 -0.9492
 2080SOL    HW217703   1.915   0.302   1.620 -0.1390  0.1587 -0.1357
 2081SOL     OW17704   4.369   3.715   9.930  0.4490  0.0927  0.1248
 2081SOL    HW117705   4.370   3.631   9.883  0.7501  0.6230 -0.8243
 2081SOL    HW217706   4.290   3.747   9.886 -0.9319 -1.1958  1.6429
 2082SOL     OW17707   4.231   3.065   2.388  0.4760 -0.2051  0.1869
 2082SOL    HW117708   4.293   3.136   2.368  1.9853 -1.0027  2.0779
 2082SOL    HW217709   4.229   3.087   2.482  1.2611  2.0153 -0.2915
 2083SOL     OW17710   1.624   4.716   1.476  0.0249 -0.4444  0.0652
 2083SOL    HW117711   1.704   4.714   1.528 -1.3077  3.4501  2.3140
 2083SOL    HW217712   1.596   4.625   1.484 -1.2470 -0.0728 -0.2436
 2084SOL     OW17713   0.610   0.760  13.585  0.6340 -0.1002 -0.4920
 2084SOL    HW117714   0.663   0.828  13.626  1.8633 -0.4470 -1.5193
 2084SOL    HW217715   0.521   0.796  13.579  0.3769 -0.5728  0.5429
 2085SOL     OW17716   2.271   1.027   8.983 -0.8230  0.3103 -0.1738
 2085SOL    HW117717   2.273   0.970   8.906  0.5284 -2.5992  2.0048
 2085SOL    HW217718   2.316   1.103   8.947  0.9472 -0.6663 -0.0803
 2086SOL     OW17719   0.930   1.395  17.638 -0.4058  0.6038 -0.0682
 2086SOL    HW117720   1.025   1.403  17.625 -0.4148  1.7522  0.6121
 2086SOL    HW217721   0.921   1.323  17.700  0.2814  1.1187  0.6295
 2087SOL     OW17722   3.537   0.911   3.077  0.5700 -0.0551 -0.1431
 2087SOL    HW117723   3.592   0.910   2.998 -0.1795 -1.9353 -0.6419
 2087SOL    HW217724   3.471   0.967   3.036  0.8647 -0.7242 -1.5381
 2088SOL     OW17725   2.292   0.647   8.027 -0.0890  0.5937 -0.5804
 2088SOL    HW117726   2.325   0.572   7.978  3.7185 -1.1232  4.5543
 2088SOL    HW217727   2.199   0.635   8.011 -0.0803  0.7580 -0.7586
 2089SOL     OW17728   4.580   2.233   0.922 -0.1766 -0.4884 -0.2488
 2089SOL    HW117729   4.601   2.268   1.009  0.8453 -1.6871 -0.0085
 2089SOL    HW217730   4.662   2.186   0.908 -1.5318 -3.0174  0.2775
 2090SOL     OW17731   0.241   0.476   4.207  0.0997 -0.0819 -0.1329
 2090SOL    HW117732   0.265   0.514   4.292 -0.6692 -0.1665  0.1206
 2090SOL    HW217733   0.163   0.529   4.189 -2.1063 -3.0436  0.7667
 2091SOL     OW17734   2.661   2.920   8.939 -0.1789 -0.0916  0.0493
 2091SOL    HW117735   2.688   2.863   9.012  1.1182  0.0414 -0.3261
 2091SOL    HW217736   2.646   3.000   8.989  0.2295 -0.4118  0.6952
 2092SOL     OW17737   3.039   1.560  15.922  0.0748  0.0944  0.3041
 2092SOL    HW117738   3.002   1.513  15.996 -0.3910  0.7020  0.4535
 2092SOL    HW217739   2.979   1.634  15.913 -0.5473 -0.5284 -0.7766
 2093SOL     OW17740   2.164   1.991  10.828 -0.0874 -0.2585 -0.1688
 2093SOL    HW117741   2.260   1.990  10.821 -0.1362  0.5255 -0.8175
 2093SOL    HW217742   2.141   1.901  10.804  0.1121 -0.4461  0.3417
 2094SOL     OW17743   4.493   4.388  14.303 -0.4175 -0.2763  0.3332
 2094SOL    HW117744   4.545   4.312  14.329 -1.2770 -0.5820  1.1761
 2094SOL    HW217745   4.484   4.366  14.211  0.2190  3.4194 -0.6342
 2095SOL     OW17746   0.423   3.741   8.862  0.2459 -0.1027 -0.3477
 2095SOL    HW117747   0.403   3.830   8.834 -3.3018 -1.6947 -2.8523
 2095SOL    HW217748   0.364   3.743   8.938  0.8516 -1.5168  0.1663
 2096SOL     OW17749   2.083   0.498   6.038 -0.1277  0.1427 -0.1636
 2096SOL    HW117750   2.037   0.572   6.077  0.6547  0.4036  0.2622
 2096SOL    HW217751   2.011   0.457   5.990 -0.0865 -0.7081  0.4967
 2097SOL     OW17752   1.563   1.980  11.477  0.1144 -0.1804  0.1375
 2097SOL    HW117753   1.587   2.037  11.550 -1.0142  0.0395  0.3397
 2097SOL    HW217754   1.475   1.948  11.500  0.2581 -0.4145  0.3614
 2098SOL     OW17755   4.372   3.557  11.124 -0.6082  0.8872  0.2298
 2098SOL    HW117756   4.453   3.608  11.115 -0.9034  0.6127 -3.7874
 2098SOL    HW217757   4.387   3.526  11.213 -0.0496  0.8459  0.1191
 2099SOL     OW17758   0.914   4.301   6.234  0.6595 -0.2993  0.0907
 2099SOL    HW117759   0.976   4.322   6.303 -0.5498 -0.2949  1.1803
 2099SOL    HW217760   0.975   4.250   6.181  2.5132  2.9980 -0.9898
 2100SOL     OW17761   1.586   0.417   2.900 -0.1210 -0.6462 -0.2672
 2100SOL    HW117762   1.679   0.416   2.880  0.2029 -1.1961  1.2208
 2100SOL    HW217763   1.554   0.343   2.850  0.6985 -0.6914 -0.7236
 2101SOL     OW17764   0.383   3.861  17.125  0.2928  0.1095 -0.6274
 2101SOL    HW117765   0.459   3.843  17.070 -1.5364 -1.3434 -2.6692
 2101SOL    HW217766   0.397   3.948  17.164 -1.1895  0.3467 -0.6385
 2102SOL     OW17767   2.768   0.897   4.557 -0.4715 -0.5033  0.0419
 2102SOL    HW117768   2.763   0.806   4.586 -0.0258  0.2020  2.2986
 2102SOL    HW217769   2.698   0.905   4.492  1.7614 -2.2597 -2.6249
 2103SOL     OW17770   1.589   4.225   5.482 -0.5078 -0.3873 -0.0213
 2103SOL    HW117771   1.596   4.148   5.425  0.1832 -2.2210  2.5499
 2103SOL    HW217772   1.618   4.183   5.563  1.5198 -0.3829 -0.7222
 2104SOL     OW17773   4.010   1.006   5.132  0.0185 -0.5675 -0.1497
 2104SOL    HW117774   3.946   0.966   5.072 -0.4636  2.2511 -1.5266
 2104SOL    HW217775   4.035   1.084   5.082 -1.6361 -1.1234 -1.8871
 2105SOL     OW17776   2.793   3.471   4.622 -0.0943  0.4224  0.2564
 2105SOL    HW117777   2.806   3.563   4.644  0.7914  0.0830  1.1556
 2105SOL    HW217778   2.771   3.479   4.529 -0.9036  0.9669  0.4916
 2106SOL     OW17779   1.446   3.117  11.867  0.0514 -0.1932  0.5942
 2106SOL    HW117780   1.396   3.199  11.859  0.3121 -0.1753 -0.8712
 2106SOL    HW217781   1.476   3.133  11.957  0.1010 -0.3724  0.6081
 2107SOL     OW17782   2.883   1.202   8.970 -0.8147 -0.2647  0.2061
 2107SOL    HW117783   2.874   1.106   8.969  0.5768 -0.3869 -1.2294
 2107SOL    HW217784   2.975   1.221   8.951 -0.8959 -1.0973 -1.0915
 2108SOL     OW17785   0.722   1.356   1.011  0.1143 -0.4348  0.2689
 2108SOL    HW117786   0.769   1.320   0.936 -1.2337 -0.9097 -0.3385
 2108SOL    HW217787   0.794   1.394   1.062  0.6360  0.6029 -1.2322
 2109SOL     OW17788   2.634   2.158   0.394  0.7084 -0.0973 -0.7333
 2109SOL    HW117789   2.717   2.189   0.359 -1.3250  2.4883 -3.2031
 2109SOL    HW217790   2.625   2.070   0.357  0.9913 -0.0689 -0.8704
 2110SOL     OW17791   2.819   1.280   9.734  0.0367 -0.3440 -0.2418
 2110SOL    HW117792   2.748   1.236   9.780 -1.7523  1.6221 -1.0686
 2110SOL    HW217793   2.774   1.354   9.692  3.2717  2.1512  0.7442
 2111SOL     OW17794   3.615   0.966   0.697  0.2512 -0.0961  0.0574
 2111SOL    HW117795   3.641   1.031   0.632 -1.4730 -0.4522 -0.9682
 2111SOL    HW217796   3.678   0.895   0.682  0.6263  0.8596 -2.7493
 2112SOL     OW17797   2.540   3.596   5.775  0.2046 -0.0652 -0.1343
 2112SOL    HW117798   2.454   3.622   5.742  0.9003  0.5472 -1.4817
 2112SOL    HW217799   2.588   3.574   5.696  1.8634  0.6641  0.6626
 2113SOL     OW17800   3.055   0.686   8.464  0.5319  0.1897  0.4628
 2113SOL    HW117801   3.069   0.670   8.558 -1.5133  0.3051  0.8065
 2113SOL    HW217802   3.094   0.769   8.439 -1.1235 -0.0247 -2.8173
 2114SOL     OW17803   4.530   3.567   5.097  0.2306 -0.2283  0.2661
 2114SOL    HW117804   4.451   3.513   5.094  0.0368  0.0807 -0.2132
 2114SOL    HW217805   4.493   3.653   5.117  0.2043 -0.1376 -0.1670
 2115SOL     OW17806   0.417   1.832  13.076  0.4770 -0.5899  0.0245
 2115SOL    HW117807   0.474   1.842  13.000 -0.3714  0.7228 -0.4146
 2115SOL    HW217808   0.355   1.903  13.067 -0.2332 -1.5218 -2.3457
 2116SOL     OW17809   4.143   1.365  14.946 -0.6822 -0.2580 -0.0952
 2116SOL    HW117810   4.074   1.392  14.886 -0.5766 -1.6419 -0.8313
 2116SOL    HW217811   4.201   1.332  14.877 -0.6508 -0.8886  0.2311
 2117SOL     OW17812   1.582   3.076  12.096  0.0116  0.0182  0.5606
 2117SOL    HW117813   1.652   3.099  12.156 -0.8111 -0.1579  1.5898
 2117SOL    HW217814   1.629   3.057  12.015 -0.5041  1.1509 -0.0094
 2118SOL     OW17815   4.090   1.914   2.684 -0.4067  0.2976 -0.3744
 2118SOL    HW117816   4.180   1.883   2.691 -0.6784 -0.6336 -1.0663
 2118SOL    HW217817   4.054   1.826   2.697 -1.3727  0.9920  1.6709
 2119SOL     OW17818   4.277   1.633   0.670  0.3732  0.0022 -0.4042
 2119SOL    HW117819   4.339   1.705   0.676  0.7560 -0.2355 -1.4929
 2119SOL    HW217820   4.195   1.680   0.683 -1.0735 -2.7824  0.6453
 2120SOL     OW17821   0.922   2.387  10.019 -0.4960  0.2919  0.5036
 2120SOL    HW117822   0.949   2.298   9.995 -0.1531  1.1130 -2.2389
 2120SOL    HW217823   1.009   2.423  10.039 -0.9932  1.0467  1.2754
 2121SOL     OW17824   1.507   2.916   8.626  0.1059 -0.2906  0.3944
 2121SOL    HW117825   1.491   2.913   8.720 -1.4744  0.9120  0.1670
 2121SOL    HW217826   1.572   2.986   8.620 -0.1669  0.0059  0.9193
 2122SOL     OW17827   1.693   2.202   2.471 -0.4914  0.6481  0.3970
 2122SOL    HW117828   1.740   2.283   2.451  2.2895 -1.2237 -0.5766
 2122SOL    HW217829   1.670   2.166   2.386  1.3006  0.1200  0.1445
 2123SOL     OW17830   0.076   1.221   3.413  0.2168 -0.0948  0.0004
 2123SOL    HW117831   0.078   1.313   3.388 -0.2230 -0.0735  0.0525
 2123SOL    HW217832   0.018   1.218   3.489 -0.6184 -1.3870 -0.6790
 2124SOL     OW17833   3.819   3.393  12.583  0.0894  0.6864 -0.2429
 2124SOL    HW117834   3.815   3.461  12.650 -0.2073  1.9253 -1.5216
 2124SOL    HW217835   3.725   3.372  12.579  0.3331 -0.8056  1.9385
 2125SOL     OW17836   1.953   3.170   9.820 -0.1474  0.0903  0.0026
 2125SOL    HW117837   2.044   3.175   9.789 -0.7700 -0.5120 -1.9022
 2125SOL    HW217838   1.956   3.238   9.887 -0.3187  1.0905 -1.0017
 2126SOL     OW17839   1.923   0.436   9.694 -0.3391  0.0845 -0.3965
 2126SOL    HW117840   1.860   0.423   9.764  1.7398 -2.1672  1.0539
 2126SOL    HW217841   1.929   0.531   9.687 -1.7219  0.2094  0.1044
 2127SOL     OW17842   1.807   0.379   3.414 -0.2057 -0.2044 -0.5133
 2127SOL    HW117843   1.881   0.440   3.417  0.7714 -1.2735 -3.0464
 2127SOL    HW217844   1.848   0.308   3.462  0.8640  0.3671 -0.5870
 2128SOL     OW17845   1.487   2.203  13.173  0.1078 -0.3036  0.2318
 2128SOL    HW117846   1.522   2.127  13.220 -0.2586  0.8735  2.4074
 2128SOL    HW217847   1.492   2.168  13.084  1.6625 -0.3957  0.3555
 2129SOL     OW17848   0.729   1.387  15.531  0.1298 -0.1467  0.1104
 2129SOL    HW117849   0.761   1.298  15.539 -0.1488 -0.0892  1.7732
 2129SOL    HW217850   0.771   1.420  15.451  1.6798  1.4647  1.5841
 2130SOL     OW17851   4.116   3.379   5.593 -0.1897 -0.0663  0.2700
 2130SOL    HW117852   4.158   3.340   5.516 -1.7718 -0.0817 -0.5994
 2130SOL    HW217853   4.198   3.400   5.636  0.3810  0.9808 -1.3389
 2131SOL     OW17854   4.224   2.134   5.916 -0.5432 -0.6788  0.5482
 2131SOL    HW117855   4.304   2.098   5.957  0.4360  1.0697  0.1892
 2131SOL    HW217856   4.246   2.164   5.828  1.1576 -0.6456  0.9771
 2132SOL     OW17857   0.412   2.161   7.487 -0.4649 -0.3018 -0.0150
 2132SOL    HW117858   0.319   2.174   7.469 -0.0067  0.4307 -1.8647
 2132SOL    HW217859   0.438   2.246   7.523 -0.8331  0.1221 -0.7561
 2133SOL     OW17860   1.606   2.285   3.581  0.0393 -0.0771  0.3571
 2133SOL    HW117861   1.534   2.340   3.611 -0.2165  0.1828 -0.7027
 2133SOL    HW217862   1.649   2.256   3.661  1.6850 -0.2674 -0.5826
 2134SOL     OW17863   3.435   3.882   2.744 -0.4751 -0.4016  0.4078
 2134SOL    HW117864   3.378   3.872   2.819  0.7077 -0.1231  1.3376
 2134SOL    HW217865   3.375   3.914   2.676  0.0849  2.9753  1.5149
 2135SOL     OW17866   2.627   3.138   5.644  0.0985 -0.0420 -0.0934
 2135SOL    HW117867   2.700   3.077   5.637  0.6009  0.7343 -1.4160
 2135SOL    HW217868   2.608   3.161   5.553 -1.4808 -1.0262 -0.0202
 2136SOL     OW17869   2.277   1.415   6.806 -0.1396 -0.1465 -0.1363
 2136SOL    HW117870   2.288   1.399   6.712 -3.1706  1.5136 -0.7629
 2136SOL    HW217871   2.308   1.330   6.840 -1.8265 -1.1863 -1.2141
 2137SOL     OW17872   0.595   0.728   4.634  0.1496  0.0887 -0.0755
 2137SOL    HW117873   0.608   0.822   4.650 -1.1727  0.0593  1.1153
 2137SOL    HW217874   0.651   0.681   4.697 -0.2340  0.1564  0.3153
 2138SOL     OW17875   0.336   3.138  15.388 -0.3120 -0.4119 -0.0999
 2138SOL    HW117876   0.327   3.228  15.420 -1.7401  0.3599 -2.7057
 2138SOL    HW217877   0.432   3.132  15.380 -0.4569 -3.5812  0.4843
 2139SOL     OW17878   0.708   4.365   9.818  0.1289  0.2187 -0.1266
 2139SOL    HW117879   0.777   4.320   9.866 -0.1194  1.6459  1.5900
 2139SOL    HW217880   0.656   4.288   9.794  3.3917 -2.6482  2.0778
 2140SOL     OW17881   0.306   1.878   2.935 -0.4311  0.4381  0.0278
 2140SOL    HW117882   0.277   1.966   2.959 -1.9259  0.3402 -1.3789
 2140SOL    HW217883   0.338   1.850   3.020  2.2736  0.3006 -1.0271
 2141SOL     OW17884   4.124   3.035   8.223  0.3001 -0.3316  0.4694
 2141SOL    HW117885   4.160   2.947   8.212 -2.8945 -1.4236 -1.2434
 2141SOL    HW217886   4.204   3.087   8.220 -1.0011  1.3292 -4.8612
 2142SOL     OW17887   3.982   3.054   2.322 -0.0648 -0.2352  0.3680
 2142SOL    HW117888   4.007   2.966   2.296  0.7768  0.2280 -0.3617
 2142SOL    HW217889   4.063   3.075   2.369  0.3503  0.2459 -0.5698
 2143SOL     OW17890   2.855   2.516   1.752  0.6294  0.0775 -0.0199
 2143SOL    HW117891   2.788   2.528   1.685  1.4214 -3.0454 -1.3857
 2143SOL    HW217892   2.898   2.601   1.749  0.1330  0.3093 -0.6690
 2144SOL     OW17893   0.559   4.159   3.278 -0.1541 -0.4250  0.0423
 2144SOL    HW117894   0.616   4.112   3.217 -3.0000 -2.0653 -1.3232
 2144SOL    HW217895   0.619   4.159   3.353 -0.5466  0.4943  0.3585
 2145SOL     OW17896   4.133   1.497  16.663  0.2441 -0.3037  0.3380
 2145SOL    HW117897   4.050   1.536  16.636 -0.0081 -0.0932  1.4273
 2145SOL    HW217898   4.126   1.511  16.757  0.6076 -2.6361  0.6974
 2146SOL     OW17899   4.422   2.701   7.212 -0.4839  1.2963 -0.5641
 2146SOL    HW117900   4.412   2.608   7.189  0.1426  1.2956 -0.8102
 2146SOL    HW217901   4.355   2.739   7.154 -1.7621  2.6509  1.7762
 2147SOL     OW17902   3.916   2.001   8.395 -0.5343  0.1868  0.3257
 2147SOL    HW117903   3.826   1.977   8.373 -1.0348  0.7895  1.7031
 2147SOL    HW217904   3.905   2.016   8.489  0.5421 -1.5400  0.7235
 2148SOL     OW17905   2.918   2.366   5.590  0.7228  0.0248  0.1619
 2148SOL    HW117906   2.868   2.441   5.558  2.1741  1.8815  2.2468
 2148SOL    HW217907   2.953   2.400   5.672 -4.8746 -1.3415  3.1222
 2149SOL     OW17908   0.042   2.929   2.142  0.4796  0.7332 -0.5602
 2149SOL    HW117909   4.721   2.850   2.165  0.5541  0.1695 -2.3373
 2149SOL    HW217910   0.015   2.939   2.051  0.7927 -1.5228 -0.9025
 2150SOL     OW17911   1.288   1.390   0.266 -0.3667  0.2870 -0.4427
 2150SOL    HW117912   1.205   1.393   0.313 -0.3756  0.4491 -0.4691
 2150SOL    HW217913   1.329   1.473   0.290 -0.4724 -0.5502  2.5129
 2151SOL     OW17914   1.781   1.576   7.930 -0.4672 -0.5785  0.2700
 2151SOL    HW117915   1.689   1.558   7.949 -1.3179 -0.2324 -3.5825
 2151SOL    HW217916   1.821   1.489   7.923 -0.1685 -0.6036  2.3610
 2152SOL     OW17917   2.283   0.868   8.750 -0.3554  0.1766 -0.0224
 2152SOL    HW117918   2.301   0.795   8.808 -0.2001  0.1662 -0.0828
 2152SOL    HW217919   2.218   0.833   8.690 -0.5754  0.8376 -0.1692
 2153SOL     OW17920   3.804   1.206   7.326 -0.2899 -0.5486  0.7580
 2153SOL    HW117921   3.801   1.177   7.235 -1.4950 -0.1730  0.6693
 2153SOL    HW217922   3.863   1.281   7.327  0.4899 -1.1804  1.8919
 2154SOL     OW17923   0.485   1.929   7.267 -0.0810  0.4096 -0.0001
 2154SOL    HW117924   0.536   1.851   7.244 -0.0841 -0.0996  1.7499
 2154SOL    HW217925   0.554   1.996   7.269  0.3687 -0.0449 -0.3106
 2155SOL     OW17926   0.821   0.944   9.317 -0.2988 -0.4440 -0.6591
 2155SOL    HW117927   0.868   0.935   9.400  1.0498  0.3703 -1.3252
 2155SOL    HW217928   0.853   1.026   9.279  1.7253 -1.8397 -2.0239
 2156SOL     OW17929   2.655   1.871  17.640  0.4724  0.0426  0.5328
 2156SOL    HW117930   2.575   1.818  17.650  0.1269  0.9047  2.3206
 2156SOL    HW217931   2.629   1.941  17.699  0.0614 -0.0520  0.4634
 2157SOL     OW17932   0.263   2.725   1.945 -0.2239  0.5531  0.3916
 2157SOL    HW117933   0.269   2.629   1.945  2.4880  0.7303  0.9261
 2157SOL    HW217934   0.173   2.740   1.975 -0.0894  0.2609  0.9526
 2158SOL     OW17935   3.959   3.306   8.298  0.1125 -0.1092  0.3618
 2158SOL    HW117936   4.024   3.240   8.321  3.2215  2.9686  0.3649
 2158SOL    HW217937   3.990   3.337   8.212 -0.0270 -0.3751  0.2153
 2159SOL     OW17938   0.985   2.483   2.649 -0.7624  0.1215  0.1769
 2159SOL    HW117939   0.926   2.551   2.617 -1.9793 -0.5380  1.0241
 2159SOL    HW217940   1.072   2.511   2.619 -0.4386 -0.3900  0.6323
 2160SOL     OW17941   0.946   3.913   8.408  0.2407  0.0844 -0.2313
 2160SOL    HW117942   0.926   3.822   8.388 -2.5167  0.6774 -0.0930
 2160SOL    HW217943   1.019   3.924   8.348 -0.7650  2.5715 -0.9894
 2161SOL     OW17944   2.064   4.186   6.256  0.0576  0.2646  0.0571
 2161SOL    HW117945   2.111   4.269   6.249  1.0877 -0.2932  0.2685
 2161SOL    HW217946   1.999   4.204   6.324 -0.1254  1.6443 -0.4920
 2162SOL     OW17947   3.701   3.347   5.663 -0.4197  0.3331 -0.3898
 2162SOL    HW117948   3.788   3.388   5.656 -1.4771  2.4841 -0.9052
 2162SOL    HW217949   3.700   3.314   5.752  0.4792 -2.6634 -1.4965
 2163SOL     OW17950   2.309   3.385   7.086 -0.0293 -0.1982 -0.4700
 2163SOL    HW117951   2.380   3.323   7.068 -0.6084 -2.1457  3.8093
 2163SOL    HW217952   2.351   3.434   7.157 -2.0237 -1.4899  1.6075
 2164SOL     OW17953   2.246   2.256  15.170 -0.1065 -0.0504  0.1720
 2164SOL    HW117954   2.330   2.212  15.162 -1.2221 -1.9425 -1.0946
 2164SOL    HW217955   2.191   2.182  15.197 -0.7699  0.4429  0.1642
 2165SOL     OW17956   0.575   1.926  17.189  0.0399 -0.1225  0.4011
 2165SOL    HW117957   0.549   1.972  17.269 -2.3675  1.1925 -1.1240
 2165SOL    HW217958   0.669   1.943  17.194 -0.3891  2.3752  0.1433
 2166SOL     OW17959   1.172   4.601   6.087  0.0212  0.1954 -0.4997
 2166SOL    HW117960   1.099   4.598   6.148 -0.8516  1.9178 -1.4428
 2166SOL    HW217961   1.219   4.519   6.099  1.1298  1.0854  1.1459
 2167SOL     OW17962   2.585   1.637   0.316 -0.0887 -0.8394 -0.4222
 2167SOL    HW117963   2.545   1.598   0.238 -0.8029 -0.4294 -0.2667
 2167SOL    HW217964   2.678   1.629   0.296  0.3945  0.8633  1.1460
 2168SOL     OW17965   0.612   2.511   5.684  0.1242 -0.6202 -0.0446
 2168SOL    HW117966   0.677   2.447   5.713  0.2105 -0.3572  0.3436
 2168SOL    HW217967   0.533   2.489   5.733  1.2012 -3.3541  0.4931
 2169SOL     OW17968   3.119   1.249   1.582  0.4392  0.2902 -0.2650
 2169SOL    HW117969   3.065   1.268   1.659 -0.4231 -0.4981 -0.6788
 2169SOL    HW217970   3.054   1.261   1.514 -1.5269  1.7759  1.8773
 2170SOL     OW17971   3.032   1.842   5.560  0.0232  0.5561 -0.9072
 2170SOL    HW117972   3.046   1.932   5.532  1.4914  0.0805 -1.6835
 2170SOL    HW217973   3.082   1.798   5.492  2.4072  3.3286 -0.9198
 2171SOL     OW17974   2.387   1.392   4.053 -0.4134  0.2906  0.2460
 2171SOL    HW117975   2.461   1.380   3.994 -0.4210  0.1667  0.2624
 2171SOL    HW217976   2.354   1.303   4.060 -0.5035  0.1934 -1.3229
 2172SOL     OW17977   0.439   2.885  12.622 -0.2546 -0.2567  0.5650
 2172SOL    HW117978   0.455   2.890  12.528  1.1687 -2.8312  0.6767
 2172SOL    HW217979   0.439   2.793  12.649  0.3671  0.2302  2.2584
 2173SOL     OW17980   1.562   0.620   6.008  0.2294  0.4579  0.4185
 2173SOL    HW117981   1.598   0.698   6.050 -0.6269  1.7628 -1.2614
 2173SOL    HW217982   1.616   0.612   5.929  0.6778 -2.2340  0.9895
 2174SOL     OW17983   2.130   0.600   8.649  0.1953  0.4525 -0.0319
 2174SOL    HW117984   2.187   0.568   8.579  1.6605  2.2791  0.3279
 2174SOL    HW217985   2.185   0.600   8.727  1.6555  0.9259 -1.0461
 2175SOL     OW17986   0.439   0.969  12.689  0.2548  0.3315  0.2509
 2175SOL    HW117987   0.374   0.913  12.646  0.2749  0.3483  0.1990
 2175SOL    HW217988   0.417   0.953  12.781  0.5482 -1.1944  0.0507
 2176SOL     OW17989   4.157   2.642   2.677 -0.2735  0.1953  0.6244
 2176SOL    HW117990   4.226   2.576   2.668 -1.1860 -0.6596 -0.3438
 2176SOL    HW217991   4.076   2.590   2.680  0.7095 -1.2572  1.8609
 2177SOL     OW17992   1.178   4.680  12.402 -0.0070 -0.7049 -0.6495
 2177SOL    HW117993   1.199   0.006  12.325 -1.5111 -1.9076 -1.8755
 2177SOL    HW217994   1.264   4.648  12.429  0.2110  1.2265  0.9968
 2178SOL     OW17995   1.117   1.505   1.398  0.7559 -0.8426  0.3582
 2178SOL    HW117996   1.153   1.517   1.311 -0.5790 -0.3993 -0.1169
 2178SOL    HW217997   1.058   1.436   1.365  0.3076  0.0179 -0.6236
 2179SOL     OW17998   1.123   1.302   1.763  0.7551  0.3988  0.2485
 2179SOL    HW117999   1.030   1.307   1.787  0.7221  0.5316  0.0975
 2179SOL    HW218000   1.160   1.303   1.851  0.3775 -1.6746  0.4170
 2180SOL     OW18001   0.212   0.093   9.077  0.0221 -0.0923  0.5212
 2180SOL    HW118002   0.235   0.161   9.014  0.3256  0.0435  0.7743
 2180SOL    HW218003   0.297   0.050   9.089 -0.0623 -0.6866 -1.1032
 2181SOL     OW18004   0.003   1.421   7.299  0.2061  0.1578 -0.0105
 2181SOL    HW118005   0.075   1.457   7.352  1.6112 -0.1216 -1.7530
 2181SOL    HW218006   4.666   1.403   7.369 -3.3306  0.1080 -3.2854
 2182SOL     OW18007   3.987   4.365  13.182 -0.5388 -0.0109  0.0648
 2182SOL    HW118008   3.930   4.298  13.143 -2.3589  0.6711  1.5340
 2182SOL    HW218009   4.066   4.312  13.189 -0.1884  0.7494  1.8240
 2183SOL     OW18010   0.855   0.957   3.691 -0.2656  0.1085  0.2673
 2183SOL    HW118011   0.843   0.920   3.779 -0.1378  0.4388  0.4214
 2183SOL    HW218012   0.912   1.028   3.719  0.8679  0.0791 -1.9759
 2184SOL     OW18013   4.652   3.930   3.680  0.0834 -0.9126 -0.0140
 2184SOL    HW118014   4.678   3.880   3.758  0.4709  2.3855  2.0105
 2184SOL    HW218015   4.719   3.905   3.617  0.1682  0.9504 -0.6630
 2185SOL     OW18016   4.365   3.445   1.555  0.0953  0.5036  0.6670
 2185SOL    HW118017   4.292   3.501   1.528 -0.0843  0.0834  0.2911
 2185SOL    HW218018   4.399   3.423   1.468 -1.8030  1.1786 -0.2517
 2186SOL     OW18019   0.654   4.199  16.197 -0.0669 -0.1100  0.6917
 2186SOL    HW118020   0.733   4.238  16.160 -0.1733 -0.9463 -0.4114
 2186SOL    HW218021   0.621   4.277  16.243  0.1715  0.7248 -0.5614
 2187SOL     OW18022   2.664   1.753   8.795 -0.0454  0.1730  0.3115
 2187SOL    HW118023   2.702   1.700   8.865  2.0517 -0.5496 -1.3648
 2187SOL    HW218024   2.727   1.746   8.723 -1.5889 -1.6257 -0.8577
 2188SOL     OW18025   2.857   0.742   7.905  0.1815 -0.1939 -0.6673
 2188SOL    HW118026   2.869   0.822   7.957 -0.2579 -0.8033  0.3814
 2188SOL    HW218027   2.864   0.784   7.819  1.5883 -0.7123 -0.8055
 2189SOL     OW18028   4.268   4.576  17.668  0.4216 -0.7579 -0.4370
 2189SOL    HW118029   4.252   4.494   0.009 -1.2898 -0.1606  0.0249
 2189SOL    HW218030   4.333   4.546  17.604 -0.2490 -2.4309 -0.3069
 2190SOL     OW18031   0.450   1.790  11.918  0.3437  0.5330 -0.6630
 2190SOL    HW118032   0.460   1.880  11.947  0.9244 -1.1141  4.2610
 2190SOL    HW218033   0.371   1.757  11.960  0.4363  1.6915  0.3854
 2191SOL     OW18034   3.039   1.637   3.054 -0.1388  0.0914 -0.0824
 2191SOL    HW118035   3.099   1.693   3.005 -0.9706 -0.0084 -1.2278
 2191SOL    HW218036   2.989   1.704   3.100  0.9431  1.6549 -1.1687
 2192SOL     OW18037   1.153   1.110  17.474 -0.4839  0.8215  0.3887
 2192SOL    HW118038   1.117   1.098  17.562 -0.9127  1.3855  0.2847
 2192SOL    HW218039   1.228   1.167  17.494 -0.2011 -0.8623  4.1638
 2193SOL     OW18040   3.508   4.399   5.318 -0.2202  1.0635 -0.5057
 2193SOL    HW118041   3.451   4.352   5.257 -2.8521  1.5759  1.5616
 2193SOL    HW218042   3.440   4.434   5.377  0.5895 -0.4868  1.3620
 2194SOL     OW18043   2.267   0.160   4.898  0.3868 -0.3478  0.1562
 2194SOL    HW118044   2.242   0.252   4.895  3.2882  0.4290  0.0636
 2194SOL    HW218045   2.346   0.154   4.953 -0.2298 -0.7522  0.9968
 2195SOL     OW18046   1.155   0.180  13.832  0.3874 -0.0634 -0.6276
 2195SOL    HW118047   1.104   0.168  13.752  0.7724  1.7195 -1.1395
 2195SOL    HW218048   1.147   0.090  13.864 -1.3348 -0.4976 -2.2991
 2196SOL     OW18049   0.874   4.612   1.577 -0.3107 -0.0078  0.1248
 2196SOL    HW118050   0.863   4.618   1.482 -1.4889  0.8722  0.3125
 2196SOL    HW218051   0.850   4.704   1.594  1.5085  0.4774  0.0676
 2197SOL     OW18052   3.967   4.467   0.434  0.2813 -0.1449 -0.5602
 2197SOL    HW118053   4.014   4.537   0.388 -0.9900  1.0022 -0.1090
 2197SOL    HW218054   3.944   4.512   0.515  1.8817  0.9371 -0.7181
 2198SOL     OW18055   4.274   3.074   1.694 -0.2943  0.0644  0.8120
 2198SOL    HW118056   4.338   3.139   1.663 -1.8559  0.9899 -0.4586
 2198SOL    HW218057   4.309   3.055   1.781  1.1313  1.1375  0.4835
 2199SOL     OW18058   2.947   3.532   2.464  0.6137 -0.4891  0.3188
 2199SOL    HW118059   2.979   3.621   2.477 -0.6094 -0.0217  0.1404
 2199SOL    HW218060   2.953   3.532   2.368 -1.0715  1.5689  0.1967
 2200SOL     OW18061   3.061   4.421   2.384  0.4223  0.4853  0.1321
 2200SOL    HW118062   3.056   4.414   2.479 -1.4303  1.5215  0.0966
 2200SOL    HW218063   3.155   4.428   2.367 -0.3072  2.6978 -3.0216
 2201SOL     OW18064   3.123   2.748  10.208 -0.0375 -0.1146 -0.2284
 2201SOL    HW118065   3.212   2.762  10.175  0.9402 -0.0469  2.4368
 2201SOL    HW218066   3.072   2.779  10.133  3.2680  0.5303 -2.2591
 2202SOL     OW18067   3.263   4.493   4.621  0.2517  0.5505  0.6902
 2202SOL    HW118068   3.332   4.428   4.635 -1.5138 -1.9653 -2.5551
 2202SOL    HW218069   3.221   4.500   4.707 -0.6800  2.0638  0.1229
 2203SOL     OW18070   2.035   0.778   1.946 -0.0826  0.0548 -0.0971
 2203SOL    HW118071   2.113   0.808   1.992  1.0213 -3.5429  0.3257
 2203SOL    HW218072   1.969   0.797   2.013  0.3413 -0.6136  0.4991
 2204SOL     OW18073   3.801   1.753  16.188 -0.3458  0.2526 -0.4495
 2204SOL    HW118074   3.842   1.702  16.257  0.9748  0.7676 -0.8615
 2204SOL    HW218075   3.867   1.749  16.119  0.6765 -0.4432  0.5859
 2205SOL     OW18076   4.034   3.095  13.318 -0.1045 -0.1536  0.7208
 2205SOL    HW118077   4.001   3.139  13.397 -0.2517 -2.2429  1.8279
 2205SOL    HW218078   4.128   3.086  13.337  0.1615  1.4054  0.1638
 2206SOL     OW18079   3.173   1.834  16.656 -0.2097 -0.0114  0.7311
 2206SOL    HW118080   3.230   1.805  16.584 -3.0423 -2.8960 -0.3451
 2206SOL    HW218081   3.206   1.922  16.677 -0.2563  0.4036 -0.9472
 2207SOL     OW18082   2.588   0.373   7.752  0.7620  0.1219 -0.1549
 2207SOL    HW118083   2.603   0.291   7.705  1.0122 -0.8449  1.6084
 2207SOL    HW218084   2.618   0.423   7.676 -1.0612  0.0044 -0.9493
 2208SOL     OW18085   3.087   0.421  16.357  0.2096  0.0704  0.1823
 2208SOL    HW118086   3.080   0.347  16.296 -1.3517 -0.3667  0.8932
 2208SOL    HW218087   3.098   0.368  16.436  0.6896 -0.4131 -0.2082
 2209SOL     OW18088   2.737   0.784   3.055  0.1650 -0.5011  0.8599
 2209SOL    HW118089   2.709   0.713   3.113 -1.4101 -0.1608  0.5030
 2209SOL    HW218090   2.713   0.867   3.097 -0.5320  0.4021 -1.3564
 2210SOL     OW18091   4.470   4.434  12.105  0.1581  0.4280 -0.1884
 2210SOL    HW118092   4.560   4.401  12.115  1.3347  2.8897 -2.6314
 2210SOL    HW218093   4.450   4.465  12.193 -1.3172  0.7020 -0.6133
 2211SOL     OW18094   2.084   3.891   7.026  0.0768 -0.0135 -0.1541
 2211SOL    HW118095   2.030   3.823   7.067 -2.0749  2.4282  1.1141
 2211SOL    HW218096   2.038   3.957   7.078  3.3311  1.1228  1.2996
 2212SOL     OW18097   1.821   0.852  17.200 -0.5548  0.5039  0.0508
 2212SOL    HW118098   1.750   0.830  17.140 -0.5534  2.0250 -0.5091
 2212SOL    HW218099   1.812   0.947  17.212 -0.6964  0.4807  0.1369
 2213SOL     OW18100   0.432   4.615  13.307 -0.1587 -0.1830 -0.0001
 2213SOL    HW118101   0.368   4.686  13.307 -1.1153 -1.0479 -1.3396
 2213SOL    HW218102   0.376   4.539  13.325  1.0537 -1.1513 -0.3302
 2214SOL     OW18103   0.507   2.486   6.306 -0.1872  0.2477 -0.0581
 2214SOL    HW118104   0.518   2.391   6.302 -0.3427  0.2856 -1.6782
 2214SOL    HW218105   0.412   2.491   6.294 -0.2704 -1.1938  0.0166
 2215SOL     OW18106   2.876   4.708   6.934 -0.5005 -0.3362 -0.0813
 2215SOL    HW118107   2.833   4.670   6.857 -1.1995  2.2820 -1.0028
 2215SOL    HW218108   2.888   4.635   6.994  0.6786 -0.7694 -0.8670
 2216SOL     OW18109   1.193   2.480  11.870  0.4448  0.0859 -0.4114
 2216SOL    HW118110   1.224   2.565  11.903 -1.6422  0.5312  0.4154
 2216SOL    HW218111   1.232   2.487  11.783  0.2224  5.6820 -0.1028
 2217SOL     OW18112   3.531   2.680   6.662 -0.1828 -0.2495 -0.1868
 2217SOL    HW118113   3.537   2.716   6.750 -0.1171 -1.2973  0.2410
 2217SOL    HW218114   3.473   2.747   6.627  1.2126  1.7805  1.4078
 2218SOL     OW18115   1.671   1.795   2.218  0.2518 -0.0883  0.1119
 2218SOL    HW118116   1.631   1.711   2.198  0.2262 -0.0019 -0.1974
 2218SOL    HW218117   1.708   1.772   2.303 -0.0542 -0.8803  0.0292
 2219SOL     OW18118   2.388   3.824   8.944  0.7099  0.0968  0.5435
 2219SOL    HW118119   2.358   3.912   8.921 -0.7670 -0.1762  1.3878
 2219SOL    HW218120   2.341   3.813   9.027  0.3583  0.7740  0.4283
 2220SOL     OW18121   2.715   2.138   6.783  0.6410 -0.2085 -0.1033
 2220SOL    HW118122   2.707   2.207   6.849 -1.2878 -1.3784  0.8857
 2220SOL    HW218123   2.642   2.078   6.799  0.3467  0.5618  1.3921
 2221SOL     OW18124   0.143   4.667   8.787 -0.7880  0.0872 -0.3778
 2221SOL    HW118125   0.125   4.584   8.832 -1.0162  0.8519  0.9567
 2221SOL    HW218126   0.140   0.003   8.860  1.3902 -1.5951  1.1397
 2222SOL     OW18127   0.000   4.228   3.213 -0.1155 -0.0759 -0.3433
 2222SOL    HW118128   4.698   4.309   3.255  2.4610  1.7848 -2.2015
 2222SOL    HW218129   0.065   4.193   3.274 -1.1880 -0.2869  0.6704
 2223SOL     OW18130   4.542   2.383   3.861  0.4301 -0.0491  0.1718
 2223SOL    HW118131   4.456   2.416   3.885  1.0033  0.1507  1.9226
 2223SOL    HW218132   4.597   2.457   3.834  1.5806 -0.8155  0.3860
 2224SOL     OW18133   2.482   3.431   7.795 -0.5734 -0.0053 -0.0858
 2224SOL    HW118134   2.494   3.422   7.890 -0.7237 -3.3432 -0.3874
 2224SOL    HW218135   2.446   3.520   7.793  1.0882  0.6551 -0.6636
 2225SOL     OW18136   0.456   1.830   3.864 -0.0999 -0.1729 -0.4289
 2225SOL    HW118137   0.382   1.772   3.848 -0.5619  0.2760  0.0637
 2225SOL    HW218138   0.517   1.773   3.911  1.3431 -0.2616 -2.4385
 2226SOL     OW18139   3.591   4.362   0.843  0.0435  0.4607  0.4154
 2226SOL    HW118140   3.511   4.322   0.808  0.5310 -0.1307 -0.0060
 2226SOL    HW218141   3.659   4.338   0.781 -2.1935 -1.5232 -1.2988
 2227SOL     OW18142   1.755   1.355  13.599 -0.2296 -0.4528 -0.4478
 2227SOL    HW118143   1.660   1.362  13.589 -0.1281  0.2163 -0.9718
 2227SOL    HW218144   1.782   1.413  13.528  2.7084  0.7852  1.6681
 2228SOL     OW18145   0.964   3.955   5.842 -0.1839  0.2689 -0.0150
 2228SOL    HW118146   0.990   3.863   5.836  1.0623  0.6281 -0.0767
 2228SOL    HW218147   0.876   3.955   5.878 -0.9719  2.6772 -1.9747
 2229SOL     OW18148   3.402   0.030   4.738 -0.1561 -0.4088  0.0512
 2229SOL    HW118149   3.341   0.020   4.811  1.0828 -0.4141  1.0721
 2229SOL    HW218150   3.481   4.707   4.761 -0.1919  0.8383  2.7512
 2230SOL     OW18151   1.984   0.782   5.281  0.5280  0.5635 -0.0026
 2230SOL    HW118152   2.032   0.709   5.320 -0.5530 -0.5297 -0.7387
 2230SOL    HW218153   1.935   0.809   5.359  1.0300  1.0327  0.1541
 2231SOL     OW18154   3.323   4.189   4.908 -0.0571 -0.1549 -0.3929
 2231SOL    HW118155   3.352   4.101   4.928  3.0237  0.6174 -1.5351
 2231SOL    HW218156   3.367   4.216   4.827 -0.4694 -2.2745 -1.3166
 2232SOL     OW18157   1.192   2.703  11.075  0.0926 -0.1002 -0.2393
 2232SOL    HW118158   1.227   2.620  11.108  0.9728  0.8481  1.2170
 2232SOL    HW218159   1.121   2.713  11.138 -1.8667 -0.5277 -2.4305
 2233SOL     OW18160   3.403   3.340   7.651  0.1832 -0.0011 -0.1942
 2233SOL    HW118161   3.339   3.376   7.590 -0.4319  1.7582  1.4828
 2233SOL    HW218162   3.354   3.266   7.688  0.3645  1.1412  2.2849
 2234SOL     OW18163   1.880   3.102  16.719 -0.1786 -0.4135 -0.2872
 2234SOL    HW118164   1.968   3.088  16.753  0.9630  1.1725 -2.6047
 2234SOL    HW218165   1.907   3.162  16.649  0.7233  1.5331  1.7046
 2235SOL     OW18166   1.242   2.107   1.456 -0.1091 -0.0659  0.3535
 2235SOL    HW118167   1.294   2.090   1.535 -0.3458  2.4425  1.0570
 2235SOL    HW218168   1.214   2.017   1.443 -0.4113 -0.2039  1.9296
 2236SOL     OW18169   4.314   4.216   7.915  0.8106  0.9979 -0.0803
 2236SOL    HW118170   4.350   4.261   7.839  1.1261 -0.0099 -0.5350
 2236SOL    HW218171   4.224   4.250   7.911 -0.2452 -1.7743  0.1972
 2237SOL     OW18172   0.169   3.074   4.551  0.1933  0.2872 -0.2274
 2237SOL    HW118173   0.108   3.017   4.599 -1.6496  2.8385  0.4369
 2237SOL    HW218174   0.250   3.064   4.600 -1.3438 -1.5572  1.9391
 2238SOL     OW18175   3.138   0.671   3.855  0.4694 -0.8991 -0.1462
 2238SOL    HW118176   3.105   0.735   3.919  1.0065 -0.0919 -0.6742
 2238SOL    HW218177   3.194   0.620   3.913 -0.7237 -0.9577  0.9657
 2239SOL     OW18178   4.440   0.418  14.464 -0.4478 -0.5532 -0.4881
 2239SOL    HW118179   4.457   0.487  14.401 -1.2566 -0.2666 -0.3875
 2239SOL    HW218180   4.361   0.455  14.504  1.6710  1.4935  1.7956
 2240SOL     OW18181   1.663   3.189   7.087 -0.0259 -0.2233  0.5378
 2240SOL    HW118182   1.613   3.113   7.117 -1.0552 -0.1566 -1.0530
 2240SOL    HW218183   1.595   3.256   7.091  1.1117  0.8331  2.2132
 2241SOL     OW18184   1.675   1.362  12.593  0.2085  0.1497  0.4160
 2241SOL    HW118185   1.733   1.314  12.652  1.4251  0.3449 -0.6087
 2241SOL    HW218186   1.643   1.283  12.550 -1.7343 -0.5133  3.1091
 2242SOL     OW18187   0.382   3.735  16.794 -0.2726  0.6449 -0.4897
 2242SOL    HW118188   0.438   3.670  16.753  0.2243  0.1400  0.9855
 2242SOL    HW218189   0.431   3.759  16.873 -0.7646  1.9568 -0.5757
 2243SOL     OW18190   2.508   2.341   7.287  0.3140 -0.2663  0.3077
 2243SOL    HW118191   2.566   2.352   7.211  1.5091 -0.0129  1.2716
 2243SOL    HW218192   2.563   2.301   7.354  0.4293 -1.7251 -0.6543
 2244SOL     OW18193   2.057   2.696  14.666 -0.1743 -0.4974  0.1723
 2244SOL    HW118194   1.991   2.629  14.647 -0.2664 -0.3088 -0.1695
 2244SOL    HW218195   2.118   2.690  14.593  0.4045 -1.1811  0.7221
 2245SOL     OW18196   1.998   3.912   5.295  0.5217  0.2122  0.5279
 2245SOL    HW118197   2.090   3.902   5.270  0.6463  1.0247  0.6710
 2245SOL    HW218198   1.967   3.988   5.245  0.9333 -1.7410 -2.7537
 2246SOL     OW18199   1.058   2.603   6.487  0.6269 -0.2202  0.0492
 2246SOL    HW118200   1.099   2.540   6.546 -0.1237  1.1296  2.0091
 2246SOL    HW218201   0.991   2.643   6.543  2.0401  1.1430  0.7583
 2247SOL     OW18202   1.769   3.861   9.883  0.4009  0.6551 -0.1420
 2247SOL    HW118203   1.833   3.907   9.937 -1.5598 -1.9394  4.3113
 2247SOL    HW218204   1.823   3.804   9.828 -0.2543  0.0447 -0.1501
 2248SOL     OW18205   4.081   2.817   6.052  0.2109 -0.0594 -0.6775
 2248SOL    HW118206   4.054   2.726   6.035 -1.9241  0.2128  1.3300
 2248SOL    HW218207   4.088   2.817   6.148 -0.7853 -0.8296 -0.6098
 2249SOL     OW18208   2.442   2.943   9.527 -0.3159  0.6231  0.4181
 2249SOL    HW118209   2.350   2.917   9.529 -0.3950  0.9442  1.1138
 2249SOL    HW218210   2.482   2.857   9.537 -0.6940  0.6194  1.9260
 2250SOL     OW18211   4.241   2.522   8.102  0.2116 -0.8495 -0.3659
 2250SOL    HW118212   4.226   2.540   8.009 -0.1802 -2.1796 -0.5584
 2250SOL    HW218213   4.160   2.488   8.139 -1.1105 -0.5310 -3.0221
 2251SOL     OW18214   2.605   1.212  10.123 -0.1262  0.7933 -0.1664
 2251SOL    HW118215   2.669   1.159  10.074 -1.0740 -0.6041  0.0998
 2251SOL    HW218216   2.539   1.234  10.056 -1.9000 -0.2786  1.2256
 2252SOL     OW18217   2.146   3.844   4.681  0.4998 -0.1164 -0.3328
 2252SOL    HW118218   2.138   3.749   4.688 -1.4449  0.0141 -0.8104
 2252SOL    HW218219   2.078   3.874   4.742  0.5600  0.5405 -0.5864
 2253SOL     OW18220   0.150   2.151   1.829 -0.5867  0.1549 -0.1141
 2253SOL    HW118221   0.130   2.238   1.863  0.3233  0.5724 -0.6646
 2253SOL    HW218222   0.223   2.115   1.879 -1.0360 -1.1593 -0.4096
 2254SOL     OW18223   1.732   4.265   9.369  0.2026  0.1692  0.3623
 2254SOL    HW118224   1.802   4.251   9.432 -1.9104  1.7502  3.0738
 2254SOL    HW218225   1.776   4.249   9.285 -0.2858 -1.6469  0.4649
 2255SOL     OW18226   2.453   3.899   3.977 -0.0963 -1.2008  0.4303
 2255SOL    HW118227   2.487   3.849   4.052 -2.3339 -1.0019  1.5839
 2255SOL    HW218228   2.366   3.916   4.014 -0.3992  1.0993 -1.3601
 2256SOL     OW18229   3.589   1.865   8.560  0.0257  0.0521  0.2439
 2256SOL    HW118230   3.561   1.905   8.642  0.5721 -0.2732  0.5897
 2256SOL    HW218231   3.663   1.817   8.597  0.9793  1.4406  0.1242
 2257SOL     OW18232   3.492   0.813   9.530  0.0552 -0.3287  0.4034
 2257SOL    HW118233   3.493   0.718   9.535 -0.9358 -0.2993  1.0433
 2257SOL    HW218234   3.558   0.840   9.594 -0.0409  1.3541 -0.2115
 2258SOL     OW18235   1.307   4.312   1.088  0.0265 -0.2424 -0.3514
 2258SOL    HW118236   1.377   4.253   1.059  0.8411  0.5181  0.0430
 2258SOL    HW218237   1.254   4.252   1.140  0.5601  1.0070  1.6147
 2259SOL     OW18238   0.422   2.682   3.994  0.1253 -0.3264 -0.2714
 2259SOL    HW118239   0.454   2.610   3.940  1.0798 -0.5670  0.6079
 2259SOL    HW218240   0.506   2.723   4.015  0.5090 -1.6381  0.7560
 2260SOL     OW18241   4.327   4.688   7.469 -0.1457 -0.0779  0.3507
 2260SOL    HW118242   4.347   4.661   7.379  1.6678  3.6001 -0.3353
 2260SOL    HW218243   4.414   4.705   7.506  0.9002 -1.2337 -1.5745
 2261SOL     OW18244   0.624   0.995   6.961 -0.2011 -0.0283 -0.0677
 2261SOL    HW118245   0.546   0.984   7.016  0.7778 -1.3930  1.0455
 2261SOL    HW218246   0.681   0.925   6.992  1.8287  1.3008 -0.8024
 2262SOL     OW18247   1.825   3.208   6.838  0.2865 -0.1962  0.4671
 2262SOL    HW118248   1.753   3.199   6.901  2.4369 -0.6999  2.8258
 2262SOL    HW218249   1.902   3.244   6.882  0.3381  0.9061 -0.5414
 2263SOL     OW18250   1.044   1.777   6.522  0.4889 -0.3698  0.0823
 2263SOL    HW118251   0.966   1.794   6.470  1.1280  0.4790 -0.5989
 2263SOL    HW218252   1.069   1.868   6.537  1.5098 -0.6899  0.3360
 2264SOL     OW18253   2.266   2.090   1.258 -0.2182  0.0375  0.2734
 2264SOL    HW118254   2.297   2.075   1.348 -1.5457  0.3281  0.7755
 2264SOL    HW218255   2.171   2.099   1.265 -0.2416  2.0192 -3.0451
 2265SOL     OW18256   3.563   3.512  11.048  0.1776 -0.3346  0.5133
 2265SOL    HW118257   3.596   3.452  10.981  0.4630  0.1377  0.2306
 2265SOL    HW218258   3.542   3.446  11.115  1.4224  0.7062  1.9165
 2266SOL     OW18259   0.797   3.945  11.965  0.3882 -0.2848 -0.5113
 2266SOL    HW118260   0.731   3.931  12.032  0.0288 -0.4536 -0.9000
 2266SOL    HW218261   0.879   3.925  12.010  0.0394  0.6466  0.5468
 2267SOL     OW18262   2.990   1.296   7.242  0.2069 -0.2072  0.2463
 2267SOL    HW118263   3.072   1.295   7.292  1.6308 -0.1449 -2.0571
 2267SOL    HW218264   2.976   1.391   7.241 -0.9564 -0.3710  1.0512
 2268SOL     OW18265   1.949   2.705   4.838 -0.0485 -0.3526 -0.1538
 2268SOL    HW118266   2.022   2.760   4.810  0.0710 -0.2503  0.3600
 2268SOL    HW218267   1.876   2.762   4.814 -0.2761 -0.1319  1.1005
 2269SOL     OW18268   1.031   0.820  15.122  0.1175  0.4353 -0.3777
 2269SOL    HW118269   1.087   0.857  15.191 -0.2427 -0.8935  0.6388
 2269SOL    HW218270   0.942   0.843  15.148  0.7981  2.0528  0.4923
 2270SOL     OW18271   3.843   4.558   5.039 -0.4274  0.1280  0.0178
 2270SOL    HW118272   3.771   4.495   5.040 -0.3132 -0.0203 -1.0074
 2270SOL    HW218273   3.793   4.639   5.027 -0.8991 -0.0819  0.5783
 2271SOL     OW18274   3.895   1.875   0.989 -0.1670  0.1848 -0.1291
 2271SOL    HW118275   3.871   1.783   0.994  1.6699 -0.2460  0.6788
 2271SOL    HW218276   3.904   1.884   0.894  0.5355 -1.9534 -0.2485
 2272SOL     OW18277   1.472   1.082   9.590  0.9363 -0.2060 -0.1464
 2272SOL    HW118278   1.449   1.171   9.561  0.6188 -0.7327 -1.5030
 2272SOL    HW218279   1.405   1.071   9.658  0.0961  1.9985 -0.6051
 2273SOL     OW18280   3.749   2.867   2.051  0.3821  0.7648 -0.7151
 2273SOL    HW118281   3.835   2.858   2.010  0.7731 -0.2496  0.3113
 2273SOL    HW218282   3.733   2.957   2.078  0.2035  1.1344 -2.0810
 2274SOL     OW18283   3.537   3.307   7.131  0.0746  0.3521  0.4150
 2274SOL    HW118284   3.466   3.266   7.081 -0.8744  2.5038 -0.0050
 2274SOL    HW218285   3.507   3.394   7.158  0.7205  0.6658  0.1090
 2275SOL     OW18286   3.980   1.820  11.590  0.1081  0.1864  0.6518
 2275SOL    HW118287   3.903   1.767  11.572 -1.0000  2.7163 -2.0255
 2275SOL    HW218288   4.001   1.856  11.504  0.4853 -0.2647  0.5537
 2276SOL     OW18289   0.251   1.126   0.471 -0.1541  0.2190 -0.6012
 2276SOL    HW118290   0.181   1.065   0.491  1.1940 -0.8696  0.7756
 2276SOL    HW218291   0.319   1.062   0.452 -1.7748 -1.4738 -0.6964
 2277SOL     OW18292   3.300   4.668   5.429 -0.1814  0.0418  0.1214
 2277SOL    HW118293   3.305   4.709   5.343 -1.5703 -0.5820 -0.2616
 2277SOL    HW218294   3.208   4.648   5.447 -0.0689  1.0293  1.8391
 2278SOL     OW18295   2.245   4.642  11.886  0.2578 -0.5858 -0.3406
 2278SOL    HW118296   2.255   4.695  11.807 -0.0237 -2.0247 -1.3508
 2278SOL    HW218297   2.322   4.586  11.886  0.8104  0.1830  0.4013
 2279SOL     OW18298   0.418   4.150   5.197  0.1327  0.2984  0.1190
 2279SOL    HW118299   0.478   4.225   5.206 -0.0255  1.0169 -5.2372
 2279SOL    HW218300   0.339   4.194   5.228 -0.7655 -1.2080 -0.0304
 2280SOL     OW18301   2.555   4.354  13.774 -0.1570  0.2221  0.0750
 2280SOL    HW118302   2.638   4.388  13.808 -0.3769  0.5026  0.3323
 2280SOL    HW218303   2.573   4.306  13.693  0.4031 -0.6877  0.7376
 2281SOL     OW18304   3.616   0.442   2.064 -0.3545  0.0119  0.5732
 2281SOL    HW118305   3.704   0.471   2.089 -0.7242  2.1567 -0.5924
 2281SOL    HW218306   3.565   0.491   2.128 -1.5480 -0.6263  0.1159
 2282SOL     OW18307   1.257   0.861  17.409  0.5189  0.0363  0.1594
 2282SOL    HW118308   1.351   0.875  17.422  0.5663  0.8920 -1.1660
 2282SOL    HW218309   1.213   0.943  17.428  1.2779  0.7518 -1.1807
 2283SOL     OW18310   3.488   0.417  10.529 -0.6947 -0.1280  0.5676
 2283SOL    HW118311   3.453   0.506  10.521 -1.0485 -0.2692  0.5534
 2283SOL    HW218312   3.458   0.396  10.617 -2.5049 -1.2049 -0.3010
 2284SOL     OW18313   3.769   4.621  14.416  0.0036 -0.1296  0.0178
 2284SOL    HW118314   3.802   4.670  14.340 -0.0368 -0.7463 -0.3967
 2284SOL    HW218315   3.842   4.567  14.446  0.5343 -0.9347 -2.7335
 2285SOL     OW18316   4.032   1.426   5.755 -0.3900 -0.0314 -1.5406
 2285SOL    HW118317   4.091   1.434   5.680  1.4857 -2.1572 -0.3150
 2285SOL    HW218318   3.975   1.354   5.727 -0.4631 -0.6341  0.1304
 2286SOL     OW18319   2.651   2.055  14.227 -0.3100  0.1865 -0.3087
 2286SOL    HW118320   2.741   2.036  14.254 -0.0903  0.6002 -0.7434
 2286SOL    HW218321   2.625   1.973  14.186  1.0785 -1.1835  1.5550
 2287SOL     OW18322   0.455   3.662   3.431 -0.1020  0.1010  0.4736
 2287SOL    HW118323   0.512   3.612   3.490  0.3004  2.1490  1.8553
 2287SOL    HW218324   0.493   3.660   3.344 -1.1986  0.7268 -0.0134
 2288SOL     OW18325   3.893   3.056   6.325  0.2130 -0.4997 -0.0082
 2288SOL    HW118326   3.808   3.039   6.365  0.0188  2.7399  0.9735
 2288SOL    HW218327   3.868   3.057   6.232  2.2742  0.2124 -0.5649
 2289SOL     OW18328   1.086   2.835   2.878 -0.9953  0.3949 -0.2631
 2289SOL    HW118329   1.110   2.755   2.925 -0.2601  1.2195  0.7702
 2289SOL    HW218330   1.159   2.866   2.826  1.1702 -1.7131  1.4919
 2290SOL     OW18331   4.204   3.370  13.507  0.3058 -0.0718  0.5486
 2290SOL    HW118332   4.210   3.280  13.539 -1.3117 -0.1743  0.5689
 2290SOL    HW218333   4.202   3.426  13.584  0.3788 -0.2263  0.6626
 2291SOL     OW18334   0.912   3.516   4.256 -0.4553  0.2252 -0.1247
 2291SOL    HW118335   0.910   3.602   4.213 -1.0206 -0.0294 -0.6100
 2291SOL    HW218336   0.825   3.509   4.296  0.3867  0.5683  1.7587
 2292SOL     OW18337   0.588   1.518   1.404  0.5278  0.2301  0.1055
 2292SOL    HW118338   0.502   1.486   1.376  0.9750 -3.1823  2.6897
 2292SOL    HW218339   0.607   1.480   1.490 -1.9796 -0.4441  0.3830
 2293SOL     OW18340   4.087   2.840   9.494 -0.1984 -0.3744  0.0510
 2293SOL    HW118341   4.124   2.752   9.495 -1.2744 -0.8176  0.8389
 2293SOL    HW218342   4.122   2.881   9.415  0.2712 -0.3092  0.2888
 2294SOL     OW18343   2.945   4.101   2.763  0.4811 -0.0333 -0.0932
 2294SOL    HW118344   2.954   4.038   2.691  1.5732 -0.2047  0.1884
 2294SOL    HW218345   2.986   4.047   2.830  2.0484  1.8480  0.4512
 2295SOL     OW18346   0.473   0.037   5.893 -0.0160  0.4120  0.4289
 2295SOL    HW118347   0.491   0.121   5.934  2.0855  0.1586  0.0078
 2295SOL    HW218348   0.499   0.044   5.801 -0.2023 -1.5374  0.2128
 2296SOL     OW18349   4.273   0.141   4.829 -0.3285 -0.1921 -0.4210
 2296SOL    HW118350   4.301   0.072   4.769 -1.6985 -0.3745 -0.8539
 2296SOL    HW218351   4.189   0.104   4.855 -1.3462  3.4838  1.4867
 2297SOL     OW18352   2.868   1.852  14.134 -0.3696 -0.8326  0.0524
 2297SOL    HW118353   2.901   1.762  14.129 -0.1024 -0.8364  1.6925
 2297SOL    HW218354   2.781   1.836  14.098 -0.8970  0.2487  0.8592
 2298SOL     OW18355   2.636   1.779  15.999  0.0995  0.1070  0.8653
 2298SOL    HW118356   2.594   1.817  15.922 -0.9886 -3.4168 -0.2973
 2298SOL    HW218357   2.609   1.843  16.064  0.6224 -0.0539  1.2415
 2299SOL     OW18358   0.375   2.186   3.027 -0.1694 -0.0995  0.2588
 2299SOL    HW118359   0.451   2.243   3.043  1.6255 -2.5573  0.5215
 2299SOL    HW218360   0.308   2.254   3.020 -0.8024 -0.4951  2.3015
 2300SOL     OW18361   3.052   2.659   1.446  0.3585  0.1023  0.6018
 2300SOL    HW118362   3.091   2.732   1.399  0.0353  0.6699  1.2110
 2300SOL    HW218363   3.114   2.588   1.430 -1.8014 -1.9551  1.2387
 2301SOL     OW18364   0.636   2.783   2.749  0.3606  0.4310  0.7373
 2301SOL    HW118365   0.643   2.874   2.778  2.0325 -0.4533  3.0510
 2301SOL    HW218366   0.648   2.748   2.837  0.3951  1.0230  0.9648
 2302SOL     OW18367   4.647   2.312   1.169 -0.5297  0.3641 -0.0108
 2302SOL    HW118368   0.007   2.284   1.200 -1.5766 -2.2910  0.4709
 2302SOL    HW218369   4.660   2.407   1.166 -0.5142  0.4223  1.7147
 2303SOL     OW18370   2.967   1.153   5.157 -0.0920  0.3180 -0.1138
 2303SOL    HW118371   3.002   1.168   5.245  2.2341 -2.1301 -0.6185
 2303SOL    HW218372   2.897   1.090   5.147  0.8413 -0.7810  0.2851
 2304SOL     OW18373   3.299   2.397   7.561 -0.4020 -0.1645 -0.1667
 2304SOL    HW118374   3.279   2.490   7.550  1.2812  0.2881  0.6729
 2304SOL    HW218375   3.391   2.393   7.534  0.7484 -0.5278  3.8970
 2305SOL     OW18376   2.366   4.041   4.794 -0.5157 -0.6267 -0.0451
 2305SOL    HW118377   2.328   4.101   4.730  1.0437  0.3805 -0.0172
 2305SOL    HW218378   2.333   3.956   4.764 -1.0112 -0.1632 -0.7961
 2306SOL     OW18379   0.556   0.290  12.739 -0.4055  0.2437  0.3071
 2306SOL    HW118380   0.604   0.230  12.681  1.0236  2.3570 -0.6636
 2306SOL    HW218381   0.613   0.293  12.816  0.8659 -1.4022 -0.5708
 2307SOL     OW18382   3.163   4.130   1.674 -0.1533 -0.0769 -0.3623
 2307SOL    HW118383   3.219   4.078   1.732  0.0895 -1.2895 -1.6800
 2307SOL    HW218384   3.210   4.213   1.672  0.6481 -0.5377 -0.7823
 2308SOL     OW18385   4.424   2.359   4.553 -0.5222 -0.1356  0.4243
 2308SOL    HW118386   4.365   2.286   4.531 -1.5853  0.7713  0.2229
 2308SOL    HW218387   4.361   2.413   4.601 -1.2060  0.8924 -1.6214
 2309SOL     OW18388   0.858   3.885   6.231 -0.1174  0.0659  0.2627
 2309SOL    HW118389   0.851   3.802   6.183  0.8253  0.0275  0.1955
 2309SOL    HW218390   0.768   3.916   6.228  0.7779  2.8841  2.1742
 2310SOL     OW18391   4.238   3.308  12.377  0.4220 -0.7065  0.3854
 2310SOL    HW118392   4.310   3.361  12.343 -0.7562  1.4160  1.2348
 2310SOL    HW218393   4.171   3.314  12.310 -0.0351 -0.8839  0.8273
 2311SOL     OW18394   1.436   1.121   7.362 -0.1489  0.0399 -0.3448
 2311SOL    HW118395   1.518   1.083   7.330 -1.2079 -1.7664 -0.9141
 2311SOL    HW218396   1.422   1.186   7.293  2.0900  0.3607 -0.4868
 2312SOL     OW18397   0.239   2.070  14.616 -0.0156 -0.7212  0.2799
 2312SOL    HW118398   0.316   2.012  14.616  0.3848 -0.1904  0.9030
 2312SOL    HW218399   0.180   2.005  14.579  0.9429 -0.5790 -1.4982
 2313SOL     OW18400   1.623   0.683   5.153 -0.2205 -0.6882  0.0167
 2313SOL    HW118401   1.603   0.682   5.246  0.0381  0.6213  0.0869
 2313SOL    HW218402   1.718   0.667   5.145  0.1757  2.0458 -0.7414
 2314SOL     OW18403   1.154   0.836   0.067 -0.2023 -1.1100 -0.0026
 2314SOL    HW118404   1.082   0.805   0.121 -0.8499  0.3835 -0.0067
 2314SOL    HW218405   1.104   0.844  17.690 -1.9713 -1.2713  1.0634
 2315SOL     OW18406   1.727   2.924   3.694 -0.3512  0.1202  0.2464
 2315SOL    HW118407   1.769   2.842   3.671 -1.7353  0.2470 -2.6933
 2315SOL    HW218408   1.734   2.914   3.789 -2.5437 -1.0931  0.2704
 2316SOL     OW18409   4.581   2.399   4.943 -0.1000  0.1276  0.4675
 2316SOL    HW118410   4.586   2.487   4.905  0.2592 -0.2655 -0.3983
 2316SOL    HW218411   4.667   2.357   4.931 -0.0907  0.2007  0.2859
 2317SOL     OW18412   2.858   3.770   4.374 -0.0129  1.0020  0.6340
 2317SOL    HW118413   2.887   3.856   4.344 -1.0405  1.5715  1.2856
 2317SOL    HW218414   2.914   3.718   4.316  1.5721  2.0199  1.2565
 2318SOL     OW18415   4.641   1.748  10.528 -0.3734 -0.1125 -0.4399
 2318SOL    HW118416   4.726   1.704  10.537 -1.0216 -0.8011  2.2397
 2318SOL    HW218417   4.600   1.676  10.480  0.7646 -0.1670 -1.3524
 2319SOL     OW18418   2.909   3.240   7.705  0.2861 -0.0610  0.4983
 2319SOL    HW118419   2.940   3.165   7.756  0.1681  0.2312  0.9970
 2319SOL    HW218420   2.936   3.225   7.615  0.0001 -1.9921  0.7350
 2320SOL     OW18421   1.633   1.413   2.529  0.1087  0.4277 -0.0775
 2320SOL    HW118422   1.591   1.497   2.509 -1.1322 -0.1024  0.3339
 2320SOL    HW218423   1.676   1.444   2.609  0.0545 -2.2693  0.9786
 2321SOL     OW18424   0.574   1.619   5.694  0.4722 -0.3325  0.2155
 2321SOL    HW118425   0.540   1.651   5.777  0.5379 -3.9360  1.6280
 2321SOL    HW218426   0.520   1.543   5.670 -0.6259  0.5360 -0.0470
 2322SOL     OW18427   3.859   1.563   4.966  0.2091 -0.1145 -0.1691
 2322SOL    HW118428   3.801   1.580   4.891 -0.4579  0.6526  0.5238
 2322SOL    HW218429   3.799   1.576   5.040  1.2694  0.4763  0.5779
 2323SOL     OW18430   2.210   0.402   3.034  0.1103  0.0732 -0.3285
 2323SOL    HW118431   2.145   0.472   3.019 -1.0259 -1.0640 -0.6815
 2323SOL    HW218432   2.177   0.375   3.120 -1.8582 -0.6402 -1.3033
 2324SOL     OW18433   1.375   4.133   4.640  0.2082 -0.6214 -0.0967
 2324SOL    HW118434   1.283   4.158   4.647  0.2507 -0.7604  1.0577
 2324SOL    HW218435   1.403   4.141   4.549  1.4529 -1.4488  0.2152
 2325SOL     OW18436   0.674   2.744  11.529  0.1936  0.0303  0.4627
 2325SOL    HW118437   0.607   2.795  11.573 -0.3621 -0.9945  0.8025
 2325SOL    HW218438   0.753   2.797  11.518 -0.0905  0.4206  0.3004
 2326SOL     OW18439   1.753   0.547   1.456  0.0973  0.4932  0.0740
 2326SOL    HW118440   1.796   0.476   1.408  2.1374  0.9829  1.2020
 2326SOL    HW218441   1.699   0.520   1.530  1.0438 -0.5600  0.3770
 2327SOL     OW18442   3.357   2.006   5.486  0.2414 -0.4858  0.1749
 2327SOL    HW118443   3.446   2.012   5.451  0.7636  1.6860  1.8221
 2327SOL    HW218444   3.375   1.978   5.576 -0.4171 -1.7582 -0.0958
 2328SOL     OW18445   4.365   2.780  13.443  0.2720  1.0054  0.1559
 2328SOL    HW118446   4.319   2.724  13.380 -0.6640  0.9432  0.9081
 2328SOL    HW218447   4.303   2.785  13.516 -1.0810  0.7920 -0.9786
 2329SOL     OW18448   2.917   0.494   0.234  0.3723 -0.2827 -0.0460
 2329SOL    HW118449   2.883   0.437   0.303  0.7697 -0.5190 -0.0459
 2329SOL    HW218450   2.969   0.551   0.291  1.1991 -0.0030 -1.0755
 2330SOL     OW18451   0.905   1.617   4.069  0.6449 -0.3030  0.1726
 2330SOL    HW118452   0.919   1.535   4.022 -0.3579 -0.4494  0.1107
 2330SOL    HW218453   0.960   1.601   4.146  0.8152  0.9377  0.3069
 2331SOL     OW18454   0.126   3.270   0.249  0.0974  0.9464 -0.1657
 2331SOL    HW118455   0.104   3.352   0.293 -2.4196  0.2203 -0.0636
 2331SOL    HW218456   0.140   3.309   0.163 -0.5644 -2.4468 -1.8211
 2332SOL     OW18457   2.856   0.641   7.486 -0.1396  0.6736 -0.3563
 2332SOL    HW118458   2.791   0.577   7.455  3.2557 -3.1702  0.5488
 2332SOL    HW218459   2.911   0.591   7.545  0.2027 -1.6978 -2.6691
 2333SOL     OW18460   4.533   0.995   4.856 -0.1816 -0.8814  0.2162
 2333SOL    HW118461   4.457   1.031   4.810  1.2127  0.1154 -1.2905
 2333SOL    HW218462   4.604   1.009   4.794 -0.3274  2.6656  0.8599
 2334SOL     OW18463   3.989   3.604  13.393 -0.2183  0.6130 -0.3721
 2334SOL    HW118464   3.910   3.623  13.342 -0.3258 -1.1682 -0.8806
 2334SOL    HW218465   4.051   3.601  13.320  3.1044  2.6449  2.4068
 2335SOL     OW18466   0.596   1.732   6.660  0.1491 -0.2018 -0.3501
 2335SOL    HW118467   0.591   1.823   6.688 -0.3291 -0.9193  1.8360
 2335SOL    HW218468   0.642   1.680   6.726 -0.5413  0.6941  0.8337
 2336SOL     OW18469   3.625   3.494   4.413 -0.7034 -0.2758 -0.5690
 2336SOL    HW118470   3.630   3.590   4.408 -0.5421 -0.1797  1.1955
 2336SOL    HW218471   3.531   3.479   4.405 -0.2308 -3.3175 -0.1338
 2337SOL     OW18472   2.743   3.052   2.080  0.2484  0.0631 -0.1225
 2337SOL    HW118473   2.742   3.024   2.171 -1.1569 -0.8856 -0.4299
 2337SOL    HW218474   2.797   2.988   2.034  0.8298 -1.6113  2.8976
 2338SOL     OW18475   3.817   2.677   6.462 -0.4113  0.2835 -0.4358
 2338SOL    HW118476   3.777   2.642   6.382 -2.1660  2.6798 -0.6051
 2338SOL    HW218477   3.750   2.678   6.529 -0.9832 -2.7632 -1.0037
 2339SOL     OW18478   1.647   0.152   5.644 -0.3985 -0.1965 -0.6970
 2339SOL    HW118479   1.683   0.131   5.731 -1.6030 -0.6078 -0.2909
 2339SOL    HW218480   1.724   0.186   5.598 -0.5141  0.4672 -0.4083
 2340SOL     OW18481   4.082   2.579   8.908 -0.2399 -0.0483  0.0162
 2340SOL    HW118482   4.141   2.569   8.983 -1.2133 -1.8394  0.5412
 2340SOL    HW218483   4.023   2.645   8.944 -1.7882 -1.0413 -0.7435
 2341SOL     OW18484   3.875   2.467  11.295 -0.4365  0.0743  0.3547
 2341SOL    HW118485   3.838   2.381  11.272  0.1319 -0.1424  0.2581
 2341SOL    HW218486   3.963   2.466  11.258 -0.4897  1.1921  0.2047
 2342SOL     OW18487   4.188   0.337   2.388  0.8342 -0.2602  0.3068
 2342SOL    HW118488   4.226   0.415   2.428 -1.0980  0.7258  0.2315
 2342SOL    HW218489   4.268   0.296   2.356  1.2539 -0.7921  2.0624
 2343SOL     OW18490   4.255   3.508  13.255  0.2128  0.1158  0.1441
 2343SOL    HW118491   4.349   3.499  13.270  0.7155  2.7346 -1.4371
 2343SOL    HW218492   4.220   3.454  13.326 -0.6995 -0.0640 -0.4317
 2344SOL     OW18493   4.533   4.712  11.807 -0.7671  0.1543 -0.3792
 2344SOL    HW118494   4.597   0.027  11.749 -1.5281  1.3097 -0.3969
 2344SOL    HW218495   4.583   4.633  11.829  0.7301  1.1318 -0.2706
 2345SOL     OW18496   0.492   3.009  11.576 -0.5130 -0.7785 -0.0608
 2345SOL    HW118497   0.461   3.079  11.633  0.8396  0.1190 -0.4188
 2345SOL    HW218498   0.565   3.053  11.532  1.3335 -3.1799  0.5826
 2346SOL     OW18499   3.132   4.339  14.984  0.2234  0.1623  0.2080
 2346SOL    HW118500   3.145   4.277  15.055  0.0432  0.6345  0.6509
 2346SOL    HW218501   3.075   4.402  15.027  0.1919 -0.6610  1.3828
 2347SOL     OW18502   4.660   4.326   3.938 -0.0249  0.1683  0.3198
 2347SOL    HW118503   4.579   4.373   3.920 -0.1538  0.2530  1.1247
 2347SOL    HW218504   4.682   4.352   4.027  0.3781 -2.3222  0.9499
 2348SOL     OW18505   0.312   0.416  14.574  0.0137 -0.2925  0.0815
 2348SOL    HW118506   0.385   0.476  14.557 -1.2848  1.3077  0.1964
 2348SOL    HW218507   0.328   0.344  14.513  0.6747  1.3864 -1.7256
 2349SOL     OW18508   1.494   2.816  16.968  0.3126  0.3378  0.2422
 2349SOL    HW118509   1.432   2.873  16.922  0.4010 -0.2782 -0.6439
 2349SOL    HW218510   1.518   2.771  16.887  0.9760  3.6234 -1.3549
 2350SOL     OW18511   2.187   3.316   2.132  0.4356  0.4402 -0.0473
 2350SOL    HW118512   2.151   3.240   2.179 -0.9301  0.6368 -0.7816
 2350SOL    HW218513   2.143   3.305   2.048 -0.4803 -1.1910  0.6431
 2351SOL     OW18514   2.317   1.041   3.542 -0.2891  0.5491  0.1731
 2351SOL    HW118515   2.358   1.018   3.458  0.4205  1.9077  0.1321
 2351SOL    HW218516   2.303   1.135   3.526 -0.2007  0.7708  1.4392
 2352SOL     OW18517   0.050   4.656   2.334  0.2242 -0.5358  0.6046
 2352SOL    HW118518   0.101   4.636   2.413 -2.5078  1.2172  2.8094
 2352SOL    HW218519   4.712   4.584   2.334  0.2442 -0.5488 -0.5465
 2353SOL     OW18520   2.623   1.253   0.709 -0.4932  0.7008 -0.2400
 2353SOL    HW118521   2.553   1.189   0.720 -1.3392  1.6206 -0.2224
 2353SOL    HW218522   2.612   1.274   0.617 -1.4888  3.0108  0.3911
 2354SOL     OW18523   0.481   2.624  12.053  0.1047 -0.7070 -0.3290
 2354SOL    HW118524   0.541   2.603  11.981 -1.7711 -0.5987 -1.9512
 2354SOL    HW218525   0.462   2.717  12.039  0.8053 -0.3839  0.9426
 2355SOL     OW18526   1.744   4.028   5.074 -0.1655  0.2677 -0.1776
 2355SOL    HW118527   1.817   4.087   5.093  0.1299 -0.6934  1.6440
 2355SOL    HW218528   1.740   4.023   4.979 -0.1512 -0.5069 -0.1383
 2356SOL     OW18529   2.532   2.203  13.077  0.2109  0.2749  0.1874
 2356SOL    HW118530   2.441   2.189  13.050  0.0914 -2.1819  1.8400
 2356SOL    HW218531   2.567   2.117  13.054 -0.1614 -0.0393  0.7935
 2357SOL     OW18532   3.021   1.354   4.241 -0.2956 -0.4047 -0.0112
 2357SOL    HW118533   3.046   1.359   4.333  0.2934  2.5119 -0.3128
 2357SOL    HW218534   3.022   1.447   4.218 -1.8966 -0.2114  0.7336
 2358SOL     OW18535   2.676   3.827   6.978  0.1597 -0.1457  0.0215
 2358SOL    HW118536   2.768   3.824   7.002 -0.0083 -0.9926  0.5399
 2358SOL    HW218537   2.639   3.749   7.019  1.7118 -1.5758 -1.3097
 2359SOL     OW18538   3.642   4.591   9.361  0.2856 -0.5127  0.4396
 2359SOL    HW118539   3.689   4.609   9.279  0.5585  0.6117  0.8444
 2359SOL    HW218540   3.570   4.537   9.327 -1.2896  1.3443  0.7982
 2360SOL     OW18541   4.409   3.145  12.812  0.2935  0.3626  0.4115
 2360SOL    HW118542   4.392   3.173  12.902  0.0500 -0.6020  0.6621
 2360SOL    HW218543   4.322   3.169  12.779  0.2430  0.6680  0.7709
 2361SOL     OW18544   1.560   2.436  12.703 -0.2677 -0.3275 -0.3644
 2361SOL    HW118545   1.596   2.437  12.615  0.0243  1.3303 -0.2226
 2361SOL    HW218546   1.567   2.343  12.729  0.1452 -0.1255  0.2609
 2362SOL     OW18547   2.894   2.491   6.892  0.5690 -0.2311  0.1392
 2362SOL    HW118548   2.833   2.560   6.917  0.3268 -1.2737  2.4126
 2362SOL    HW218549   2.963   2.496   6.958  1.6580  1.4502 -1.1269
 2363SOL     OW18550   4.661   1.024  17.055 -0.2769  0.1826  0.1833
 2363SOL    HW118551   4.651   1.083  17.130 -1.0669  0.7765 -0.3828
 2363SOL    HW218552   4.702   1.085  16.994 -0.4342 -1.6179 -1.6812
 2364SOL     OW18553   3.998   3.513   6.368 -0.0470 -0.2498 -0.7244
 2364SOL    HW118554   4.052   3.438   6.391 -0.4370  0.2446  1.8197
 2364SOL    HW218555   3.951   3.528   6.451 -0.6690 -1.7674 -0.7946
 2365SOL     OW18556   1.332   1.017   2.200 -0.1339  0.3696 -0.3926
 2365SOL    HW118557   1.298   0.995   2.287  0.7613 -2.5121 -0.7785
 2365SOL    HW218558   1.347   1.110   2.217  2.4801 -0.4397  1.8022
 2366SOL     OW18559   2.504   0.149   5.405  0.2371 -0.1928  0.4927
 2366SOL    HW118560   2.410   0.137   5.389  0.4854 -0.6375 -0.6479
 2366SOL    HW218561   2.533   0.069   5.361 -3.7834 -1.0624 -0.5939
 2367SOL     OW18562   4.135   0.278   3.459 -0.2984 -0.2051 -0.5134
 2367SOL    HW118563   4.171   0.342   3.521 -2.7937 -0.0852  0.7930
 2367SOL    HW218564   4.102   0.215   3.522  0.1485  0.2309  0.1591
 2368SOL     OW18565   4.202   1.544  16.042 -0.4398  0.5650 -0.1793
 2368SOL    HW118566   4.146   1.620  16.051 -0.2697  0.8760 -1.6678
 2368SOL    HW218567   4.293   1.574  16.041 -0.2429 -0.0471 -0.7292
 2369SOL     OW18568   0.727   0.070   6.974 -0.0931 -0.1110 -0.1749
 2369SOL    HW118569   0.780   0.097   6.900 -1.1572 -1.1058 -1.2964
 2369SOL    HW218570   0.635   0.078   6.947  0.2237 -1.6061 -1.6613
 2370SOL     OW18571   1.118   2.761   5.022  0.4575  0.0728 -0.1029
 2370SOL    HW118572   1.050   2.795   5.080 -0.2699 -0.7772 -0.4513
 2370SOL    HW218573   1.161   2.707   5.088  1.4469  0.3001 -0.5689
 2371SOL     OW18574   4.349   1.076   4.578 -0.4877  0.1410 -0.6349
 2371SOL    HW118575   4.338   1.147   4.641  2.1027 -0.0823  0.0750
 2371SOL    HW218576   4.401   1.125   4.514  0.0755 -1.8400 -1.7032
 2372SOL     OW18577   0.526   0.657   9.670 -0.3167 -0.4414  0.1493
 2372SOL    HW118578   0.487   0.586   9.720  1.0722 -1.8423 -0.7525
 2372SOL    HW218579   0.525   0.607   9.588 -1.5158 -0.2149  0.0342
 2373SOL     OW18580   3.528   1.399  11.260  0.0205  0.0191 -0.0210
 2373SOL    HW118581   3.539   1.348  11.179  2.4097 -0.6441  0.7050
 2373SOL    HW218582   3.581   1.477  11.250  0.7333 -0.4304  0.2357
 2374SOL     OW18583   3.031   4.215  10.954 -0.4932 -0.5969  0.0679
 2374SOL    HW118584   3.042   4.166  11.036 -0.7109  1.2788  1.2150
 2374SOL    HW218585   3.079   4.297  10.966  0.5165 -0.9189 -1.7169
 2375SOL     OW18586   0.380   3.075   9.389 -0.7794 -0.9082 -0.8895
 2375SOL    HW118587   0.423   3.061   9.305 -0.5037  1.5586 -1.1695
 2375SOL    HW218588   0.433   3.027   9.452  0.3048  0.2002 -0.9460
 2376SOL     OW18589   2.880   1.090   6.548  0.3039  0.7003  0.2263
 2376SOL    HW118590   2.920   1.023   6.603 -1.7846 -0.7351 -0.0243
 2376SOL    HW218591   2.897   1.168   6.601 -0.5433  0.9026  0.2054
 2377SOL     OW18592   1.719   1.133  16.957  0.2951  0.1014  0.0312
 2377SOL    HW118593   1.645   1.082  16.991  0.8062  0.7829  2.1671
 2377SOL    HW218594   1.792   1.101  17.011 -0.8842 -1.8040  0.4942
 2378SOL     OW18595   0.479   2.200   3.764  0.2165 -0.6571 -0.0174
 2378SOL    HW118596   0.546   2.268   3.759  0.2037 -0.5666  1.1268
 2378SOL    HW218597   0.487   2.187   3.858 -0.9998 -0.8590  0.0519
 2379SOL     OW18598   1.526   2.351   5.303 -0.0276 -0.1409 -0.4542
 2379SOL    HW118599   1.504   2.358   5.396 -0.3352 -0.5047 -0.5002
 2379SOL    HW218600   1.538   2.259   5.279  1.1907 -0.0137 -0.3295
 2380SOL     OW18601   3.845   4.273   4.086  0.2463 -0.3235  0.1077
 2380SOL    HW118602   3.751   4.264   4.069  0.3026  0.9726 -0.8480
 2380SOL    HW218603   3.868   4.180   4.081  1.2407 -0.0614 -0.2661
 2381SOL     OW18604   2.127   1.094   7.720 -0.0260  0.2971 -0.0744
 2381SOL    HW118605   2.053   1.034   7.720  0.5995 -0.4842  2.6684
 2381SOL    HW218606   2.171   1.070   7.802 -1.0172 -0.0282  0.3508
 2382SOL     OW18607   1.951   0.754   1.684 -0.0373  0.1939 -0.0550
 2382SOL    HW118608   1.861   0.723   1.685 -0.3145  0.9907 -0.0827
 2382SOL    HW218609   1.971   0.741   1.777 -1.3893 -0.0807  0.1870
 2383SOL     OW18610   1.051   0.977   8.730  0.1824 -0.3720  0.3682
 2383SOL    HW118611   1.065   0.883   8.724 -2.2459 -0.9191  3.7015
 2383SOL    HW218612   1.047   1.000   8.823  0.3206  2.3249 -0.2793
 2384SOL     OW18613   3.444   0.437  13.242  1.0607  0.1829  0.1992
 2384SOL    HW118614   3.454   0.374  13.170  0.0606  0.8306 -0.5065
 2384SOL    HW218615   3.405   0.378  13.306  0.1486 -0.7879 -1.2573
 2385SOL     OW18616   4.532   1.775   4.803  0.4297  0.4848 -0.0260
 2385SOL    HW118617   4.455   1.791   4.858  1.6497 -1.5600  2.2978
 2385SOL    HW218618   4.594   1.759   4.874 -0.6045  1.3612  1.0793
 2386SOL     OW18619   3.469   2.664   1.644 -0.6658  0.4812 -0.0655
 2386SOL    HW118620   3.551   2.617   1.656 -0.6977 -0.3872 -3.2130
 2386SOL    HW218621   3.504   2.750   1.666 -1.5579  0.8349 -0.0215
 2387SOL     OW18622   4.296   3.176   4.924  0.6327 -0.3826  0.1458
 2387SOL    HW118623   4.301   3.164   4.829 -1.1721  0.5083 -0.0511
 2387SOL    HW218624   4.212   3.140   4.950 -0.4475  1.7134 -0.4456
 2388SOL     OW18625   3.600   2.065   7.314 -0.4115  0.2427  0.0124
 2388SOL    HW118626   3.588   2.135   7.378 -1.8586 -0.4135  0.4418
 2388SOL    HW218627   3.668   2.107   7.262  0.8599 -0.3064  1.2018
 2389SOL     OW18628   2.689   2.394   7.706 -0.0342 -0.1008  0.5085
 2389SOL    HW118629   2.695   2.457   7.777  0.5245 -2.0729  2.1936
 2389SOL    HW218630   2.782   2.391   7.685  0.2943  2.9199  1.5307
 2390SOL     OW18631   1.410   0.749   9.079 -0.0304 -0.0620 -0.5256
 2390SOL    HW118632   1.351   0.819   9.107 -1.9916 -0.6126 -3.2957
 2390SOL    HW218633   1.354   0.674   9.097 -0.7929  1.3400  2.7704
 2391SOL     OW18634   1.669   4.583   4.164  0.5428  0.0158  0.2322
 2391SOL    HW118635   1.696   4.652   4.104 -0.1953 -1.1534 -1.4437
 2391SOL    HW218636   1.649   4.634   4.243 -2.4349  0.4408 -0.7945
 2392SOL     OW18637   2.262   0.839   5.427 -0.2673  0.1994 -0.1003
 2392SOL    HW118638   2.314   0.919   5.435  0.5536 -0.8616  4.8031
 2392SOL    HW218639   2.261   0.809   5.517 -1.1151 -1.9842 -0.8473
 2393SOL     OW18640   2.690   2.879  17.613  0.3026 -0.1752  0.6934
 2393SOL    HW118641   2.755   2.820  17.652 -1.9294 -2.3858  1.0615
 2393SOL    HW218642   2.632   2.875  17.688 -0.2647  0.2475  0.2766
 2394SOL     OW18643   4.108   2.131  15.213 -0.0452 -0.2145  0.0550
 2394SOL    HW118644   4.143   2.179  15.138 -0.2444 -1.3245 -0.7340
 2394SOL    HW218645   4.018   2.107  15.191 -0.4347  1.2948 -0.0017
 2395SOL     OW18646   1.748   1.596  17.411 -0.2799  0.0961  0.3182
 2395SOL    HW118647   1.748   1.692  17.410  1.0610  0.0662 -1.5550
 2395SOL    HW218648   1.840   1.576  17.394 -0.6330 -1.5529  0.3633
 2396SOL     OW18649   0.912   2.713   8.663  0.4353  0.1387  0.4487
 2396SOL    HW118650   0.929   2.650   8.733 -1.2035  0.5602  1.2255
 2396SOL    HW218651   1.003   2.726   8.636  0.6976 -0.2192  1.1426
 2397SOL     OW18652   1.282   0.454   2.075  0.0777 -0.4231  0.7876
 2397SOL    HW118653   1.211   0.473   2.014  1.3811  0.2615 -0.5351
 2397SOL    HW218654   1.297   0.361   2.059  1.5672 -0.3355  1.6134
 2398SOL     OW18655   2.344   1.820  13.986 -1.3312 -0.2142  0.4131
 2398SOL    HW118656   2.371   1.744  14.038 -1.8606 -1.2016 -0.7479
 2398SOL    HW218657   2.249   1.804  13.981 -1.0335 -1.4049 -1.2258
 2399SOL     OW18658   3.303   2.148   7.754 -0.2082  0.1391  0.2547
 2399SOL    HW118659   3.211   2.141   7.730 -0.2428  0.8703  0.1977
 2399SOL    HW218660   3.317   2.218   7.690 -1.3611 -1.2150 -1.4832
 2400SOL     OW18661   0.631   1.703   0.649 -0.1500 -0.1170 -0.3446
 2400SOL    HW118662   0.682   1.779   0.677 -3.0550  2.5914 -2.3842
 2400SOL    HW218663   0.589   1.673   0.730  1.6078  1.0715  1.0014
 2401SOL     OW18664   1.592   3.878   9.375 -0.5830  0.0507 -0.1619
 2401SOL    HW118665   1.590   3.790   9.336  0.4267  0.1934 -0.5423
 2401SOL    HW218666   1.551   3.852   9.457 -0.7693  1.1371  0.0876
 2402SOL     OW18667   4.248   1.097   8.945 -0.0657 -0.0083 -0.4216
 2402SOL    HW118668   4.341   1.115   8.934 -0.2852  1.1935 -0.2452
 2402SOL    HW218669   4.211   1.175   8.904 -0.4668  0.0471  0.0537
 2403SOL     OW18670   2.713   2.927   4.130 -0.2354  0.0789 -0.1180
 2403SOL    HW118671   2.666   2.904   4.211 -0.7051  0.5236 -0.2689
 2403SOL    HW218672   2.648   2.994   4.112 -1.9325 -2.0103 -1.8318
 2404SOL     OW18673   2.912   1.614   2.219 -0.1830 -0.2609  0.2137
 2404SOL    HW118674   2.840   1.615   2.282 -0.9620  0.7136 -0.6962
 2404SOL    HW218675   2.900   1.533   2.168  0.0639 -0.0051 -0.2522
 2405SOL     OW18676   0.375   3.989  15.087 -0.6980 -0.4604 -0.1630
 2405SOL    HW118677   0.331   3.952  15.010 -0.6183  1.8554 -1.3460
 2405SOL    HW218678   0.461   3.998  15.044 -0.6020  2.3302  0.5839
 2406SOL     OW18679   2.280   0.313   7.585  0.6138  0.2101  0.4186
 2406SOL    HW118680   2.324   0.388   7.545  2.6538 -1.0947  0.2736
 2406SOL    HW218681   2.303   0.323   7.678 -2.6574 -1.0134  1.3679
 2407SOL     OW18682   1.652   0.644  13.261  0.1344 -0.0990 -0.4891
 2407SOL    HW118683   1.592   0.624  13.189 -2.0578  0.0885  1.3161
 2407SOL    HW218684   1.590   0.631  13.333 -0.0043  2.2954 -0.1702
 2408SOL     OW18685   0.930   3.642   6.546  0.1411  0.1552 -0.2726
 2408SOL    HW118686   0.886   3.603   6.470 -1.1970  0.3899  0.3788
 2408SOL    HW218687   0.928   3.735   6.525  0.0736  0.2453  0.1265
 2409SOL     OW18688   2.524   1.174  15.192 -0.6424 -0.5781  0.2199
 2409SOL    HW118689   2.473   1.254  15.177 -2.0150 -1.4847  0.0251
 2409SOL    HW218690   2.597   1.221  15.233 -0.8149  0.3209 -0.4932
 2410SOL     OW18691   3.042   1.593  16.651 -0.1051  0.3813  0.8507
 2410SOL    HW118692   2.999   1.593  16.566  1.7059 -1.4273 -0.0496
 2410SOL    HW218693   3.058   1.686  16.672  0.0776  1.0304 -2.1546
 2411SOL     OW18694   1.139   0.723   1.143  0.3127 -0.2580  0.1428
 2411SOL    HW118695   1.045   0.742   1.133  0.3344 -0.7027 -0.8949
 2411SOL    HW218696   1.129   0.651   1.205 -0.5541 -0.8786 -0.7129
 2412SOL     OW18697   3.147   1.849   8.758  0.1268 -0.2694 -0.2408
 2412SOL    HW118698   3.192   1.817   8.836 -0.6928 -0.2368  0.2397
 2412SOL    HW218699   3.199   1.796   8.697  0.7830  2.0283 -1.6842
 2413SOL     OW18700   4.384   4.068   2.060  0.2224  0.1892 -0.5431
 2413SOL    HW118701   4.394   4.098   1.970  0.8579 -0.4391 -0.6867
 2413SOL    HW218702   4.289   4.059   2.067  0.3082  0.2205  0.6747
 2414SOL     OW18703   3.759   0.003   5.450  0.0332  0.2617 -0.0679
 2414SOL    HW118704   3.853   4.708   5.456  0.0433  0.2888 -0.1364
 2414SOL    HW218705   3.716   4.663   5.396  3.1669 -2.4839  0.7279
 2415SOL     OW18706   0.619   1.386  16.416  0.3528 -0.1156  0.1611
 2415SOL    HW118707   0.647   1.370  16.326  0.3229  2.1527 -0.2331
 2415SOL    HW218708   0.693   1.342  16.458  0.5890  0.9131  0.7977
 2416SOL     OW18709   4.694   0.496   4.683  0.0526 -0.0851 -0.5827
 2416SOL    HW118710   4.675   0.589   4.672  1.6348  0.5411  1.9690
 2416SOL    HW218711   4.666   0.485   4.774 -0.4458 -0.5521 -0.7991
 2417SOL     OW18712   1.658   3.160   7.434  0.4126 -0.1112  0.5375
 2417SOL    HW118713   1.695   3.129   7.516  0.2730 -0.7828  0.3444
 2417SOL    HW218714   1.569   3.125   7.438 -0.5795  2.4503  0.8388
 2418SOL     OW18715   2.273   0.623   8.885 -0.7407  0.3382  0.0636
 2418SOL    HW118716   2.210   0.648   8.952  0.9849 -0.8295  2.1277
 2418SOL    HW218717   2.299   0.537   8.918 -0.5912  0.2067 -0.3982
 2419SOL     OW18718   2.112   4.368   8.194  0.7235  0.9196  0.0586
 2419SOL    HW118719   2.124   4.284   8.237 -0.6108  0.2990 -0.7732
 2419SOL    HW218720   2.116   4.336   8.104 -0.5837  0.1025  0.2900
 2420SOL     OW18721   2.509   0.528   9.985 -0.2590  0.0984  0.0599
 2420SOL    HW118722   2.441   0.493   9.928 -1.5211  3.7046 -0.6602
 2420SOL    HW218723   2.449   0.567  10.049  0.8342  0.0157  1.1484
 2421SOL     OW18724   0.252   3.072   9.091 -0.4021  0.4730  0.1969
 2421SOL    HW118725   0.343   3.065   9.118  0.3053  2.3816 -1.6910
 2421SOL    HW218726   0.206   3.035   9.166 -1.1721 -2.0410 -1.4895
 2422SOL     OW18727   0.288   0.659  12.312  0.0051 -0.2414 -0.4144
 2422SOL    HW118728   0.358   0.618  12.362 -0.6537  0.6841  1.2717
 2422SOL    HW218729   0.224   0.589  12.326  0.0280 -0.1938 -0.0718
 2423SOL     OW18730   0.553   1.897   8.009  0.5752  0.1879 -0.2346
 2423SOL    HW118731   0.538   1.851   8.092 -0.7183  2.6814  0.8976
 2423SOL    HW218732   0.559   1.826   7.944  2.8239  0.9147 -0.8069
 2424SOL     OW18733   3.789   1.595   3.626  0.4122 -0.3319 -0.0829
 2424SOL    HW118734   3.723   1.564   3.687  0.7752  0.2412  0.6040
 2424SOL    HW218735   3.856   1.621   3.689  0.0330 -1.3027  0.7085
 2425SOL     OW18736   1.937   0.667   9.356 -0.2726  0.4186  0.6378
 2425SOL    HW118737   2.007   0.728   9.334 -0.5296  0.1918 -0.8322
 2425SOL    HW218738   1.930   0.674   9.451  2.9761  0.6884  0.8320
 2426SOL     OW18739   2.085   3.649   2.773 -0.2278 -0.3434 -0.0707
 2426SOL    HW118740   2.065   3.663   2.866  0.1456  0.2216 -0.0736
 2426SOL    HW218741   2.046   3.562   2.772 -1.0034  0.0285 -1.7627
 2427SOL     OW18742   3.918   1.024   8.399 -0.0448 -0.0826 -0.4817
 2427SOL    HW118743   3.850   0.994   8.459  0.0790  1.6469  0.5292
 2427SOL    HW218744   3.876   1.092   8.346  0.3560 -0.1839 -0.9245
 2428SOL     OW18745   0.236   1.840   7.369  0.2680  0.7823  0.1254
 2428SOL    HW118746   0.314   1.894   7.382 -0.1730  2.0084 -2.2984
 2428SOL    HW218747   0.178   1.878   7.434 -0.8734 -1.0001  0.1767
 2429SOL     OW18748   0.663   1.489   2.741 -0.6745  0.0065 -0.4173
 2429SOL    HW118749   0.654   1.394   2.742 -2.4998  0.1874  0.2827
 2429SOL    HW218750   0.589   1.521   2.793  0.8051  1.5481  0.7394
 2430SOL     OW18751   2.863   3.910   5.598  0.5761  0.4388 -0.2371
 2430SOL    HW118752   2.857   3.815   5.586 -0.5510  0.0766  3.1660
 2430SOL    HW218753   2.920   3.925   5.523 -0.1874  0.1793 -0.8808
 2431SOL     OW18754   4.274   1.382   0.989  0.0996  0.0577 -0.2456
 2431SOL    HW118755   4.351   1.387   0.932  0.3842  0.5230  0.1828
 2431SOL    HW218756   4.304   1.360   1.077 -1.4234  0.7984  0.4662
 2432SOL     OW18757   2.348   1.553   8.651  0.1318  0.1248 -0.4579
 2432SOL    HW118758   2.414   1.559   8.581  0.7891 -2.1125 -0.0289
 2432SOL    HW218759   2.402   1.550   8.730 -0.7093  1.6409  0.1610
 2433SOL     OW18760   0.458   1.165   4.758  0.1358  0.0198  0.1769
 2433SOL    HW118761   0.514   1.089   4.743  0.7884  0.7941 -1.4240
 2433SOL    HW218762   0.520   1.238   4.762  1.3815 -1.1152  1.4937
 2434SOL     OW18763   3.928   1.590  13.314 -0.2097 -0.4567  0.0708
 2434SOL    HW118764   4.001   1.636  13.355 -0.4823 -1.8008  2.0051
 2434SOL    HW218765   3.976   1.530  13.257  0.0696  0.9683 -1.2002
 2435SOL     OW18766   4.055   2.529  16.965  0.2953  0.3630  0.5353
 2435SOL    HW118767   4.113   2.604  16.947  0.2833  0.8139  2.2964
 2435SOL    HW218768   4.019   2.521  16.877  2.8824  0.1193 -0.4886
 2436SOL     OW18769   0.563   0.826  10.694 -0.2104 -0.0458  0.0401
 2436SOL    HW118770   0.587   0.733  10.698  2.0548  0.4730 -1.5556
 2436SOL    HW218771   0.624   0.865  10.631  1.7901 -1.4418  1.1208
 2437SOL     OW18772   3.345   3.812   7.535  0.8742  0.2297 -0.3179
 2437SOL    HW118773   3.349   3.848   7.624 -1.5891 -1.2060  0.3692
 2437SOL    HW218774   3.428   3.764   7.537 -0.2522 -1.7092 -1.1514
 2438SOL     OW18775   2.164   1.236  15.093  0.5456  0.4149 -0.0985
 2438SOL    HW118776   2.185   1.148  15.122  0.0958 -0.3299 -2.0498
 2438SOL    HW218777   2.218   1.288  15.153  0.9191  1.1656 -1.0785
 2439SOL     OW18778   1.382   4.399  16.304  0.2309  0.3305 -0.3841
 2439SOL    HW118779   1.390   4.396  16.208  0.5661 -1.3222 -0.3022
 2439SOL    HW218780   1.296   4.439  16.313  1.1133  1.7605  1.6109
 2440SOL     OW18781   1.848   2.722   5.528  0.2071  0.5136  0.1098
 2440SOL    HW118782   1.804   2.638   5.515  1.6975  0.1354 -2.5194
 2440SOL    HW218783   1.906   2.704   5.602 -2.2758 -0.5527  1.7905
 2441SOL     OW18784   3.056   4.012   9.394  0.2511  0.5932  0.4206
 2441SOL    HW118785   3.061   3.970   9.479 -1.1983 -1.7569 -0.6504
 2441SOL    HW218786   3.149   4.031   9.376  0.8932 -3.6537 -0.9304
 2442SOL     OW18787   2.513   3.975   2.834 -0.6143 -0.1991 -0.3963
 2442SOL    HW118788   2.593   4.012   2.873  0.6636 -0.8324 -2.4099
 2442SOL    HW218789   2.502   4.029   2.756 -0.9847  0.0966 -0.1424
 2443SOL     OW18790   2.673   3.406   9.144 -0.3383  0.2053 -0.0816
 2443SOL    HW118791   2.581   3.419   9.120 -0.2346 -1.9354 -1.5941
 2443SOL    HW218792   2.678   3.464   9.220  0.7935  1.0052 -0.7637
 2444SOL     OW18793   2.848   1.814  16.255 -0.3797  0.6295  0.6333
 2444SOL    HW118794   2.792   1.882  16.218 -0.1442  0.4487 -0.0427
 2444SOL    HW218795   2.814   1.740  16.206 -0.0796 -0.8793  2.6706
 2445SOL     OW18796   3.992   0.486   3.342  0.3607  0.1158 -0.1919
 2445SOL    HW118797   4.031   0.398   3.338 -0.2405 -0.1282 -0.7257
 2445SOL    HW218798   3.906   0.463   3.306  0.3014  0.9832 -0.5938
 2446SOL     OW18799   0.864   3.770   4.105  0.2746 -0.7610  0.2360
 2446SOL    HW118800   0.901   3.853   4.136 -1.0546  0.0671 -0.4467
 2446SOL    HW218801   0.888   3.765   4.013 -0.9274 -2.3700  0.0127
 2447SOL     OW18802   3.158   0.873   3.099  0.4520 -0.2234  0.2464
 2447SOL    HW118803   3.103   0.848   3.025 -0.7765 -1.6095  1.6082
 2447SOL    HW218804   3.239   0.901   3.056  0.5920 -1.3477 -0.2294
 2448SOL     OW18805   3.803   3.794   7.081 -0.0305 -0.0218 -0.9993
 2448SOL    HW118806   3.803   3.860   7.011 -2.6946  0.1685 -0.8314
 2448SOL    HW218807   3.885   3.750   7.059  0.4896 -0.5467  1.9504
 2449SOL     OW18808   2.724   2.349  11.988 -0.0252  0.3018 -0.5782
 2449SOL    HW118809   2.715   2.267  12.037 -0.1427  0.7945  0.2245
 2449SOL    HW218810   2.721   2.411  12.060  1.0553 -0.3243 -0.0078
 2450SOL     OW18811   1.429   0.381   7.387  0.2125 -0.0600  0.2692
 2450SOL    HW118812   1.484   0.454   7.361  1.6120 -0.8425  1.0494
 2450SOL    HW218813   1.471   0.356   7.469 -0.8164 -0.6071  0.6307
 2451SOL     OW18814   2.795   4.256   5.502  0.1854  0.1490  0.4459
 2451SOL    HW118815   2.811   4.250   5.596  3.0600 -1.9237 -0.1385
 2451SOL    HW218816   2.748   4.338   5.504  1.0244  0.6195  0.8922
 2452SOL     OW18817   0.399   3.226   3.194 -0.2044  0.1331 -0.3961
 2452SOL    HW118818   0.399   3.172   3.115  0.2453 -1.1971  0.5120
 2452SOL    HW218819   0.361   3.311   3.171  0.6651  0.9955  1.3969
 2453SOL     OW18820   2.121   2.381   7.029  0.5108 -0.1109 -0.1249
 2453SOL    HW118821   2.128   2.371   7.124 -1.3776 -0.8301 -0.0506
 2453SOL    HW218822   2.134   2.475   7.019 -1.8440  0.1764 -0.5613
 2454SOL     OW18823   0.189   1.532   9.644 -0.6173  0.3365  0.1308
 2454SOL    HW118824   0.155   1.489   9.566 -1.9696 -2.1885  2.1351
 2454SOL    HW218825   0.275   1.490   9.648 -0.3551  0.7457 -1.2998
 2455SOL     OW18826   2.304   4.223   4.581 -0.1342  0.3582  0.2969
 2455SOL    HW118827   2.223   4.272   4.568  0.1007  1.2433  2.0858
 2455SOL    HW218828   2.362   4.277   4.527  1.0696  0.2770  1.5166
 2456SOL     OW18829   1.325   1.642   4.675 -0.1748  0.5615  0.0351
 2456SOL    HW118830   1.270   1.704   4.722 -0.4445  0.4102 -0.0792
 2456SOL    HW218831   1.353   1.695   4.600  1.6899  0.0192  0.3554
 2457SOL     OW18832   3.324   2.018  11.022  0.0842  0.0455  0.1426
 2457SOL    HW118833   3.305   2.062  11.105 -2.0818 -1.0964  0.2410
 2457SOL    HW218834   3.289   1.930  11.032 -0.7760  0.3252 -0.3857
 2458SOL     OW18835   3.014   1.926  11.045 -0.1712  0.0030  0.0080
 2458SOL    HW118836   3.078   1.861  11.017  0.3026 -0.3707  1.9531
 2458SOL    HW218837   2.983   1.907  11.134 -3.2022  0.3126 -1.0039
 2459SOL     OW18838   1.964   1.334   3.561 -0.0623  0.6254  0.0440
 2459SOL    HW118839   2.020   1.376   3.496  1.3836 -1.1514  0.1275
 2459SOL    HW218840   2.036   1.292   3.606 -1.0618 -0.4521  0.6491
 2460SOL     OW18841   1.889   2.805   2.192 -0.1362 -0.6224  0.1613
 2460SOL    HW118842   1.826   2.873   2.218 -1.1000 -0.6564 -2.0351
 2460SOL    HW218843   1.858   2.802   2.101  0.9317 -1.0263 -0.1881
 2461SOL     OW18844   0.998   1.820   9.314  0.4981 -0.0719  0.0070
 2461SOL    HW118845   1.085   1.839   9.279  0.3094  0.9829  0.1314
 2461SOL    HW218846   1.008   1.726   9.332  2.5803  0.5169  1.9174
 2462SOL     OW18847   3.065   1.818   5.873 -0.1317 -0.1057 -0.0714
 2462SOL    HW118848   3.122   1.788   5.945  0.4807 -0.2130 -0.6002
 2462SOL    HW218849   3.126   1.879   5.832 -1.5853  0.0297 -2.0080
 2463SOL     OW18850   1.698   1.423  16.568 -0.2444 -0.1620 -0.0207
 2463SOL    HW118851   1.724   1.515  16.566  1.6813 -0.6989  1.0871
 2463SOL    HW218852   1.618   1.422  16.515  0.2083 -1.3804 -0.6906
 2464SOL     OW18853   4.212   0.287   7.992 -0.3872  0.2064 -0.8584
 2464SOL    HW118854   4.150   0.359   7.999 -0.5536 -0.0124 -0.0186
 2464SOL    HW218855   4.295   0.329   8.015 -0.7382  1.1106 -1.2471
 2465SOL     OW18856   4.440   3.622   5.981 -0.4029 -0.7865 -0.0930
 2465SOL    HW118857   4.479   3.605   6.067 -0.6429 -2.0213 -0.2280
 2465SOL    HW218858   4.425   3.717   5.984 -1.2046 -0.9446  1.0011
 2466SOL     OW18859   2.987   2.977   5.000 -0.2761  0.6849 -0.2677
 2466SOL    HW118860   3.017   3.059   5.039 -2.0570  0.5939  1.2610
 2466SOL    HW218861   2.939   2.938   5.072  0.7867  0.5322  0.3652
 2467SOL     OW18862   3.037   4.254   3.191 -0.0341  0.2177 -0.0723
 2467SOL    HW118863   2.942   4.254   3.202  0.2370 -1.5718  2.2837
 2467SOL    HW218864   3.069   4.336   3.154 -1.5849  0.4290 -0.9490
 2468SOL     OW18865   0.411   1.899  15.822 -0.6075  0.4120 -0.0475
 2468SOL    HW118866   0.477   1.864  15.882 -1.9452 -2.4314 -0.2628
 2468SOL    HW218867   0.420   1.842  15.745 -0.2514 -2.5481  2.1710
 2469SOL     OW18868   1.527   2.622   3.325 -0.6084  1.0107  0.2423
 2469SOL    HW118869   1.545   2.706   3.367 -1.1016  1.3710 -0.2802
 2469SOL    HW218870   1.503   2.575   3.405 -0.6279  0.0276 -0.3461
 2470SOL     OW18871   0.430   2.539   0.296 -0.0222 -0.5564  1.2096
 2470SOL    HW118872   0.469   2.564   0.212 -0.1033 -0.5966  1.1605
 2470SOL    HW218873   0.339   2.540   0.267  0.7793  0.2766 -1.2079
 2471SOL     OW18874   2.115   3.773   3.297 -0.2715 -0.8182  0.5704
 2471SOL    HW118875   2.195   3.795   3.249  0.5759 -1.6398  1.6128
 2471SOL    HW218876   2.084   3.858   3.329  1.1183 -0.8303  1.9501
 2472SOL     OW18877   1.685   0.168   8.177  0.6610  0.0364 -0.3534
 2472SOL    HW118878   1.730   0.108   8.237 -0.5327  0.2539  0.7656
 2472SOL    HW218879   1.750   0.239   8.176 -1.6309  2.1555  2.1311
 2473SOL     OW18880   2.750   4.325  13.539  0.4043 -0.0857 -0.5550
 2473SOL    HW118881   2.690   4.319  13.465 -0.5794  1.2589  0.1514
 2473SOL    HW218882   2.741   4.411  13.580 -0.9495 -0.5259  0.0741
 2474SOL     OW18883   0.754   2.886   9.181 -0.0031 -0.0610  0.1998
 2474SOL    HW118884   0.751   2.796   9.213  1.4225 -0.1387  0.0890
 2474SOL    HW218885   0.796   2.945   9.243 -1.6658  1.9382 -0.5723
 2475SOL     OW18886   0.896   3.620   6.826 -0.1754  0.3397 -0.7455
 2475SOL    HW118887   0.810   3.652   6.852 -0.2379 -1.0074  0.6931
 2475SOL    HW218888   0.891   3.631   6.731 -1.7995 -0.2310 -0.7276
 2476SOL     OW18889   0.729   1.602   8.976  0.0320  0.4819  0.3076
 2476SOL    HW118890   0.734   1.557   8.892  1.1967  1.8206 -0.3328
 2476SOL    HW218891   0.767   1.541   9.040  1.7829 -0.3793 -1.5780
 2477SOL     OW18892   3.512   0.106  13.239  0.7111 -0.0760 -0.3342
 2477SOL    HW118893   3.486   0.145  13.156 -0.2773 -0.9571 -0.4403
 2477SOL    HW218894   3.452   0.143  13.303 -0.0372 -0.1451 -0.9903
 2478SOL     OW18895   0.131   4.305   8.617 -0.7676  0.3434  0.0913
 2478SOL    HW118896   0.068   4.352   8.563 -3.1111 -3.3647 -0.3950
 2478SOL    HW218897   0.151   4.379   8.675 -1.1601  1.5273 -1.2564
 2479SOL     OW18898   0.582   4.138  10.012 -0.2571  0.2249  0.0394
 2479SOL    HW118899   0.491   4.110  10.025  0.4852 -0.8361  2.9554
 2479SOL    HW218900   0.606   4.087   9.935 -0.4028  1.5024 -0.8529
 2480SOL     OW18901   1.501   1.306   7.591  0.1116  0.3305  0.3097
 2480SOL    HW118902   1.539   1.221   7.616  0.9440  0.6550  0.1739
 2480SOL    HW218903   1.428   1.285   7.533 -0.6827  0.5572  1.2254
 2481SOL     OW18904   2.936   2.364   7.571 -0.2744 -0.0680 -0.2482
 2481SOL    HW118905   3.028   2.341   7.559 -1.3697 -2.4760 -4.0267
 2481SOL    HW218906   2.887   2.319   7.502 -2.9955  2.1812  0.2352
 2482SOL     OW18907   0.932   0.947  16.362 -0.0981  0.1821 -0.1256
 2482SOL    HW118908   0.845   0.911  16.345 -0.3988  1.0176 -0.3227
 2482SOL    HW218909   0.937   1.004  16.286  2.1539  0.2259  0.0366
 2483SOL     OW18910   2.922   3.490   8.929  0.1696  0.2349  0.4789
 2483SOL    HW118911   2.878   3.566   8.966  1.3737 -0.0139  2.4633
 2483SOL    HW218912   2.887   3.417   8.980  3.0358  1.2486  3.9088
 2484SOL     OW18913   3.350   2.750   5.204 -0.4938 -0.0676 -0.1465
 2484SOL    HW118914   3.418   2.798   5.156  0.7066 -1.6523 -0.0377
 2484SOL    HW218915   3.401   2.694   5.263 -0.4052 -0.3012 -0.4393
 2485SOL     OW18916   0.825   2.518  13.260  0.2864  0.2815 -0.3931
 2485SOL    HW118917   0.848   2.450  13.197  1.6189 -0.3504  0.7801
 2485SOL    HW218918   0.908   2.519  13.307 -0.0302 -0.1074  0.1738
 2486SOL     OW18919   2.325   1.042  12.347 -0.4601  0.5576 -0.2346
 2486SOL    HW118920   2.335   1.137  12.357  0.6525  0.6022 -1.7824
 2486SOL    HW218921   2.273   1.045  12.267  0.2883  1.2414 -0.6933
 2487SOL     OW18922   1.646   0.609   4.864 -0.0405 -0.0026  0.1606
 2487SOL    HW118923   1.607   0.677   4.918 -1.4061  0.3030 -1.2216
 2487SOL    HW218924   1.719   0.578   4.918  0.4517  3.1454  1.3070
 2488SOL     OW18925   4.037   0.017   5.417  0.1677  0.2645 -0.6060
 2488SOL    HW118926   4.105   4.680   5.393  0.0581  0.0501 -0.3442
 2488SOL    HW218927   4.012   0.055   5.332  2.5190  1.5336 -0.7292
 2489SOL     OW18928   1.265   3.759   7.457 -0.2184 -0.0831  0.1551
 2489SOL    HW118929   1.355   3.764   7.490 -1.5834  0.6254  3.8045
 2489SOL    HW218930   1.279   3.755   7.363  0.8807 -2.1029  0.3861
 2490SOL     OW18931   0.766   0.007  12.996 -0.0386  0.0952  0.3257
 2490SOL    HW118932   0.732   4.682  13.069 -1.2795  1.8104  0.9321
 2490SOL    HW218933   0.837   4.683  12.956 -0.8209  1.2317 -2.5205
 2491SOL     OW18934   2.219   1.896  11.229 -0.2223  0.4549 -0.2992
 2491SOL    HW118935   2.182   1.873  11.314  2.0538  0.7448  0.7743
 2491SOL    HW218936   2.136   1.926  11.193 -0.6222 -1.7614 -1.2258
 2492SOL     OW18937   2.538   0.403   5.467 -0.4340 -0.0956  0.0220
 2492SOL    HW118938   2.474   0.461   5.426 -0.0039 -0.7098 -1.5141
 2492SOL    HW218939   2.500   0.317   5.449 -0.0792 -0.5713  1.5364
 2493SOL     OW18940   0.770   4.008  13.110 -0.1288 -0.3229 -0.1328
 2493SOL    HW118941   0.764   4.065  13.033 -1.9160 -0.1642  0.1206
 2493SOL    HW218942   0.864   3.991  13.118 -0.0856 -1.1223 -2.3268
 2494SOL     OW18943   1.021   0.629   9.315  0.0884 -0.1972 -0.1127
 2494SOL    HW118944   1.001   0.625   9.408 -1.5503 -0.7820 -0.4740
 2494SOL    HW218945   1.094   0.567   9.319 -1.1458 -1.8062 -2.2776
 2495SOL     OW18946   2.253   1.252   8.213 -0.0183  0.1582 -0.2504
 2495SOL    HW118947   2.320   1.312   8.247 -0.3191 -0.3012  1.1586
 2495SOL    HW218948   2.232   1.206   8.294  1.2068 -1.1612 -0.6812
 2496SOL     OW18949   3.184   1.225  11.687 -0.0915  0.0747  0.6542
 2496SOL    HW118950   3.225   1.266  11.763  0.1277  0.8824  0.0972
 2496SOL    HW218951   3.093   1.223  11.716 -0.8756  1.1405 -1.7212
 2497SOL     OW18952   0.771   2.464   0.283  0.5691  0.6239  0.2478
 2497SOL    HW118953   0.746   2.456   0.191 -1.8084 -1.7634  1.1146
 2497SOL    HW218954   0.863   2.438   0.280  0.3019 -0.2293 -0.7377
 2498SOL     OW18955   0.458   2.917  15.106 -0.2293 -0.0733  0.1180
 2498SOL    HW118956   0.368   2.934  15.134 -0.4292  0.0369 -0.5896
 2498SOL    HW218957   0.455   2.852  15.037  1.2651 -1.2870  1.2012
 2499SOL     OW18958   2.250   2.265  13.021 -0.0780 -0.3609 -0.2317
 2499SOL    HW118959   2.259   2.261  12.926  2.4839  0.7782 -0.0263
 2499SOL    HW218960   2.208   2.181  13.040  1.6814 -1.7813 -2.7360
 2500SOL     OW18961   0.075   3.223   7.139 -0.4255  0.1168 -0.0576
 2500SOL    HW118962   0.113   3.223   7.052  1.6594 -0.1274  0.8518
 2500SOL    HW218963   0.107   3.143   7.181  0.8569  1.5122  1.5942
 2501SOL     OW18964   0.479   3.805   2.508  0.1823  0.2857 -0.1876
 2501SOL    HW118965   0.496   3.895   2.483  1.8662 -0.1950 -0.7923
 2501SOL    HW218966   0.560   3.758   2.486 -0.3946 -1.5304  1.5736
 2502SOL     OW18967   3.973   1.957   2.978  0.9355 -0.6613  0.1811
 2502SOL    HW118968   3.897   1.903   2.955  0.5374 -0.3422  0.7492
 2502SOL    HW218969   4.006   1.917   3.059 -0.0404 -0.7156  0.5586
 2503SOL     OW18970   0.750   2.014  11.236  0.6607 -0.1024  0.4989
 2503SOL    HW118971   0.748   1.930  11.189  0.3093  0.3442 -0.2781
 2503SOL    HW218972   0.663   2.051  11.225  1.3314  0.9723 -1.1961
 2504SOL     OW18973   4.630   4.367   6.377  0.0725  0.4759  0.0451
 2504SOL    HW118974   4.663   4.457   6.365 -0.5954  0.4248 -2.0741
 2504SOL    HW218975   4.631   4.362   6.473 -0.1580 -0.7634 -0.0232
 2505SOL     OW18976   4.100   3.598   5.871  0.1679 -0.2015  0.5468
 2505SOL    HW118977   4.101   3.587   5.966  0.0263 -2.0982  0.3409
 2505SOL    HW218978   4.182   3.643   5.853 -0.3715  0.2733 -0.6909
 2506SOL     OW18979   3.282   4.536   6.775 -0.4270 -0.3654  0.4653
 2506SOL    HW118980   3.371   4.520   6.807 -0.2483 -0.3665 -0.0405
 2506SOL    HW218981   3.232   4.477   6.832 -0.3367 -1.8166 -0.9695
 2507SOL     OW18982   1.072   2.475  13.967 -0.0570  0.2904 -0.1305
 2507SOL    HW118983   1.043   2.425  13.890  1.6533  0.1802 -0.7126
 2507SOL    HW218984   0.998   2.535  13.965 -0.3233 -0.1542 -3.6019
 2508SOL     OW18985   0.545   3.968   7.520  0.5351 -0.2329 -0.2677
 2508SOL    HW118986   0.630   3.931   7.496  1.2745  1.3446 -0.1114
 2508SOL    HW218987   0.528   4.024   7.445  1.5878  0.8912  0.3318
 2509SOL     OW18988   3.016   3.262   3.011 -0.1940 -0.2653 -0.6251
 2509SOL    HW118989   3.106   3.260   3.044 -0.2427  0.3858 -0.4456
 2509SOL    HW218990   3.013   3.340   2.956 -1.0374 -1.1101 -1.7967
 2510SOL     OW18991   0.535   1.644   0.898  0.1651 -0.2428  0.1737
 2510SOL    HW118992   0.504   1.569   0.949 -0.2127 -0.8150 -0.9032
 2510SOL    HW218993   0.456   1.696   0.883 -0.1840 -0.6776  0.5106
 2511SOL     OW18994   0.926   3.506   5.643  0.2488  0.0695  0.0146
 2511SOL    HW118995   0.991   3.438   5.663  0.9361  0.0042 -2.4409
 2511SOL    HW218996   0.847   3.453   5.634  1.2370 -1.6276  1.2946
 2512SOL     OW18997   3.615   0.796   4.875 -0.6067 -0.1242 -0.6095
 2512SOL    HW118998   3.625   0.710   4.833 -1.1974 -0.5826  0.2070
 2512SOL    HW218999   3.576   0.848   4.804 -1.7256 -1.1909 -0.7747
 2513SOL     OW19000   4.334   1.337   6.009  0.1840 -0.4406  0.0367
 2513SOL    HW119001   4.403   1.275   6.030  0.6643  0.4409  0.9955
 2513SOL    HW219002   4.370   1.370   5.927  1.5608 -4.8799 -1.1775
 2514SOL     OW19003   4.277   4.334   4.736  0.2785  0.5811  0.0069
 2514SOL    HW119004   4.358   4.290   4.761  0.9539  2.7504  1.6461
 2514SOL    HW219005   4.234   4.254   4.705 -0.1485  0.9469 -0.3382
 2515SOL     OW19006   1.995   1.984   6.597  0.1312 -0.1254  0.0451
 2515SOL    HW119007   1.999   1.896   6.634  0.7700 -0.6100 -1.2103
 2515SOL    HW219008   2.057   1.978   6.525  0.0402  0.6175 -0.1012
 2516SOL     OW19009   1.499   2.185  11.956 -0.8241 -0.1200  0.1970
 2516SOL    HW119010   1.541   2.271  11.963  2.7876 -1.8950  0.0067
 2516SOL    HW219011   1.415   2.215  11.992 -0.5922  1.5422 -0.6428
 2517SOL     OW19012   2.568   4.610  17.697  0.0640 -0.7130  0.4676
 2517SOL    HW119013   2.608   4.599   0.078  0.3561 -3.0044  0.0195
 2517SOL    HW219014   2.505   4.538  17.689 -1.4016  0.6654 -0.5722
 2518SOL     OW19015   1.472   3.565  15.239  0.0257 -0.0450 -0.2361
 2518SOL    HW119016   1.567   3.563  15.231  0.0441 -0.4068  0.0433
 2518SOL    HW219017   1.443   3.503  15.172  2.1503  0.2680 -1.4638
 2519SOL     OW19018   2.796   3.358   9.687 -0.0972  0.4151 -0.0160
 2519SOL    HW119019   2.793   3.288   9.752 -1.8935  0.9618  0.5103
 2519SOL    HW219020   2.724   3.343   9.626  1.2019 -2.1701 -0.8941
 2520SOL     OW19021   1.183   0.853   3.346 -0.1031  0.0151 -0.1277
 2520SOL    HW119022   1.262   0.823   3.300  0.3990  0.3954  0.4769
 2520SOL    HW219023   1.127   0.881   3.274 -1.8596 -0.5391  1.0297
 2521SOL     OW19024   3.732   4.275   6.783 -0.0498 -0.9962 -0.0891
 2521SOL    HW119025   3.661   4.318   6.736 -1.1672 -0.3291  2.2120
 2521SOL    HW219026   3.779   4.223   6.717 -0.1527  0.2130 -1.1249
 2522SOL     OW19027   1.859   4.551  14.658  0.1326 -0.3887 -0.1052
 2522SOL    HW119028   1.905   4.612  14.600 -0.6738 -1.4673 -1.8872
 2522SOL    HW219029   1.776   4.598  14.669 -0.4386 -0.8519 -2.4719
 2523SOL     OW19030   3.635   4.475   6.068 -0.0412  1.1691  0.3602
 2523SOL    HW119031   3.635   4.522   5.984  1.7709  0.5757  0.0252
 2523SOL    HW219032   3.547   4.438   6.063  0.1560  0.8380 -0.6032
 2524SOL     OW19033   3.542   1.568  14.114 -0.3004 -0.1081  0.2281
 2524SOL    HW119034   3.522   1.585  14.206 -1.5486 -0.4312  0.0120
 2524SOL    HW219035   3.564   1.657  14.087 -1.1476  0.2362  0.6704
 2525SOL     OW19036   1.743   0.633   2.545  0.4964  0.3768 -0.0031
 2525SOL    HW119037   1.698   0.556   2.578  0.9890  0.2928  0.4695
 2525SOL    HW219038   1.821   0.594   2.506  0.3466 -1.0805  1.1727
 2526SOL     OW19039   2.385   1.769   3.529  0.4686 -0.1469  0.0812
 2526SOL    HW119040   2.372   1.753   3.623 -1.0884 -0.4970 -0.1892
 2526SOL    HW219041   2.423   1.856   3.535  0.8574 -0.2136 -1.6013
 2527SOL     OW19042   4.454   1.967   5.970  0.1030 -0.6375 -0.0715
 2527SOL    HW119043   4.443   1.944   5.878  3.4074  1.4830 -0.9813
 2527SOL    HW219044   4.501   1.887   5.992  0.1394 -0.6435 -0.1712
 2528SOL     OW19045   0.126   2.988   7.277 -0.1235  0.5159 -0.1872
 2528SOL    HW119046   0.163   2.947   7.354 -0.0938  3.8258  1.5842
 2528SOL    HW219047   0.060   2.926   7.247  0.8501 -0.9551  0.7325
 2529SOL     OW19048   2.967   1.554  17.052 -0.1737  0.7921 -0.3536
 2529SOL    HW119049   2.989   1.605  16.974  3.2537  1.4386  1.0325
 2529SOL    HW219050   3.016   1.476  17.025 -0.5017  1.4617 -2.8760
 2530SOL     OW19051   1.442   4.455  15.385 -0.0122 -0.1743 -0.0850
 2530SOL    HW119052   1.437   4.362  15.406 -2.0186 -0.5271 -2.1225
 2530SOL    HW219053   1.351   4.466  15.358  0.1473  0.0604 -0.5309
 2531SOL     OW19054   2.552   1.129   9.195  0.5512  0.1283 -0.4150
 2531SOL    HW119055   2.574   1.160   9.283 -2.1323  0.0408  0.2993
 2531SOL    HW219056   2.508   1.210   9.170 -1.5645 -0.4379  1.3711
 2532SOL     OW19057   2.547   4.573   9.476  0.4214 -0.0902 -0.2993
 2532SOL    HW119058   2.638   4.600   9.463 -0.5572  4.1234  1.8244
 2532SOL    HW219059   2.536   4.489   9.431 -0.1865 -1.0204  1.6042
 2533SOL     OW19060   4.617   0.757  11.393 -0.5810  0.9239 -0.1215
 2533SOL    HW119061   4.704   0.718  11.401  0.1927  2.8493  0.7802
 2533SOL    HW219062   4.634   0.807  11.313  1.7760  1.2512  0.5951
 2534SOL     OW19063   1.106   0.891   8.278 -0.6287 -0.0932  0.4055
 2534SOL    HW119064   1.032   0.833   8.295 -0.5152 -1.0235 -2.3622
 2534SOL    HW219065   1.158   0.886   8.359  0.1912  2.1292  0.0225
 2535SOL     OW19066   3.235   3.137   7.697  0.7456  0.2279  0.1879
 2535SOL    HW119067   3.234   3.053   7.743  1.6855  0.1427  0.0524
 2535SOL    HW219068   3.185   3.131   7.616 -1.3566  1.0941  1.4424
 2536SOL     OW19069   2.462   3.799  15.236  0.1750 -0.1242 -0.4412
 2536SOL    HW119070   2.490   3.798  15.144 -0.9943  2.2158 -0.8290
 2536SOL    HW219071   2.369   3.777  15.237  0.5566 -1.5736  1.8377
 2537SOL     OW19072   0.748   2.459  12.158  0.1571 -0.0301 -0.5730
 2537SOL    HW119073   0.655   2.458  12.182  0.2519  1.3618 -0.1325
 2537SOL    HW219074   0.775   2.533  12.213 -0.7831 -0.2108  0.1306
 2538SOL     OW19075   3.720   1.612   7.645  0.2170 -0.0071  0.4331
 2538SOL    HW119076   3.806   1.569   7.647 -0.4348 -1.3083  0.0176
 2538SOL    HW219077   3.735   1.675   7.575  0.8609 -0.3617  0.2452
 2539SOL     OW19078   1.270   2.059   8.745 -0.1944  0.0477 -0.3564
 2539SOL    HW119079   1.330   2.028   8.813 -1.1359 -2.3250 -0.6078
 2539SOL    HW219080   1.189   2.075   8.793  0.9275 -0.8789  1.8395
 2540SOL     OW19081   2.737   2.561   3.886 -0.0269 -0.5479  0.0182
 2540SOL    HW119082   2.754   2.650   3.855 -0.4613 -0.4715  0.0007
 2540SOL    HW219083   2.725   2.496   3.816  0.4043 -1.4598  0.7957
 2541SOL     OW19084   1.240   2.263  16.777 -0.3673 -0.0027  0.1611
 2541SOL    HW119085   1.289   2.320  16.718 -1.7510  0.1093 -0.8831
 2541SOL    HW219086   1.284   2.266  16.862 -1.0594 -2.1979  0.6121
 2542SOL     OW19087   3.215   0.082  15.914  0.6541  0.4247  0.2167
 2542SOL    HW119088   3.131   0.104  15.873 -0.0298 -2.9341 -0.1796
 2542SOL    HW219089   3.229   4.717  15.888 -1.9714  0.0446  0.1123
 2543SOL     OW19090   1.348   1.747   5.898 -0.0485 -0.9374  0.1004
 2543SOL    HW119091   1.261   1.724   5.866 -0.6497  1.7416 -0.2291
 2543SOL    HW219092   1.333   1.807   5.971 -0.2635 -0.7403 -0.1032
 2544SOL     OW19093   0.366   0.376   7.881  0.2415 -0.1252  0.4845
 2544SOL    HW119094   0.289   0.426   7.906  1.3922  1.8784  0.1081
 2544SOL    HW219095   0.366   0.301   7.940  0.1988 -0.4201  0.1120
 2545SOL     OW19096   2.253   0.274  17.057 -0.3743  0.2321 -0.0771
 2545SOL    HW119097   2.237   0.285  16.964  0.1369  1.4288 -0.0228
 2545SOL    HW219098   2.328   0.215  17.059 -1.2204 -0.8096  1.6964
 2546SOL     OW19099   0.825   2.825   7.129  0.1066 -0.0025  0.3085
 2546SOL    HW119100   0.781   2.909   7.115  2.0736  1.0913  0.7889
 2546SOL    HW219101   0.805   2.799   7.219  0.7045  1.1858  0.7782
 2547SOL     OW19102   0.190   0.443  10.245 -0.2239  0.7176  0.3198
 2547SOL    HW119103   0.111   0.435  10.192 -1.2273 -0.4464  1.9962
 2547SOL    HW219104   0.242   0.507  10.196 -0.9929  1.2228  0.1579
 2548SOL     OW19105   3.521   1.332  13.060  0.0326 -0.3110 -0.8135
 2548SOL    HW119106   3.455   1.330  13.129  0.1047 -0.2677 -0.7432
 2548SOL    HW219107   3.528   1.236  13.054  0.4242 -0.4731  2.1456
 2549SOL     OW19108   1.634   0.355   5.950 -0.0945  0.1870 -0.4330
 2549SOL    HW119109   1.599   0.434   5.991 -0.9277 -0.0956 -0.5947
 2549SOL    HW219110   1.550   0.322   5.918 -0.7857 -0.9706  2.5755
 2550SOL     OW19111   1.591   2.758   2.804  0.5560 -0.3611  0.3160
 2550SOL    HW119112   1.675   2.798   2.779  1.2944 -2.4919 -0.6657
 2550SOL    HW219113   1.592   2.678   2.751 -1.4129  2.0535 -3.3744
 2551SOL     OW19114   0.573   3.669  15.803 -0.0913  0.5681 -0.0409
 2551SOL    HW119115   0.515   3.606  15.846 -1.0367  2.6528  1.7331
 2551SOL    HW219116   0.588   3.733  15.872 -0.6511  1.2696 -0.5630
 2552SOL     OW19117   2.940   1.810   6.849 -0.3208  0.2383  0.1899
 2552SOL    HW119118   2.848   1.785   6.850 -0.6087  1.5044  3.8806
 2552SOL    HW219119   2.940   1.870   6.923  0.0650 -0.2418  0.5790
 2553SOL     OW19120   1.058   3.960   6.864  0.2515 -0.3266 -0.6167
 2553SOL    HW119121   0.985   4.006   6.824 -0.8522  0.0420  1.8174
 2553SOL    HW219122   1.134   3.976   6.808  0.4675  1.3185  0.1439
 2554SOL     OW19123   3.255   4.516   1.962 -0.0312 -0.5430 -0.0153
 2554SOL    HW119124   3.182   4.505   1.901  0.6700  0.1715 -0.9945
 2554SOL    HW219125   3.326   4.507   1.899  0.2852  0.0444  0.2510
 2555SOL     OW19126   0.953   1.664   3.125  0.0506  0.5378 -0.7324
 2555SOL    HW119127   0.936   1.581   3.081  2.1303  0.1838 -0.8765
 2555SOL    HW219128   0.989   1.631   3.208 -1.1379 -1.5105 -1.0219
 2556SOL     OW19129   3.194   3.004   6.867  0.2014 -0.5403 -0.0925
 2556SOL    HW119130   3.203   2.966   6.954  1.4064 -0.9083 -0.3645
 2556SOL    HW219131   3.281   3.020   6.829 -1.1061  1.0246 -2.3997
 2557SOL     OW19132   2.915   3.972  16.800 -0.1317 -0.2421  0.4812
 2557SOL    HW119133   2.902   3.924  16.882 -2.5571 -0.1439  0.1603
 2557SOL    HW219134   2.824   3.997  16.785 -0.0066  0.8739  1.5667
 2558SOL     OW19135   0.579   0.592   1.211 -0.5391 -0.5065  0.1397
 2558SOL    HW119136   0.488   0.621   1.206 -0.2103  0.6327  0.9472
 2558SOL    HW219137   0.573   0.513   1.157 -0.4518 -1.4104  1.4641
 2559SOL     OW19138   4.220   0.919   3.147 -0.5250 -0.2711  0.2196
 2559SOL    HW119139   4.211   1.007   3.182 -2.3074 -0.1102 -0.6325
 2559SOL    HW219140   4.197   0.871   3.226  0.0526 -0.5754  0.2069
 2560SOL     OW19141   2.865   0.522   4.933 -0.2012 -0.8279  0.6282
 2560SOL    HW119142   2.841   0.571   5.011  1.0728  0.7252  0.0537
 2560SOL    HW219143   2.804   0.450   4.918  0.4641 -0.9947 -1.3408
 2561SOL     OW19144   1.933   2.836   9.152 -0.3244  0.0371  0.4253
 2561SOL    HW119145   1.999   2.782   9.109 -0.9293 -0.8283  0.5711
 2561SOL    HW219146   1.892   2.781   9.219  0.2116 -0.0050  0.7135
 2562SOL     OW19147   0.511   0.317   5.942 -0.2798  0.6382 -0.5674
 2562SOL    HW119148   0.587   0.315   5.884 -1.2033 -0.3171 -1.7410
 2562SOL    HW219149   0.542   0.383   6.004  0.8638 -0.2831 -0.1532
 2563SOL     OW19150   1.197   3.870   6.255  0.4463  0.5408 -0.7334
 2563SOL    HW119151   1.214   3.831   6.341 -1.9038  1.0480 -0.0145
 2563SOL    HW219152   1.115   3.825   6.235 -0.4339  1.3076  1.0975
 2564SOL     OW19153   2.222   4.528   9.495  0.2895 -0.4261  0.3327
 2564SOL    HW119154   2.309   4.567   9.487  0.1274  0.0621  0.9170
 2564SOL    HW219155   2.243   4.448   9.447  0.7956  1.4613 -2.5937
 2565SOL     OW19156   1.204   0.714   5.601  0.3743 -0.1874 -0.7073
 2565SOL    HW119157   1.233   0.665   5.523  0.1381  0.0403 -0.9364
 2565SOL    HW219158   1.247   0.663   5.670 -1.7958  0.1107  0.8476
 2566SOL     OW19159   4.106   0.390   4.613 -0.8417  0.3728 -0.0657
 2566SOL    HW119160   4.080   0.298   4.611 -1.0391  0.4412 -0.5868
 2566SOL    HW219161   4.043   0.432   4.554 -1.2688 -1.0997 -0.6387
 2567SOL     OW19162   0.677   4.305  13.264  0.0321 -0.3109 -0.1363
 2567SOL    HW119163   0.761   4.314  13.308  0.4172 -0.9248 -0.7497
 2567SOL    HW219164   0.683   4.212  13.243  0.2723 -0.2643 -0.2758
 2568SOL     OW19165   0.878   4.032  12.300  0.5537 -0.2298  0.0638
 2568SOL    HW119166   0.920   4.110  12.266 -2.0773  1.7607  1.3666
 2568SOL    HW219167   0.942   4.012  12.368 -1.0373  1.0858  1.9653
 2569SOL     OW19168   4.352   1.728   0.936 -0.8257  0.0079  0.1179
 2569SOL    HW119169   4.437   1.698   0.905 -1.6054 -4.0854  1.9755
 2569SOL    HW219170   4.367   1.762   1.024 -0.6166  3.0959 -1.1285
 2570SOL     OW19171   1.309   0.677   7.557 -0.4195  0.3929  0.3116
 2570SOL    HW119172   1.244   0.607   7.555 -0.1384  0.1462 -0.1088
 2570SOL    HW219173   1.389   0.637   7.590 -0.1461  0.3177 -0.4450
 2571SOL     OW19174   3.105   4.650   3.339 -0.2087  0.5518  1.1960
 2571SOL    HW119175   3.109   4.560   3.307  1.1881  0.3562  1.9290
 2571SOL    HW219176   3.191   4.658   3.380  1.1585  0.6944 -1.6772
 2572SOL     OW19177   4.222   2.692   7.778 -0.4847  0.4494 -0.0527
 2572SOL    HW119178   4.149   2.754   7.788  0.1996  1.0968  0.9516
 2572SOL    HW219179   4.293   2.748   7.747 -0.2264 -0.9010 -1.9481
 2573SOL     OW19180   2.927   1.400  14.291 -0.0905  0.0081 -0.0121
 2573SOL    HW119181   2.985   1.422  14.364  0.7251 -1.6518 -0.1537
 2573SOL    HW219182   2.927   1.305  14.282 -0.3871 -0.0291  0.4070
 2574SOL     OW19183   0.670   1.691  13.264  0.1951 -0.0075  0.2345
 2574SOL    HW119184   0.638   1.604  13.241 -1.4864  0.7759 -0.3902
 2574SOL    HW219185   0.737   1.655  13.323 -0.7383  0.9258  1.8677
 2575SOL     OW19186   3.884   0.646   2.096 -0.1672  0.4778  0.2492
 2575SOL    HW119187   3.949   0.591   2.053 -0.4274 -0.4008  0.9733
 2575SOL    HW219188   3.893   0.726   2.045  2.3736 -1.2940 -2.0801
 2576SOL     OW19189   2.644   0.025  15.267  0.3444 -0.6896  0.1496
 2576SOL    HW119190   2.717   0.012  15.206 -0.6633 -1.4408 -0.8982
 2576SOL    HW219191   2.600   4.666  15.259  0.0376 -0.5900  0.7492
 2577SOL     OW19192   2.008   0.311  17.168 -0.0020  0.0946  0.3042
 2577SOL    HW119193   2.002   0.405  17.152 -0.0751  0.0286 -0.0499
 2577SOL    HW219194   2.100   0.295  17.145 -0.2027  0.4964 -0.7685
 2578SOL     OW19195   2.763   4.196  10.423 -0.4037  0.3379  0.1108
 2578SOL    HW119196   2.776   4.103  10.441  0.2079  0.1344 -1.4449
 2578SOL    HW219197   2.676   4.185  10.385 -1.0969  0.6615  1.5802
 2579SOL     OW19198   0.523   0.806   4.144 -0.1198  0.5244  0.2282
 2579SOL    HW119199   0.463   0.872   4.178  0.4680  0.6350  1.0704
 2579SOL    HW219200   0.570   0.768   4.219  1.6998  1.0893 -0.6086
 2580SOL     OW19201   1.393   2.030  14.212  0.3808  0.6671  0.3366
 2580SOL    HW119202   1.441   2.105  14.245  1.9923 -0.3380  0.2985
 2580SOL    HW219203   1.440   2.012  14.131  1.6641 -2.0582  1.6809
 2581SOL     OW19204   3.180   1.166   8.951  0.0788  0.5454 -0.5111
 2581SOL    HW119205   3.247   1.210   9.004  1.5365 -2.3047  0.0188
 2581SOL    HW219206   3.223   1.095   8.903  0.0390  0.0009  0.2538
 2582SOL     OW19207   0.437   2.104   0.704 -0.0083 -0.3226 -0.4957
 2582SOL    HW119208   0.483   2.171   0.654 -1.8037  0.6751 -0.8037
 2582SOL    HW219209   0.432   2.032   0.641 -0.8065 -0.4742 -0.2569
 2583SOL     OW19210   3.197   2.365   2.504 -0.3606 -0.5843  0.5268
 2583SOL    HW119211   3.228   2.411   2.426  0.6684 -2.0202  0.0726
 2583SOL    HW219212   3.102   2.357   2.490 -0.0510  0.5363 -2.2160
 2584SOL     OW19213   4.709   2.256  16.149  0.2274  0.7333 -0.1238
 2584SOL    HW119214   0.035   2.231  16.072 -1.2886 -0.7483 -0.6744
 2584SOL    HW219215   0.059   2.258  16.207  0.0418  1.9757  0.0758
 2585SOL     OW19216   3.264   3.003  11.445 -0.6296  0.1247 -0.7072
 2585SOL    HW119217   3.262   3.060  11.368  1.7649 -0.0924 -0.9476
 2585SOL    HW219218   3.240   3.066  11.512 -0.5297  1.0821 -1.5721
 2586SOL     OW19219   1.859   4.278   4.727  0.4931  0.3667 -0.3265
 2586SOL    HW119220   1.895   4.334   4.796 -0.5864 -1.4100  1.6693
 2586SOL    HW219221   1.853   4.334   4.650 -1.2803  0.8745  0.1897
 2587SOL     OW19222   1.708   3.187   2.465 -0.5077 -0.4508 -0.0928
 2587SOL    HW119223   1.664   3.251   2.520  0.0691  0.0525 -0.2173
 2587SOL    HW219224   1.751   3.244   2.401 -2.2568  0.3405 -0.5664
 2588SOL     OW19225   0.276   1.424   7.802 -0.1568  0.0332  0.2234
 2588SOL    HW119226   0.214   1.429   7.875 -0.1896  1.2707  0.1123
 2588SOL    HW219227   0.297   1.332   7.788  0.7890  0.2485  0.2343
 2589SOL     OW19228   4.063   1.579   1.213  0.0457 -0.1569  0.3249
 2589SOL    HW119229   4.080   1.656   1.159 -2.0018  1.0274  1.3496
 2589SOL    HW219230   4.034   1.508   1.155 -0.4584  1.0147 -0.8468
 2590SOL     OW19231   2.636   4.570   3.794  0.2343 -0.2326 -0.1800
 2590SOL    HW119232   2.627   4.508   3.721  0.1662  0.2352 -0.5680
 2590SOL    HW219233   2.570   4.633   3.765  0.1079 -0.1824  0.2195
 2591SOL     OW19234   3.339   1.921   5.757  0.6866  0.1784  0.4059
 2591SOL    HW119235   3.412   1.885   5.806  0.0900 -3.1723 -1.1709
 2591SOL    HW219236   3.312   1.997   5.809  2.8800 -0.3235  2.2729
 2592SOL     OW19237   3.706   1.057   8.955 -0.5064  0.6386 -0.1676
 2592SOL    HW119238   3.787   1.014   8.926 -1.3811 -1.4774  0.5528
 2592SOL    HW219239   3.655   0.983   8.987  0.4127  0.4610  0.9212
 2593SOL     OW19240   4.063   0.958  10.003  0.0077 -0.4381 -0.3123
 2593SOL    HW119241   4.066   0.962   9.907 -0.3927 -0.1029 -0.3098
 2593SOL    HW219242   3.977   0.996  10.019  0.2880  0.6456 -1.3631
 2594SOL     OW19243   2.340   3.588   8.238 -0.4877 -0.7512  0.2356
 2594SOL    HW119244   2.348   3.604   8.332 -1.4073 -1.1769  0.3862
 2594SOL    HW219245   2.248   3.612   8.227 -0.7396 -0.6758  2.4667
 2595SOL     OW19246   2.457   2.491  11.849  0.5762  0.1635 -0.1012
 2595SOL    HW119247   2.546   2.527  11.847 -0.5578  3.0574  0.9440
 2595SOL    HW219248   2.460   2.433  11.925 -1.6347  0.5717  0.3035
 2596SOL     OW19249   3.358   0.651  10.520 -0.4825  0.0216 -0.2242
 2596SOL    HW119250   3.345   0.705  10.441 -0.6128  1.0961  0.5324
 2596SOL    HW219251   3.308   0.713  10.572 -0.4213 -0.1376  0.0204
 2597SOL     OW19252   1.757   2.928   0.812  0.6301  0.5453  0.2155
 2597SOL    HW119253   1.795   2.844   0.835 -0.0596 -0.0956 -1.0060
 2597SOL    HW219254   1.722   2.906   0.725 -1.7514  0.1863  1.2517
 2598SOL     OW19255   3.627   3.850   7.763 -0.3694 -0.6571  0.3745
 2598SOL    HW119256   3.673   3.797   7.828 -0.0114  1.9024  2.2135
 2598SOL    HW219257   3.537   3.830   7.789 -0.1173 -0.5857  1.2797
 2599SOL     OW19258   4.424   1.180   2.170  0.3918 -0.5714  0.2322
 2599SOL    HW119259   4.385   1.114   2.113  0.0118 -0.4352  0.3350
 2599SOL    HW219260   4.513   1.145   2.177 -0.8193 -3.5543  0.6975
 2600SOL     OW19261   4.688   3.252   2.707  0.0130 -0.0117 -0.1368
 2600SOL    HW119262   0.034   3.203   2.746 -0.1792  0.3214  0.6294
 2600SOL    HW219263   4.613   3.192   2.706 -0.6380  0.8216 -0.8462
 2601SOL     OW19264   4.153   3.373  10.877  0.3500 -0.5708  0.7126
 2601SOL    HW119265   4.158   3.293  10.824 -0.6531 -0.1850  0.0236
 2601SOL    HW219266   4.059   3.389  10.887  0.6423  0.3914  1.9921
 2602SOL     OW19267   4.008   4.012  15.779  0.2040  0.5783  0.2150
 2602SOL    HW119268   4.101   4.015  15.758  0.1608  1.3419  0.1390
 2602SOL    HW219269   4.010   4.041  15.870  0.7217 -1.0721  0.7245
 2603SOL     OW19270   4.192   0.284   6.398  0.0126 -0.3325  0.0916
 2603SOL    HW119271   4.124   0.300   6.332  0.4411  1.1749  0.0088
 2603SOL    HW219272   4.173   0.199   6.437 -0.1441  0.2401  1.2703
 2604SOL     OW19273   4.550   1.565   7.979  0.1366  0.0382  0.3570
 2604SOL    HW119274   4.493   1.512   7.923  1.3305 -2.0009  1.0523
 2604SOL    HW219275   4.491   1.595   8.048  0.4103  0.3759  0.4458
 2605SOL     OW19276   0.633   2.029   3.180 -0.5938  0.2875 -0.0156
 2605SOL    HW119277   0.585   2.017   3.098  0.3264  0.5729 -0.5931
 2605SOL    HW219278   0.580   1.968   3.232 -0.7013  1.0736  0.7829
 2606SOL     OW19279   1.334   2.938  16.559  0.2427  0.6069  0.3118
 2606SOL    HW119280   1.368   3.019  16.598 -2.0873  1.6174  0.2037
 2606SOL    HW219281   1.254   2.961  16.513 -0.4175 -0.8516  0.7253
 2607SOL     OW19282   4.223   2.391  15.099  0.0727  0.6437 -0.1168
 2607SOL    HW119283   4.298   2.423  15.048 -0.1771 -0.9974 -1.5228
 2607SOL    HW219284   4.245   2.418  15.188  3.1292  0.0940 -0.6842
 2608SOL     OW19285   0.860   1.327   7.351  0.1527  0.3058 -0.2465
 2608SOL    HW119286   0.929   1.353   7.290  1.5702  0.7091  1.5362
 2608SOL    HW219287   0.784   1.366   7.307  1.2777  1.4403 -1.2112
 2609SOL     OW19288   4.691   0.885  17.605  0.3837 -0.1001 -0.0625
 2609SOL    HW119289   4.675   0.884  17.510  3.1506  1.6596 -0.5424
 2609SOL    HW219290   4.685   0.791  17.619 -1.1025  0.0299  0.1201
 2610SOL     OW19291   2.936   2.822   3.908 -0.9702 -0.6245  0.6334
 2610SOL    HW119292   2.846   2.856   3.903 -0.5576  0.5215  1.0912
 2610SOL    HW219293   2.964   2.912   3.924 -0.2956 -0.8050  0.4485
 2611SOL     OW19294   0.967   0.411   0.566 -0.0758 -0.4753  0.3481
 2611SOL    HW119295   0.882   0.405   0.523 -0.4663  0.0295  1.0598
 2611SOL    HW219296   1.020   0.455   0.499  0.4525 -1.3159  0.2143
 2612SOL     OW19297   2.428   1.860   8.725  0.4029 -0.5546  0.3713
 2612SOL    HW119298   2.498   1.800   8.749  1.5262  0.1716 -1.0872
 2612SOL    HW219299   2.440   1.870   8.630  0.8311  0.1955  0.5093
 2613SOL     OW19300   2.474   0.237  15.266 -0.3973  0.3397 -0.3241
 2613SOL    HW119301   2.401   0.176  15.257  0.9710 -1.5785  1.7424
 2613SOL    HW219302   2.546   0.175  15.260 -0.8340 -0.4195  2.2855
 2614SOL     OW19303   4.188   3.804   2.357  0.1445  0.0587  0.4107
 2614SOL    HW119304   4.262   3.749   2.385  2.0211  1.8073 -1.1463
 2614SOL    HW219305   4.122   3.797   2.426 -0.0377 -0.1172  0.2200
 2615SOL     OW19306   0.116   0.186   2.386  0.2320  0.7175 -0.0609
 2615SOL    HW119307   0.199   0.159   2.426 -1.0238 -1.7161  0.8660
 2615SOL    HW219308   0.076   0.103   2.362 -0.8728  1.7268 -1.7466
 2616SOL     OW19309   4.527   3.775   2.797  0.1029  0.0828  0.0759
 2616SOL    HW119310   4.554   3.683   2.791  0.4677 -0.0461  3.7100
 2616SOL    HW219311   4.434   3.766   2.818  0.3555 -1.9823  0.3166
 2617SOL     OW19312   3.775   3.325   1.597  0.0072  0.2440 -0.1114
 2617SOL    HW119313   3.777   3.303   1.504  2.1120 -0.7482  0.1735
 2617SOL    HW219314   3.849   3.384   1.610 -1.2009  1.5386  0.8557
 2618SOL     OW19315   0.403   0.261   1.759 -0.5322 -0.4115  0.0717
 2618SOL    HW119316   0.410   0.320   1.834 -0.7683 -0.0148 -0.2194
 2618SOL    HW219317   0.385   0.328   1.694  0.5652  0.2550  0.4720
 2619SOL     OW19318   0.856   4.480   4.622  0.1356  0.4512  0.0143
 2619SOL    HW119319   0.770   4.507   4.590  0.1504  0.4301 -0.0436
 2619SOL    HW219320   0.842   4.388   4.646  0.1222  0.9306  1.8397
 2620SOL     OW19321   3.515   1.171   8.776 -0.4646 -0.0692 -0.1216
 2620SOL    HW119322   3.578   1.177   8.848 -0.1859 -0.3800 -0.3348
 2620SOL    HW219323   3.449   1.114   8.816 -2.1095  2.0475  0.1806
 2621SOL     OW19324   0.066   3.871   9.220 -0.1252  0.4622  0.2425
 2621SOL    HW119325   4.709   3.884   9.175  0.3338  0.8602 -0.4982
 2621SOL    HW219326   0.062   3.949   9.276 -0.4684  1.4373 -1.1207
 2622SOL     OW19327   2.666   0.308   8.688 -0.0520 -0.2228 -0.5974
 2622SOL    HW119328   2.594   0.289   8.627  0.3318 -0.9372 -0.8354
 2622SOL    HW219329   2.729   0.245   8.652  1.9304  1.6143 -0.3282
 2623SOL     OW19330   4.599   4.563  11.078 -0.2580  0.2921  0.6151
 2623SOL    HW119331   4.571   4.480  11.117  0.7345  0.5228  1.8334
 2623SOL    HW219332   4.571   4.619  11.150  1.0938  2.3262 -0.4511
 2624SOL     OW19333   0.715   1.443  14.958 -0.5075  0.3615  0.0655
 2624SOL    HW119334   0.761   1.523  14.980 -1.0631  1.1504 -1.6753
 2624SOL    HW219335   0.660   1.462  14.883 -0.4751  0.8638  0.1718
 2625SOL     OW19336   4.010   3.264   8.647  0.0198 -0.1470 -0.2644
 2625SOL    HW119337   3.947   3.247   8.717 -0.4068 -1.8120 -1.0440
 2625SOL    HW219338   4.041   3.176   8.623  0.3383  0.1437 -0.9284
 2626SOL     OW19339   1.448   0.562  13.434 -0.0276  0.0237  0.2702
 2626SOL    HW119340   1.420   0.474  13.411  0.1251  0.2433 -0.7236
 2626SOL    HW219341   1.465   0.550  13.528  0.2501 -1.4088  0.0231
 2627SOL     OW19342   2.511   1.302   1.917 -0.7573 -0.3130  0.4831
 2627SOL    HW119343   2.508   1.383   1.968 -2.1015  1.2712 -2.0889
 2627SOL    HW219344   2.549   1.336   1.836  1.1506  4.4112  3.3614
 2628SOL     OW19345   3.568   0.611   9.042 -0.1435  0.0379 -0.2076
 2628SOL    HW119346   3.648   0.619   9.094  1.8913  1.6178 -3.5970
 2628SOL    HW219347   3.505   0.666   9.089 -1.3246 -1.3381 -0.1945
 2629SOL     OW19348   3.300   3.935   5.773  0.0962  0.1138  0.1285
 2629SOL    HW119349   3.250   3.907   5.850  0.3085 -0.1769  0.1617
 2629SOL    HW219350   3.384   3.890   5.768 -0.6057 -1.0766 -0.9711
 2630SOL     OW19351   3.399   1.785   7.674 -0.2907  0.0262 -0.0142
 2630SOL    HW119352   3.413   1.787   7.768 -1.5705 -0.8287  0.1846
 2630SOL    HW219353   3.476   1.733   7.650  1.2381  2.2483 -0.0262
 2631SOL     OW19354   1.466   2.324   9.144  0.4568 -0.4801 -0.1033
 2631SOL    HW119355   1.457   2.237   9.107 -1.8852 -0.8405  1.2953
 2631SOL    HW219356   1.512   2.380   9.082 -2.0765  0.7368 -0.8644
 2632SOL     OW19357   4.338   2.047   1.007  0.5492 -0.0845 -0.2075
 2632SOL    HW119358   4.354   1.981   1.075 -1.2202  0.1387  0.4316
 2632SOL    HW219359   4.384   2.014   0.930  0.1077  0.0297 -0.5201
 2633SOL     OW19360   0.665   0.329   0.586 -0.1623  0.3747  0.7171
 2633SOL    HW119361   0.703   0.417   0.586 -0.7977  0.6473 -2.0054
 2633SOL    HW219362   0.630   0.335   0.498 -1.8452 -1.3971  1.2720
 2634SOL     OW19363   1.775   1.398   2.762 -1.1591  0.0299  0.1105
 2634SOL    HW119364   1.811   1.323   2.810 -0.6922  0.9913  1.2613
 2634SOL    HW219365   1.696   1.403   2.816 -1.6425  1.3472 -0.7139
 2635SOL     OW19366   4.289   2.535   6.433 -0.0628 -0.0125 -0.4005
 2635SOL    HW119367   4.292   2.625   6.467  0.2718 -0.3892  0.5768
 2635SOL    HW219368   4.337   2.497   6.506 -0.7563 -0.5665 -0.2369
 2636SOL     OW19369   2.633   0.212  16.979  0.1663 -0.6349  0.5891
 2636SOL    HW119370   2.588   0.149  16.924 -1.0447  0.2676  0.5224
 2636SOL    HW219371   2.635   0.161  17.060 -0.9451 -2.2394 -0.4020
 2637SOL     OW19372   3.491   4.602   1.011  0.2273  0.0380  0.1933
 2637SOL    HW119373   3.497   4.696   0.995  1.4492  0.0038  0.4559
 2637SOL    HW219374   3.411   4.570   0.969  1.1468 -1.2157 -0.5798
 2638SOL     OW19375   3.923   3.149   5.404  0.1615  0.0442  0.5296
 2638SOL    HW119376   3.974   3.078   5.364  0.2155  0.6651 -0.5008
 2638SOL    HW219377   3.963   3.228   5.371  1.8854 -1.0975 -0.0962
 2639SOL     OW19378   0.267   1.391   0.869 -0.3458 -0.5214 -0.0656
 2639SOL    HW119379   0.261   1.486   0.858 -1.5639 -0.7512 -1.3859
 2639SOL    HW219380   0.360   1.376   0.852 -0.6138 -0.5449 -1.4739
 2640SOL     OW19381   2.855   2.274   2.528 -0.0258 -0.1075  0.2643
 2640SOL    HW119382   2.910   2.203   2.494  1.4501  2.0870 -1.9320
 2640SOL    HW219383   2.769   2.234   2.515 -0.5414  0.7746  1.0129
 2641SOL     OW19384   1.669   1.344   6.907  0.2640  1.5009 -0.2872
 2641SOL    HW119385   1.588   1.392   6.922 -0.6267 -0.2874  0.6201
 2641SOL    HW219386   1.703   1.330   6.995  2.2292 -1.4961 -1.5316
 2642SOL     OW19387   1.766   2.485  11.738 -0.6765  0.1601  0.5188
 2642SOL    HW119388   1.762   2.450  11.649  0.5299  0.5632  0.3022
 2642SOL    HW219389   1.861   2.483  11.753 -0.9534 -0.3248  2.1863
 2643SOL     OW19390   0.658   0.468   2.458 -0.5966  0.2394  0.1720
 2643SOL    HW119391   0.748   0.458   2.488 -0.4117 -1.1390 -0.8507
 2643SOL    HW219392   0.621   0.420   2.531 -2.5817  0.4196 -0.7188
 2644SOL     OW19393   2.528   3.475   4.839  0.4821 -0.4840  0.2767
 2644SOL    HW119394   2.537   3.550   4.898  3.6368 -1.4737  1.0583
 2644SOL    HW219395   2.621   3.455   4.836  1.1044  2.2620  1.4540
 2645SOL     OW19396   0.558   0.334  14.740 -0.2044  0.2982 -0.1485
 2645SOL    HW119397   0.492   0.273  14.708 -2.4660  2.7532 -0.0922
 2645SOL    HW219398   0.553   0.406  14.678 -2.2230  0.0581 -0.2497
 2646SOL     OW19399   0.459   1.742  15.611 -0.2619  0.2675 -0.4371
 2646SOL    HW119400   0.489   1.652  15.620  1.7899  0.9960  0.0011
 2646SOL    HW219401   0.372   1.726  15.573 -0.5976  1.1974 -0.0638
 2647SOL     OW19402   1.706   0.197   7.187  0.2216  0.0793  0.5166
 2647SOL    HW119403   1.674   0.107   7.191 -3.3948  1.2585 -1.4859
 2647SOL    HW219404   1.797   0.187   7.213  0.9845  1.3112 -1.6658
 2648SOL     OW19405   1.816   2.306   7.115  0.1707  0.6691  0.0345
 2648SOL    HW119406   1.749   2.240   7.099 -0.0596  1.0978 -0.7808
 2648SOL    HW219407   1.889   2.256   7.151 -1.2978 -2.3093 -1.2164
 2649SOL     OW19408   2.816   0.605   5.582  0.3421 -0.2661 -0.0157
 2649SOL    HW119409   2.900   0.595   5.627  0.5803 -0.8267 -0.5796
 2649SOL    HW219410   2.801   0.516   5.548 -1.5520 -0.6372  1.8276
 2650SOL     OW19411   2.194   2.883   9.951  0.1088 -1.1394  0.2634
 2650SOL    HW119412   2.099   2.898   9.947  0.1718 -1.2086 -1.5513
 2650SOL    HW219413   2.204   2.865  10.044  0.3842  2.7283  1.0008
 2651SOL     OW19414   4.003   0.043   8.533  0.3279  0.1229 -1.0519
 2651SOL    HW119415   4.045   0.076   8.453 -1.4237 -0.5808 -2.2693
 2651SOL    HW219416   4.027   4.677   8.526  1.1990  0.5037 -3.1114
 2652SOL     OW19417   1.491   0.359   1.244 -0.3102 -0.0836 -0.3142
 2652SOL    HW119418   1.479   0.375   1.337  2.5929 -1.3149  0.2730
 2652SOL    HW219419   1.563   0.296   1.242  1.8402  2.3379  1.8212
 2653SOL     OW19420   2.028   1.061  14.788  0.3245 -0.1097  0.2226
 2653SOL    HW119421   1.977   1.022  14.718  0.6404  0.7130 -0.4727
 2653SOL    HW219422   1.968   1.133  14.810  0.6751 -0.1961  1.4580
 2654SOL     OW19423   1.291   2.463   6.714  0.0907 -0.2153  0.1939
 2654SOL    HW119424   1.386   2.455   6.723  0.3152  0.5287 -1.5529
 2654SOL    HW219425   1.277   2.402   6.642 -0.9739 -1.7445  1.7088
 2655SOL     OW19426   0.857   2.131   6.375 -0.8057 -0.1685 -0.2066
 2655SOL    HW119427   0.872   2.142   6.469 -2.1284 -0.5234  0.0449
 2655SOL    HW219428   0.845   2.222   6.349 -0.4579 -0.1486 -0.2903
 2656SOL     OW19429   3.781   2.954  10.517  0.4378 -0.0451  0.1142
 2656SOL    HW119430   3.708   2.892  10.511  0.6752 -0.3503  0.3605
 2656SOL    HW219431   3.849   2.897  10.481  0.5362  0.4185 -0.4319
 2657SOL     OW19432   0.618   1.988   2.885 -0.0225  0.2644 -0.1683
 2657SOL    HW119433   0.633   1.962   2.795  1.6760 -1.4042  0.6005
 2657SOL    HW219434   0.663   1.916   2.927  0.5909  1.3583  1.0576
 2658SOL     OW19435   3.373   3.980   6.436 -0.0285 -0.0135  0.1348
 2658SOL    HW119436   3.287   3.988   6.477  0.0400  1.2085  0.0186
 2658SOL    HW219437   3.352   4.002   6.345  0.1417 -1.9793 -0.3773
 2659SOL     OW19438   0.464   2.832   6.923  0.4896  0.5223  0.1973
 2659SOL    HW119439   0.423   2.772   6.862  0.2135  1.8308 -0.9102
 2659SOL    HW219440   0.397   2.899   6.936 -0.9003 -1.0425  0.9915
 2660SOL     OW19441   1.587   0.963   6.746  0.3168 -0.2528 -0.2505
 2660SOL    HW119442   1.592   0.871   6.772  1.2708  0.2392  1.2779
 2660SOL    HW219443   1.505   0.998   6.782 -0.5076  0.4150 -2.7863
 2661SOL     OW19444   0.795   1.974   7.312  0.0163  0.1512 -0.2895
 2661SOL    HW119445   0.763   2.063   7.321 -1.5326 -0.6710  2.2551
 2661SOL    HW219446   0.766   1.942   7.397  0.7516  1.2388  0.3608
 2662SOL     OW19447   4.234   4.683   7.731  0.6547  0.5094  0.1312
 2662SOL    HW119448   4.153   4.631   7.733  0.4294  1.0032  4.3502
 2662SOL    HW219449   4.271   4.664   7.645  0.1477 -0.1205  0.0506
 2663SOL     OW19450   4.414   2.465   6.185  0.7651 -0.4201  0.0413
 2663SOL    HW119451   4.378   2.429   6.266  1.2736  0.5402  0.6954
 2663SOL    HW219452   4.341   2.438   6.130  1.3628 -1.7295 -0.1035
 2664SOL     OW19453   1.476   0.831   2.036 -0.2732  0.0688 -0.4312
 2664SOL    HW119454   1.500   0.766   2.101 -2.0419 -0.0366  0.1174
 2664SOL    HW219455   1.406   0.881   2.077  0.8910  0.5211  0.9874
 2665SOL     OW19456   2.399   2.573   7.320  0.3013 -0.4468 -0.5927
 2665SOL    HW119457   2.438   2.491   7.291  1.8060  0.2919 -0.6393
 2665SOL    HW219458   2.447   2.595   7.399  0.8185 -0.7840 -0.8133
 2666SOL     OW19459   3.175   2.155  17.535 -0.0148 -0.3268 -1.1203
 2666SOL    HW119460   3.135   2.242  17.536  0.9742  0.1411 -1.4222
 2666SOL    HW219461   3.232   2.167  17.459  0.3040 -4.6746 -1.5712
 2667SOL     OW19462   2.313   0.592  10.188  0.0347 -0.3633 -0.4284
 2667SOL    HW119463   2.334   0.513  10.237 -1.4717  0.6502  1.8194
 2667SOL    HW219464   2.315   0.654  10.261 -1.1642  0.4413 -1.0735
 2668SOL     OW19465   4.674   4.016   8.275 -0.2995  0.2505  0.7436
 2668SOL    HW119466   4.637   3.947   8.221 -1.0064  1.6778 -0.6192
 2668SOL    HW219467   4.671   3.968   8.358  0.5677 -2.5657 -0.8900
 2669SOL     OW19468   3.893   2.160   3.399 -0.4072  0.1043  0.0384
 2669SOL    HW119469   3.870   2.252   3.390  0.1321  0.3532  1.1901
 2669SOL    HW219470   3.844   2.143   3.480 -0.0546 -4.1789 -0.6351
 2670SOL     OW19471   2.715   4.465   0.559 -0.5053 -0.0040  0.4257
 2670SOL    HW119472   2.638   4.409   0.547 -0.9539  0.7167 -0.1007
 2670SOL    HW219473   2.671   4.543   0.595  0.5661  1.1277 -0.7504
 2671SOL     OW19474   3.492   4.022   9.150 -0.2044  0.6440 -0.1726
 2671SOL    HW119475   3.516   4.052   9.062 -0.2645  0.5736 -0.2125
 2671SOL    HW219476   3.576   4.022   9.195 -0.4680  1.4686  0.3267
 2672SOL     OW19477   2.269   0.692   4.443 -0.2110  0.6870  0.1008
 2672SOL    HW119478   2.279   0.662   4.352  0.2422 -0.5282  0.5637
 2672SOL    HW219479   2.174   0.702   4.454 -0.1822  0.4761  0.5321
 2673SOL     OW19480   1.660   0.011   4.378  0.4626 -0.6018  0.7089
 2673SOL    HW119481   1.584   0.053   4.418  0.6153 -0.3594  0.7434
 2673SOL    HW219482   1.732   0.052   4.426  0.6949 -0.4798  0.2577
 2674SOL     OW19483   1.255   1.297  13.418 -0.1051  0.1520  0.0069
 2674SOL    HW119484   1.274   1.306  13.325  0.7148  0.3875  0.1944
 2674SOL    HW219485   1.172   1.249  13.413 -0.4106  0.8620 -1.5229
 2675SOL     OW19486   4.053   3.784   6.659 -0.2906 -0.6838 -0.0424
 2675SOL    HW119487   4.074   3.871   6.693  2.5076 -1.7850  1.0174
 2675SOL    HW219488   4.126   3.732   6.694  0.3070 -0.2766 -0.7051
 2676SOL     OW19489   4.260   3.810  15.732 -0.4580 -0.1069  0.2441
 2676SOL    HW119490   4.263   3.904  15.747  0.6488  0.1980 -1.8104
 2676SOL    HW219491   4.322   3.774  15.795 -2.7435 -0.3490  2.3251
 2677SOL     OW19492   1.469   1.445   4.827 -0.7193 -0.0420  0.0302
 2677SOL    HW119493   1.440   1.509   4.763  1.0671 -1.4815 -2.2076
 2677SOL    HW219494   1.402   1.455   4.895  0.5578 -0.6104  1.3670
 2678SOL     OW19495   4.591   4.435   4.674 -0.0023  0.1306 -0.0420
 2678SOL    HW119496   4.635   4.519   4.682 -0.0853  0.1023  0.7487
 2678SOL    HW219497   4.511   4.455   4.625  0.5068 -0.9115 -1.2739
 2679SOL     OW19498   4.611   4.039   6.438  0.4073 -0.0907  0.3531
 2679SOL    HW119499   4.573   4.047   6.351 -1.6954 -1.2100  1.1578
 2679SOL    HW219500   4.535   4.016   6.491  0.7669  0.2593  1.0249
 2680SOL     OW19501   1.058   4.601   9.050  0.2745  0.6044  0.2956
 2680SOL    HW119502   1.115   4.590   8.974  0.9777 -0.7601  1.0384
 2680SOL    HW219503   0.974   4.592   9.004 -0.8249 -0.0856  2.4163
 2681SOL     OW19504   0.236   1.977   6.720  0.1556  0.1510 -0.1693
 2681SOL    HW119505   0.264   1.929   6.642 -0.3377  1.8462 -1.4026
 2681SOL    HW219506   0.215   2.055   6.667  2.5669  0.8843 -0.0617
 2682SOL     OW19507   1.972   2.240   3.393  0.1510 -0.4129 -0.5858
 2682SOL    HW119508   1.968   2.283   3.479  1.8504 -0.7824 -0.3158
 2682SOL    HW219509   1.882   2.212   3.378  0.2883 -0.6290 -0.9972
 2683SOL     OW19510   0.322   3.374   7.066 -0.3005 -0.5904  0.1841
 2683SOL    HW119511   0.279   3.355   6.983 -0.4471  1.3685 -0.1705
 2683SOL    HW219512   0.247   3.367   7.126 -1.6430  0.7292 -1.3365
 2684SOL     OW19513   3.734   1.140   3.245  0.1683 -0.1615 -0.0631
 2684SOL    HW119514   3.809   1.084   3.266 -0.2201 -1.2970 -1.6177
 2684SOL    HW219515   3.739   1.133   3.149  1.5213 -0.4571  0.0256
 2685SOL     OW19516   2.143   0.824   3.488  0.3489  0.5783 -0.0666
 2685SOL    HW119517   2.213   0.890   3.492  1.1201 -0.2229 -0.2150
 2685SOL    HW219518   2.169   0.778   3.568 -2.7616 -0.1771  0.5050
 2686SOL     OW19519   3.613   0.497   5.129  0.3400  0.0584  0.0891
 2686SOL    HW119520   3.686   0.553   5.102  1.0067 -0.5252  0.6590
 2686SOL    HW219521   3.617   0.413   5.084 -0.7058  0.4614 -0.7557
 2687SOL     OW19522   0.572   0.353   8.511 -0.4354  0.3371  0.5121
 2687SOL    HW119523   0.494   0.373   8.459  0.1340 -2.3543 -1.3811
 2687SOL    HW219524   0.629   0.331   8.437  1.5283  2.7168  1.2949
 2688SOL     OW19525   0.639   4.003   8.872 -0.5082  0.4344  0.0346
 2688SOL    HW119526   0.607   3.984   8.783  0.3050  2.7842 -0.7782
 2688SOL    HW219527   0.571   4.014   8.938 -0.2006  1.1565  0.2303
 2689SOL     OW19528   1.135   0.792   8.003  0.1342 -0.6749  0.0902
 2689SOL    HW119529   1.112   0.829   8.088  0.0515 -1.8654  0.5775
 2689SOL    HW219530   1.226   0.822   8.002  0.0053 -0.2676  0.4668
 2690SOL     OW19531   3.845   0.763   9.475  0.0271  0.3466 -0.4838
 2690SOL    HW119532   3.793   0.703   9.422 -0.6108 -0.3070  0.8920
 2690SOL    HW219533   3.934   0.730   9.462 -0.7804 -0.9808 -2.7041
 2691SOL     OW19534   4.536   4.258   5.106  1.0622  0.0783  0.3307
 2691SOL    HW119535   4.606   4.291   5.163  1.5379  0.8728 -0.7269
 2691SOL    HW219536   4.560   4.168   5.084  1.1669  0.0546  0.5403
 2692SOL     OW19537   0.633   2.806   2.126 -0.2620 -0.0706  0.1345
 2692SOL    HW119538   0.664   2.717   2.115 -1.9723 -0.7585  0.9502
 2692SOL    HW219539   0.555   2.793   2.179 -1.2171 -0.3740 -1.3478
 2693SOL     OW19540   0.327   1.774  13.639  0.7343 -0.1680 -0.2495
 2693SOL    HW119541   0.348   1.867  13.644 -0.1857  0.1564 -2.5715
 2693SOL    HW219542   0.349   1.749  13.550  2.4309  1.5527 -0.2947
 2694SOL     OW19543   2.417   1.388  17.490  0.1962  0.3278  0.0450
 2694SOL    HW119544   2.406   1.300  17.525 -0.3189 -0.0737 -1.1268
 2694SOL    HW219545   2.491   1.423  17.540 -0.0745  0.5638  0.2826
 2695SOL     OW19546   1.096   0.815   4.528  0.4741 -0.3790  0.5390
 2695SOL    HW119547   1.185   0.784   4.510  0.8091  1.3000 -0.7045
 2695SOL    HW219548   1.125   0.894   4.573 -0.5058  1.2072 -1.5694
 2696SOL     OW19549   2.253   0.023   2.317  0.2901  0.4477  0.5824
 2696SOL    HW119550   2.337   4.708   2.339  0.0453  0.5176  1.6550
 2696SOL    HW219551   2.276   0.079   2.243  2.1458 -2.4391 -1.0008
 2697SOL     OW19552   4.522   2.811  12.889  0.0453  0.2486  0.2371
 2697SOL    HW119553   4.562   2.823  12.975  1.1107  1.2088 -0.3995
 2697SOL    HW219554   4.459   2.883  12.895  0.2516  0.2761  2.0554
 2698SOL     OW19555   2.985   4.218   6.126  0.3005  0.3949 -0.0660
 2698SOL    HW119556   2.927   4.283   6.087 -0.9547 -0.8112 -0.2239
 2698SOL    HW219557   2.999   4.260   6.210 -2.3828  0.5771  0.3069
 2699SOL     OW19558   2.133   1.590   8.012  0.2051  0.0149  0.3732
 2699SOL    HW119559   2.124   1.538   7.932 -0.4588 -0.3021  0.6496
 2699SOL    HW219560   2.085   1.538   8.078 -1.1279 -0.8666 -1.2960
 2700SOL     OW19561   4.102   1.339  14.035 -0.1512  0.3244  0.6253
 2700SOL    HW119562   4.006   1.335  14.041 -0.0121 -2.7384  0.5654
 2700SOL    HW219563   4.108   1.409  13.970 -1.2845 -0.2419 -0.0938
 2701SOL     OW19564   3.171   3.269   0.658  0.1469 -0.2964 -0.6212
 2701SOL    HW119565   3.240   3.223   0.610  0.9712 -0.3160  0.5764
 2701SOL    HW219566   3.163   3.355   0.617  1.9875  0.0443 -0.2599
 2702SOL     OW19567   1.263   1.109  17.153 -0.1947  0.1492  0.0513
 2702SOL    HW119568   1.345   1.132  17.197  0.1019 -0.2292 -0.3012
 2702SOL    HW219569   1.297   1.117  17.064 -2.6435  2.1879 -0.6850
 2703SOL     OW19570   2.409   4.537  13.647  0.0518 -0.2341  0.3167
 2703SOL    HW119571   2.446   4.463  13.696 -0.3280  0.8408  2.2368
 2703SOL    HW219572   2.333   4.558  13.702 -0.1402 -0.3061  0.0820
 2704SOL     OW19573   1.646   1.503   9.480  0.5761 -0.1526  0.3717
 2704SOL    HW119574   1.737   1.532   9.486  0.7566 -1.0607  2.1079
 2704SOL    HW219575   1.639   1.480   9.573 -0.8598 -4.5502 -0.8471
 2705SOL     OW19576   3.898   0.407   3.859  0.1442  0.5041  0.1144
 2705SOL    HW119577   3.979   0.366   3.831 -0.2246  0.6671 -1.1712
 2705SOL    HW219578   3.858   0.448   3.782 -0.1796 -1.0777 -0.5534
 2706SOL     OW19579   0.677   0.925  17.197 -0.3252  0.3170 -0.1318
 2706SOL    HW119580   0.728   0.945  17.119 -0.3778  0.9742  0.0002
 2706SOL    HW219581   0.692   1.001  17.253 -0.2589  0.1522  0.0748
 2707SOL     OW19582   4.490   0.904   8.087 -0.2976 -1.0481  0.0694
 2707SOL    HW119583   4.531   0.933   8.169  0.0953  0.1414 -0.5427
 2707SOL    HW219584   4.526   0.965   8.023 -3.2183  0.1441 -0.4558
 2708SOL     OW19585   4.173   1.915   1.437  0.0095  0.4271  0.0279
 2708SOL    HW119586   4.220   1.991   1.403 -0.8689  0.4474 -1.1384
 2708SOL    HW219587   4.082   1.942   1.426 -0.0196 -0.6400 -2.4807
 2709SOL     OW19588   1.377   2.526   4.445  0.1744  0.1430  0.2900
 2709SOL    HW119589   1.335   2.612   4.442  2.3809  1.1412 -2.6158
 2709SOL    HW219590   1.417   2.534   4.358 -0.2427 -3.9508 -0.2701
 2710SOL     OW19591   2.115   1.448   3.340  0.0165  0.4423 -0.4161
 2710SOL    HW119592   2.168   1.528   3.337 -1.1688  1.2187 -0.6645
 2710SOL    HW219593   2.138   1.408   3.256 -0.9687 -0.0905 -0.4275
 2711SOL     OW19594   3.512   2.049   7.611  0.0800 -0.2262  0.3509
 2711SOL    HW119595   3.485   1.964   7.577  1.8522 -1.3255  1.7060
 2711SOL    HW219596   3.445   2.067   7.676 -0.4912 -1.6275  0.1578
 2712SOL     OW19597   3.556   2.594   4.739  0.0123  0.2078 -0.0271
 2712SOL    HW119598   3.507   2.547   4.807  1.4356 -3.1743 -1.3215
 2712SOL    HW219599   3.646   2.567   4.758  0.3267  1.7229  0.6233
 2713SOL     OW19600   4.171   0.188   8.263 -0.4788 -0.2557  0.1065
 2713SOL    HW119601   4.087   0.169   8.220  1.8515 -1.0326 -4.0964
 2713SOL    HW219602   4.211   0.241   8.194  3.3535 -1.0477  1.7271
 2714SOL     OW19603   0.172   4.268   2.273  0.0093 -0.0300  0.1639
 2714SOL    HW119604   0.171   4.345   2.217 -1.2731  0.5258  0.9529
 2714SOL    HW219605   0.191   4.194   2.215 -0.4429 -0.1700  0.1951
 2715SOL     OW19606   0.129   0.839  15.775  0.7385 -0.2684 -0.1972
 2715SOL    HW119607   0.076   0.908  15.813  2.8776  2.1451 -1.6200
 2715SOL    HW219608   0.190   0.814  15.844  0.8935 -0.1974 -0.3099
 2716SOL     OW19609   2.851   0.103   8.687  0.4423  0.1751  0.1645
 2716SOL    HW119610   2.915   0.085   8.618  0.4098  1.1193 -0.1134
 2716SOL    HW219611   2.876   0.035   8.749 -2.2981 -0.2171  0.8589
 2717SOL     OW19612   1.034   0.088  10.506  0.0122 -0.1893  0.5393
 2717SOL    HW119613   1.086   0.166  10.485  0.2739 -0.2354  1.0089
 2717SOL    HW219614   1.106   0.041  10.548 -0.3648  0.3645  1.7977
 2718SOL     OW19615   4.078   3.622  15.652 -0.2699  0.1489 -0.5440
 2718SOL    HW119616   4.148   3.683  15.674 -0.1846  0.1979 -0.9567
 2718SOL    HW219617   4.119   3.540  15.681  0.1820 -0.4876 -2.9160
 2719SOL     OW19618   3.172   3.526   0.986 -0.1951 -0.2658  0.1938
 2719SOL    HW119619   3.113   3.596   1.014  1.7188  1.4987 -0.1926
 2719SOL    HW219620   3.230   3.520   1.062  0.6628  1.1991 -0.3491
 2720SOL     OW19621   1.337   3.507   4.159  0.2722  0.4353  0.3057
 2720SOL    HW119622   1.294   3.474   4.080  0.2436 -1.4704  1.0991
 2720SOL    HW219623   1.427   3.529   4.139  0.4912 -0.1770  0.5937
 2721SOL     OW19624   4.503   3.695   5.426 -0.0416  0.6666  0.4537
 2721SOL    HW119625   4.549   3.765   5.474 -0.0705  1.7205 -1.0493
 2721SOL    HW219626   4.419   3.739   5.407 -1.9350 -4.5190 -3.0190
 2722SOL     OW19627   3.486   3.176   6.242  0.1793 -0.7936 -0.3341
 2722SOL    HW119628   3.416   3.206   6.184 -1.0375  1.2558  2.1373
 2722SOL    HW219629   3.548   3.139   6.180 -1.8899 -0.3179 -2.6721
 2723SOL     OW19630   4.065   3.103   6.686  0.2932  0.4665 -0.0777
 2723SOL    HW119631   4.038   3.146   6.767 -2.4110 -1.1477 -0.1491
 2723SOL    HW219632   4.037   3.012   6.692  0.0574  0.5306 -0.2488
 2724SOL     OW19633   0.016   1.619   2.843  0.4960  0.1946  0.2330
 2724SOL    HW119634   0.006   1.564   2.765 -0.9360  1.0798 -0.1985
 2724SOL    HW219635   0.005   1.556   2.914 -1.7101 -0.9470 -1.1250
 2725SOL     OW19636   3.939   0.447   0.737  0.3560  0.2244  0.6151
 2725SOL    HW119637   3.847   0.464   0.714 -0.4109 -0.8970  2.8318
 2725SOL    HW219638   3.970   0.518   0.793  2.4125  1.5638 -2.2188
 2726SOL     OW19639   0.796   2.221   3.651 -0.4815 -0.0616  0.0755
 2726SOL    HW119640   0.783   2.163   3.576  0.3933 -0.4876  0.2519
 2726SOL    HW219641   0.729   2.283   3.621  0.4008  0.7628 -0.1818
 2727SOL     OW19642   2.168   4.498  13.769 -0.5207 -1.0911  0.1584
 2727SOL    HW119643   2.080   4.526  13.743 -0.2749 -1.1504 -0.7442
 2727SOL    HW219644   2.165   4.527  13.860 -1.7755 -1.4583  0.2377
 2728SOL     OW19645   1.321   3.670   6.705 -0.8837  0.2953 -0.0334
 2728SOL    HW119646   1.260   3.678   6.778 -3.2631 -3.1737 -1.6683
 2728SOL    HW219647   1.304   3.580   6.678 -2.4239  0.5675  0.0446
 2729SOL     OW19648   1.188   3.244   9.557  0.2267 -0.4156 -0.3795
 2729SOL    HW119649   1.245   3.167   9.545 -0.1043 -0.9417  1.3885
 2729SOL    HW219650   1.239   3.313   9.517 -0.8451  0.0283 -0.9793
 2730SOL     OW19651   3.157   2.412  17.492  0.8234  0.1475  0.3363
 2730SOL    HW119652   3.164   2.504  17.467  2.8151 -0.4090 -1.1420
 2730SOL    HW219653   3.229   2.375  17.442 -0.3767  0.8064 -1.8530
 2731SOL     OW19654   2.120   1.888   0.524 -0.6676 -0.5081 -0.6934
 2731SOL    HW119655   2.100   1.796   0.505 -0.0325 -0.6397 -0.7341
 2731SOL    HW219656   2.076   1.938   0.455  0.2306 -0.5200 -1.2772
 2732SOL     OW19657   0.453   1.680   0.432 -0.1523 -0.1489  0.0674
 2732SOL    HW119658   0.536   1.683   0.480 -1.9451  0.5629  3.1525
 2732SOL    HW219659   0.486   1.648   0.348 -1.0975  1.0385 -0.7624
 2733SOL     OW19660   1.980   1.557   6.235  0.4008  0.5794  0.1388
 2733SOL    HW119661   1.958   1.531   6.324  1.6614  0.9861  0.5750
 2733SOL    HW219662   2.065   1.601   6.240  1.2544 -1.1693  1.0391
 2734SOL     OW19663   0.433   1.966   3.599  0.2468  0.3008  0.0475
 2734SOL    HW119664   0.407   2.046   3.645  0.8417  0.6421 -0.2240
 2734SOL    HW219665   0.430   1.903   3.672 -0.0201 -0.9639 -1.0515
 2735SOL     OW19666   3.528   1.936   3.274  0.1419 -0.8604 -0.1346
 2735SOL    HW119667   3.604   1.915   3.219  0.4106 -0.5233  0.1102
 2735SOL    HW219668   3.557   1.885   3.350 -0.6318 -0.4997  0.3983
 2736SOL     OW19669   0.495   3.298   4.153  0.4499 -0.3012  0.0960
 2736SOL    HW119670   0.428   3.230   4.158  0.2593 -0.0951  0.3420
 2736SOL    HW219671   0.469   3.369   4.212  0.5549  0.7504 -1.1324
 2737SOL     OW19672   3.188   2.187  10.448  0.7410  0.5289 -0.5334
 2737SOL    HW119673   3.164   2.216  10.536 -1.5976 -0.8753 -0.7183
 2737SOL    HW219674   3.282   2.172  10.459  0.6824 -1.0120 -2.0728
 2738SOL     OW19675   2.116   1.583   4.524 -0.1193  0.1658 -0.0543
 2738SOL    HW119676   2.107   1.673   4.555 -2.1619  0.3001 -0.9800
 2738SOL    HW219677   2.210   1.572   4.512  0.1766  0.8179  1.6751
 2739SOL     OW19678   4.683   1.889   5.310 -0.6902 -0.1348 -0.6147
 2739SOL    HW119679   4.686   1.970   5.258  0.4984  0.7591  0.8412
 2739SOL    HW219680   0.045   1.900   5.345  1.0415 -1.0412 -4.5851
 2740SOL     OW19681   4.049   3.820   8.302  0.0519  0.4827  0.1218
 2740SOL    HW119682   4.100   3.900   8.312 -1.3238  1.7452 -3.2426
 2740SOL    HW219683   4.114   3.749   8.302  0.7580  1.1321 -0.3604
 2741SOL     OW19684   2.964   2.547   2.541  0.2888 -0.0205 -0.1207
 2741SOL    HW119685   2.954   2.577   2.450  0.4312  1.5450  0.3745
 2741SOL    HW219686   2.918   2.463   2.550  0.4356 -0.2341 -1.3196
 2742SOL     OW19687   4.575   4.608   7.648 -0.1274 -0.2636 -0.1514
 2742SOL    HW119688   4.599   4.635   7.559  0.0311  1.8464  0.5157
 2742SOL    HW219689   4.661   4.573   7.671  0.7435  1.3979 -0.8418
 2743SOL     OW19690   1.553   2.059  13.516  0.1390  0.1576  0.4153
 2743SOL    HW119691   1.517   2.015  13.439  1.2407 -1.9116  1.0708
 2743SOL    HW219692   1.639   2.080  13.480 -0.4515 -0.6414 -1.4433
 2744SOL     OW19693   1.645   2.581   6.224  0.2578  0.9512 -0.0669
 2744SOL    HW119694   1.673   2.668   6.196  0.1214  0.8506 -0.5208
 2744SOL    HW219695   1.625   2.606   6.314 -0.7173 -2.7092  0.7076
 2745SOL     OW19696   2.367   3.677   6.836 -0.1081  0.1202  0.4551
 2745SOL    HW119697   2.338   3.703   6.924 -2.9737  2.3796 -1.1645
 2745SOL    HW219698   2.432   3.746   6.830  2.0032 -2.0083 -1.0866
 2746SOL     OW19699   0.967   3.754   7.244  0.1371  0.4392 -0.1223
 2746SOL    HW119700   0.944   3.694   7.172 -2.7956  0.8602  0.4745
 2746SOL    HW219701   0.960   3.707   7.327  1.1697 -1.8093 -1.3081
 2747SOL     OW19702   1.322   4.614  11.772 -0.4298  0.1202  0.7743
 2747SOL    HW119703   1.338   4.523  11.797 -0.8157  0.2593  1.5189
 2747SOL    HW219704   1.357   4.666  11.844  1.0055  0.1508  0.0733
 2748SOL     OW19705   3.624   0.514   6.285 -1.0333 -0.2714  0.2926
 2748SOL    HW119706   3.674   0.551   6.212 -0.8251  0.4076  0.7833
 2748SOL    HW219707   3.601   0.424   6.263  0.1352 -0.1733 -1.3188
 2749SOL     OW19708   2.517   3.071   2.960 -0.5912  0.3806  0.2846
 2749SOL    HW119709   2.544   2.998   3.016 -2.1052  0.2421  0.8414
 2749SOL    HW219710   2.606   3.103   2.946 -0.7659 -0.0790 -1.7988
 2750SOL     OW19711   3.131   4.418   8.736  0.3517 -0.2887 -0.4827
 2750SOL    HW119712   3.038   4.401   8.719  0.1605  0.4072 -0.1145
 2750SOL    HW219713   3.177   4.334   8.736 -1.7013 -1.4293  1.7979
 2751SOL     OW19714   2.245   4.541   9.118 -0.3569 -0.2958  0.0707
 2751SOL    HW119715   2.201   4.585   9.191  0.0189  0.1649  0.0170
 2751SOL    HW219716   2.272   4.456   9.153  0.4713  0.5683  1.5620
 2752SOL     OW19717   1.602   3.626   2.248 -0.3074 -0.5562  0.5573
 2752SOL    HW119718   1.696   3.640   2.238 -0.4882  1.2145  1.4705
 2752SOL    HW219719   1.603   3.678   2.328  1.8696 -0.4685  0.4720
 2753SOL     OW19720   0.527   0.380   8.764 -0.3575 -0.2399  0.0702
 2753SOL    HW119721   0.618   0.357   8.784 -0.5324 -0.4491  0.6378
 2753SOL    HW219722   0.529   0.392   8.669 -0.0584 -0.2473  0.0751
 2754SOL     OW19723   4.027   4.335   8.051 -0.9540 -0.3233 -0.3759
 2754SOL    HW119724   4.028   4.427   8.024 -1.6272  0.2151  1.3685
 2754SOL    HW219725   3.990   4.288   7.976  0.0915 -0.7878 -0.5997
 2755SOL     OW19726   1.769   3.807   9.554  0.2501 -0.2264 -0.0924
 2755SOL    HW119727   1.711   3.848   9.491 -0.4159  1.1064  1.3857
 2755SOL    HW219728   1.702   3.781   9.617  1.3236 -0.4522  0.9552
 2756SOL     OW19729   1.413   4.544   8.211 -0.5894  0.0080 -0.4563
 2756SOL    HW119730   1.405   4.569   8.303 -1.1999 -1.5567 -0.0795
 2756SOL    HW219731   1.331   4.577   8.176  0.2206 -2.0557 -4.3467
 2757SOL     OW19732   2.363   4.545   6.176  0.3681  0.6111  0.1713
 2757SOL    HW119733   2.360   4.595   6.094  0.7903  0.5179  0.1003
 2757SOL    HW219734   2.378   4.613   6.242 -1.2103  0.1017  1.0496
 2758SOL     OW19735   1.322   1.858  11.581  0.4989  0.2921  0.1169
 2758SOL    HW119736   1.268   1.906  11.643 -0.1092 -1.2428  0.7849
 2758SOL    HW219737   1.254   1.803  11.540  1.1721 -0.5752  0.1582
 2759SOL     OW19738   4.656   3.957  13.348 -0.0262  0.3321  0.2734
 2759SOL    HW119739   4.587   4.003  13.301  0.7535  0.4363 -0.7623
 2759SOL    HW219740   4.616   3.879  13.387 -1.5189  1.0829  0.2477
 2760SOL     OW19741   1.034   0.386   4.988 -0.7417 -0.1745  0.6786
 2760SOL    HW119742   0.965   0.402   4.923  1.2525 -0.4432 -1.5206
 2760SOL    HW219743   1.092   0.460   4.969 -0.7351 -0.5602 -0.8140
 2761SOL     OW19744   0.434   3.834   7.271  0.3530  0.5385  0.0792
 2761SOL    HW119745   0.447   3.921   7.310  0.8217  0.4308  0.1569
 2761SOL    HW219746   0.487   3.783   7.332 -0.2672  0.1493  0.2940
 2762SOL     OW19747   1.783   2.361  11.488 -0.5687  0.4839  0.1334
 2762SOL    HW119748   1.831   2.294  11.438 -1.1965 -0.7370  1.1770
 2762SOL    HW219749   1.694   2.347  11.455 -0.3641 -0.5377 -0.0150
 2763SOL     OW19750   2.186   1.345   9.427 -0.0568 -0.4191 -0.3049
 2763SOL    HW119751   2.209   1.340   9.520 -3.3344  1.0110  0.5735
 2763SOL    HW219752   2.182   1.440   9.417 -1.2490 -0.3794  0.5338
 2764SOL     OW19753   4.290   3.757   3.516 -0.0660  0.0157 -0.4087
 2764SOL    HW119754   4.275   3.712   3.598 -2.4500  1.7878  0.1220
 2764SOL    HW219755   4.243   3.705   3.450 -1.6637  2.7572 -1.4215
 2765SOL     OW19756   4.668   0.314   5.046  0.1639  0.2488 -0.0770
 2765SOL    HW119757   4.613   0.305   4.968  1.4946 -1.6044 -0.8186
 2765SOL    HW219758   4.605   0.355   5.105 -0.0213 -0.7769  0.4324
 2766SOL     OW19759   2.539   3.840   8.193 -0.0708 -0.4771  0.1783
 2766SOL    HW119760   2.632   3.827   8.211 -0.0425  0.3726  0.6024
 2766SOL    HW219761   2.506   3.754   8.221 -1.0627 -0.1823 -0.0725
 2767SOL     OW19762   3.604   1.932   6.613 -0.4161  0.1827  0.5901
 2767SOL    HW119763   3.509   1.938   6.604 -0.4671  0.7877  1.6058
 2767SOL    HW219764   3.632   1.876   6.539  0.2366  2.0143 -0.5563
 2768SOL     OW19765   1.660   1.505  11.878 -0.1893 -0.0600  0.0876
 2768SOL    HW119766   1.693   1.590  11.849  2.2787 -0.9525  0.2410
 2768SOL    HW219767   1.583   1.513  11.823  1.2949  1.3159 -1.8064
 2769SOL     OW19768   4.563   3.289   8.130  0.3061  0.4708  0.0276
 2769SOL    HW119769   4.530   3.255   8.048  1.1638  0.2428 -0.2237
 2769SOL    HW219770   4.644   3.238   8.138 -0.8119 -1.2610  0.2142
 2770SOL     OW19771   2.456   2.859  16.406  0.1600 -0.2529  0.2555
 2770SOL    HW119772   2.490   2.948  16.395 -2.2596  0.8197  1.6337
 2770SOL    HW219773   2.361   2.866  16.409  0.2527  0.7547  0.9940
 2771SOL     OW19774   0.958   1.185   6.504  1.1728 -0.4443  0.2558
 2771SOL    HW119775   0.943   1.172   6.410 -0.0298 -1.0805  0.5388
 2771SOL    HW219776   1.022   1.256   6.494 -0.9094  1.3215 -0.4439
 2772SOL     OW19777   1.691   2.801   9.722  0.4402  0.2772 -0.0006
 2772SOL    HW119778   1.614   2.848   9.691  2.2828  2.2568 -1.5961
 2772SOL    HW219779   1.649   2.738   9.781 -0.7864 -0.4727 -1.7059
 2773SOL     OW19780   4.413   4.431   4.019 -0.4172  0.2844 -0.2096
 2773SOL    HW119781   4.433   4.419   4.112  3.1211  0.5833 -0.9131
 2773SOL    HW219782   4.320   4.410   4.019 -0.5238  0.7649  1.9043
 2774SOL     OW19783   3.787   4.636   9.142  0.2467  0.0757 -0.8938
 2774SOL    HW119784   3.873   4.652   9.104 -0.2103  0.7938 -1.6074
 2774SOL    HW219785   3.790   4.540   9.139 -0.6124  0.0060  0.5492
 2775SOL     OW19786   0.879   1.413   6.910 -0.0477 -0.0780  0.0859
 2775SOL    HW119787   0.961   1.427   6.958  0.4737 -0.6980 -0.6298
 2775SOL    HW219788   0.850   1.503   6.899 -0.4531 -0.3932 -1.4025
 2776SOL     OW19789   4.413   3.015   1.941 -0.3997  0.1028 -0.3086
 2776SOL    HW119790   4.486   3.078   1.939  0.2923 -0.7090 -0.5512
 2776SOL    HW219791   4.418   2.978   2.029 -1.1001  1.7847  0.4331
 2777SOL     OW19792   1.491   0.936   0.502  0.1350 -0.0040 -0.5016
 2777SOL    HW119793   1.532   0.974   0.425  1.1588  1.1511  0.6097
 2777SOL    HW219794   1.516   0.843   0.498  1.5988  0.4267 -1.2267
 2778SOL     OW19795   3.743   3.548  15.303  0.1841 -0.5834 -0.2404
 2778SOL    HW119796   3.814   3.486  15.285  4.3687  4.3705 -0.7757
 2778SOL    HW219797   3.793   3.610  15.357 -2.9634  1.9037 -0.2454
 2779SOL     OW19798   0.374   1.268  15.733  0.2502 -0.1486  0.1830
 2779SOL    HW119799   0.460   1.311  15.733 -0.1246  0.6248  2.3344
 2779SOL    HW219800   0.327   1.343  15.770  1.8452  0.5062  0.8917
 2780SOL     OW19801   3.832   2.778   5.628  0.0103 -0.0861 -0.0621
 2780SOL    HW119802   3.902   2.842   5.642  0.3147 -0.5822  0.7104
 2780SOL    HW219803   3.851   2.740   5.542 -1.9981  0.4202 -0.7173
 2781SOL     OW19804   1.216   0.854   2.432 -0.2733  0.3642  0.3077
 2781SOL    HW119805   1.273   0.780   2.411 -0.3970  1.4330 -3.7359
 2781SOL    HW219806   1.215   0.844   2.527  2.4104 -1.4074  0.1539
 2782SOL     OW19807   4.354   0.700   5.709 -0.4215  0.4798  0.0578
 2782SOL    HW119808   4.424   0.663   5.763  0.1288  0.0233 -0.9714
 2782SOL    HW219809   4.343   0.619   5.659 -0.7942 -1.1901  2.8267
 2783SOL     OW19810   0.615   3.510   4.637 -0.1531 -0.5974 -0.4612
 2783SOL    HW119811   0.688   3.544   4.584 -0.6993  0.2657 -0.6566
 2783SOL    HW219812   0.667   3.453   4.694  0.5269  0.9627  0.4740
 2784SOL     OW19813   2.308   2.938   7.176 -0.4233 -0.4728 -0.1567
 2784SOL    HW119814   2.222   2.958   7.139 -1.3227 -0.5466  1.8846
 2784SOL    HW219815   2.343   2.881   7.108  0.9158  0.9932 -0.6890
 2785SOL     OW19816   1.821   3.430   6.033 -0.7673 -0.0962  0.1582
 2785SOL    HW119817   1.753   3.457   6.094 -0.5241  2.5955 -0.7557
 2785SOL    HW219818   1.819   3.336   6.051  0.7942 -0.1568  0.0516
 2786SOL     OW19819   1.530   0.668   3.689  0.0432  0.5611  0.2153
 2786SOL    HW119820   1.492   0.743   3.735 -0.9200 -0.3486  0.9028
 2786SOL    HW219821   1.563   0.700   3.605  2.2142 -2.0589  0.0855
 2787SOL     OW19822   4.615   1.095  11.873  0.2651 -0.1971  0.2544
 2787SOL    HW119823   4.524   1.094  11.844  0.5090 -4.2660 -0.2886
 2787SOL    HW219824   4.651   1.013  11.842  0.5303 -0.9091  2.4065
 2788SOL     OW19825   0.814   2.897   4.641  0.8932 -0.3308  0.1748
 2788SOL    HW119826   0.879   2.966   4.626  0.6735 -0.3358 -0.8014
 2788SOL    HW219827   0.797   2.894   4.735 -3.1734 -0.0981 -0.5735
 2789SOL     OW19828   0.233   3.080   8.487  0.0672 -0.3417  0.2416
 2789SOL    HW119829   0.154   3.030   8.466  1.9089 -2.2205 -2.1058
 2789SOL    HW219830   0.199   3.132   8.560 -0.4599 -0.5682  0.1603
 2790SOL     OW19831   0.142   1.427   2.308 -0.0608  0.1103  0.5719
 2790SOL    HW119832   0.085   1.478   2.250  1.4601  0.2325 -0.8248
 2790SOL    HW219833   0.170   1.500   2.363 -0.6655  0.7452  0.0370
 2791SOL     OW19834   2.984   3.384  12.992 -0.4513 -0.3602  0.2797
 2791SOL    HW119835   2.986   3.379  12.896 -0.2761  1.2832  0.2092
 2791SOL    HW219836   2.950   3.473  12.994  1.4722  0.3274  1.5894
 2792SOL     OW19837   0.426   0.390   6.328  0.0410  0.4290  0.4534
 2792SOL    HW119838   0.466   0.477   6.334  0.9950  0.0646 -0.5697
 2792SOL    HW219839   0.469   0.336   6.395 -0.5118  3.0490  2.9296
 2793SOL     OW19840   1.542   1.079  17.702 -0.2634 -0.3785  0.3691
 2793SOL    HW119841   1.465   1.126   0.026 -0.5082  0.0054 -0.9318
 2793SOL    HW219842   1.548   1.027   0.077  1.3163 -2.0699 -0.8281
 2794SOL     OW19843   0.955   1.371   5.884  0.4224 -0.3735  0.0092
 2794SOL    HW119844   0.979   1.297   5.940 -1.7849 -1.1369 -0.0722
 2794SOL    HW219845   0.921   1.326   5.807 -0.4462  0.5184 -0.1252
 2795SOL     OW19846   1.057   1.504   7.183 -0.3001  0.3549 -0.2875
 2795SOL    HW119847   1.113   1.562   7.131  0.1841 -1.0701 -1.3609
 2795SOL    HW219848   0.983   1.563   7.199 -1.4179 -0.5193 -2.2147
 2796SOL     OW19849   0.403   3.119   7.878 -0.4796 -0.4798 -0.0693
 2796SOL    HW119850   0.391   3.112   7.972 -0.0374 -0.3641 -0.0042
 2796SOL    HW219851   0.448   3.201   7.859  1.1744 -1.0813  1.3851
 2797SOL     OW19852   3.900   0.130   8.912 -0.0655  0.2400  0.2001
 2797SOL    HW119853   3.934   0.219   8.922  1.4206 -0.2633 -0.4816
 2797SOL    HW219854   3.816   0.139   8.957 -1.3775  2.4200 -2.6612
 2798SOL     OW19855   1.121   2.983   6.360 -0.2464 -0.4299  0.0232
 2798SOL    HW119856   1.036   2.997   6.401  0.6215  0.3081  1.5683
 2798SOL    HW219857   1.180   2.940   6.422  1.0721  4.0057  1.8727
 2799SOL     OW19858   0.177   1.723  16.856  0.1877  0.3088  0.1782
 2799SOL    HW119859   0.252   1.693  16.908 -2.3607 -2.4277  2.2236
 2799SOL    HW219860   0.204   1.716  16.764 -0.7639 -1.2450  0.0269
 2800SOL     OW19861   2.803   0.744   4.123  0.5623 -0.4488 -0.1480
 2800SOL    HW119862   2.880   0.795   4.097  0.4566  1.1261  2.6273
 2800SOL    HW219863   2.819   0.662   4.076 -3.5338  0.2461 -2.7062
 2801SOL     OW19864   2.087   0.169  16.529  0.4252  0.0822  0.4467
 2801SOL    HW119865   2.087   0.098  16.465  2.7740  0.3137  0.1668
 2801SOL    HW219866   2.108   0.250  16.482 -1.5776 -0.9353 -2.1528
 2802SOL     OW19867   2.404   0.112   6.214  0.1111  0.3154 -0.5738
 2802SOL    HW119868   2.462   0.111   6.290 -0.5591  1.2667 -0.0474
 2802SOL    HW219869   2.322   0.136   6.258  0.0739  0.9972 -1.0055
 2803SOL     OW19870   1.980   3.954   8.122  0.6638 -0.4837 -0.0570
 2803SOL    HW119871   1.951   3.876   8.170  0.2480  1.0595  2.1867
 2803SOL    HW219872   1.906   4.011   8.141  0.7526 -0.6066  0.6541
 2804SOL     OW19873   4.333   2.693   9.353 -0.0405 -0.0653  0.2790
 2804SOL    HW119874   4.351   2.770   9.407  1.6431  0.7822 -1.4856
 2804SOL    HW219875   4.406   2.640   9.386 -0.9512 -1.9041 -0.6676
 2805SOL     OW19876   2.076   1.465  10.922  0.0116  0.0762  0.4394
 2805SOL    HW119877   2.091   1.504  11.008  0.9082 -0.5181  0.5647
 2805SOL    HW219878   2.158   1.481  10.875  1.3518  1.6192  3.3060
 2806SOL     OW19879   3.644   1.807   5.794 -0.7077 -0.2733 -0.2829
 2806SOL    HW119880   3.739   1.808   5.810 -0.4456  2.2598 -2.0039
 2806SOL    HW219881   3.616   1.885   5.841 -0.1238  0.9653 -2.0116
 2807SOL     OW19882   2.510   1.242   7.583  0.8736 -0.4146 -0.0467
 2807SOL    HW119883   2.487   1.324   7.627 -1.1774 -1.7617  1.3821
 2807SOL    HW219884   2.541   1.188   7.656  0.4678  0.0669  0.4866
 2808SOL     OW19885   2.144   3.825  16.188 -0.2013 -0.4710  0.2395
 2808SOL    HW119886   2.068   3.815  16.247 -0.0087 -0.0122  0.5670
 2808SOL    HW219887   2.202   3.885  16.235  0.2657 -0.7007 -0.0503
 2809SOL     OW19888   3.710   3.583   2.564  0.4425 -0.5724 -0.1784
 2809SOL    HW119889   3.781   3.527   2.534  0.1182 -1.6952  1.1345
 2809SOL    HW219890   3.656   3.514   2.603  0.0889 -0.0340  0.2916
 2810SOL     OW19891   3.672   4.167   5.077 -0.4660 -0.2382  0.1132
 2810SOL    HW119892   3.742   4.131   5.024 -0.2088 -1.3849  1.2390
 2810SOL    HW219893   3.601   4.105   5.059  0.4763 -1.0463 -0.7817
 2811SOL     OW19894   1.463   2.291  14.149  0.3051 -0.1885  0.4652
 2811SOL    HW119895   1.380   2.310  14.105  0.7500  2.1343  0.5878
 2811SOL    HW219896   1.523   2.330  14.085  0.2940  1.0402  1.1920
 2812SOL     OW19897   4.664   4.006   5.741 -0.2795  0.3440 -0.2927
 2812SOL    HW119898   0.017   3.955   5.759  0.3789  1.1337 -0.9866
 2812SOL    HW219899   4.618   4.002   5.825  1.0969  1.9278  0.5217
 2813SOL     OW19900   1.348   2.665   1.798  0.6389  0.3690  0.1870
 2813SOL    HW119901   1.368   2.706   1.882 -1.5538  0.0724  0.8352
 2813SOL    HW219902   1.426   2.610   1.793 -1.5710 -2.7144  0.2888
 2814SOL     OW19903   3.554   0.274   5.974  0.4684  0.1220 -0.2182
 2814SOL    HW119904   3.472   0.317   5.997  0.1518 -0.1123 -0.9018
 2814SOL    HW219905   3.543   0.257   5.880  0.0159  0.4288 -0.2183
 2815SOL     OW19906   0.171   2.633  12.812 -0.3126 -0.1913  0.1387
 2815SOL    HW119907   0.224   2.645  12.890 -3.2073  0.5742  1.9720
 2815SOL    HW219908   0.214   2.554  12.778 -1.2663 -0.4953 -0.3575
 2816SOL     OW19909   1.718   2.835   6.119 -0.4862 -0.2839 -0.3271
 2816SOL    HW119910   1.659   2.894   6.167 -0.0072 -1.3202  1.5630
 2816SOL    HW219911   1.755   2.894   6.054  1.1131 -0.2749  0.5925
 2817SOL     OW19912   2.768   4.168  13.955 -0.1615 -0.2876 -0.0163
 2817SOL    HW119913   2.719   4.157  14.036 -3.6123  0.7008 -1.9468
 2817SOL    HW219914   2.779   4.263  13.952 -1.0686 -0.2042 -0.4721
 2818SOL     OW19915   3.684   2.323   2.047  0.4150 -0.0573  0.0314
 2818SOL    HW119916   3.626   2.376   2.101 -0.7182  0.2799 -1.5159
 2818SOL    HW219917   3.720   2.261   2.110  1.5613  3.2871  2.6436
 2819SOL     OW19918   3.670   2.879   8.433 -0.2136 -0.4232 -0.2664
 2819SOL    HW119919   3.647   2.928   8.512 -0.1281 -1.6688  0.5232
 2819SOL    HW219920   3.759   2.912   8.418 -0.2834  0.3234  0.9313
 2820SOL     OW19921   3.364   3.072  15.067 -0.7782 -0.2455  0.0003
 2820SOL    HW119922   3.441   3.015  15.063 -1.1177 -0.7789  1.1297
 2820SOL    HW219923   3.303   3.037  15.002 -0.9169 -1.2990  0.6867
 2821SOL     OW19924   2.155   3.318   5.838 -0.0695 -0.2056 -0.1304
 2821SOL    HW119925   2.184   3.273   5.759 -2.7871  0.6431 -1.5861
 2821SOL    HW219926   2.060   3.315   5.833 -0.1719  4.0531 -1.2993
 2822SOL     OW19927   3.322   4.311   8.965 -0.6546 -0.0915  0.4005
 2822SOL    HW119928   3.333   4.266   8.882  2.0689  1.8619 -0.3021
 2822SOL    HW219929   3.250   4.262   9.006 -1.1824  0.1973 -0.1696
 2823SOL     OW19930   4.634   4.601   6.627 -0.3604  0.2956 -0.5331
 2823SOL    HW119931   4.630   4.506   6.621  1.3223 -0.0059  3.1133
 2823SOL    HW219932   4.667   4.626   6.541  0.8364 -0.2984 -0.2430
 2824SOL     OW19933   3.155   3.463   8.129 -1.0644 -0.4861  0.0392
 2824SOL    HW119934   3.156   3.400   8.056  1.0379 -0.4612  0.0293
 2824SOL    HW219935   3.250   3.472   8.140 -1.2955  1.7238  0.2927
 2825SOL     OW19936   0.172   2.408   7.052  0.4342  0.0282  0.1292
 2825SOL    HW119937   0.267   2.402   7.059  0.3032 -0.8715  1.1249
 2825SOL    HW219938   0.152   2.374   6.965  0.5264  0.3443 -0.0143
 2826SOL     OW19939   3.391   3.132   7.359  0.0447 -0.1106 -0.4668
 2826SOL    HW119940   3.338   3.210   7.375  0.6029  0.2219 -0.2504
 2826SOL    HW219941   3.479   3.166   7.374  0.0622 -0.1210 -0.5464
 2827SOL     OW19942   3.743   2.301  16.823 -0.0166  0.0328  0.5490
 2827SOL    HW119943   3.747   2.396  16.820  2.2314 -0.0975 -0.5480
 2827SOL    HW219944   3.825   2.285  16.776 -1.4666 -1.8963 -1.3905
 2828SOL     OW19945   3.950   1.193   5.610 -0.1040  0.1518  0.7474
 2828SOL    HW119946   3.882   1.151   5.662 -1.4786  0.2999 -0.9213
 2828SOL    HW219947   4.016   1.125   5.600 -1.5733 -1.3860  1.5744
 2829SOL     OW19948   2.460   3.440  16.046 -0.1208  0.0826 -0.0789
 2829SOL    HW119949   2.418   3.378  16.104 -2.5562  1.3298 -0.5163
 2829SOL    HW219950   2.489   3.493  16.120  0.2853  1.7903 -1.4477
 2830SOL     OW19951   4.114   0.557   8.015  0.2569  0.8561  0.2693
 2830SOL    HW119952   4.177   0.630   8.012 -0.3846  1.4576  1.3572
 2830SOL    HW219953   4.033   0.604   7.997 -0.2341 -0.5428 -1.1010
 2831SOL     OW19954   0.250   3.489   8.764  0.0621  0.5457  0.3658
 2831SOL    HW119955   0.285   3.565   8.810 -0.3566  1.3860 -0.6928
 2831SOL    HW219956   0.282   3.420   8.823 -0.0177  0.1550 -0.0441
 2832SOL     OW19957   4.012   3.878  10.799  0.1292 -0.1707  0.2343
 2832SOL    HW119958   4.073   3.824  10.850  1.7276  0.9136 -0.5163
 2832SOL    HW219959   3.942   3.905  10.858  1.7422  0.7469  1.7379
 2833SOL     OW19960   2.778   4.562   6.707  0.2661 -0.4205 -0.1359
 2833SOL    HW119961   2.694   4.598   6.681  0.7682  1.3715  0.7227
 2833SOL    HW219962   2.752   4.471   6.722  0.1812 -0.3697  0.0122
 2834SOL     OW19963   1.325   2.308   3.733 -0.2846 -0.1869 -0.2305
 2834SOL    HW119964   1.268   2.248   3.685  1.1702  0.4898 -2.8113
 2834SOL    HW219965   1.263   2.374   3.765  0.2364  0.2503 -0.1246
 2835SOL     OW19966   2.276   1.569   4.239 -0.0884  0.2708 -0.0448
 2835SOL    HW119967   2.301   1.540   4.327  4.2146  1.8174 -0.7496
 2835SOL    HW219968   2.318   1.504   4.183  1.6075 -1.2338  2.9428
 2836SOL     OW19969   1.558   4.176   3.693 -0.1992  0.2100 -0.2444
 2836SOL    HW119970   1.627   4.140   3.748  0.3276  2.9596  0.8611
 2836SOL    HW219971   1.509   4.098   3.664 -1.7855  1.2830 -0.4687
 2837SOL     OW19972   3.124   1.266  15.316 -0.5471  0.4634 -0.1204
 2837SOL    HW119973   3.053   1.324  15.290  0.4581  1.2024 -1.2149
 2837SOL    HW219974   3.186   1.328  15.353 -0.8104  1.1247 -0.7920
 2838SOL     OW19975   1.954   3.123   3.821 -0.2081 -0.6934  0.9502
 2838SOL    HW119976   1.966   3.079   3.906 -1.4136  0.7579  1.8780
 2838SOL    HW219977   1.862   3.149   3.819 -0.6885 -2.4830 -0.1116
 2839SOL     OW19978   1.645   3.762  13.164  0.3336  0.5706  0.1467
 2839SOL    HW119979   1.575   3.731  13.222  0.4679 -3.0589 -1.6946
 2839SOL    HW219980   1.713   3.697  13.179 -0.7517 -0.6979 -0.3796
 2840SOL     OW19981   0.201   1.410  17.373 -0.4116  0.1171 -0.3798
 2840SOL    HW119982   0.179   1.344  17.438 -1.4925 -0.4081 -1.2874
 2840SOL    HW219983   0.253   1.465  17.431  0.7774  0.1714 -1.4822
 2841SOL     OW19984   4.519   0.512   5.210 -0.1931 -0.4491  0.4149
 2841SOL    HW119985   4.436   0.464   5.205  0.1443 -1.3364  3.8361
 2841SOL    HW219986   4.534   0.550   5.296  1.0874  0.5009 -0.2295
 2842SOL     OW19987   0.196   1.249   4.789  0.7382 -0.1477  0.3902
 2842SOL    HW119988   0.288   1.225   4.780  1.3046  2.0572  0.3128
 2842SOL    HW219989   0.187   1.244   4.884  0.1985 -0.6865  0.3155
 2843SOL     OW19990   3.296   4.197   8.713  0.6773 -0.4085 -0.7479
 2843SOL    HW119991   3.348   4.187   8.634 -0.1917  0.5015 -1.4285
 2843SOL    HW219992   3.220   4.141   8.698  0.4014 -0.3897  0.5428
 2844SOL     OW19993   4.347   2.392   2.714  0.0985 -0.2008 -0.0127
 2844SOL    HW119994   4.309   2.306   2.735 -0.1872 -0.1886 -0.4729
 2844SOL    HW219995   4.414   2.362   2.653  0.0887  1.0357 -0.6192
 2845SOL     OW19996   2.452   4.419   3.366 -0.5902 -1.0078  0.6123
 2845SOL    HW119997   2.427   4.512   3.367  1.8111 -0.4155  3.7690
 2845SOL    HW219998   2.419   4.392   3.280 -0.1681 -0.0284  0.1396
 2846SOL     OW19999   2.031   0.259  13.778  0.3489 -0.1133 -0.0689
 2846SOL    HW120000   2.058   0.277  13.688  0.3339 -0.6082 -0.1690
 2846SOL    HW220001   2.037   0.344  13.821 -1.4103  1.4910 -3.0022
 2847SOL     OW20002   4.287   4.453  11.582  0.6225  0.4807 -0.0735
 2847SOL    HW120003   4.367   4.403  11.588  0.1678 -0.1327  0.8958
 2847SOL    HW220004   4.311   4.541  11.551  1.0254  0.6939  0.8549
 2848SOL     OW20005   2.025   2.377   1.525  0.4384  0.3645 -1.2939
 2848SOL    HW120006   2.017   2.282   1.535  1.8902 -0.0013 -3.5086
 2848SOL    HW220007   2.089   2.388   1.454  2.6131  0.1275  0.6464
 2849SOL     OW20008   3.205   2.752   3.180  0.2097  0.3157 -0.7769
 2849SOL    HW120009   3.171   2.712   3.100  0.7389 -0.7987 -0.4502
 2849SOL    HW220010   3.174   2.841   3.164  1.4340  0.7062 -0.9642
 2850SOL     OW20011   2.276   0.234   2.155  1.1242  0.4546 -0.2693
 2850SOL    HW120012   2.363   0.268   2.177  0.9490  0.7622 -0.0464
 2850SOL    HW220013   2.268   0.249   2.061 -0.2609 -2.5858 -0.6442
 2851SOL     OW20014   4.661   4.692  13.841  0.4126  0.3550 -0.2399
 2851SOL    HW120015   4.604   4.642  13.899 -2.6343  0.8004 -2.8121
 2851SOL    HW220016   4.721   0.006  13.904 -0.1951  0.4712  0.2636
 2852SOL     OW20017   4.007   0.289   9.801 -0.5461  0.1731 -0.1750
 2852SOL    HW120018   3.950   0.360   9.832 -0.3995  0.1825  0.0722
 2852SOL    HW220019   3.984   0.275   9.709 -0.7761  1.7986 -0.3705
 2853SOL     OW20020   4.696   1.187   8.557 -0.4362  0.2339 -0.0067
 2853SOL    HW120021   0.035   1.129   8.518  0.3636  0.1197  1.5295
 2853SOL    HW220022   4.614   1.137   8.562  1.1830 -2.7067 -3.1809
 2854SOL     OW20023   1.424   0.254   0.753 -0.4846  0.0996  0.4218
 2854SOL    HW120024   1.385   0.167   0.752 -3.2859  1.3333  3.3452
 2854SOL    HW220025   1.407   0.278   0.844 -1.2806 -1.0488  0.5733
 2855SOL     OW20026   3.885   0.581   4.697 -0.5583  0.0265  0.7122
 2855SOL    HW120027   3.961   0.622   4.656 -1.1975  0.4701 -0.0243
 2855SOL    HW220028   3.831   0.659   4.685  1.3267  1.0188 -1.2609
 2856SOL     OW20029   0.598   1.262   4.336  0.4428  0.4356 -1.0041
 2856SOL    HW120030   0.665   1.304   4.390  0.1615 -0.1982 -0.1668
 2856SOL    HW220031   0.657   1.212   4.280 -1.0022 -0.8763 -1.3536
 2857SOL     OW20032   0.530   3.082   3.991  0.2014  0.0491  0.0844
 2857SOL    HW120033   0.486   3.044   4.067  1.3761 -1.7884 -0.1592
 2857SOL    HW220034   0.565   3.164   4.028  2.9035 -0.6766 -0.8773
 2858SOL     OW20035   1.324   1.609   3.939  0.6337 -0.4879 -0.2287
 2858SOL    HW120036   1.252   1.669   3.916 -0.8132 -0.9358  3.0396
 2858SOL    HW220037   1.391   1.668   3.973 -0.2091 -0.7280  1.9040
 2859SOL     OW20038   1.690   1.294   9.246 -0.0692 -0.2327  0.5825
 2859SOL    HW120039   1.705   1.380   9.284 -2.8577  1.1740 -1.5277
 2859SOL    HW220040   1.741   1.249   9.314  0.4856 -2.9041 -1.6012
 2860SOL     OW20041   3.360   3.172  16.336  0.3972 -0.3411 -0.7000
 2860SOL    HW120042   3.442   3.129  16.358 -0.2291 -1.1962 -0.0300
 2860SOL    HW220043   3.367   3.170  16.240  0.0447  2.2601 -0.7820
 2861SOL     OW20044   2.014   1.698  13.526  0.1273 -0.7704 -0.2046
 2861SOL    HW120045   2.048   1.779  13.488 -1.4454  0.0329  0.0926
 2861SOL    HW220046   2.062   1.689  13.608 -0.3556  0.7605  0.2379
 2862SOL     OW20047   2.278   0.521   6.564 -0.4942 -0.2148 -0.2905
 2862SOL    HW120048   2.336   0.591   6.595 -0.4840  0.1639 -1.1717
 2862SOL    HW220049   2.316   0.435   6.579  0.6346  0.1794 -0.9286
 2863SOL     OW20050   2.521   3.860  12.442 -0.3139  0.2546 -0.0669
 2863SOL    HW120051   2.596   3.807  12.467  0.7220 -0.3728 -4.5987
 2863SOL    HW220052   2.562   3.942  12.470  1.1519 -0.0566 -1.2975
 2864SOL     OW20053   3.075   3.365   6.039 -0.4107  0.1523 -0.7799
 2864SOL    HW120054   3.099   3.445   5.992  2.2539  0.1714  0.6041
 2864SOL    HW220055   3.041   3.307   5.971 -1.2232  0.5576 -0.7123
 2865SOL     OW20056   4.222   4.495  12.190 -0.0156 -0.0900 -0.2747
 2865SOL    HW120057   4.285   4.553  12.233  1.4160 -1.2012 -0.8790
 2865SOL    HW220058   4.150   4.502  12.253  1.0189 -0.7353  0.9757
 2866SOL     OW20059   2.712   0.758   3.738  0.2637  0.0364  0.0906
 2866SOL    HW120060   2.684   0.669   3.760 -0.1707  0.2657  0.4913
 2866SOL    HW220061   2.635   0.811   3.758 -0.0131 -0.6817  0.9257
 2867SOL     OW20062   3.431   3.624  12.038  0.0895 -0.1797 -0.4094
 2867SOL    HW120063   3.456   3.554  12.097  3.5153  2.9418  1.8477
 2867SOL    HW220064   3.465   3.697  12.091  0.6519  0.4072 -1.5650
 2868SOL     OW20065   2.614   2.785  15.513 -0.0635  0.0708  0.4004
 2868SOL    HW120066   2.675   2.717  15.484 -0.9547 -0.7915  0.5793
 2868SOL    HW220067   2.533   2.735  15.515 -0.8232  1.1902 -2.0991
 2869SOL     OW20068   1.371   2.528   6.317  0.5717 -0.1681 -0.0503
 2869SOL    HW120069   1.330   2.546   6.232 -0.1371 -1.6187 -0.0150
 2869SOL    HW220070   1.425   2.606   6.328 -1.0403  0.9313  0.0108
 2870SOL     OW20071   4.450   1.627   4.177 -0.0919  0.1880 -0.3524
 2870SOL    HW120072   4.528   1.616   4.231  1.1792 -1.3798 -2.4973
 2870SOL    HW220073   4.439   1.722   4.172  0.1153  0.2032 -0.5108
 2871SOL     OW20074   2.809   1.385   9.157  0.2760  0.0197 -0.6342
 2871SOL    HW120075   2.839   1.455   9.099 -1.8926 -0.7762 -2.7443
 2871SOL    HW220076   2.842   1.308   9.110  0.9816 -0.6559  0.9865
 2872SOL     OW20077   2.455   2.020   2.077  0.2419 -0.0095  0.3559
 2872SOL    HW120078   2.534   2.072   2.062 -0.4920  0.9618 -0.1031
 2872SOL    HW220079   2.392   2.088   2.100  0.1745 -0.5394  1.7136
 2873SOL     OW20080   2.604   0.689   8.332  0.3944 -0.3158 -0.3687
 2873SOL    HW120081   2.575   0.774   8.298  0.5909  0.0965  0.5140
 2873SOL    HW220082   2.549   0.685   8.410 -0.1441  2.0478 -0.6195
 2874SOL     OW20083   3.477   3.364   2.645 -0.3004 -0.4181 -0.1195
 2874SOL    HW120084   3.400   3.308   2.658 -0.5525  0.0512  0.4292
 2874SOL    HW220085   3.485   3.418   2.724  1.5947 -1.5713  0.4868
 2875SOL     OW20086   2.501   2.259   4.582  0.0792  0.1889  0.3792
 2875SOL    HW120087   2.542   2.340   4.612 -2.2685  2.2806 -1.9531
 2875SOL    HW220088   2.494   2.211   4.664 -0.8888 -0.3789 -0.0294
 2876SOL     OW20089   1.698   2.405   7.351 -0.0082 -0.1265 -0.1144
 2876SOL    HW120090   1.732   2.392   7.262  0.0910 -0.9341  0.0496
 2876SOL    HW220091   1.627   2.342   7.349  0.9792 -1.2003 -1.6101
 2877SOL     OW20092   3.718   2.437   1.630 -0.1568  0.6312 -0.4194
 2877SOL    HW120093   3.708   2.348   1.664 -0.5911  0.8843  0.1177
 2877SOL    HW220094   3.753   2.413   1.545 -1.7338  1.5400 -1.3239
 2878SOL     OW20095   1.371   0.456   8.678  0.5284 -0.0023  0.4376
 2878SOL    HW120096   1.394   0.419   8.592 -1.0440  0.3418 -0.1209
 2878SOL    HW220097   1.423   0.402   8.737 -0.0577  1.2293  2.0797
 2879SOL     OW20098   1.038   0.358  16.972 -0.4221 -0.3669 -0.0615
 2879SOL    HW120099   0.996   0.314  17.046 -1.1119  1.3755  0.5955
 2879SOL    HW220100   1.021   0.452  16.984  0.4341 -0.2762  0.4760
 2880SOL     OW20101   1.945   4.251  11.911 -0.4945 -0.8446  0.0133
 2880SOL    HW120102   1.969   4.277  11.822  0.1471 -1.0226  0.1381
 2880SOL    HW220103   1.850   4.257  11.918 -0.1342  2.0805  2.2743
 2881SOL     OW20104   1.073   2.687   7.484 -0.0263 -0.2112  0.7541
 2881SOL    HW120105   1.008   2.634   7.438  0.2307 -0.0381  0.1993
 2881SOL    HW220106   1.030   2.698   7.569  1.2088  1.4423  1.1792
 2882SOL     OW20107   1.031   4.652   2.596  0.0446  0.0624  0.2242
 2882SOL    HW120108   0.945   4.637   2.555  1.1911 -2.2144 -1.3739
 2882SOL    HW220109   1.041   4.580   2.657 -1.2477  0.4241  0.8698
 2883SOL     OW20110   3.264   3.562   9.488 -0.0819 -0.5850 -0.3221
 2883SOL    HW120111   3.222   3.497   9.544  1.2488 -1.9681 -0.9384
 2883SOL    HW220112   3.349   3.566   9.532  1.7212  1.3965 -3.9361
 2884SOL     OW20113   1.701   4.618   9.130  0.0586  0.6592  0.0986
 2884SOL    HW120114   1.702   4.543   9.190 -1.6687  1.0505  0.5992
 2884SOL    HW220115   1.712   4.692   9.189  3.1562 -0.8486  1.4140
 2885SOL     OW20116   3.162   3.434  11.975 -0.2766  0.2445  0.4456
 2885SOL    HW120117   3.132   3.361  12.030 -0.4846  0.0113  0.0220
 2885SOL    HW220118   3.116   3.432  11.891 -2.3685 -0.2610  1.6197
 2886SOL     OW20119   4.399   1.915   7.371  0.2686  0.4213  0.1442
 2886SOL    HW120120   4.456   1.992   7.380 -1.3568  1.4693  1.4506
 2886SOL    HW220121   4.401   1.887   7.280 -1.2351 -0.7196  0.4604
 2887SOL     OW20122   1.162   2.279   1.281 -0.4073 -0.1880  0.1314
 2887SOL    HW120123   1.081   2.256   1.235 -1.5783  3.1117  0.5107
 2887SOL    HW220124   1.194   2.201   1.326  1.7614  0.5503 -0.1317
 2888SOL     OW20125   3.787   0.161   2.811 -0.1883 -0.5476 -0.3553
 2888SOL    HW120126   3.752   0.177   2.898  0.5879 -1.2096  0.0707
 2888SOL    HW220127   3.835   0.081   2.836  1.3622  0.7006  0.6236
 2889SOL     OW20128   3.383   2.196  15.399 -0.3195  0.2839 -0.0029
 2889SOL    HW120129   3.369   2.233  15.312 -0.1949 -1.1626 -0.6224
 2889SOL    HW220130   3.310   2.232  15.449  0.6518  1.5310  0.5263
 2890SOL     OW20131   2.262   3.154  13.400  0.1475 -0.2043  0.3221
 2890SOL    HW120132   2.213   3.184  13.476  0.2035 -0.5856  0.5083
 2890SOL    HW220133   2.283   3.234  13.352  0.8028 -0.9067 -0.5761
 2891SOL     OW20134   2.844   1.451  10.168  0.0488  0.2669  0.5346
 2891SOL    HW120135   2.938   1.440  10.152  0.3295  0.1481  2.3018
 2891SOL    HW220136   2.815   1.468  10.078 -0.5476 -1.8465  0.3132
 2892SOL     OW20137   2.490   4.003  11.368  0.2878 -0.0061 -0.9492
 2892SOL    HW120138   2.474   3.923  11.418 -0.5280  1.1319  0.6073
 2892SOL    HW220139   2.441   3.994  11.286 -0.4113 -1.1882 -0.4086
 2893SOL     OW20140   4.167   3.850   1.602 -0.1267 -0.9880 -0.2305
 2893SOL    HW120141   4.216   3.875   1.681 -0.5701 -0.2097 -0.2031
 2893SOL    HW220142   4.087   3.890   1.636  2.0329  1.6553  1.8167
 2894SOL     OW20143   4.228   1.200   5.296 -0.2563 -0.1517 -0.1154
 2894SOL    HW120144   4.192   1.118   5.330 -1.7439  0.8070  0.6325
 2894SOL    HW220145   4.156   1.264   5.291 -1.1031 -1.0632  0.4152
 2895SOL     OW20146   1.418   0.108   4.875 -0.2064  0.2419 -0.1110
 2895SOL    HW120147   1.345   0.143   4.825  0.2329 -0.2581 -1.1123
 2895SOL    HW220148   1.494   0.121   4.818  0.9329 -1.5055  0.9782
 2896SOL     OW20149   2.664   2.628   3.278  0.0480  0.2696  0.4373
 2896SOL    HW120150   2.633   2.539   3.260 -0.7140  0.6608 -0.2323
 2896SOL    HW220151   2.748   2.624   3.322 -0.0914  2.0655  0.8833
 2897SOL     OW20152   0.049   3.408   3.210  0.0499 -0.1767  0.1661
 2897SOL    HW120153   4.706   3.411   3.276  0.6810  0.5566  0.7967
 2897SOL    HW220154   0.114   3.459   3.258 -0.0764  0.6681 -0.5401
 2898SOL     OW20155   2.515   0.668   5.130  0.1189  0.6072  0.1585
 2898SOL    HW120156   2.581   0.727   5.094  0.8253  1.3898  2.7210
 2898SOL    HW220157   2.564   0.587   5.137 -1.1517 -0.1066  0.7776
 2899SOL     OW20158   3.332   0.066   7.960 -0.6877 -0.1577  0.7278
 2899SOL    HW120159   3.284   0.147   7.980  1.7979  1.3888  0.3729
 2899SOL    HW220160   3.319   0.037   8.051  1.0400  2.1448  1.6983
 2900SOL     OW20161   4.288   3.999   6.535 -0.3676 -0.8025 -0.3591
 2900SOL    HW120162   4.235   4.062   6.485  1.6030  0.1796 -1.2245
 2900SOL    HW220163   4.309   4.059   6.607 -1.2593  0.4655 -1.1611
 2901SOL     OW20164   4.429   0.009  10.776  0.2084  0.1825  0.4322
 2901SOL    HW120165   4.355   0.058  10.739  1.5050 -0.2167 -2.7115
 2901SOL    HW220166   4.414   4.647  10.741  1.1364  0.9534 -1.9418
 2902SOL     OW20167   1.648   3.397   3.863  0.7208  0.6520  0.6702
 2902SOL    HW120168   1.626   3.305   3.848 -2.9728  1.9260 -1.8320
 2902SOL    HW220169   1.732   3.398   3.908 -0.7519  1.2412  3.3992
 2903SOL     OW20170   4.116   0.998   5.476  0.6966  0.2588  0.1940
 2903SOL    HW120171   4.194   0.946   5.494  0.3440 -0.2559  0.2062
 2903SOL    HW220172   4.064   0.929   5.436 -0.2590 -0.9951  3.5588
 2904SOL     OW20173   3.927   0.695  17.580  0.1035 -0.1662  0.4643
 2904SOL    HW120174   3.926   0.608  17.539  1.8315  0.1531 -0.2806
 2904SOL    HW220175   3.969   0.680  17.665  1.2058  0.1587 -0.0165
 2905SOL     OW20176   3.429   3.045   4.820 -1.1610  0.2272  0.2683
 2905SOL    HW120177   3.383   2.962   4.809 -0.4975 -0.5129  3.1219
 2905SOL    HW220178   3.391   3.101   4.752 -0.0533 -0.4223 -0.8859
 2906SOL     OW20179   2.281   2.731   4.105 -0.1535 -0.0128 -0.2045
 2906SOL    HW120180   2.197   2.718   4.061  0.9204  0.0335 -2.2757
 2906SOL    HW220181   2.330   2.768   4.032 -2.4498  0.2600 -1.6091
 2907SOL     OW20182   1.554   3.642   5.668 -0.4096  0.0135 -0.0406
 2907SOL    HW120183   1.504   3.567   5.636  2.2043 -1.6136 -0.3163
 2907SOL    HW220184   1.599   3.611   5.746 -1.1959 -1.0415 -0.0011
 2908SOL     OW20185   4.560   3.053   2.921 -0.0962 -0.5905  0.3375
 2908SOL    HW120186   4.648   3.051   2.885 -0.7761 -1.8101 -1.2533
 2908SOL    HW220187   4.518   2.966   2.923  0.4119 -0.8378  0.1262
 2909SOL     OW20188   0.382   3.587   6.518 -0.2293  0.3682 -0.0365
 2909SOL    HW120189   0.459   3.644   6.522 -0.9216  1.4271 -2.0322
 2909SOL    HW220190   0.367   3.582   6.424 -0.9112 -0.2173  0.1024
 2910SOL     OW20191   1.685   0.820  10.372  0.6156  0.0590 -0.3762
 2910SOL    HW120192   1.667   0.908  10.339 -1.9904  0.4801  2.1139
 2910SOL    HW220193   1.695   0.768  10.292  0.4072 -1.3332  0.5075
 2911SOL     OW20194   3.811   4.072  13.681 -0.3043  0.5488  0.1353
 2911SOL    HW120195   3.899   4.036  13.686  0.0166  1.2672 -0.3816
 2911SOL    HW220196   3.791   4.051  13.589  0.4303  2.1505 -0.3918
 2912SOL     OW20197   0.592   1.996  10.231 -0.4815  0.1925  0.2111
 2912SOL    HW120198   0.613   1.945  10.152 -0.1056 -1.6182  1.5015
 2912SOL    HW220199   0.639   2.079  10.227 -1.4589  0.7625  0.4678
 2913SOL     OW20200   0.400   2.295   2.511  0.4933 -0.7794 -0.3147
 2913SOL    HW120201   0.412   2.216   2.564 -0.7817 -0.2986  0.6615
 2913SOL    HW220202   0.464   2.353   2.552  0.9129 -1.0487 -0.5888
 2914SOL     OW20203   3.285   4.224   7.156  1.0729  0.2942 -0.2113
 2914SOL    HW120204   3.304   4.293   7.220 -0.2841  1.2827 -0.8772
 2914SOL    HW220205   3.373   4.209   7.122  1.6007 -1.3026  1.8414
 2915SOL     OW20206   0.130   4.198   8.092  0.5487 -0.2187  0.6365
 2915SOL    HW120207   0.078   4.197   8.012 -0.7857 -1.4514  1.5168
 2915SOL    HW220208   0.075   4.150   8.154 -0.6023 -0.0711 -0.2556
 2916SOL     OW20209   4.040   0.176   5.207  0.1833  0.3103  0.1981
 2916SOL    HW120210   3.970   0.232   5.172  0.4524  1.0385  0.8042
 2916SOL    HW220211   4.051   0.112   5.137  2.7711 -0.1523  1.0498
 2917SOL     OW20212   1.485   3.383   6.408  0.3004 -0.3326  0.0224
 2917SOL    HW120213   1.570   3.348   6.383  0.2290  1.1825 -2.2734
 2917SOL    HW220214   1.425   3.310   6.391 -0.7868  0.1360  1.8346
 2918SOL     OW20215   4.562   1.178  17.435  0.3324 -0.4605 -0.3975
 2918SOL    HW120216   4.546   1.088  17.408 -2.2716 -0.2122  0.2844
 2918SOL    HW220217   4.621   1.223  17.375  2.2778  0.0871  1.9073
 2919SOL     OW20218   3.581   2.846   5.037  0.6461 -0.4431  0.3254
 2919SOL    HW120219   3.594   2.898   4.957  0.5320 -2.9125 -1.3131
 2919SOL    HW220220   3.624   2.897   5.106  0.8189 -2.7394  1.9014
 2920SOL     OW20221   3.599   0.801  10.798 -0.4433 -0.2723  0.0616
 2920SOL    HW120222   3.641   0.841  10.722 -0.2453  2.5006  1.6190
 2920SOL    HW220223   3.657   0.727  10.814  1.0188  0.2906 -2.6237
 2921SOL     OW20224   2.731   2.184   5.463  0.0831 -0.7245  0.0456
 2921SOL    HW120225   2.719   2.107   5.518  0.0660 -1.2648 -0.7070
 2921SOL    HW220226   2.753   2.253   5.526 -0.0880  0.8743 -1.6172
 2922SOL     OW20227   4.289   4.667  17.232 -0.1612 -0.2355 -0.1754
 2922SOL    HW120228   4.216   4.677  17.171 -0.3225  0.3319  0.1102
 2922SOL    HW220229   4.278   0.016  17.290 -1.3726 -1.7776  1.5667
 2923SOL     OW20230   1.445   2.565   8.092  0.6491 -0.2143 -0.1801
 2923SOL    HW120231   1.442   2.524   8.006  1.8525  1.1234 -0.8623
 2923SOL    HW220232   1.474   2.494   8.149  0.0822  0.0717  0.4697
 2924SOL     OW20233   0.407   1.382   4.468  0.2106  0.1246 -0.2004
 2924SOL    HW120234   0.472   1.434   4.516 -0.6858 -0.0607  1.2241
 2924SOL    HW220235   0.459   1.339   4.400  0.6556 -0.1028  0.2821
 2925SOL     OW20236   0.594   1.833   3.419 -0.0671  0.7265 -0.4012
 2925SOL    HW120237   0.676   1.834   3.468 -1.3248 -0.2110  1.7477
 2925SOL    HW220238   0.550   1.881   3.489  0.6657  0.1099  0.4831
 2926SOL     OW20239   0.486   1.451   1.085 -0.4425  0.4285 -0.5839
 2926SOL    HW120240   0.428   1.382   1.117  1.1716 -1.4076 -1.6489
 2926SOL    HW220241   0.562   1.404   1.050 -2.4065 -0.5968 -3.4876
 2927SOL     OW20242   1.353   0.152   8.180  0.2897  0.4211  0.3408
 2927SOL    HW120243   1.327   0.234   8.137  1.6487  0.8740  0.3912
 2927SOL    HW220244   1.266   0.115   8.199  0.8457 -0.9874  0.0737
 2928SOL     OW20245   1.916   1.702   5.988 -0.3734  0.7375 -0.1584
 2928SOL    HW120246   1.882   1.789   6.006  0.3506  0.7330  1.2290
 2928SOL    HW220247   1.906   1.648   6.066  1.3871  0.4371 -0.1416
 2929SOL     OW20248   2.937   3.413   0.441 -0.1519  0.2099  0.4003
 2929SOL    HW120249   2.936   3.383   0.350 -2.2473 -0.0078  0.4969
 2929SOL    HW220250   3.022   3.456   0.449  0.5017 -0.8332 -0.8678
 2930SOL     OW20251   2.894   1.993  17.536  0.3116 -0.4237  0.3285
 2930SOL    HW120252   2.803   1.976  17.560  0.5611 -1.5507  0.4293
 2930SOL    HW220253   2.896   2.078  17.492 -0.8342 -1.2585 -1.3584
 2931SOL     OW20254   0.075   1.258  17.565  0.1477 -0.0414 -0.1058
 2931SOL    HW120255   0.154   1.205  17.576 -0.5181 -1.0496 -0.1109
 2931SOL    HW220256   0.005   1.197  17.542 -0.4186  0.2448  0.8817
 2932SOL     OW20257   3.997   4.344   0.902 -0.4251  0.7658 -0.9203
 2932SOL    HW120258   3.991   4.426   0.951 -0.8327  0.8218 -1.0693
 2932SOL    HW220259   4.066   4.373   0.842 -0.2800  1.6724 -0.3157
 2933SOL     OW20260   2.576   2.860   3.412  0.3500 -0.6633 -0.2796
 2933SOL    HW120261   2.603   2.775   3.377 -0.3387 -0.9624 -0.0974
 2933SOL    HW220262   2.482   2.864   3.394  0.0267 -0.8040  1.4030
 2934SOL     OW20263   4.366   2.011   2.217  0.3603  0.0731 -0.3827
 2934SOL    HW120264   4.302   2.073   2.184 -0.1162 -0.2349 -0.0391
 2934SOL    HW220265   4.383   2.045   2.305  1.0332 -1.0715 -0.0676
 2935SOL     OW20266   1.522   2.860   3.470 -0.9487  0.1432  0.4959
 2935SOL    HW120267   1.564   2.893   3.550  2.2291  2.2842 -2.0373
 2935SOL    HW220268   1.462   2.933   3.457  0.8876  1.3865 -0.9687
 2936SOL     OW20269   1.967   3.718   3.013 -0.0237  0.2135  0.3666
 2936SOL    HW120270   2.032   3.780   3.045 -1.7065  1.2612  1.7249
 2936SOL    HW220271   1.947   3.661   3.087  3.1163 -0.7332  0.4953
 2937SOL     OW20272   4.021   0.148   5.640  0.3687  0.6344  0.2476
 2937SOL    HW120273   4.028   0.101   5.558 -0.1389  0.0199  0.5566
 2937SOL    HW220274   3.927   0.154   5.657  0.2532  1.1992 -0.6176
 2938SOL     OW20275   0.559   1.680  17.400 -0.0456  0.1803  0.3093
 2938SOL    HW120276   0.572   1.686  17.305  0.9605  0.9357  0.4964
 2938SOL    HW220277   0.568   1.586  17.413  0.4482  0.3957  1.5614
 2939SOL     OW20278   0.230   2.695   7.679 -0.2412 -0.4318  0.5535
 2939SOL    HW120279   0.213   2.642   7.756  1.4100  0.8711  1.8269
 2939SOL    HW220280   0.308   2.736   7.717  0.0101 -0.2707 -0.1198
 2940SOL     OW20281   1.006   0.754   3.548 -0.1218 -0.2298 -0.6043
 2940SOL    HW120282   1.040   0.800   3.471 -1.8019  1.2115 -0.4913
 2940SOL    HW220283   0.981   0.825   3.606  2.0781  0.1163 -0.0929
 2941SOL     OW20284   4.451   0.591  14.242 -0.0277 -0.1256  0.0034
 2941SOL    HW120285   4.417   0.604  14.153 -1.3008  0.6878  0.6041
 2941SOL    HW220286   4.394   0.650  14.292 -0.2359 -1.0325  0.8234
 2942SOL     OW20287   1.769   2.866   8.937 -0.5482  0.3041 -0.1476
 2942SOL    HW120288   1.836   2.872   9.005 -0.0850 -0.5008 -0.5346
 2942SOL    HW220289   1.785   2.779   8.901 -0.9488  1.0143 -2.0180
 2943SOL     OW20290   1.761   2.371   2.916  0.1079  0.2713  0.1790
 2943SOL    HW120291   1.840   2.422   2.934  0.2838 -0.0309  0.2625
 2943SOL    HW220292   1.719   2.437   2.861  0.0509 -0.5783 -0.7898
 2944SOL     OW20293   4.446   1.242  15.196 -0.4024  0.0264  0.0512
 2944SOL    HW120294   4.461   1.164  15.144  1.5441 -0.5279  1.4521
 2944SOL    HW220295   4.366   1.214  15.241 -2.4512  4.5894 -0.7031
 2945SOL     OW20296   1.823   3.222   1.548 -0.1431  0.5441  0.3556
 2945SOL    HW120297   1.836   3.304   1.502 -2.2397  1.5283  1.5251
 2945SOL    HW220298   1.728   3.210   1.544 -0.0615  0.1077 -0.1965
 2946SOL     OW20299   0.374   4.110   4.838  0.0008  0.0703  0.3875
 2946SOL    HW120300   0.435   4.038   4.818 -0.9752 -0.3660 -0.9979
 2946SOL    HW220301   0.430   4.145   4.908  1.9967 -0.1709 -1.0721
 2947SOL     OW20302   3.645   3.893   3.613 -0.2271  0.1015 -0.6374
 2947SOL    HW120303   3.739   3.906   3.602  0.3106 -2.2023  1.1681
 2947SOL    HW220304   3.646   3.798   3.625  0.6246  0.3461  1.1932
 2948SOL     OW20305   3.679   0.545  10.016  0.1412  0.4495 -0.1631
 2948SOL    HW120306   3.647   0.456  10.027 -0.9793  1.1318  2.1853
 2948SOL    HW220307   3.638   0.580  10.095  2.8272 -2.5118  2.5232
 2949SOL     OW20308   2.092   4.599   8.718 -0.2681 -0.2841  0.2353
 2949SOL    HW120309   2.034   4.573   8.790 -1.4408  2.9466  0.4346
 2949SOL    HW220310   2.081   4.693   8.726 -1.9851 -0.5373  0.9802
 2950SOL     OW20311   3.227   3.939   8.469  0.2492 -0.4517 -0.1486
 2950SOL    HW120312   3.198   3.861   8.421 -0.0752 -0.3614 -0.1019
 2950SOL    HW220313   3.243   4.008   8.404 -0.5834  0.4765  0.6315
 2951SOL     OW20314   3.155   1.269   2.520 -0.3977  0.2697 -0.1135
 2951SOL    HW120315   3.222   1.289   2.586  0.8863  0.7009 -1.5517
 2951SOL    HW220316   3.167   1.175   2.507  0.1222  0.5601 -1.6734
 2952SOL     OW20317   0.500   2.275  14.933 -0.0110  0.2392  0.6189
 2952SOL    HW120318   0.490   2.350  14.991 -0.0566 -0.5377  1.6277
 2952SOL    HW220319   0.418   2.226  14.941 -0.2872  0.7684  0.9906
 2953SOL     OW20320   3.141   4.711  12.987  0.1651 -0.0759  0.0820
 2953SOL    HW120321   3.190   4.686  12.909  0.5562 -2.1990  1.0012
 2953SOL    HW220322   3.057   4.666  12.984  1.4664 -2.5121  0.4976
 2954SOL     OW20323   1.515   0.044   6.856  0.1577  0.4814  0.0518
 2954SOL    HW120324   1.440   4.715   6.879  0.6651  0.5862  1.9352
 2954SOL    HW220325   1.484   0.130   6.829  0.4896  1.3583  2.4882
 2955SOL     OW20326   1.410   2.605  12.849 -0.4483  0.3768  0.1579
 2955SOL    HW120327   1.467   2.542  12.805  1.5866  3.2015 -1.3172
 2955SOL    HW220328   1.395   2.558  12.930  0.3922  1.6712  1.0693
 2956SOL     OW20329   1.771   4.008  15.403 -0.1702  0.8788  0.2658
 2956SOL    HW120330   1.849   4.048  15.440  0.5050  0.3345 -0.5804
 2956SOL    HW220331   1.799   3.927  15.359 -0.1371  0.6810  0.6506
 2957SOL     OW20332   2.012   1.914   5.011 -0.0523  0.1330 -0.4759
 2957SOL    HW120333   1.996   1.846   4.946 -0.0483 -1.1872  0.9167
 2957SOL    HW220334   2.094   1.945   4.973  1.5329 -2.2706  1.0287
 2958SOL     OW20335   1.236   2.787   8.078  0.7592 -0.2178  0.3741
 2958SOL    HW120336   1.193   2.770   8.162 -2.3855 -0.7662 -1.3530
 2958SOL    HW220337   1.325   2.756   8.094  0.7410  0.1092  1.1433
 2959SOL     OW20338   2.235   4.453   2.955  0.0936 -0.3180 -0.2995
 2959SOL    HW120339   2.329   4.453   2.939  0.2415 -0.3659  0.5777
 2959SOL    HW220340   2.234   4.538   2.999 -0.1425 -0.4778  0.0097
 2960SOL     OW20341   1.349   3.552   2.368 -0.1238 -0.3276  0.2215
 2960SOL    HW120342   1.428   3.579   2.320 -0.5883  1.1765  0.3068
 2960SOL    HW220343   1.349   3.456   2.362 -0.5854 -0.3452  0.5742
 2961SOL     OW20344   3.555   0.149  14.771  0.0929  0.2651 -0.6297
 2961SOL    HW120345   3.489   0.115  14.712 -0.2170  2.7639 -1.7323
 2961SOL    HW220346   3.628   0.087  14.769 -0.6701 -0.6353 -0.0182
 2962SOL     OW20347   4.209   0.833  13.923  0.4849 -0.0897  0.7971
 2962SOL    HW120348   4.253   0.754  13.956  0.4462  0.2015  1.5557
 2962SOL    HW220349   4.260   0.899  13.971  1.5612 -1.0549  0.9860
 2963SOL     OW20350   4.305   2.139  12.362 -0.2366  0.5719 -0.7873
 2963SOL    HW120351   4.300   2.096  12.277 -2.0932 -0.7465 -0.0045
 2963SOL    HW220352   4.325   2.059  12.410 -1.7020  0.8829  0.3485
 2964SOL     OW20353   2.490   0.662   2.231  0.0563  0.2569  0.2509
 2964SOL    HW120354   2.442   0.609   2.168  0.3076  2.1503 -1.5464
 2964SOL    HW220355   2.555   0.603   2.268 -1.5332 -0.7883  1.3551
 2965SOL     OW20356   0.556   0.694  17.103  0.7853  0.3793 -0.0788
 2965SOL    HW120357   0.523   0.709  17.014  4.2093 -0.1283 -1.4632
 2965SOL    HW220358   0.603   0.778  17.107  1.6562 -0.1733  1.1170
 2966SOL     OW20359   0.856   4.158  13.591 -0.0819 -0.2906  0.4427
 2966SOL    HW120360   0.851   4.238  13.538  3.0796 -0.7980 -0.6226
 2966SOL    HW220361   0.780   4.114  13.552  0.9171 -1.8275  0.2314
 2967SOL     OW20362   2.843   4.145  12.972 -0.4149 -0.1830  0.2678
 2967SOL    HW120363   2.777   4.076  12.981  0.6491 -1.1779  0.4566
 2967SOL    HW220364   2.827   4.208  13.042 -1.7957 -2.0886  1.6848
 2968SOL     OW20365   0.120   0.677   4.433 -0.6898  0.2345 -0.5220
 2968SOL    HW120366   0.212   0.653   4.445 -0.2595  2.2205  0.2434
 2968SOL    HW220367   0.132   0.767   4.465 -1.5437 -0.2963  1.3006
 2969SOL     OW20368   1.536   3.869  10.212  0.0349 -0.0554  0.0820
 2969SOL    HW120369   1.604   3.839  10.273  1.2216 -0.7397 -1.5966
 2969SOL    HW220370   1.461   3.810  10.222 -0.3683  0.0160 -2.5473
 2970SOL     OW20371   0.882   4.476  13.595  0.7176 -0.3887  0.3646
 2970SOL    HW120372   0.973   4.453  13.609 -0.5927 -3.7240  3.3195
 2970SOL    HW220373   0.883   4.493  13.500 -0.3816  0.5221  0.5135
 2971SOL     OW20374   3.815   0.120  16.784 -0.3052  0.0764 -0.5901
 2971SOL    HW120375   3.778   0.189  16.728 -2.1663 -0.0387  0.4834
 2971SOL    HW220376   3.829   0.047  16.723  0.0819  1.1192 -1.7611
 2972SOL     OW20377   0.197   1.716  11.952 -0.4361  0.2153  0.2964
 2972SOL    HW120378   0.147   1.798  11.947  1.4980  1.2470 -1.9707
 2972SOL    HW220379   0.201   1.683  11.862  0.2606 -1.2751  0.8771
 2973SOL     OW20380   3.712   0.699   6.721 -0.1445  0.3828 -0.8088
 2973SOL    HW120381   3.762   0.772   6.683 -0.1080  1.4966  1.3453
 2973SOL    HW220382   3.648   0.696   6.651 -1.5099 -3.0512  0.5784
 2974SOL     OW20383   1.886   2.585   3.878  0.1624  0.3375  0.7677
 2974SOL    HW120384   1.865   2.492   3.888 -1.4558  0.4980 -1.0252
 2974SOL    HW220385   1.825   2.609   3.808  0.7705  0.3982  0.2594
 2975SOL     OW20386   2.424   1.648   8.182 -0.0915 -0.6128 -0.5835
 2975SOL    HW120387   2.422   1.596   8.101  0.7721 -1.7785  0.1504
 2975SOL    HW220388   2.440   1.738   8.153  1.4444 -0.3084  1.2089
 2976SOL     OW20389   4.620   1.871  10.263  0.0764 -0.1310 -0.0867
 2976SOL    HW120390   4.607   1.842  10.353  1.3538  0.6129  0.3387
 2976SOL    HW220391   4.714   1.887  10.264  0.3255 -1.3853 -2.1932
 2977SOL     OW20392   3.156   2.667   4.043 -0.1569  0.0810  1.0056
 2977SOL    HW120393   3.074   2.704   4.009  0.1937  1.8384  2.0768
 2977SOL    HW220394   3.170   2.603   3.974 -2.7105 -0.7833  1.2771
 2978SOL     OW20395   3.617   3.833   6.442  0.1549 -0.1327 -0.4278
 2978SOL    HW120396   3.623   3.807   6.533  0.2099 -0.0598 -0.4107
 2978SOL    HW220397   3.549   3.901   6.440  1.0212  0.7565  1.0270
 2979SOL     OW20398   0.690   0.816  14.077  0.3219 -0.0958 -0.6199
 2979SOL    HW120399   0.643   0.734  14.089  1.1094 -0.6339 -1.2789
 2979SOL    HW220400   0.618   0.872  14.047  0.4189  0.6603  0.5449
 2980SOL     OW20401   0.284   2.368   7.842 -0.1688 -0.2577  0.4507
 2980SOL    HW120402   0.244   2.335   7.922  1.5830  1.4999  2.0421
 2980SOL    HW220403   0.220   2.430   7.806 -0.2155 -1.1348 -0.9746
 2981SOL     OW20404   3.424   3.838   8.277 -0.1993  0.3477  0.1724
 2981SOL    HW120405   3.404   3.843   8.371 -2.3606  1.1470 -0.3275
 2981SOL    HW220406   3.500   3.780   8.273  1.2376  2.2129  0.6291
 2982SOL     OW20407   1.662   2.872   5.669  0.0467 -0.2000  0.4209
 2982SOL    HW120408   1.612   2.801   5.708  0.8966 -1.5361 -0.9400
 2982SOL    HW220409   1.737   2.826   5.631  0.1846 -0.8603  1.5033
 2983SOL     OW20410   0.328   3.814  10.182  0.3767 -0.1599 -0.2677
 2983SOL    HW120411   0.370   3.900  10.179  2.4976 -1.1532  0.8517
 2983SOL    HW220412   0.234   3.832  10.174  0.1949 -0.6670  0.7151
 2984SOL     OW20413   3.301   1.074   0.797 -0.4126  0.4497  0.0157
 2984SOL    HW120414   3.320   1.166   0.783 -0.7514  0.2430 -1.8139
 2984SOL    HW220415   3.390   1.042   0.813 -0.8965 -1.1336 -0.4872
 2985SOL     OW20416   3.266   4.119   7.882  0.3604  0.6997  0.0905
 2985SOL    HW120417   3.262   4.131   7.788  0.3334  0.3957  0.0524
 2985SOL    HW220418   3.353   4.151   7.903  0.8232 -0.7620  0.3995
 2986SOL     OW20419   2.139   0.873   9.278 -0.2148  0.3512  0.1476
 2986SOL    HW120420   2.140   0.954   9.328  0.6112  0.7935 -0.5900
 2986SOL    HW220421   2.226   0.870   9.237  0.3156 -1.4672  1.3989
 2987SOL     OW20422   2.288   2.868   8.376  0.1169  0.8525 -0.5814
 2987SOL    HW120423   2.282   2.798   8.311  1.6299  0.8947 -0.7680
 2987SOL    HW220424   2.339   2.828   8.446 -2.8165 -0.8174  0.5886
 2988SOL     OW20425   2.637   4.541   0.268 -0.8902 -0.7369 -0.1289
 2988SOL    HW120426   2.702   4.561   0.335 -0.0736 -2.2369 -0.4550
 2988SOL    HW220427   2.570   4.504   0.325 -0.5241 -3.3025 -1.3685
 2989SOL     OW20428   3.070   4.290   4.962 -0.0027  0.3036  0.0118
 2989SOL    HW120429   3.156   4.254   4.943  0.2041  0.8234 -0.0437
 2989SOL    HW220430   3.046   4.259   5.050 -0.9916  0.3532 -0.2323
 2990SOL     OW20431   1.928   2.069   6.194 -0.4709 -0.0812  0.4227
 2990SOL    HW120432   2.015   2.037   6.170 -0.8683  0.2612 -1.4734
 2990SOL    HW220433   1.956   2.138   6.253  2.1495 -0.0046 -0.9033
 2991SOL     OW20434   0.262   3.580  14.794  0.2217 -0.1253  0.1326
 2991SOL    HW120435   0.345   3.545  14.762  0.9792  1.8679 -0.0684
 2991SOL    HW220436   0.203   3.505  14.793  0.6819 -0.4678 -0.8790
 2992SOL     OW20437   3.826   4.527   6.896 -0.4559 -0.3527 -0.2365
 2992SOL    HW120438   3.830   4.436   6.866 -2.3216 -0.7731  0.7612
 2992SOL    HW220439   3.752   4.530   6.957 -0.3626 -2.2089 -0.0321
 2993SOL     OW20440   1.670   1.505   9.762  0.4573 -0.0380  0.0074
 2993SOL    HW120441   1.577   1.525   9.754  0.2847 -1.0634 -0.5223
 2993SOL    HW220442   1.691   1.517   9.855  4.0625  0.9373 -0.9144
 2994SOL     OW20443   2.820   3.128   9.892  0.7021  0.0872  0.0462
 2994SOL    HW120444   2.849   3.091   9.809  0.4798 -0.6253  0.2854
 2994SOL    HW220445   2.893   3.113   9.952  1.2338  0.5191 -0.4951
 2995SOL     OW20446   2.337   0.588   5.368 -0.4027 -0.2908 -0.0439
 2995SOL    HW120447   2.311   0.669   5.412 -2.1446 -1.3831  0.9167
 2995SOL    HW220448   2.387   0.611   5.289 -0.6882  0.5243  0.0189
 2996SOL     OW20449   0.155   1.104   7.781  0.0621 -0.2035  0.0905
 2996SOL    HW120450   0.250   1.107   7.790 -0.1130  3.1423  0.5563
 2996SOL    HW220451   0.141   1.116   7.687  1.0794 -1.5883 -0.2431
 2997SOL     OW20452   3.271   2.037  11.297  0.1870  0.5053  0.3178
 2997SOL    HW120453   3.281   2.078  11.383 -2.5930  0.7623  0.5167
 2997SOL    HW220454   3.188   1.991  11.313 -0.0708  1.2833  1.2185
 2998SOL     OW20455   3.906   0.790   0.688  0.4599 -0.3253 -0.7111
 2998SOL    HW120456   3.965   0.857   0.722  2.0310 -1.2045 -1.6841
 2998SOL    HW220457   3.921   0.791   0.593 -0.1476 -1.7389 -0.8221
 2999SOL     OW20458   1.098   4.616   4.071 -0.0737 -0.3947  0.0132
 2999SOL    HW120459   1.164   4.610   4.001  0.4409  0.5302  0.4206
 2999SOL    HW220460   1.035   4.551   4.041  0.1031  0.8293 -2.9811
 3000SOL     OW20461   0.730   4.577   5.104 -0.5459  0.7535  0.2068
 3000SOL    HW120462   0.764   4.589   5.015 -1.8786  0.1657 -0.3921
 3000SOL    HW220463   0.656   4.636   5.095 -0.1024  1.3331  0.3722
 3001SOL     OW20464   4.382   1.960   2.761  0.3927  0.0828 -0.0971
 3001SOL    HW120465   4.365   1.873   2.724 -0.6133  0.2027  0.0791
 3001SOL    HW220466   4.453   1.935   2.819 -1.2172 -0.6158  1.5790
 3002SOL     OW20467   1.172   3.453   6.253  0.0925 -0.2582 -0.1647
 3002SOL    HW120468   1.184   3.526   6.313 -1.4362  0.7445 -1.0851
 3002SOL    HW220469   1.218   3.381   6.295 -0.0749  1.5463  3.0603
 3003SOL     OW20470   4.141   1.805   3.413  0.0191 -0.2292 -0.3998
 3003SOL    HW120471   4.146   1.756   3.331 -2.7941 -1.3611  0.1115
 3003SOL    HW220472   4.135   1.892   3.374  0.5944 -0.8151 -1.7987
 3004SOL     OW20473   4.089   2.594  10.522  0.2151  0.6064 -0.0970
 3004SOL    HW120474   4.110   2.511  10.479  0.7853 -0.2899  1.9162
 3004SOL    HW220475   4.150   2.650  10.472  0.1944  1.2596  0.5990
 3005SOL     OW20476   1.088   1.039   0.803 -0.0505  0.5717 -0.2829
 3005SOL    HW120477   1.162   0.980   0.814 -0.6997  0.2228  2.1672
 3005SOL    HW220478   1.133   1.114   0.763  1.8643 -0.9557 -0.9911
 3006SOL     OW20479   3.118   1.153   7.967  0.7826 -0.0177 -0.7125
 3006SOL    HW120480   3.140   1.235   7.922  2.1046  1.2486  2.3116
 3006SOL    HW220481   3.144   1.168   8.057  0.9432  1.1739 -0.9573
 3007SOL     OW20482   4.586   2.650   6.079 -0.4314  0.7047 -0.3331
 3007SOL    HW120483   4.546   2.570   6.114 -1.0608 -0.0473 -2.7755
 3007SOL    HW220484   4.506   2.703   6.087 -0.3059  1.1262 -1.9374
 3008SOL     OW20485   2.817   0.892  10.169 -0.1990  0.2231 -0.1018
 3008SOL    HW120486   2.723   0.885  10.189 -0.3520  1.5365 -0.3857
 3008SOL    HW220487   2.803   0.861  10.080  0.7746 -0.0274 -0.1681
 3009SOL     OW20488   2.218   1.768   6.720  0.0063  0.3397 -0.2351
 3009SOL    HW120489   2.307   1.800   6.708  1.5463 -3.1868  1.9617
 3009SOL    HW220490   2.217   1.776   6.816  0.4841 -1.1831 -0.1025
 3010SOL     OW20491   1.521   4.606   5.199  0.0240 -0.1955 -0.2388
 3010SOL    HW120492   1.579   4.539   5.236 -1.9646 -2.1165 -0.6505
 3010SOL    HW220493   1.487   4.644   5.280  0.7657 -2.6772  1.2241
 3011SOL     OW20494   0.370   2.838   3.230 -0.5310  0.1706 -0.6342
 3011SOL    HW120495   0.295   2.779   3.243 -0.1016 -0.3601 -0.5290
 3011SOL    HW220496   0.372   2.884   3.314  1.5563 -0.1992 -0.4957
 3012SOL     OW20497   0.593   1.485   7.583 -0.2999 -0.2683 -0.4455
 3012SOL    HW120498   0.649   1.452   7.654  0.8060 -0.2888 -1.3323
 3012SOL    HW220499   0.661   1.528   7.532  0.7989 -1.4510  0.0163
 3013SOL     OW20500   2.623   0.260   7.273 -0.0928 -0.0096 -0.6064
 3013SOL    HW120501   2.529   0.272   7.265 -0.4112 -2.1012 -0.0315
 3013SOL    HW220502   2.659   0.245   7.186  1.1718 -0.1298 -0.0646
 3014SOL     OW20503   2.670   3.177   4.538 -0.2763  0.1863  0.5702
 3014SOL    HW120504   2.761   3.157   4.517 -0.0102  0.3218  1.5755
 3014SOL    HW220505   2.684   3.254   4.594 -1.3693  0.2357  0.7772
 3015SOL     OW20506   2.603   1.811   6.404 -0.1858  0.5013  0.6897
 3015SOL    HW120507   2.552   1.740   6.364  0.2689  0.3931  0.3077
 3015SOL    HW220508   2.650   1.844   6.328 -3.1028 -0.6361 -1.6058
 3016SOL     OW20509   2.318   0.021   5.636 -0.2033 -0.1453 -0.0933
 3016SOL    HW120510   2.382   0.070   5.687 -1.5848  2.1700 -0.5599
 3016SOL    HW220511   2.352   4.658   5.638  2.5544  0.8826 -2.6123
 3017SOL     OW20512   4.682   2.756   9.243 -0.3228  0.1421  0.9532
 3017SOL    HW120513   4.657   2.693   9.311 -0.1803  1.2749  2.0696
 3017SOL    HW220514   4.660   2.708   9.164 -1.9745  1.7647  0.4429
 3018SOL     OW20515   4.451   0.386   8.050 -0.0338  0.6269 -0.0540
 3018SOL    HW120516   4.501   0.457   8.009 -0.5485  0.4428 -0.9876
 3018SOL    HW220517   4.524   0.323   8.054  1.6017  2.5037 -0.1293
 3019SOL     OW20518   2.769   2.267  13.485  0.3084  0.4649  0.2462
 3019SOL    HW120519   2.781   2.305  13.572  1.0603 -1.5835  1.0354
 3019SOL    HW220520   2.687   2.219  13.496  0.2934 -0.5759 -4.2137
 3020SOL     OW20521   3.589   3.614   4.091  0.0707  0.5329 -0.7311
 3020SOL    HW120522   3.656   3.554   4.058  0.6813  0.9432 -0.2526
 3020SOL    HW220523   3.574   3.664   4.011  3.2081  0.9380 -1.0813
 3021SOL     OW20524   4.660   1.495   4.920  0.5022 -0.0901 -0.2221
 3021SOL    HW120525   4.688   1.473   5.009  2.8547  0.3989 -0.8474
 3021SOL    HW220526   4.702   1.581   4.912 -0.1361  0.0404 -2.0342
 3022SOL     OW20527   2.382   4.671   3.328 -0.0778 -0.1632  0.0106
 3022SOL    HW120528   2.357   4.706   3.243  3.1576  1.5258 -0.2637
 3022SOL    HW220529   2.431   0.019   3.364  1.3198 -0.4607 -1.3156
 3023SOL     OW20530   3.603   1.988  14.074  0.0255 -0.1248  0.4139
 3023SOL    HW120531   3.528   2.001  14.016  0.8931 -1.8893 -1.1079
 3023SOL    HW220532   3.618   2.081  14.093 -0.8202  0.1310 -0.1692
 3024SOL     OW20533   3.603   0.702   4.049 -0.4934 -0.3235  0.6592
 3024SOL    HW120534   3.682   0.738   4.009  0.0680 -0.6982  1.4277
 3024SOL    HW220535   3.602   0.607   4.034  0.4334 -0.4055  1.1149
 3025SOL     OW20536   3.956   0.104   7.177 -0.9642  0.0783  0.4726
 3025SOL    HW120537   4.016   0.175   7.200  1.0463 -1.2938 -0.6010
 3025SOL    HW220538   3.876   0.151   7.153 -1.0091 -0.1647  0.1434
 3026SOL     OW20539   2.052   0.390  16.374 -0.0497  0.1845  0.1744
 3026SOL    HW120540   2.063   0.478  16.339 -1.0057 -0.3041 -1.3614
 3026SOL    HW220541   1.959   0.373  16.365 -0.2850  1.7959 -0.4084
 3027SOL     OW20542   3.570   4.367   9.080 -0.0857 -0.3913 -0.2056
 3027SOL    HW120543   3.522   4.417   9.147  1.3358  0.1531  0.3995
 3027SOL    HW220544   3.491   4.345   9.030  1.1195 -2.1911 -1.2954
 3028SOL     OW20545   1.503   3.681   7.130  0.1897  0.5728  0.1546
 3028SOL    HW120546   1.514   3.634   7.213 -1.2258  0.2243  0.1397
 3028SOL    HW220547   1.408   3.678   7.127  0.1583  1.6545  0.2456
 3029SOL     OW20548   2.805   3.135   8.855 -0.8227 -0.0872  0.6670
 3029SOL    HW120549   2.755   3.059   8.883 -0.5235 -0.3263  0.5515
 3029SOL    HW220550   2.735   3.191   8.820 -0.1436  0.4018  0.1000
 3030SOL     OW20551   0.972   0.951   2.349  0.2569  0.2039  0.0318
 3030SOL    HW120552   0.909   0.892   2.389  0.9488 -1.3591 -1.2145
 3030SOL    HW220553   1.052   0.912   2.385 -0.7268 -1.1810  0.6971
 3031SOL     OW20554   1.142   4.427   8.699  0.4058 -0.5546  0.2130
 3031SOL    HW120555   1.182   4.346   8.732  1.4807 -0.7998 -1.7378
 3031SOL    HW220556   1.069   4.397   8.644 -0.2084 -1.9521  1.7625
 3032SOL     OW20557   4.356   3.821   5.130 -0.6653 -0.2811  0.0779
 3032SOL    HW120558   4.354   3.882   5.204  0.2015 -0.1349 -0.0166
 3032SOL    HW220559   4.264   3.796   5.135 -1.3477  2.2584 -0.1630
 3033SOL     OW20560   2.609   3.456   7.550 -0.1960 -0.0124 -0.0216
 3033SOL    HW120561   2.554   3.427   7.624 -0.4308  0.5714  0.0311
 3033SOL    HW220562   2.684   3.476   7.606 -0.3552  0.4083  0.0419
 3034SOL     OW20563   1.754   3.433   1.882  0.2697  0.2117  0.1828
 3034SOL    HW120564   1.680   3.480   1.844  0.7161  0.0223 -0.9229
 3034SOL    HW220565   1.714   3.403   1.964 -0.3083 -0.9017 -0.5010
 3035SOL     OW20566   3.808   3.870  16.189  0.6665 -0.4791  0.4359
 3035SOL    HW120567   3.831   3.793  16.241 -1.0330  0.0028  1.9005
 3035SOL    HW220568   3.778   3.926  16.260  4.4173 -0.4372  2.0051
 3036SOL     OW20569   4.294   0.805  11.007 -0.1576  0.3265  0.2891
 3036SOL    HW120570   4.338   0.876  11.054  2.3826 -1.2340  0.3108
 3036SOL    HW220571   4.301   0.836  10.917  1.7982 -1.9887 -0.3387
 3037SOL     OW20572   3.940   2.751  10.368 -0.2896  0.9498 -0.0054
 3037SOL    HW120573   3.949   2.707  10.284  1.9463 -0.6190  1.0644
 3037SOL    HW220574   3.975   2.684  10.427  1.7081  0.6614 -1.5029
 3038SOL     OW20575   3.328   1.958   1.888 -0.8426  0.7138  0.0211
 3038SOL    HW120576   3.408   1.915   1.917  0.4406  1.7376 -2.0292
 3038SOL    HW220577   3.337   1.953   1.793 -0.7403 -0.1594  0.0756
 3039SOL     OW20578   3.400   2.081   2.930  0.7056 -0.1458  0.0341
 3039SOL    HW120579   3.403   2.139   2.854 -0.8638  1.6975  1.3769
 3039SOL    HW220580   3.489   2.047   2.933  0.3825 -1.0363 -0.2760
 3040SOL     OW20581   2.058   2.338   5.650 -0.7882  0.3147  0.2854
 3040SOL    HW120582   2.001   2.341   5.726 -0.0667  1.3223  0.7887
 3040SOL    HW220583   2.006   2.404   5.604 -0.7902 -1.0821 -1.7186
 3041SOL     OW20584   0.902   3.481   4.597  0.1017 -0.1660 -0.0902
 3041SOL    HW120585   0.984   3.433   4.595 -0.1538 -0.6381  0.9522
 3041SOL    HW220586   0.906   3.532   4.678  2.6437 -2.5072  1.2314
 3042SOL     OW20587   3.438   3.435   3.651  1.3658 -0.0113  0.4098
 3042SOL    HW120588   3.457   3.349   3.690 -0.2716 -0.0336  1.1413
 3042SOL    HW220589   3.388   3.415   3.572  1.8344  3.0874 -0.6615
 3043SOL     OW20590   2.503   2.920   0.091 -0.4496  1.0759 -0.6190
 3043SOL    HW120591   2.515   3.000   0.142  1.2557  1.4482 -1.5789
 3043SOL    HW220592   2.547   2.856   0.146  0.6722  0.4947 -2.1840
 3044SOL     OW20593   1.305   2.041  12.682 -0.6687  0.1862  0.0404
 3044SOL    HW120594   1.271   2.107  12.743 -1.5177  0.3210 -0.5871
 3044SOL    HW220595   1.400   2.047  12.687 -0.5707 -2.5677  1.6539
 3045SOL     OW20596   2.201   2.632   7.811  0.2962  0.1468  0.0749
 3045SOL    HW120597   2.204   2.565   7.879  0.1375 -1.7339 -1.7602
 3045SOL    HW220598   2.107   2.621   7.797  0.7018 -1.7133 -1.1366
 3046SOL     OW20599   2.955   2.520  16.816 -0.0007  0.1115 -0.0816
 3046SOL    HW120600   2.875   2.526  16.764  0.4170 -0.8200 -0.8325
 3046SOL    HW220601   2.982   2.609  16.838 -0.8915 -0.1088  1.9915
 3047SOL     OW20602   3.580   4.369   1.144 -0.1669  0.3323  0.1688
 3047SOL    HW120603   3.590   4.376   1.049  2.5303  2.0430  0.5677
 3047SOL    HW220604   3.582   4.460   1.173  1.9597  0.9578 -1.8599
 3048SOL     OW20605   0.885   1.826  11.662 -0.0273 -0.3936  0.3729
 3048SOL    HW120606   0.908   1.880  11.738 -0.7180  0.8686 -0.3362
 3048SOL    HW220607   0.810   1.780  11.700 -0.3411  1.1324  1.5915
 3049SOL     OW20608   2.674   1.110   7.784  0.2189  0.4916  0.0856
 3049SOL    HW120609   2.692   1.030   7.734 -2.1633 -0.5327  0.8810
 3049SOL    HW220610   2.762   1.132   7.815 -0.5361  2.3831  0.8811
 3050SOL     OW20611   3.376   4.447  14.904 -0.1704 -0.2876 -0.0425
 3050SOL    HW120612   3.298   4.409  14.943 -0.5933  0.5893 -0.0376
 3050SOL    HW220613   3.342   4.481  14.821  1.6041  2.1129  0.2306
 3051SOL     OW20614   3.529   0.243   6.246 -0.9124  0.1682 -0.6391
 3051SOL    HW120615   3.515   0.158   6.287 -0.1471  0.2463 -0.2100
 3051SOL    HW220616   3.547   0.226   6.154  4.0733 -2.3233  0.8295
 3052SOL     OW20617   1.150   1.657   2.860  0.4518  0.1201  0.7838
 3052SOL    HW120618   1.066   1.613   2.852 -0.5935  1.7158  3.0249
 3052SOL    HW220619   1.206   1.613   2.796  1.5887 -0.3715  2.1126
 3053SOL     OW20620   0.729   3.559   6.390 -0.6980  0.6366 -0.1895
 3053SOL    HW120621   0.684   3.514   6.319 -0.5132  0.5535 -0.2526
 3053SOL    HW220622   0.677   3.638   6.405 -1.5530  0.1862 -0.7652
 3054SOL     OW20623   3.687   4.592   6.304 -0.5135  0.1493  0.9132
 3054SOL    HW120624   3.603   4.638   6.310 -0.6224 -0.1653  1.7480
 3054SOL    HW220625   3.672   4.559   6.215 -0.7290  0.1246  0.9598
 3055SOL     OW20626   3.385   2.222  15.730 -0.5837 -0.1643  0.4328
 3055SOL    HW120627   3.365   2.313  15.709 -1.1774 -0.4337 -0.1571
 3055SOL    HW220628   3.453   2.235  15.796  0.0955 -0.0419 -0.2868
 3056SOL     OW20629   2.465   1.737  12.115  0.2501  0.0723  0.2433
 3056SOL    HW120630   2.539   1.782  12.154  0.5261 -0.6440  0.5488
 3056SOL    HW220631   2.461   1.658  12.169  1.6335  0.3330  0.7174
 3057SOL     OW20632   1.474   2.886   8.341  0.4723 -0.3586 -0.0929
 3057SOL    HW120633   1.390   2.894   8.387  0.2215 -2.2444 -0.2457
 3057SOL    HW220634   1.548   2.901   8.401 -0.7643  0.0668  1.3104
 3058SOL     OW20635   0.481   0.641   5.732  0.7358 -0.3629  0.0513
 3058SOL    HW120636   0.412   0.655   5.797 -0.4690  3.6286 -2.0548
 3058SOL    HW220637   0.433   0.614   5.653 -1.7867  2.1818  0.7082
 3059SOL     OW20638   1.293   2.505  11.631  0.1650 -0.5367  0.1875
 3059SOL    HW120639   1.316   2.412  11.628  1.9450 -0.1322  1.2639
 3059SOL    HW220640   1.340   2.519  11.549  1.0642 -0.0474  0.7873
 3060SOL     OW20641   4.370   1.107   2.694  0.4434  0.1638  0.1260
 3060SOL    HW120642   4.333   1.088   2.608  0.3982  1.3040 -0.1062
 3060SOL    HW220643   4.352   1.032   2.751 -0.9119  0.7739  0.4977
 3061SOL     OW20644   1.865   0.314   6.506  0.2228 -0.2927 -1.0518
 3061SOL    HW120645   1.828   0.381   6.563  0.5027 -0.5369 -0.5776
 3061SOL    HW220646   1.870   0.238   6.565 -1.6033  0.0977 -0.3854
 3062SOL     OW20647   1.153   2.401   5.655 -0.4489  0.0514 -0.2632
 3062SOL    HW120648   1.109   2.392   5.739  1.2382 -0.4943  0.5690
 3062SOL    HW220649   1.087   2.457   5.615  0.1429 -0.6280 -2.2138
 3063SOL     OW20650   1.146   2.035   6.542  0.0000  0.1928 -0.0389
 3063SOL    HW120651   1.198   2.025   6.622  0.9801  0.4089 -0.6518
 3063SOL    HW220652   1.138   2.131   6.543 -1.1429  0.1140 -2.1424
 3064SOL     OW20653   3.481   3.284  13.391 -0.2478  0.1492 -0.5086
 3064SOL    HW120654   3.562   3.335  13.387 -0.8784  1.2507  0.6373
 3064SOL    HW220655   3.422   3.334  13.448  1.2431  1.7678 -0.4039
 3065SOL     OW20656   3.372   0.353   4.259 -0.2053 -0.0787 -0.2879
 3065SOL    HW120657   3.382   0.275   4.204 -0.5340  0.2438 -0.8062
 3065SOL    HW220658   3.361   0.320   4.348 -0.6035 -1.9274 -1.0240
 3066SOL     OW20659   3.009   0.274   3.427  0.1736  0.2455  0.3054
 3066SOL    HW120660   3.003   0.228   3.343  0.0946  0.6304  0.1014
 3066SOL    HW220661   3.037   0.358   3.392 -0.7079 -0.0648 -1.1766
 3067SOL     OW20662   4.060   0.721  13.447 -0.3551 -0.5895  0.1744
 3067SOL    HW120663   4.116   0.762  13.513  1.9369  0.9588 -2.7461
 3067SOL    HW220664   4.126   0.658  13.419  0.0666 -0.5012  0.9691
 3068SOL     OW20665   4.161   4.404   7.717  0.1869  0.2744  0.4857
 3068SOL    HW120666   4.071   4.437   7.713 -0.1514 -0.7206 -0.0061
 3068SOL    HW220667   4.155   4.330   7.657  0.1550  0.6864 -0.0177
 3069SOL     OW20668   1.563   0.780  16.537  0.2758  0.3909 -0.1331
 3069SOL    HW120669   1.490   0.832  16.569 -1.0245 -0.3611 -1.8386
 3069SOL    HW220670   1.515   0.698  16.524  1.3867 -0.2391 -0.3709
 3070SOL     OW20671   4.160   1.452   3.377  0.5843  0.1668  0.1458
 3070SOL    HW120672   4.076   1.407   3.368 -0.3701  2.0862 -0.5431
 3070SOL    HW220673   4.199   1.432   3.292  1.5536 -0.7613  0.7959
 3071SOL     OW20674   3.521   4.191   5.794 -0.4036  0.2393  0.1797
 3071SOL    HW120675   3.498   4.165   5.705 -0.6611  1.3073 -0.0720
 3071SOL    HW220676   3.434   4.217   5.825  0.0524  1.2483  0.6237
 3072SOL     OW20677   4.330   3.961   5.366  0.6029  0.4674  0.2341
 3072SOL    HW120678   4.366   4.011   5.439  2.8071 -0.6178 -0.0946
 3072SOL    HW220679   4.238   3.986   5.375  0.4315  0.1964 -0.7027
 3073SOL     OW20680   4.678   2.797   7.182  0.1121  0.1631  0.1014
 3073SOL    HW120681   4.652   2.850   7.107  0.0080 -1.0056 -0.6969
 3073SOL    HW220682   4.603   2.738   7.197 -0.8175  1.5185  0.7491
 3074SOL     OW20683   3.416   0.159   4.492 -0.4419  0.2021  0.7941
 3074SOL    HW120684   3.421   0.110   4.574  0.0289 -1.8288 -0.4584
 3074SOL    HW220685   3.501   0.135   4.455 -1.1849 -0.8616 -0.2172
 3075SOL     OW20686   1.892   3.633  14.917 -0.4273 -0.2673 -0.4918
 3075SOL    HW120687   1.820   3.570  14.923 -0.6141 -0.0112 -0.0662
 3075SOL    HW220688   1.852   3.710  14.876  1.4818  1.8438  1.6380
 3076SOL     OW20689   1.483   3.381   5.581 -0.1487  0.7747  0.0705
 3076SOL    HW120690   1.440   3.303   5.547  0.3990 -0.1400  1.4699
 3076SOL    HW220691   1.520   3.345   5.661  0.0739  2.0799  0.5526
 3077SOL     OW20692   1.802   1.221  11.618  0.3527  0.4308 -0.1394
 3077SOL    HW120693   1.744   1.144  11.618 -2.2959  2.4320  1.4468
 3077SOL    HW220694   1.824   1.226  11.712  0.4348 -1.9815 -0.0292
 3078SOL     OW20695   3.160   0.216  16.159  0.0275  0.2983  0.2622
 3078SOL    HW120696   3.245   0.257  16.173 -0.5050  1.6486 -0.4261
 3078SOL    HW220697   3.180   0.174  16.075 -2.7230  1.4963 -1.0137
 3079SOL     OW20698   2.048   4.320   3.119  0.3317  0.4493 -0.1108
 3079SOL    HW120699   2.124   4.331   3.062 -0.5344  0.8359 -1.2054
 3079SOL    HW220700   1.980   4.355   3.062 -1.8917 -2.2096  0.9197
 3080SOL     OW20701   2.514   0.042  11.807  0.0002 -0.7359 -0.1635
 3080SOL    HW120702   2.523   0.117  11.866 -0.1715  0.7665 -2.0624
 3080SOL    HW220703   2.432   0.059  11.761 -1.1352  0.4766  2.2607
 3081SOL     OW20704   0.857   4.598   7.309  0.5879 -0.6016 -0.2621
 3081SOL    HW120705   0.807   4.674   7.338 -1.4280 -1.1247 -2.3756
 3081SOL    HW220706   0.883   4.557   7.392 -2.7830 -0.3734  0.8948
 3082SOL     OW20707   3.080   3.502   9.930  0.1687 -0.1493  0.4435
 3082SOL    HW120708   3.093   3.462  10.016  2.4097  2.4946  1.3401
 3082SOL    HW220709   3.048   3.589   9.952 -0.9381 -0.5999  0.6075
 3083SOL     OW20710   0.132   1.476   5.959  0.0695  0.5548 -0.5506
 3083SOL    HW120711   0.158   1.385   5.940 -0.8306  0.1191  0.3372
 3083SOL    HW220712   0.115   1.465   6.052 -1.2781  0.7059 -0.7795
 3084SOL     OW20713   1.971   1.803   4.012 -0.2284 -0.2202 -0.2599
 3084SOL    HW120714   1.891   1.751   4.008 -0.1731 -0.5748  2.7710
 3084SOL    HW220715   2.034   1.742   3.976  0.3729  0.1036  0.2421
 3085SOL     OW20716   3.069   0.382   5.014  0.3044  0.2815 -0.4015
 3085SOL    HW120717   3.053   0.332   5.094  3.4646  1.2377  0.8287
 3085SOL    HW220718   2.993   0.438   4.997  0.7823  1.2518  0.6867
 3086SOL     OW20719   0.183   4.289  12.297  0.2381  0.0356 -0.3783
 3086SOL    HW120720   0.252   4.228  12.271  0.6734 -0.9536  3.0237
 3086SOL    HW220721   0.216   4.348  12.364 -1.0170  0.7686 -0.4118
 3087SOL     OW20722   1.430   0.774   0.083  0.3200  0.0789 -0.3282
 3087SOL    HW120723   1.447   0.832   0.157  1.4415 -0.4857 -0.1309
 3087SOL    HW220724   1.337   0.789   0.068 -0.7942 -3.2525  3.1487
 3088SOL     OW20725   2.604   0.512  12.423  0.0600  0.0188  0.0815
 3088SOL    HW120726   2.683   0.522  12.371 -0.2556  0.5300 -0.2932
 3088SOL    HW220727   2.637   0.483  12.508  1.7439  1.3810 -0.1087
 3089SOL     OW20728   0.632   3.639   7.333  0.0131 -0.4860 -0.0160
 3089SOL    HW120729   0.717   3.611   7.367 -0.3493 -0.6172  0.7903
 3089SOL    HW220730   0.583   3.557   7.324 -0.5329  0.0634 -2.0885
 3090SOL     OW20731   0.963   1.291   8.931  0.2661 -0.5065  0.2280
 3090SOL    HW120732   1.055   1.279   8.907  0.1538  0.5580 -0.7879
 3090SOL    HW220733   0.970   1.363   8.993 -0.1758 -1.3568  1.2572
 3091SOL     OW20734   2.218   1.683   3.341  0.3582  0.1028 -0.1713
 3091SOL    HW120735   2.275   1.703   3.267  2.6925 -1.9709  1.0897
 3091SOL    HW220736   2.268   1.727   3.410 -1.2095  2.0504 -0.2520
 3092SOL     OW20737   4.607   1.561   2.224  0.2850 -0.2474 -0.0827
 3092SOL    HW120738   4.613   1.549   2.319 -0.5313 -0.1318 -0.0152
 3092SOL    HW220739   4.545   1.495   2.193  2.6810 -1.9235 -1.3152
 3093SOL     OW20740   3.092   1.641   7.283  0.1855  0.5138 -0.6689
 3093SOL    HW120741   3.183   1.671   7.273  0.8326 -1.0572  0.3560
 3093SOL    HW220742   3.084   1.608   7.373  0.6816  1.1772 -0.3818
 3094SOL     OW20743   0.914   3.111   6.849 -0.2592 -0.2147  0.0103
 3094SOL    HW120744   0.844   3.047   6.862  0.8365 -1.5049 -0.5106
 3094SOL    HW220745   0.857   3.188   6.845 -1.6119 -1.1859  0.3733
 3095SOL     OW20746   1.105   4.388  16.051  0.4556 -0.0252  0.3149
 3095SOL    HW120747   1.115   4.401  16.145 -0.7320  2.4692  0.0859
 3095SOL    HW220748   1.152   4.465  16.021 -2.5079  1.5804 -0.2493
 3096SOL     OW20749   2.128   2.641   1.061  0.1586 -0.9243  0.2484
 3096SOL    HW120750   2.209   2.657   1.012  0.5080  1.1102  1.4678
 3096SOL    HW220751   2.114   2.732   1.090  1.7448 -0.6237  0.0713
 3097SOL     OW20752   1.413   1.018   4.996 -0.0749 -0.0201 -0.2472
 3097SOL    HW120753   1.435   0.958   4.925  0.0976 -0.6372  0.3281
 3097SOL    HW220754   1.501   1.044   5.025 -0.4658  1.9972 -0.8897
 3098SOL     OW20755   1.612   1.350  16.109  0.0960 -0.2802 -0.6017
 3098SOL    HW120756   1.538   1.410  16.123  0.2626 -1.2203  4.1193
 3098SOL    HW220757   1.675   1.351  16.181  1.3204  0.4765 -1.6860
 3099SOL     OW20758   1.293   1.894   6.339  0.4231  0.0459  0.3060
 3099SOL    HW120759   1.329   1.827   6.396 -2.6664 -1.0174  0.9951
 3099SOL    HW220760   1.256   1.959   6.400 -0.6580  0.4806 -0.8002
 3100SOL     OW20761   0.290   0.504  15.640 -0.3715 -0.0385  0.0661
 3100SOL    HW120762   0.261   0.414  15.656 -0.6219 -0.0251 -0.3347
 3100SOL    HW220763   0.211   0.556  15.658 -0.9242 -1.4454  1.7020
 3101SOL     OW20764   0.012   3.744   4.916  0.1633  0.2195  0.6196
 3101SOL    HW120765   0.010   3.660   4.961  0.5277 -1.1347 -1.9227
 3101SOL    HW220766   0.098   3.776   4.942 -0.5354  0.9211  2.1087
 3102SOL     OW20767   1.356   1.607  11.439  0.0105  0.1311  0.1909
 3102SOL    HW120768   1.371   1.551  11.363 -0.4508 -0.3659  0.4644
 3102SOL    HW220769   1.262   1.628  11.443 -0.2346 -1.2238  1.8984
 3103SOL     OW20770   1.774   2.100  13.363 -0.0369  0.1680  0.5848
 3103SOL    HW120771   1.774   2.028  13.299  1.3602  1.9759 -1.4324
 3103SOL    HW220772   1.812   2.173  13.314 -0.2174 -0.9545 -1.2474
 3104SOL     OW20773   3.257   4.269   2.723  0.0105 -0.1371  0.7369
 3104SOL    HW120774   3.286   4.195   2.669  2.0674  1.0336  0.2052
 3104SOL    HW220775   3.229   4.223   2.802 -0.0350  0.3055  0.9791
 3105SOL     OW20776   0.966   0.505   6.311  0.4478  0.2133  0.0392
 3105SOL    HW120777   1.031   0.565   6.275 -0.3456  2.0872  1.7543
 3105SOL    HW220778   0.960   0.529   6.404  0.7787 -0.6400  0.2828
 3106SOL     OW20779   2.137   0.173   6.201  0.3047  0.1382  0.0902
 3106SOL    HW120780   2.185   0.256   6.201 -2.2043  1.5815  0.8781
 3106SOL    HW220781   2.049   0.210   6.213 -0.3328 -0.9988 -1.1182
 3107SOL     OW20782   1.300   1.404   4.548 -0.4781  0.0858 -0.8819
 3107SOL    HW120783   1.303   1.489   4.592  0.4180 -0.7717  0.7006
 3107SOL    HW220784   1.282   1.345   4.621 -1.6133  0.4962 -0.8253
 3108SOL     OW20785   1.556   1.337   1.986 -0.6526  0.0853  0.7059
 3108SOL    HW120786   1.511   1.299   1.910  0.9729  1.9488 -1.1951
 3108SOL    HW220787   1.552   1.260   2.042  0.5603 -1.3167 -1.1422
 3109SOL     OW20788   1.459   4.342   8.054 -0.3610  0.3625  0.0847
 3109SOL    HW120789   1.437   4.419   8.107  0.5105 -0.9227  2.2923
 3109SOL    HW220790   1.526   4.310   8.114 -0.2337  0.9045  0.2301
 3110SOL     OW20791   2.970   0.792   7.208 -0.6545  0.2769 -0.0170
 3110SOL    HW120792   2.943   0.834   7.127 -0.6092  1.0039  0.3469
 3110SOL    HW220793   2.956   0.698   7.195  0.9844  0.1991 -1.2093
 3111SOL     OW20794   1.823   1.598   2.046 -0.0062  0.3416  0.1218
 3111SOL    HW120795   1.840   1.654   2.121 -1.7885 -0.2585  0.9685
 3111SOL    HW220796   1.729   1.584   2.061 -0.1509  2.2287  1.0376
 3112SOL     OW20797   2.678   2.489   0.195 -0.4796  1.0302  0.3169
 3112SOL    HW120798   2.740   2.547   0.239  0.9971  1.3673 -2.2126
 3112SOL    HW220799   2.717   2.401   0.194  0.0986  1.2883  0.1026
 3113SOL     OW20800   2.157   1.654   6.496  0.0673  0.1061  0.0349
 3113SOL    HW120801   2.178   1.687   6.583  0.3999 -0.9541  0.3652
 3113SOL    HW220802   2.152   1.736   6.447 -0.5146 -0.8326 -1.5059
 3114SOL     OW20803   1.659   0.954  11.882 -0.0412 -0.3172 -0.7691
 3114SOL    HW120804   1.724   0.889  11.910 -0.5041 -0.2583  0.4315
 3114SOL    HW220805   1.660   1.025  11.946  0.5459 -1.7643  0.8285
 3115SOL     OW20806   0.155   1.834   9.992 -0.4519  0.1726 -0.2693
 3115SOL    HW120807   0.098   1.758   9.976 -0.7577 -0.1624  2.4615
 3115SOL    HW220808   0.145   1.851  10.086  1.2880  3.5463 -0.7175
 3116SOL     OW20809   2.956   2.153   4.086 -0.8756  0.2047 -0.2954
 3116SOL    HW120810   2.876   2.102   4.073 -1.0767  1.2692 -3.0917
 3116SOL    HW220811   3.008   2.113   4.017  1.0130  3.7043 -0.9170
 3117SOL     OW20812   4.337   0.462   5.569 -0.2202  0.2410  0.1710
 3117SOL    HW120813   4.430   0.449   5.553 -0.0944  0.8669  0.3943
 3117SOL    HW220814   4.314   0.392   5.508 -0.3883  1.6332 -1.3605
 3118SOL     OW20815   2.216   1.183   8.481  0.0234  0.4749  0.3415
 3118SOL    HW120816   2.300   1.191   8.527  0.3571  0.3478 -0.2500
 3118SOL    HW220817   2.201   1.278   8.475 -0.2714  0.2904 -1.6841
 3119SOL     OW20818   1.265   2.944  16.861  0.2188  0.1999  0.1182
 3119SOL    HW120819   1.190   2.890  16.836  0.2825  0.0486  0.2533
 3119SOL    HW220820   1.237   3.025  16.817  0.2619  0.4496  0.5465
 3120SOL     OW20821   0.767   3.420  11.490 -0.2751  0.0165 -0.5997
 3120SOL    HW120822   0.754   3.515  11.495  1.9053  0.4237 -2.5311
 3120SOL    HW220823   0.808   3.403  11.574 -0.5244 -1.0132 -0.6849
 3121SOL     OW20824   3.439   0.181   2.000  0.2143  0.5847 -0.0939
 3121SOL    HW120825   3.456   0.265   2.042  3.3006  0.8263 -1.8192
 3121SOL    HW220826   3.420   0.127   2.076  2.3304  1.6681  1.1971
 3122SOL     OW20827   2.997   0.346  16.819 -0.0313  0.7250 -0.3591
 3122SOL    HW120828   2.989   0.297  16.901  1.4496  0.6444 -0.2563
 3122SOL    HW220829   2.905   0.368  16.807  0.1321  2.4030  1.5797
 3123SOL     OW20830   1.315   0.676  15.303 -0.1950 -0.2407 -0.0972
 3123SOL    HW120831   1.252   0.640  15.365  0.9376 -1.0679  0.5801
 3123SOL    HW220832   1.276   0.761  15.282  2.7602  0.8661 -1.0826
 3124SOL     OW20833   1.605   2.424  11.945 -0.1491 -0.2344 -0.1669
 3124SOL    HW120834   1.580   2.511  11.977 -1.3396 -0.2791 -0.9625
 3124SOL    HW220835   1.653   2.448  11.865 -1.4276  0.0525 -0.8560
 3125SOL     OW20836   2.073   4.060   3.407 -0.0323 -0.5774 -0.0592
 3125SOL    HW120837   2.104   4.142   3.444  0.6610 -1.5462  1.4965
 3125SOL    HW220838   1.988   4.084   3.370 -0.3324  1.1790  1.7879
 3126SOL     OW20839   4.364   0.004  11.503  0.7711  0.2188 -0.4079
 3126SOL    HW120840   4.420   0.014  11.426 -0.4498  3.0766 -0.9258
 3126SOL    HW220841   4.384   0.082  11.557  0.4490 -0.0895  0.1602
 3127SOL     OW20842   2.355   4.708   8.281  0.0309  0.1058  0.3131
 3127SOL    HW120843   2.451   4.705   8.289  0.1701 -1.3364 -1.8581
 3127SOL    HW220844   2.344   0.075   8.297  0.2748  0.5470 -2.0051
 3128SOL     OW20845   4.374   0.622   2.798 -0.5726 -0.0158 -0.0033
 3128SOL    HW120846   4.348   0.711   2.824 -0.2501 -0.0449  0.4187
 3128SOL    HW220847   4.357   0.574   2.879  1.2058 -0.1848  0.2689
 3129SOL     OW20848   0.704   4.586  13.240 -0.2333 -0.0272  1.0052
 3129SOL    HW120849   0.674   4.495  13.242  0.1195 -0.1869 -2.4420
 3129SOL    HW220850   0.619   4.625  13.259 -0.9521 -0.1432 -2.0360
 3130SOL     OW20851   1.942   0.960   8.061 -0.1473 -0.3218  0.1884
 3130SOL    HW120852   1.869   1.022   8.056  0.1898 -0.0112 -0.9223
 3130SOL    HW220853   2.021   1.014   8.058 -0.8546  0.7366  0.4336
 3131SOL     OW20854   1.909   2.734  15.556  0.2722  0.4372  0.0028
 3131SOL    HW120855   1.999   2.765  15.544  0.6299 -0.4199  0.5233
 3131SOL    HW220856   1.914   2.646  15.520  0.6790  1.3293 -2.1225
 3132SOL     OW20857   1.753   3.782   3.669 -0.4074 -0.6950 -0.3395
 3132SOL    HW120858   1.807   3.858   3.647 -0.7237 -0.4472 -0.2595
 3132SOL    HW220859   1.726   3.741   3.587 -1.1945  0.9163 -0.8929
 3133SOL     OW20860   0.895   0.160   5.905  0.5973 -0.0237  0.3093
 3133SOL    HW120861   0.877   0.219   5.979  2.3734  0.5204  0.3205
 3133SOL    HW220862   0.843   0.198   5.834 -0.9589  0.9461  1.9392
 3134SOL     OW20863   3.011   1.886   4.369 -0.1558  0.0444  0.6259
 3134SOL    HW120864   2.986   1.964   4.419 -1.9981 -0.5278  0.6134
 3134SOL    HW220865   3.095   1.920   4.340 -0.1149 -0.7473 -0.1697
 3135SOL     OW20866   2.922   4.673   2.057  0.2530  0.3390 -0.0535
 3135SOL    HW120867   2.876   4.706   2.134  1.4762  0.5437  0.5914
 3135SOL    HW220868   2.928   4.579   2.076  0.4126  0.4328  0.3618
 3136SOL     OW20869   0.337   1.672  16.200 -0.2990 -0.1581  0.3854
 3136SOL    HW120870   0.423   1.640  16.173 -1.5234 -0.8870 -2.5870
 3136SOL    HW220871   0.316   1.713  16.116 -0.7197 -0.8820  0.1453
 3137SOL     OW20872   1.161   4.125   6.441  0.2860  0.2727  0.2672
 3137SOL    HW120873   1.138   4.217   6.453 -0.8955 -0.0028  0.0974
 3137SOL    HW220874   1.238   4.133   6.384 -0.1613 -1.7660 -0.6282
 3138SOL     OW20875   3.967   3.947   4.684 -0.6590  0.6841  0.0068
 3138SOL    HW120876   3.980   3.853   4.700  0.4058  0.4616 -2.2173
 3138SOL    HW220877   3.966   3.970   4.777  1.9087 -3.0310  0.9411
 3139SOL     OW20878   0.510   3.832   4.490  0.6011 -0.2018  0.1047
 3139SOL    HW120879   0.416   3.847   4.488  0.6352 -0.1284 -1.5260
 3139SOL    HW220880   0.541   3.919   4.514  1.6339 -0.1059 -1.5107
 3140SOL     OW20881   1.061   0.240  14.974  0.2121 -0.3192  0.6671
 3140SOL    HW120882   1.079   0.306  15.042  1.2191  1.0201 -0.8790
 3140SOL    HW220883   1.112   0.271  14.899 -3.1370  0.4902 -1.2446
 3141SOL     OW20884   1.572   3.899   4.256 -0.2491  0.1394  0.3749
 3141SOL    HW120885   1.554   3.970   4.194  1.5979  0.9618  0.7457
 3141SOL    HW220886   1.635   3.942   4.314 -0.9018  0.7915  0.5999
 3142SOL     OW20887   2.284   4.410   7.663  0.4456  0.8027  0.3236
 3142SOL    HW120888   2.357   4.350   7.647  1.3502  1.4942  1.8119
 3142SOL    HW220889   2.222   4.338   7.654  2.0013 -0.3409 -1.2245
 3143SOL     OW20890   2.330   2.881   0.386 -0.0856  0.0540 -0.5651
 3143SOL    HW120891   2.286   2.796   0.381  0.6402 -0.4679  1.7875
 3143SOL    HW220892   2.278   2.938   0.330 -0.7528  0.4470  0.4652
 3144SOL     OW20893   0.201   0.036   4.217 -0.7903 -0.2759 -0.0664
 3144SOL    HW120894   0.191   0.081   4.134 -3.0737  0.7786  0.7836
 3144SOL    HW220895   0.283   4.715   4.200 -0.5020  1.1523 -2.4457
 3145SOL     OW20896   2.676   1.233   4.848  0.7698  0.1719 -0.2385
 3145SOL    HW120897   2.671   1.196   4.760  2.8246 -0.4854 -0.0960
 3145SOL    HW220898   2.772   1.231   4.855  0.8279  0.6601 -0.9233
 3146SOL     OW20899   4.126   0.084  17.047 -0.0777  0.6362 -0.5134
 3146SOL    HW120900   4.057   0.110  16.986  0.2679  1.7217 -0.4403
 3146SOL    HW220901   4.132   0.170  17.089  2.8375  0.3870 -0.4309
 3147SOL     OW20902   0.819   2.818   1.830 -0.4975 -0.0930  0.5807
 3147SOL    HW120903   0.787   2.838   1.742  0.8045 -0.6164  0.0011
 3147SOL    HW220904   0.804   2.724   1.829  1.4841 -0.4127  1.4825
 3148SOL     OW20905   2.942   0.208  13.089 -0.1889  0.5537 -0.0180
 3148SOL    HW120906   2.910   0.298  13.098 -2.3814 -0.1934 -0.4443
 3148SOL    HW220907   2.891   0.158  13.152 -0.3205  0.6884 -0.0164
 3149SOL     OW20908   4.042   1.039   7.652 -0.8990  0.2919 -0.2592
 3149SOL    HW120909   3.956   1.030   7.691 -0.8114  2.0268  0.3356
 3149SOL    HW220910   4.065   0.949   7.626  0.0957  0.0831  1.3200
 3150SOL     OW20911   2.856   3.735   4.637  0.1666  1.0029  0.0670
 3150SOL    HW120912   2.931   3.764   4.689  0.0586  0.5894  0.4502
 3150SOL    HW220913   2.878   3.757   4.547  2.5065 -0.2813  0.3357
 3151SOL     OW20914   2.134   1.744   7.007  0.0995  0.1846  0.0318
 3151SOL    HW120915   2.050   1.706   6.982  0.1698 -1.3887  2.1181
 3151SOL    HW220916   2.164   1.681   7.073  0.0078 -1.9361 -1.9800
 3152SOL     OW20917   2.671   3.733   7.429 -0.0900  0.3167  0.2950
 3152SOL    HW120918   2.748   3.726   7.486  0.4961 -0.7585 -0.6171
 3152SOL    HW220919   2.663   3.648   7.385 -1.2849 -0.3368  1.7691
 3153SOL     OW20920   0.223   2.164   3.749  0.0341  0.4514  0.3097
 3153SOL    HW120921   0.179   2.229   3.803  1.5489  0.8994  1.0215
 3153SOL    HW220922   0.315   2.192   3.744  0.4006 -0.5739  1.4099
 3154SOL     OW20923   2.474   4.409   8.927 -0.9326  0.1919 -0.0721
 3154SOL    HW120924   2.488   4.467   8.852  1.0870 -1.2661 -0.8185
 3154SOL    HW220925   2.379   4.421   8.935 -1.0723  0.5412 -2.3176
 3155SOL     OW20926   2.386   2.445   9.784  0.1961 -0.3619  0.0231
 3155SOL    HW120927   2.358   2.392   9.710 -1.3968 -0.7645  0.8925
 3155SOL    HW220928   2.341   2.525   9.757  0.9814  0.1255  0.1598
 3156SOL     OW20929   2.715   4.457   9.018  0.1230  0.0658 -0.0326
 3156SOL    HW120930   2.623   4.432   9.013 -0.2786  1.8549 -1.4518
 3156SOL    HW220931   2.757   4.375   8.992 -0.7957 -0.2478 -0.4947
 3157SOL     OW20932   2.570   3.615   8.867 -0.4355  0.2272 -0.0472
 3157SOL    HW120933   2.516   3.542   8.897 -2.6576  1.9166  0.0468
 3157SOL    HW220934   2.521   3.695   8.886  0.8035  1.3264 -1.4566
 3158SOL     OW20935   2.671   2.326   5.756  0.8797 -0.2766 -0.0351
 3158SOL    HW120936   2.740   2.369   5.806  2.5896  0.6146 -3.1343
 3158SOL    HW220937   2.700   2.237   5.773  4.7035  1.5200  2.9030
 3159SOL     OW20938   0.963   0.565   9.584  0.4499  0.6634 -0.4535
 3159SOL    HW120939   0.916   0.629   9.637  0.5946  0.7569 -0.4362
 3159SOL    HW220940   0.925   0.489   9.627 -1.5998  0.2769 -2.9480
 3160SOL     OW20941   2.606   3.569   8.361 -0.3686  0.5001  0.4549
 3160SOL    HW120942   2.542   3.595   8.427 -1.5781  1.5572 -1.1550
 3160SOL    HW220943   2.623   3.482   8.398  0.6046  1.0707  1.3713
 3161SOL     OW20944   4.566   3.856   1.669 -0.4561 -0.5297  0.2396
 3161SOL    HW120945   4.621   3.820   1.599 -1.2818 -1.9371  0.3260
 3161SOL    HW220946   4.564   3.946   1.636  1.7495 -1.7154 -3.2190
 3162SOL     OW20947   1.894   3.372  11.655 -0.3776  0.2822 -0.0939
 3162SOL    HW120948   1.886   3.338  11.566 -0.0136 -1.0622  0.4037
 3162SOL    HW220949   1.920   3.460  11.626 -1.4454  0.3307 -0.8959
 3163SOL     OW20950   0.827   1.385   3.078  0.2460 -0.2046 -0.3209
 3163SOL    HW120951   0.861   1.308   3.124  1.2612  0.8056  0.6251
 3163SOL    HW220952   0.737   1.380   3.113  0.3078  0.3847 -0.0621
 3164SOL     OW20953   1.821   4.416   4.484  0.0447  0.1297  0.3037
 3164SOL    HW120954   1.862   4.408   4.398  0.1823  0.9882  0.2871
 3164SOL    HW220955   1.816   4.512   4.482 -2.7479 -0.0320  0.6649
 3165SOL     OW20956   2.726   3.460  14.083  0.9110  0.3912  0.1987
 3165SOL    HW120957   2.655   3.520  14.109  0.6172 -0.0653  0.4502
 3165SOL    HW220958   2.790   3.479  14.152 -0.4529  0.0500  1.5582
 3166SOL     OW20959   0.029   1.340   2.687  0.1835  0.7355  0.1393
 3166SOL    HW120960   0.106   1.348   2.744  0.4743 -0.1864 -0.1251
 3166SOL    HW220961   0.011   1.246   2.688 -0.9466  0.9545  1.3458
 3167SOL     OW20962   2.504   3.138   3.786 -0.6353  0.4147  0.5986
 3167SOL    HW120963   2.438   3.096   3.731 -0.1897  1.6645 -0.8882
 3167SOL    HW220964   2.480   3.230   3.780 -1.5862  0.1464  0.4168
 3168SOL     OW20965   1.346   0.370  17.565  0.2956  0.4185  0.0234
 3168SOL    HW120966   1.259   0.362  17.525  0.4700 -0.3124 -0.2050
 3168SOL    HW220967   1.393   0.420  17.498  0.4554 -0.8844 -0.8299
 3169SOL     OW20968   3.241   4.244   3.360  0.2322  0.1145  0.1533
 3169SOL    HW120969   3.162   4.245   3.306 -2.4558 -0.3754  4.1684
 3169SOL    HW220970   3.205   4.285   3.438  1.7327  0.5324  0.6213
 3170SOL     OW20971   2.684   2.368   3.688 -0.0985 -0.2453 -0.1556
 3170SOL    HW120972   2.650   2.354   3.600 -0.6461 -0.4408  0.0899
 3170SOL    HW220973   2.733   2.287   3.706 -0.0235 -0.2372 -0.3221
 3171SOL     OW20974   2.576   2.864   5.698  0.1194 -0.1991  0.3518
 3171SOL    HW120975   2.566   2.959   5.707 -1.5646 -0.4102  0.6649
 3171SOL    HW220976   2.503   2.842   5.640 -0.8863  0.9903  1.1549
 3172SOL     OW20977   1.439   1.717   3.476 -0.1205  0.4251 -0.3650
 3172SOL    HW120978   1.377   1.709   3.549  0.2116  0.2656 -0.1020
 3172SOL    HW220979   1.487   1.634   3.470 -1.3490 -0.2210 -1.2345
 3173SOL     OW20980   2.657   2.601   8.399  0.1024 -0.2110  0.5232
 3173SOL    HW120981   2.682   2.527   8.344  0.2607 -0.9038  1.5167
 3173SOL    HW220982   2.732   2.659   8.397  0.5713 -0.9735 -3.9365
 3174SOL     OW20983   2.961   2.586  10.321 -0.1080 -0.4326  0.3059
 3174SOL    HW120984   3.027   2.636  10.273  0.0429 -0.2453  0.7143
 3174SOL    HW220985   2.887   2.580  10.260  1.0767 -0.9558 -1.0918
 3175SOL     OW20986   0.087   0.104   4.906 -0.4128  0.6488 -0.1434
 3175SOL    HW120987   0.180   0.115   4.921  0.2914 -2.7858 -2.0441
 3175SOL    HW220988   0.047   0.183   4.944 -0.0654  0.3610  0.8316
 3176SOL     OW20989   2.498   2.412   1.117 -1.1290 -0.8249  0.3602
 3176SOL    HW120990   2.492   2.447   1.206 -0.0062  0.1040  0.0777
 3176SOL    HW220991   2.554   2.339   1.140  0.7303  0.2326 -0.8310
 3177SOL     OW20992   3.037   3.700  17.592  0.1985  0.1016  0.4468
 3177SOL    HW120993   2.949   3.738  17.599  0.7657  1.7990 -1.9926
 3177SOL    HW220994   3.080   3.777  17.556  0.2520  1.3214  3.0953
 3178SOL     OW20995   3.654   2.032  10.650  0.0819  0.0902 -0.4475
 3178SOL    HW120996   3.648   1.951  10.700 -3.9829  0.1374 -0.9068
 3178SOL    HW220997   3.703   2.085  10.714 -0.3893 -1.4106  1.1548
 3179SOL     OW20998   3.061   1.236   4.012 -0.0362  0.4132  0.1902
 3179SOL    HW120999   3.072   1.247   4.106  0.7696  1.8877 -0.0829
 3179SOL    HW221000   2.977   1.190   4.016 -0.4170  1.1061  0.1410
 3180SOL     OW21001   3.472   2.762   6.909  0.0708 -0.0684 -0.2602
 3180SOL    HW121002   3.500   2.747   6.999  1.4347 -0.8070 -0.8079
 3180SOL    HW221003   3.452   2.855   6.899 -0.2344  0.1667  2.5013
 3181SOL     OW21004   2.847   1.429   7.508  0.2643  0.4685  0.0472
 3181SOL    HW121005   2.897   1.505   7.538 -1.6370  0.9115  2.0619
 3181SOL    HW221006   2.910   1.359   7.527  0.1911  0.1615 -0.8655
 3182SOL     OW21007   0.170   3.235   9.327  0.0024 -0.4548 -0.0543
 3182SOL    HW121008   0.110   3.171   9.288 -1.2501  0.3547  0.5530
 3182SOL    HW221009   0.232   3.178   9.373  2.7016 -0.1254 -3.2738
 3183SOL     OW21010   4.708   3.870   6.054 -0.2348 -0.3256 -0.0498
 3183SOL    HW121011   0.014   3.961   6.059  0.3238 -0.5018 -0.4242
 3183SOL    HW221012   0.018   3.832   5.974 -2.3857 -1.2969 -0.5617
 3184SOL     OW21013   3.883   2.137   4.479 -0.3613 -0.9215  0.3570
 3184SOL    HW121014   3.857   2.045   4.486 -1.2618 -0.8201 -1.7072
 3184SOL    HW221015   3.808   2.181   4.439 -0.3398 -0.0479  1.3064
 3185SOL     OW21016   2.131   4.290  13.479  0.7820  0.0703  0.2831
 3185SOL    HW121017   2.127   4.258  13.389  0.4800 -3.2262  1.4579
 3185SOL    HW221018   2.042   4.275  13.510  2.0390 -1.0435  3.3367
 3186SOL     OW21019   0.390   2.398   6.689  0.0769  0.3588  0.6017
 3186SOL    HW121020   0.422   2.487   6.677  0.0157  0.2049 -0.6940
 3186SOL    HW221021   0.449   2.339   6.643  1.5620  2.3064  0.0160
 3187SOL     OW21022   3.359   3.514   8.563  0.4222  0.3049  0.0753
 3187SOL    HW121023   3.395   3.426   8.569 -0.9960 -0.1966  1.1426
 3187SOL    HW221024   3.301   3.521   8.639  1.4100 -1.7476  1.0195
 3188SOL     OW21025   1.937   4.244   3.571 -0.8065 -0.0360 -0.5953
 3188SOL    HW121026   1.980   4.317   3.527 -0.2494  0.1643  0.2922
 3188SOL    HW221027   1.870   4.287   3.624 -1.6573 -1.2239 -0.7057
 3189SOL     OW21028   3.732   3.384   3.370 -0.2666  0.2619  0.2865
 3189SOL    HW121029   3.814   3.422   3.339  0.0445  0.7279  1.6623
 3189SOL    HW221030   3.761   3.368   3.460 -0.6595 -1.1313  0.1718
 3190SOL     OW21031   3.280   3.281   8.365 -0.1400  0.3058 -0.4401
 3190SOL    HW121032   3.197   3.298   8.320  0.3495  2.4356 -0.5568
 3190SOL    HW221033   3.305   3.370   8.391  0.7615 -0.1111  0.1031
 3191SOL     OW21034   2.901   2.706   0.019 -0.6754 -0.3202  0.0385
 3191SOL    HW121035   2.893   2.693   0.114  0.0323  0.4315  0.1995
 3191SOL    HW221036   2.985   2.666  17.703  0.1232  1.3595  0.0360
 3192SOL     OW21037   3.613   2.469   5.573  0.2228 -0.5692  1.0016
 3192SOL    HW121038   3.691   2.449   5.625 -0.9806 -1.8837  2.2899
 3192SOL    HW221039   3.619   2.411   5.497  2.2635 -1.4500  1.8264
 3193SOL     OW21040   1.467   0.250   1.892  0.1479  0.0896 -0.3185
 3193SOL    HW121041   1.421   0.166   1.885  0.4274 -0.3833  3.6737
 3193SOL    HW221042   1.547   0.229   1.844 -0.7983 -2.4910 -0.7858
 3194SOL     OW21043   0.218   2.570   5.428 -0.3576  0.0320  0.9157
 3194SOL    HW121044   0.299   2.617   5.448 -0.0222 -0.8720  1.6870
 3194SOL    HW221045   0.230   2.507   5.357 -0.9696  1.3103 -0.3289
 3195SOL     OW21046   1.159   3.743   9.878 -0.1470  0.3146 -0.2855
 3195SOL    HW121047   1.228   3.748   9.812  2.7282  0.1082  2.6872
 3195SOL    HW221048   1.085   3.710   9.826 -1.4881  2.2465  0.3821
 3196SOL     OW21049   1.793   3.312   9.668 -0.1771  0.0868 -0.8245
 3196SOL    HW121050   1.818   3.240   9.727  0.4012  1.2192  0.2949
 3196SOL    HW221051   1.723   3.350   9.721 -0.1546 -1.9538  0.6674
 3197SOL     OW21052   2.027   2.781   3.646 -0.6273  0.2391  0.0939
 3197SOL    HW121053   2.020   2.869   3.610  1.0137 -0.0096 -0.7933
 3197SOL    HW221054   2.049   2.726   3.571 -0.2814  1.0257 -0.3747
 3198SOL     OW21055   1.017   0.277   1.665  0.6795 -0.5649 -0.0001
 3198SOL    HW121056   1.080   0.262   1.595  0.8031  0.1145 -0.0313
 3198SOL    HW221057   1.063   0.348   1.709  1.2921  0.2071 -1.9095
 3199SOL     OW21058   0.437   3.961   7.022 -0.2828 -0.3115  0.4048
 3199SOL    HW121059   0.440   3.924   7.110  0.9336  1.6386  1.1800
 3199SOL    HW221060   0.400   3.886   6.975  0.2986  0.1684 -0.8334
 3200SOL     OW21061   4.693   0.258   0.460 -0.2581 -0.1891  0.3159
 3200SOL    HW121062   4.696   0.343   0.415  0.1649  0.8081  2.2179
 3200SOL    HW221063   4.650   0.201   0.397 -2.9192  0.0127  1.9627
 3201SOL     OW21064   3.760   3.679   5.370  0.9628 -0.2622 -0.1044
 3201SOL    HW121065   3.816   3.666   5.293  1.6872 -0.8235  0.5198
 3201SOL    HW221066   3.821   3.711   5.437  0.2400 -0.7899  0.8009
 3202SOL     OW21067   1.876   1.573   1.407  0.1766  0.2622  0.0285
 3202SOL    HW121068   1.903   1.511   1.340 -0.5808  0.1946 -0.2220
 3202SOL    HW221069   1.919   1.657   1.392  1.3303 -0.1438  1.0551
 3203SOL     OW21070   1.200   2.016   6.833 -0.0805  0.4036 -0.0467
 3203SOL    HW121071   1.293   1.999   6.851 -0.1076 -0.5560 -0.7957
 3203SOL    HW221072   1.193   2.099   6.880  0.3198  0.2920  0.2181
 3204SOL     OW21073   3.958   3.500   3.276  0.0728 -0.7637  0.2530
 3204SOL    HW121074   3.995   3.588   3.286 -0.1349 -0.8347  1.6459
 3204SOL    HW221075   3.993   3.442   3.343  2.0603 -0.6065 -0.6746
 3205SOL     OW21076   4.397   1.287   4.760  0.1133 -0.1821 -0.3548
 3205SOL    HW121077   4.416   1.326   4.846  1.5408  0.7380 -1.0834
 3205SOL    HW221078   4.477   1.296   4.710 -1.6484 -0.0778 -3.1462
 3206SOL     OW21079   3.604   2.034   5.407  0.3506  0.0498 -0.2009
 3206SOL    HW121080   3.639   1.986   5.332 -0.5579 -0.1890 -0.4722
 3206SOL    HW221081   3.684   2.045   5.458 -0.8105 -0.0067  1.6254
 3207SOL     OW21082   2.726   0.370   6.386 -0.1189 -0.3229  0.5162
 3207SOL    HW121083   2.688   0.458   6.394 -0.3289 -0.2128 -1.6213
 3207SOL    HW221084   2.652   0.317   6.416  0.0278 -1.2859 -0.7969
 3208SOL     OW21085   4.698   0.807   7.744 -0.6603  0.2510 -0.1645
 3208SOL    HW121086   4.696   0.721   7.702 -1.6489  0.6329 -0.8945
 3208SOL    HW221087   0.021   0.857   7.679  1.1851 -2.0038 -0.5537
 3209SOL     OW21088   2.828   1.807   7.645  0.3913  0.6612  0.0355
 3209SOL    HW121089   2.827   1.780   7.737 -0.9581 -2.6384 -0.9215
 3209SOL    HW221090   2.819   1.901   7.661 -0.9409  0.3974  0.8528
 3210SOL     OW21091   0.765   4.679   2.459  0.2083  0.0409 -0.0514
 3210SOL    HW121092   0.739   4.715   2.544 -0.0482 -0.3608  0.0388
 3210SOL    HW221093   0.687   4.678   2.403 -0.7458  2.6058  1.2305
 3211SOL     OW21094   1.467   3.745   8.541 -0.0361  0.5552 -0.4330
 3211SOL    HW121095   1.390   3.711   8.588  0.0075  0.8483 -0.1539
 3211SOL    HW221096   1.433   3.828   8.507 -1.7596 -0.1129 -0.3682
 3212SOL     OW21097   1.644   2.908  12.799 -0.0228 -0.2410  0.1331
 3212SOL    HW121098   1.651   3.003  12.784  0.4710 -0.1308  1.0606
 3212SOL    HW221099   1.669   2.898  12.891  2.3682  0.0455 -0.4786
 3213SOL     OW21100   0.583   0.335   5.540 -0.0725 -0.2161  0.1933
 3213SOL    HW121101   0.609   0.378   5.459  1.1272 -3.1460 -1.0142
 3213SOL    HW221102   0.507   0.389   5.558 -0.8206 -0.7447 -1.3609
 3214SOL     OW21103   0.493   2.257   4.250  0.1099 -0.6087 -0.4723
 3214SOL    HW121104   0.414   2.217   4.213 -0.9408 -0.1865  1.3355
 3214SOL    HW221105   0.555   2.185   4.263  1.1474  0.1632 -1.2035
 3215SOL     OW21106   0.252   2.189  14.888  0.2458  0.5194 -0.4035
 3215SOL    HW121107   0.211   2.105  14.908 -0.3083  0.9795  0.3524
 3215SOL    HW221108   0.205   2.200  14.806  0.1479 -1.4370 -0.6163
 3216SOL     OW21109   3.428   3.013  17.074 -0.0967  0.5811 -0.2168
 3216SOL    HW121110   3.486   3.085  17.102  1.8762 -1.6537  1.4669
 3216SOL    HW221111   3.371   3.015  17.151 -0.0032 -0.9629 -0.1120
 3217SOL     OW21112   0.133   2.313  13.826 -0.1620 -0.2141 -0.1208
 3217SOL    HW121113   0.157   2.355  13.744  0.3834 -1.5228 -0.6350
 3217SOL    HW221114   0.180   2.231  13.812 -1.4873 -0.6828 -1.8291
 3218SOL     OW21115   3.039   4.373   8.386 -0.7607 -0.2926 -0.3425
 3218SOL    HW121116   3.120   4.361   8.436 -0.4008 -2.1160 -1.3405
 3218SOL    HW221117   3.012   4.283   8.406  0.1296 -0.7329 -1.0634
 3219SOL     OW21118   2.091   0.368   6.801  0.1332 -0.0268  0.3426
 3219SOL    HW121119   2.145   0.293   6.826  0.1036 -0.5601 -1.1515
 3219SOL    HW221120   2.144   0.447   6.814  2.4188 -1.4662 -0.1467
 3220SOL     OW21121   3.531   1.063  13.057 -0.0090  0.3055  0.8197
 3220SOL    HW121122   3.623   1.037  13.065 -0.4028 -1.3390  0.0253
 3220SOL    HW221123   3.484   1.008  13.120  0.0986 -2.2669 -1.3074
 3221SOL     OW21124   1.467   4.272  13.205 -0.1702 -0.1384  0.5001
 3221SOL    HW121125   1.484   4.180  13.186  0.9637 -0.5430  3.4057
 3221SOL    HW221126   1.549   4.309  13.173 -0.4060  0.6524  0.7937
 3222SOL     OW21127   1.137   0.052   7.377 -0.0005  0.1972 -0.6253
 3222SOL    HW121128   1.074   0.123   7.360 -0.3899 -0.5651 -2.3629
 3222SOL    HW221129   1.080   4.723   7.431  0.3815 -0.2782 -0.7061
 3223SOL     OW21130   2.246   1.980   5.780 -0.1985  0.3470  0.2997
 3223SOL    HW121131   2.267   2.064   5.740 -0.0829 -0.1238 -0.6188
 3223SOL    HW221132   2.334   1.957   5.810 -0.5583 -1.5322 -0.0789
 3224SOL     OW21133   0.790   1.374   4.502 -0.2073 -0.0675  0.0558
 3224SOL    HW121134   0.858   1.315   4.535 -1.2548 -1.8141 -0.9209
 3224SOL    HW221135   0.792   1.439   4.573  2.1922  0.3416 -0.3880
 3225SOL     OW21136   3.888   1.353  12.618  0.0581  0.1755 -0.4263
 3225SOL    HW121137   3.869   1.436  12.663 -0.3127  0.0613 -0.3742
 3225SOL    HW221138   3.948   1.391  12.554  0.1085  2.7094  1.1116
 3226SOL     OW21139   0.448   1.210  12.271 -0.1195 -0.2598 -0.9820
 3226SOL    HW121140   0.495   1.148  12.327 -2.1794 -0.3518  0.6782
 3226SOL    HW221141   0.366   1.164  12.252 -1.1041  0.7729  0.7426
 3227SOL     OW21142   1.700   3.891   6.833 -0.7519  0.2508  0.0817
 3227SOL    HW121143   1.766   3.921   6.770  0.1327 -0.8780  0.4657
 3227SOL    HW221144   1.710   3.795   6.836 -0.5400  0.2941  0.7211
 3228SOL     OW21145   3.932   4.057   8.896 -0.1956  0.2040 -0.3729
 3228SOL    HW121146   3.921   4.084   8.805 -0.2519  0.3926 -0.3099
 3228SOL    HW221147   3.899   4.140   8.930 -0.8649  0.0099 -0.5577
 3229SOL     OW21148   0.050   2.003  13.434 -0.5967 -0.7788 -0.9300
 3229SOL    HW121149   0.077   1.916  13.406  1.3218 -0.3344 -0.4674
 3229SOL    HW221150   0.022   2.032  13.347  3.0305  0.1027 -1.7998
 3230SOL     OW21151   2.189   0.639   9.961  0.8847 -0.0332 -0.4181
 3230SOL    HW121152   2.121   0.578   9.990 -0.2043  0.9120 -0.9904
 3230SOL    HW221153   2.233   0.655  10.044  2.0234 -1.8543 -0.6824
 3231SOL     OW21154   3.627   1.130   0.918  0.4490  0.1260 -0.1906
 3231SOL    HW121155   3.641   1.062   0.852 -0.8347 -0.1909 -0.1400
 3231SOL    HW221156   3.697   1.099   0.974  0.1890 -0.8613 -0.4208
 3232SOL     OW21157   1.555   2.028  10.943  0.0568  0.3705  0.4114
 3232SOL    HW121158   1.621   1.965  10.972 -0.6392 -0.3444  0.4486
 3232SOL    HW221159   1.483   1.974  10.911  1.5328 -1.0505 -0.5429
 3233SOL     OW21160   2.509   0.944   4.420  0.2133  0.1449 -0.4653
 3233SOL    HW121161   2.535   0.863   4.376  1.2134 -0.0477  0.4802
 3233SOL    HW221162   2.414   0.952   4.414  0.0462 -2.4832 -1.1055
 3234SOL     OW21163   0.069   3.015   1.862  0.5101  0.2567  0.3906
 3234SOL    HW121164   0.153   3.027   1.818  1.3771 -2.4413  1.3245
 3234SOL    HW221165   0.029   2.964   1.792  0.1445 -2.2275  2.3856
 3235SOL     OW21166   1.916   1.340  12.754 -0.0558 -0.2055 -0.2355
 3235SOL    HW121167   1.894   1.362  12.845 -0.0951 -1.0005 -0.0542
 3235SOL    HW221168   1.917   1.245  12.748  0.3830 -0.1500 -1.1036
 3236SOL     OW21169   3.743   0.235   3.549 -0.0717 -0.1989  0.3352
 3236SOL    HW121170   3.768   0.198   3.465  0.1529  0.1488  0.2495
 3236SOL    HW221171   3.780   0.324   3.545  3.2690 -1.5940  0.2905
 3237SOL     OW21172   1.484   3.585   6.102  0.2210 -0.3871 -0.9173
 3237SOL    HW121173   1.558   3.614   6.155  0.0873 -0.0207 -0.9335
 3237SOL    HW221174   1.422   3.564   6.173  0.5624 -0.0747 -0.5308
 3238SOL     OW21175   1.338   2.237  11.623  0.0497 -0.2785 -0.3979
 3238SOL    HW121176   1.429   2.218  11.643 -0.2374 -0.5301  0.6506
 3238SOL    HW221177   1.289   2.156  11.637 -1.3387  1.0994  2.6536
 3239SOL     OW21178   3.582   1.222  15.474 -0.0991 -0.3454 -0.6578
 3239SOL    HW121179   3.519   1.189  15.538 -1.0494  0.3337 -1.2532
 3239SOL    HW221180   3.568   1.316  15.467 -2.0223 -0.4317  1.7562
 3240SOL     OW21181   3.804   0.905   6.566  0.6287  0.4708 -0.4170
 3240SOL    HW121182   3.766   0.927   6.480 -1.0322  2.3918  0.8100
 3240SOL    HW221183   3.898   0.912   6.552  1.0677 -2.0877  1.2251
 3241SOL     OW21184   1.729   2.479   6.936 -0.0358 -0.7234  0.5144
 3241SOL    HW121185   1.761   2.403   6.985 -1.2262 -1.5943 -0.0464
 3241SOL    HW221186   1.765   2.550   6.989  0.3943 -1.8037  1.6678
 3242SOL     OW21187   1.378   3.621   8.832  0.0295  0.2272  0.0845
 3242SOL    HW121188   1.453   3.564   8.851 -0.1072  0.1293  0.3283
 3242SOL    HW221189   1.384   3.680   8.908 -1.5839 -0.1329  0.4864
 3243SOL     OW21190   4.632   0.933   6.956  0.2046  0.1931 -0.0730
 3243SOL    HW121191   4.626   0.853   7.008 -0.5966 -1.6236 -2.9509
 3243SOL    HW221192   4.581   0.990   7.013 -0.2782  1.9370 -2.2642
 3244SOL     OW21193   2.575   1.426   5.518  0.6599  0.2326  0.0312
 3244SOL    HW121194   2.560   1.443   5.425  0.7017 -2.4833 -0.4458
 3244SOL    HW221195   2.497   1.377   5.542  0.7607 -0.1601 -0.4388
 3245SOL     OW21196   1.833   3.095   8.392 -0.5896  0.3810 -0.2491
 3245SOL    HW121197   1.907   3.110   8.452 -1.4249 -0.0437  0.8774
 3245SOL    HW221198   1.800   3.185   8.395 -2.0897 -0.2793  2.6049
 3246SOL     OW21199   0.421   1.379   3.576 -0.6055  0.1869 -0.2433
 3246SOL    HW121200   0.516   1.388   3.578 -0.6226  0.1485  1.0346
 3246SOL    HW221201   0.398   1.458   3.527 -0.5982  0.3686  0.0464
 3247SOL     OW21202   4.179   1.552   5.518  0.0521  0.0239 -0.1290
 3247SOL    HW121203   4.249   1.497   5.554  0.6898  0.6173 -0.4576
 3247SOL    HW221204   4.205   1.640   5.546 -1.3163  0.6744 -0.9162
 3248SOL     OW21205   2.370   0.681  12.484  0.1865  0.2104 -0.4945
 3248SOL    HW121206   2.427   0.605  12.473 -1.6901 -1.3738  0.6117
 3248SOL    HW221207   2.435   0.745  12.455  0.3909  1.4076  2.6011
 3249SOL     OW21208   0.314   2.603  17.382 -0.3313  0.6631  0.1520
 3249SOL    HW121209   0.326   2.650  17.299 -1.6749  1.7010  0.5373
 3249SOL    HW221210   0.378   2.644  17.440 -1.1409  0.5112  1.1553
 3250SOL     OW21211   3.554   3.116  14.714 -0.0115  0.0237 -0.1308
 3250SOL    HW121212   3.581   3.136  14.804 -0.1746 -1.7313  0.3160
 3250SOL    HW221213   3.501   3.192  14.688  0.5361  0.5343  0.2356
 3251SOL     OW21214   0.471   1.416  17.506 -0.0055 -0.1911  0.0013
 3251SOL    HW121215   0.535   1.351  17.476  0.0552  0.4081 -1.1758
 3251SOL    HW221216   0.431   1.372  17.581  0.3754  0.0040  0.3216
 3252SOL     OW21217   0.787   0.329   3.635 -0.3484 -0.1105  0.5080
 3252SOL    HW121218   0.822   0.378   3.709  1.1462  2.9548 -2.2269
 3252SOL    HW221219   0.693   0.347   3.635 -0.3607 -0.1342 -0.4040
 3253SOL     OW21220   3.847   3.212   8.861  0.4994 -0.5303  0.0064
 3253SOL    HW121221   3.766   3.242   8.901  0.2403 -1.0465 -0.1418
 3253SOL    HW221222   3.899   3.193   8.939  0.2211  0.0145  0.3183
 3254SOL     OW21223   3.851   3.882   1.962  0.1217  0.3218  0.1013
 3254SOL    HW121224   3.819   3.889   2.052  0.3086 -1.8994  0.3395
 3254SOL    HW221225   3.944   3.860   1.976  0.2740  0.3375 -0.9038
 3255SOL     OW21226   3.842   0.803   3.947 -1.5089  0.4246  0.3387
 3255SOL    HW121227   3.888   0.881   3.979  1.6657 -1.7212  1.0204
 3255SOL    HW221228   3.795   0.840   3.873 -0.3971 -2.0567 -1.6065
 3256SOL     OW21229   1.944   3.732   0.442 -0.7146 -0.1345  0.3803
 3256SOL    HW121230   1.945   3.724   0.537 -0.9252 -2.8653  0.1526
 3256SOL    HW221231   1.852   3.742   0.420 -0.3025  1.2455 -0.7259
 3257SOL     OW21232   3.254   4.123   5.587 -0.0680  0.2103  0.2394
 3257SOL    HW121233   3.265   4.081   5.501 -2.0490 -2.0092  1.0736
 3257SOL    HW221234   3.270   4.046   5.641 -0.2767 -0.5315 -0.7544
 3258SOL     OW21235   0.419   0.669  17.338 -0.0815 -0.2521  0.6049
 3258SOL    HW121236   0.335   0.654  17.295 -2.0086  1.3231  3.8993
 3258SOL    HW221237   0.477   0.672  17.261  0.2607 -0.5420  0.8500
 3259SOL     OW21238   3.640   2.163   6.770  0.1725 -0.3248 -0.0901
 3259SOL    HW121239   3.634   2.126   6.858  1.2076 -0.5969 -0.1393
 3259SOL    HW221240   3.607   2.088   6.720 -0.6707 -1.3128  1.9332
 3260SOL     OW21241   3.285   3.308   6.657 -0.7394  0.2389  0.3516
 3260SOL    HW121242   3.220   3.328   6.589 -2.8524  1.7810  2.8006
 3260SOL    HW221243   3.327   3.234   6.614 -2.8443  0.2883 -1.8105
 3261SOL     OW21244   1.863   0.518   8.584 -0.2006 -0.0499 -0.8099
 3261SOL    HW121245   1.862   0.429   8.620  0.5523 -0.3486 -1.5322
 3261SOL    HW221246   1.945   0.550   8.622 -0.5487 -0.7844  0.5794
 3262SOL     OW21247   3.177   2.668   6.277 -0.3648 -0.7273 -0.4546
 3262SOL    HW121248   3.206   2.617   6.352 -2.0447 -1.4653 -0.3037
 3262SOL    HW221249   3.238   2.741   6.285  0.7192 -1.8420  1.3096
 3263SOL     OW21250   2.344   0.412   7.895  0.3981 -0.7960  0.1596
 3263SOL    HW121251   2.436   0.400   7.869  0.3921 -0.5740  0.0307
 3263SOL    HW221252   2.317   0.321   7.894 -0.3105 -0.6044  1.2543
 3264SOL     OW21253   1.663   3.436  10.234  0.2470  0.3715  0.1514
 3264SOL    HW121254   1.691   3.400  10.150 -0.8278  1.2438 -0.5795
 3264SOL    HW221255   1.587   3.486  10.205 -1.5973 -2.2105  0.6239
 3265SOL     OW21256   0.981   2.601  16.706  0.1107 -0.9625  0.1220
 3265SOL    HW121257   0.889   2.584  16.688 -0.1169 -0.1397  0.4710
 3265SOL    HW221258   0.989   2.609  16.801  1.8634 -2.8540  0.1294
 3266SOL     OW21259   1.813   4.066   4.292 -0.7763  0.2743 -0.0324
 3266SOL    HW121260   1.896   4.019   4.292 -1.0178 -0.1492 -0.5190
 3266SOL    HW221261   1.839   4.124   4.364  0.2693 -2.4142  1.7441
 3267SOL     OW21262   4.315   2.327   3.426 -0.1007 -0.0961  0.6697
 3267SOL    HW121263   4.396   2.348   3.471 -1.0332  2.7343  1.0279
 3267SOL    HW221264   4.264   2.302   3.504  0.2724 -1.2271  0.5506
 3268SOL     OW21265   0.155   4.451   2.063  0.5303  0.3170  0.6512
 3268SOL    HW121266   0.074   4.492   2.032 -0.0785 -0.8895  0.6409
 3268SOL    HW221267   0.187   4.410   1.983  1.4934  1.3680  0.4985
 3269SOL     OW21268   4.652   3.133   5.476 -0.2863  0.3317 -0.1721
 3269SOL    HW121269   4.616   3.193   5.411 -1.5183  0.7682  0.9168
 3269SOL    HW221270   0.017   3.116   5.452  0.3178  1.9555  0.9420
 3270SOL     OW21271   4.020   4.490   6.495 -0.6020  0.1121 -0.4216
 3270SOL    HW121272   3.973   4.573   6.481 -0.7907  0.1671  0.5567
 3270SOL    HW221273   4.003   4.438   6.417 -3.2504  0.5439 -0.1494
 3271SOL     OW21274   0.801   2.170   8.788  0.0807  0.4193  0.1535
 3271SOL    HW121275   0.748   2.151   8.865 -1.2608  0.0758 -0.8505
 3271SOL    HW221276   0.827   2.261   8.801 -0.9849  0.4688  1.8590
 3272SOL     OW21277   0.919   3.025   2.987  0.7501 -0.1397  0.0077
 3272SOL    HW121278   0.901   3.094   2.923  0.0664  1.5611  2.0244
 3272SOL    HW221279   0.957   2.971   2.918 -1.0224 -0.6688 -0.5640
 3273SOL     OW21280   3.825   4.588   4.163 -0.4808  0.3713 -0.1524
 3273SOL    HW121281   3.762   4.636   4.108 -0.2487  0.9745  0.1144
 3273SOL    HW221282   3.775   4.509   4.181  0.7227 -0.5228 -0.7616
 3274SOL     OW21283   1.476   3.907  12.625 -0.0818 -0.5050  0.3164
 3274SOL    HW121284   1.525   3.963  12.685  0.2546 -0.4212 -0.0341
 3274SOL    HW221285   1.400   3.966  12.620 -0.3857 -1.1453 -2.4179
 3275SOL     OW21286   1.259   0.320   6.147  0.5185  0.2979 -0.2192
 3275SOL    HW121287   1.249   0.237   6.102  0.4952 -1.5013  3.1445
 3275SOL    HW221288   1.201   0.383   6.105 -0.4720  0.2610  1.0976
 3276SOL     OW21289   4.476   3.446  12.287  0.3232  0.6132 -0.3108
 3276SOL    HW121290   4.518   3.532  12.288  1.6626 -0.0577  2.9049
 3276SOL    HW221291   4.443   3.436  12.198  0.9350 -1.3043 -0.3236
 3277SOL     OW21292   0.400   2.454   5.870  0.3800  0.0565 -0.3251
 3277SOL    HW121293   0.315   2.492   5.845 -0.1316  0.1622  1.5594
 3277SOL    HW221294   0.371   2.369   5.903 -0.7090  0.5656  0.0277
 3278SOL     OW21295   1.718   0.399   5.112  0.2695 -0.2714  0.1776
 3278SOL    HW121296   1.737   0.407   5.205 -0.1510  1.2038  0.1417
 3278SOL    HW221297   1.659   0.324   5.126 -0.8736  0.8731  1.5209
 3279SOL     OW21298   2.036   0.471  13.941 -0.1715  0.2012 -0.2843
 3279SOL    HW121299   1.985   0.450  14.019 -0.9240 -0.7348 -1.0339
 3279SOL    HW221300   2.075   0.558  13.950  1.6666 -0.6440  0.0405
 3280SOL     OW21301   1.397   0.786   8.097 -0.1540  0.0838  0.4653
 3280SOL    HW121302   1.371   0.874   8.124  0.5743  0.4094  0.0860
 3280SOL    HW221303   1.487   0.776   8.126  0.1864  0.3368 -0.4994
 3281SOL     OW21304   3.663   2.058   4.685  0.0953 -0.7179 -0.2906
 3281SOL    HW121305   3.587   2.106   4.653 -0.1645 -0.4338  0.7661
 3281SOL    HW221306   3.642   1.980   4.634 -0.9212  1.3524 -3.0345
 3282SOL     OW21307   3.921   1.081   2.039 -0.2358  0.1950  0.5471
 3282SOL    HW121308   3.930   1.052   2.129  2.5576 -0.5463  0.0254
 3282SOL    HW221309   3.959   1.168   2.052  1.8237 -0.7425  0.7788
 3283SOL     OW21310   0.676   1.145  14.939 -0.9575 -0.1367  0.1945
 3283SOL    HW121311   0.634   1.059  14.937 -0.2095 -0.4263 -2.9453
 3283SOL    HW221312   0.602   1.194  14.903 -0.7546 -0.5311 -0.7703
 3284SOL     OW21313   0.900   1.816   7.844  0.0786 -0.4969 -0.3822
 3284SOL    HW121314   0.922   1.901   7.882  0.6705 -0.7219 -0.2099
 3284SOL    HW221315   0.864   1.778   7.923  1.3721 -0.4800  0.2151
 3285SOL     OW21316   3.263   2.359   5.252 -0.2224 -0.0796  0.1575
 3285SOL    HW121317   3.291   2.353   5.343 -2.5555 -1.8464  0.7606
 3285SOL    HW221318   3.169   2.351   5.263 -0.3382  0.4628 -0.4325
 3286SOL     OW21319   1.934   3.137   5.531 -0.0962 -0.2147 -0.1245
 3286SOL    HW121320   1.926   3.200   5.603  0.2102  0.2690 -0.5098
 3286SOL    HW221321   1.857   3.153   5.476 -0.1002 -2.4819 -0.7976
 3287SOL     OW21322   1.222   2.710   3.666  0.6324 -0.0814  0.2853
 3287SOL    HW121323   1.126   2.709   3.670  0.7173 -1.5150  1.7967
 3287SOL    HW221324   1.240   2.783   3.725 -1.8171  1.5930 -1.0355
 3288SOL     OW21325   0.584   1.209   2.713  0.0311 -0.0233  0.2174
 3288SOL    HW121326   0.600   1.123   2.752 -0.5510  0.6190  1.8615
 3288SOL    HW221327   0.582   1.182   2.621  2.7813 -0.2809  0.2337
 3289SOL     OW21328   2.321   3.139   9.040 -0.9575 -0.5736  0.5771
 3289SOL    HW121329   2.236   3.102   9.064 -0.3211 -3.6026 -1.9130
 3289SOL    HW221330   2.381   3.104   9.106  0.5921  1.4154  0.2144
 3290SOL     OW21331   3.819   0.743  17.155 -0.2269 -0.5751  0.6595
 3290SOL    HW121332   3.792   0.719  17.243 -0.5252  0.3309  0.8145
 3290SOL    HW221333   3.790   0.834  17.150 -0.6820 -0.8171 -1.3198
 3291SOL     OW21334   3.487   2.488   8.219  0.3575 -0.6945  0.0810
 3291SOL    HW121335   3.544   2.539   8.277 -0.5011  0.5112 -0.1205
 3291SOL    HW221336   3.535   2.496   8.137 -1.5531 -3.0000 -1.2703
 3292SOL     OW21337   1.418   1.369   6.367  0.7436  0.1142  0.0986
 3292SOL    HW121338   1.379   1.390   6.282 -2.2770 -1.3281  1.0963
 3292SOL    HW221339   1.511   1.388   6.361  1.0456 -1.4165 -0.1148
 3293SOL     OW21340   1.099   0.017  11.668  0.1952 -0.3914 -0.1074
 3293SOL    HW121341   1.112   0.112  11.672  0.1552 -0.4279  1.0342
 3293SOL    HW221342   1.185   4.705  11.684 -0.1818 -1.4195 -0.5080
 3294SOL     OW21343   0.953   2.328   7.647 -0.3107  0.0663 -0.1690
 3294SOL    HW121344   0.978   2.417   7.672 -2.4182  0.3316  0.9944
 3294SOL    HW221345   0.879   2.333   7.586 -0.5647 -2.7584 -0.0724
 3295SOL     OW21346   4.402   3.855  10.558 -0.1178  0.2090 -0.5930
 3295SOL    HW121347   4.393   3.837  10.651  0.2429 -1.2765 -0.8419
 3295SOL    HW221348   4.312   3.854  10.526  0.0857 -0.3482 -1.1615
 3296SOL     OW21349   3.462   2.255   4.134 -0.4748  0.5915 -0.4018
 3296SOL    HW121350   3.446   2.350   4.126  0.2484  0.8190  1.0077
 3296SOL    HW221351   3.383   2.220   4.092 -0.7387  0.2329  0.4023
 3297SOL     OW21352   2.947   2.252   8.642  0.2747  0.1143 -0.6893
 3297SOL    HW121353   2.987   2.293   8.565 -1.6904  1.6202 -0.9095
 3297SOL    HW221354   2.869   2.204   8.613  0.1261  1.0541 -1.8781
 3298SOL     OW21355   2.578   2.583   9.405  0.5701 -0.5715  0.2813
 3298SOL    HW121356   2.580   2.503   9.457 -1.8755 -0.7212  0.1513
 3298SOL    HW221357   2.617   2.556   9.322  1.0644  0.2998  0.2390
 3299SOL     OW21358   3.475   4.547   5.599 -0.0142  0.0977 -0.1382
 3299SOL    HW121359   3.543   4.592   5.549  0.0126  0.5106  0.2742
 3299SOL    HW221360   3.401   4.593   5.560  0.3992  0.7521 -0.1639
 3300SOL     OW21361   4.681   4.492  12.420  0.4902 -0.1297 -0.5794
 3300SOL    HW121362   4.603   4.529  12.462  2.3644  1.8275  1.1412
 3300SOL    HW221363   4.720   4.445  12.493 -0.6663 -0.6872 -0.3099
 3301SOL     OW21364   3.275   3.338   3.422 -0.3244 -0.0716  0.9676
 3301SOL    HW121365   3.297   3.431   3.411 -0.6822 -0.0317  0.5551
 3301SOL    HW221366   3.185   3.339   3.388  0.0523 -3.4818 -0.0846
 3302SOL     OW21367   3.305   4.361   9.508 -0.2198  0.3325  0.4273
 3302SOL    HW121368   3.332   4.386   9.597 -0.0476 -0.9527  0.7421
 3302SOL    HW221369   3.371   4.294   9.492 -1.3780 -0.9889  1.2272
 3303SOL     OW21370   4.275   3.071   7.757  0.5422  0.7090  0.3290
 3303SOL    HW121371   4.307   3.044   7.671  0.8140  1.9346  0.0430
 3303SOL    HW221372   4.206   3.011   7.786  0.4872  0.4980 -0.2302
 3304SOL     OW21373   1.863   2.650  10.076 -0.0598  0.1410  0.1638
 3304SOL    HW121374   1.867   2.732  10.026 -1.5853  1.6252  2.4624
 3304SOL    HW221375   1.921   2.589  10.032  0.9516  0.5085  0.9799
 3305SOL     OW21376   2.423   2.731   4.677  0.2281  0.0390  0.2006
 3305SOL    HW121377   2.349   2.762   4.624  0.0213  3.0289  2.2607
 3305SOL    HW221378   2.487   2.799   4.655 -1.5996  2.6918  2.9414
 3306SOL     OW21379   0.798   0.320   1.893 -0.7301 -0.0814 -0.2011
 3306SOL    HW121380   0.863   0.338   1.825 -0.8205  1.6586  0.1701
 3306SOL    HW221381   0.829   0.362   1.973 -0.6695  1.6725 -1.1267
 3307SOL     OW21382   2.438   0.007  13.168  0.1164  0.0927  0.1217
 3307SOL    HW121383   2.462   0.094  13.201  0.6752  0.3989 -1.1015
 3307SOL    HW221384   2.507   4.686  13.215  0.4925  0.1162 -0.4076
 3308SOL     OW21385   4.466   2.334   5.914  0.4117 -0.4379  0.2586
 3308SOL    HW121386   4.445   2.282   5.837  0.9274  1.7732 -1.3919
 3308SOL    HW221387   4.441   2.425   5.896 -0.4278 -0.5666  0.7309
 3309SOL     OW21388   3.299   3.251   3.031 -0.2290 -0.2329  0.4185
 3309SOL    HW121389   3.359   3.177   3.039 -0.8180 -0.7175  0.2945
 3309SOL    HW221390   3.360   3.322   3.008 -1.0554  0.4539  0.3382
 3310SOL     OW21391   1.661   3.388   8.200  0.0405 -0.8982  0.0041
 3310SOL    HW121392   1.630   3.479   8.192 -1.5450 -1.4408 -0.0816
 3310SOL    HW221393   1.719   3.395   8.125  0.3886 -0.3646  0.3222
 3311SOL     OW21394   0.668   1.157  11.730 -0.5405  0.3863 -0.6120
 3311SOL    HW121395   0.601   1.199  11.783 -0.5775  0.4983 -0.7469
 3311SOL    HW221396   0.755   1.170  11.769 -0.4954 -1.7092 -0.0032
 3312SOL     OW21397   4.346   1.733  12.992 -0.5190  0.3678  0.0917
 3312SOL    HW121398   4.428   1.695  13.023 -0.3945 -0.1744 -0.9257
 3312SOL    HW221399   4.369   1.826  12.984  1.3388  0.0404  1.6002
 3313SOL     OW21400   0.622   2.689  16.946 -0.1210  0.5137 -0.0759
 3313SOL    HW121401   0.557   2.618  16.942  1.0745 -0.6219  0.7505
 3313SOL    HW221402   0.639   2.706  16.853  1.5902 -1.9470 -0.2278
 3314SOL     OW21403   2.214   4.367   4.125 -0.0481  0.7842  0.1236
 3314SOL    HW121404   2.236   4.286   4.171  1.6493  0.7842 -0.6893
 3314SOL    HW221405   2.242   4.358   4.034 -2.7108  0.3238 -0.6649
 3315SOL     OW21406   4.597   0.813   7.263  0.2038 -0.6725  0.1032
 3315SOL    HW121407   4.515   0.798   7.217 -0.0005  0.0614  0.2334
 3315SOL    HW221408   4.571   0.810   7.355 -1.2062 -0.6938 -0.3054
 3316SOL     OW21409   4.547   2.514  11.294  0.3290  0.4042 -0.3730
 3316SOL    HW121410   4.452   2.525  11.287  0.1395 -0.3535  0.8626
 3316SOL    HW221411   4.572   2.587  11.351  0.6594  0.5003 -0.6455
 3317SOL     OW21412   1.943   3.087   8.128  0.0180  0.0774  0.1652
 3317SOL    HW121413   1.922   3.076   8.221 -1.5847 -1.7251 -0.4047
 3317SOL    HW221414   1.981   3.174   8.141  0.7542  0.0229 -1.6884
 3318SOL     OW21415   2.128   0.035   0.800 -0.0647  0.2620  0.3813
 3318SOL    HW121416   2.203   4.704   0.780 -0.1652  0.5922 -0.9595
 3318SOL    HW221417   2.110   0.017   0.892 -0.8560  0.4765  0.2702
 3319SOL     OW21418   3.144   2.575   2.777  0.1954 -0.3275 -0.0809
 3319SOL    HW121419   3.222   2.596   2.725  0.7163 -0.4266  0.6601
 3319SOL    HW221420   3.090   2.563   2.699  1.5325  0.6545 -1.1755
 3320SOL     OW21421   1.325   4.170   7.541  0.4696  0.4801 -0.2798
 3320SOL    HW121422   1.386   4.215   7.599 -1.1968  0.2449  1.6559
 3320SOL    HW221423   1.376   4.090   7.529  0.0734  0.3585 -1.1153
 3321SOL     OW21424   2.794   2.613   5.529  0.0205 -0.1096 -0.2394
 3321SOL    HW121425   2.739   2.691   5.527 -1.7194 -1.3639 -0.7150
 3321SOL    HW221426   2.875   2.663   5.541 -0.8319  0.6131  2.5698
 3322SOL     OW21427   2.020   0.568   6.502 -0.1248  0.3347 -0.6430
 3322SOL    HW121428   2.014   0.472   6.500 -0.5929  0.3552 -0.0807
 3322SOL    HW221429   2.109   0.564   6.538 -0.6004  0.3182  0.4935
 3323SOL     OW21430   1.142   4.518  15.695 -0.0785  0.6115 -0.5404
 3323SOL    HW121431   1.049   4.507  15.679 -0.0133 -0.9613  0.0830
 3323SOL    HW221432   1.160   4.528  15.602  0.8337  0.1438 -0.4223
 3324SOL     OW21433   2.385   0.611   4.158  0.4256  0.2650  0.0918
 3324SOL    HW121434   2.373   0.517   4.174  1.1954  0.1614  0.1035
 3324SOL    HW221435   2.475   0.614   4.190  0.0275  0.9315  1.1420
 3325SOL     OW21436   1.981   0.839   7.010 -0.0553 -0.3338 -0.3681
 3325SOL    HW121437   1.910   0.902   6.997  0.3690  0.1689 -0.2199
 3325SOL    HW221438   2.054   0.899   7.022  0.4145 -1.0653  0.4636
 3326SOL     OW21439   2.314   3.977   7.210  0.0570 -0.3246  0.5327
 3326SOL    HW121440   2.241   3.944   7.263  0.3941 -2.4782 -0.3656
 3326SOL    HW221441   2.380   4.001   7.275 -0.1727 -0.2885  0.7559
 3327SOL     OW21442   1.437   1.764   1.797  0.4577  0.3305 -0.0404
 3327SOL    HW121443   1.427   1.745   1.704  0.2668  4.2847 -0.8498
 3327SOL    HW221444   1.526   1.798   1.806  0.2516  0.8886 -0.1307
 3328SOL     OW21445   4.016   1.389   2.531 -0.2193  0.0055 -0.2976
 3328SOL    HW121446   4.028   1.360   2.441 -2.2287 -0.8503 -0.3039
 3328SOL    HW221447   3.926   1.357   2.545 -0.5890  2.0039  1.9375
 3329SOL     OW21448   3.780   2.325  17.124  0.8324  0.0287  0.4314
 3329SOL    HW121449   3.790   2.335  17.029 -0.3647 -0.6507  0.2197
 3329SOL    HW221450   3.871   2.325  17.152  0.7186 -0.7463  0.7986
 3330SOL     OW21451   0.913   1.856   3.899 -0.1217  0.3458 -0.2378
 3330SOL    HW121452   0.886   1.835   3.989  2.6611 -0.2614  0.4397
 3330SOL    HW221453   0.998   1.899   3.912  0.7292 -1.5679  0.4316
 3331SOL     OW21454   4.580   1.279   6.172  0.4915 -0.0633 -0.6702
 3331SOL    HW121455   4.649   1.218   6.146 -0.1162 -0.1511 -2.0611
 3331SOL    HW221456   4.540   1.237   6.249  1.5042  1.9113  0.9240
 3332SOL     OW21457   4.127   3.721   7.351  0.3419  0.5449  0.1162
 3332SOL    HW121458   4.191   3.769   7.404  0.6587 -1.7852  1.8653
 3332SOL    HW221459   4.150   3.725   7.258  0.9639 -0.6991  0.2243
 3333SOL     OW21460   0.468   4.224   6.902  0.7534  0.2149  0.0535
 3333SOL    HW121461   0.491   4.135   6.929  1.7783  0.2069 -0.8283
 3333SOL    HW221462   0.375   4.210   6.885  0.5478  0.8401  0.6354
 3334SOL     OW21463   4.277   3.923  16.052 -0.1855 -0.2681  0.2740
 3334SOL    HW121464   4.189   3.887  16.061 -1.5345  2.8037 -0.6604
 3334SOL    HW221465   4.329   3.843  16.047 -0.0438 -0.0625 -1.4580
 3335SOL     OW21466   1.521   3.818   7.662  0.7987  0.4605  0.1834
 3335SOL    HW121467   1.596   3.874   7.681  1.2065 -0.0399  0.0671
 3335SOL    HW221468   1.571   3.753   7.612 -1.5399 -0.2384 -1.2428
 3336SOL     OW21469   4.165   2.755   2.002  0.2697  0.0520 -0.0601
 3336SOL    HW121470   4.129   2.830   1.955 -0.7954  0.6649  1.6977
 3336SOL    HW221471   4.115   2.768   2.083  2.9915 -1.4823  1.8677
 3337SOL     OW21472   0.727   1.151   8.981  0.3622  0.3050 -1.1199
 3337SOL    HW121473   0.816   1.160   8.945  0.5537 -1.3987 -1.0708
 3337SOL    HW221474   0.745   1.173   9.072  0.6831  0.1971 -1.1540
 3338SOL     OW21475   0.512   4.346   6.284 -0.3863  0.3731 -0.2722
 3338SOL    HW121476   0.555   4.294   6.352  1.5569 -0.5284 -2.1740
 3338SOL    HW221477   0.574   4.322   6.215  1.2960  0.4169  1.2425
 3339SOL     OW21478   2.984   4.011   4.282  0.0157  0.5523 -0.0854
 3339SOL    HW121479   2.924   4.068   4.234 -4.0151 -3.3033  0.4249
 3339SOL    HW221480   3.070   4.034   4.246 -0.0915 -0.4260 -0.9739
 3340SOL     OW21481   4.719   1.921   0.672  0.5078  0.1047 -0.5599
 3340SOL    HW121482   4.726   1.869   0.752  0.6357  0.4894 -0.3252
 3340SOL    HW221483   0.087   1.929   0.655  0.7032  0.0555  0.5021
 3341SOL     OW21484   0.121   3.481  12.608  0.0541  0.3282  0.4444
 3341SOL    HW121485   0.114   3.424  12.685  0.6854  0.5691  0.6807
 3341SOL    HW221486   0.053   3.441  12.554  0.9034  0.3408 -0.6330
 3342SOL     OW21487   4.326   0.798   7.746 -0.3223  0.2669 -0.2378
 3342SOL    HW121488   4.383   0.732   7.785 -2.6525 -2.3202 -1.2198
 3342SOL    HW221489   4.260   0.816   7.813 -0.2705  1.3537 -0.4674
 3343SOL     OW21490   2.473   1.012  14.951 -0.3029  0.8249  0.6613
 3343SOL    HW121491   2.548   1.036  14.896 -0.6202 -1.1690 -0.6535
 3343SOL    HW221492   2.500   1.065  15.026 -2.1806 -1.0593  2.6769
 3344SOL     OW21493   0.627   2.054  12.168 -0.0747  0.0320 -0.1499
 3344SOL    HW121494   0.570   2.045  12.092 -0.0255 -0.1894 -0.1609
 3344SOL    HW221495   0.622   1.969  12.212 -0.8928 -0.2087 -0.7025
 3345SOL     OW21496   2.621   4.110   3.541  0.0170  0.0716 -0.2256
 3345SOL    HW121497   2.618   4.015   3.533 -0.0247  0.1016 -0.5948
 3345SOL    HW221498   2.709   4.135   3.515  0.1491 -0.5943 -0.3999
 3346SOL     OW21499   3.291   4.204  15.167 -0.2001 -0.3005 -0.9230
 3346SOL    HW121500   3.348   4.277  15.191 -0.0134 -1.0743  1.0064
 3346SOL    HW221501   3.247   4.188  15.251  0.0201 -0.1358 -0.7764
 3347SOL     OW21502   1.171   3.544   4.379 -0.5421 -0.1402 -0.0170
 3347SOL    HW121503   1.087   3.534   4.333 -0.7467  1.2016  0.0605
 3347SOL    HW221504   1.219   3.524   4.298 -0.2154  1.4058 -0.2041
 3348SOL     OW21505   2.534   4.234  13.386  0.0254 -0.2237  0.1172
 3348SOL    HW121506   2.475   4.217  13.459 -0.3718  0.8314  0.0380
 3348SOL    HW221507   2.554   4.144  13.359 -1.2381 -0.9906  1.7450
 3349SOL     OW21508   1.365   3.418  15.027 -0.7965 -0.3866  0.0383
 3349SOL    HW121509   1.313   3.345  15.063  1.7812 -1.3743  1.7828
 3349SOL    HW221510   1.443   3.370  14.998  0.1594  0.8603  0.5848
 3350SOL     OW21511   0.605   0.662   0.244  0.3504 -0.2480  0.7112
 3350SOL    HW121512   0.594   0.662   0.339 -2.3548  2.6896  0.3946
 3350SOL    HW221513   0.517   0.695   0.222  0.1811 -0.3425  1.2586
 3351SOL     OW21514   3.237   3.632   1.383  0.4297  0.0091  0.0406
 3351SOL    HW121515   3.144   3.625   1.360  0.6955 -0.3973 -0.9209
 3351SOL    HW221516   3.232   3.705   1.445 -0.2527 -0.3713  0.4314
 3352SOL     OW21517   3.684   3.086  13.426  0.6322 -0.4120 -0.0326
 3352SOL    HW121518   3.630   3.164  13.409 -1.4967 -1.0322  3.7419
 3352SOL    HW221519   3.695   3.091  13.521 -0.4833  3.6824 -0.1254
 3353SOL     OW21520   0.733   0.254   8.301  0.8816  1.0117  0.2700
 3353SOL    HW121521   0.712   0.161   8.302  1.0016  0.9641 -2.0902
 3353SOL    HW221522   0.724   0.275   8.208  1.1660  1.9292  0.4504
 3354SOL     OW21523   1.168   2.325   6.946  0.0669 -0.5528  0.3924
 3354SOL    HW121524   1.215   2.380   6.883 -2.1805  0.0873 -0.7229
 3354SOL    HW221525   1.196   2.364   7.029  1.6225 -1.4628  0.2937
 3355SOL     OW21526   1.439   3.792  17.090 -0.6250  0.0298 -0.8830
 3355SOL    HW121527   1.389   3.723  17.047 -1.6577 -0.0450  0.4330
 3355SOL    HW221528   1.382   3.830  17.157 -1.9312  0.3377 -2.1882
 3356SOL     OW21529   3.703   4.507   3.678  0.3055  0.2852 -0.6862
 3356SOL    HW121530   3.702   4.602   3.684 -0.0997  0.2655 -0.4130
 3356SOL    HW221531   3.758   4.489   3.754 -4.2518 -0.0398  2.5765
 3357SOL     OW21532   0.396   3.624  10.353 -0.0022 -0.0677  0.2101
 3357SOL    HW121533   0.362   3.658  10.436 -1.4781  1.2239 -0.9096
 3357SOL    HW221534   0.349   3.675  10.287  0.6986 -2.9875 -2.5485
 3358SOL     OW21535   0.727   2.997  14.250  0.3844  0.3923  1.1372
 3358SOL    HW121536   0.752   2.912  14.287  0.9559 -0.1497 -0.5346
 3358SOL    HW221537   0.665   2.967  14.183  0.8091 -0.3358  1.0739
 3359SOL     OW21538   0.855   2.323  10.764  0.5532  0.5468  0.2893
 3359SOL    HW121539   0.780   2.276  10.801  1.3707 -1.3109 -0.4500
 3359SOL    HW221540   0.916   2.250  10.763  2.1077  1.8411  0.0561
 3360SOL     OW21541   1.377   3.260  15.985  0.6484  0.3518  0.0485
 3360SOL    HW121542   1.458   3.215  15.963  0.9628 -0.2992  2.5119
 3360SOL    HW221543   1.406   3.350  15.974  0.7203  0.4002  0.6093
 3361SOL     OW21544   2.654   3.062   7.934  0.4826 -0.6892 -0.0924
 3361SOL    HW121545   2.715   3.130   7.961 -2.1311  0.4908  2.8324
 3361SOL    HW221546   2.586   3.073   8.000 -0.1500 -1.2389 -0.6468
 3362SOL     OW21547   2.498   3.714  12.956  0.8708 -0.0351 -0.3189
 3362SOL    HW121548   2.407   3.742  12.949  0.5774 -0.9320 -0.0754
 3362SOL    HW221549   2.510   3.667  12.873  0.4434 -2.0668  0.7611
 3363SOL     OW21550   2.169   1.638  17.134 -0.4371 -0.0698 -0.0148
 3363SOL    HW121551   2.201   1.593  17.055 -1.9143 -0.9353 -0.1175
 3363SOL    HW221552   2.243   1.628  17.194 -0.1456  0.1383 -0.3409
 3364SOL     OW21553   2.703   1.390   4.526  0.4823  0.7997 -0.2611
 3364SOL    HW121554   2.768   1.364   4.461  1.2565  1.8915  0.0557
 3364SOL    HW221555   2.673   1.305   4.556  2.2814 -0.0288 -0.8215
 3365SOL     OW21556   4.184   2.904   1.500  0.3064  0.2920 -0.0705
 3365SOL    HW121557   4.188   2.969   1.571  0.5961 -0.1259  0.2974
 3365SOL    HW221558   4.217   2.949   1.423 -2.4069  1.9674 -0.2458
 3366SOL     OW21559   1.984   0.736   1.388 -0.8719  0.4356 -0.0740
 3366SOL    HW121560   2.005   0.737   1.482  2.7505 -0.0248 -0.8863
 3366SOL    HW221561   1.914   0.671   1.384  0.5443 -0.9768 -1.9728
 3367SOL     OW21562   0.995   1.857   8.544 -0.4573  0.7810  0.1109
 3367SOL    HW121563   0.943   1.790   8.588 -0.3734  1.0308  0.5983
 3367SOL    HW221564   0.922   1.917   8.528 -1.6476 -0.1723  1.9751
 3368SOL     OW21565   4.016   3.357  11.434 -0.1461  0.5259 -0.3466
 3368SOL    HW121566   3.956   3.407  11.489  0.7987  2.1406 -0.7591
 3368SOL    HW221567   3.994   3.267  11.457  1.7140  0.1105 -0.1311
 3369SOL     OW21568   3.105   2.976  12.460  0.6571  0.0381 -0.4636
 3369SOL    HW121569   3.115   2.945  12.371  0.5235  1.2752 -0.9120
 3369SOL    HW221570   3.177   2.925  12.498  0.1529 -0.9437 -0.8237
 3370SOL     OW21571   4.404   4.691   8.099  0.4075  0.6726 -0.2456
 3370SOL    HW121572   4.435   0.021   8.028  0.9781 -1.7544 -1.9222
 3370SOL    HW221573   4.481   4.688   8.155  1.1460  0.2197 -1.2734
 3371SOL     OW21574   1.970   2.154  11.966  0.4181 -0.3493  0.3948
 3371SOL    HW121575   1.903   2.219  11.985  1.4616  0.6429  0.7371
 3371SOL    HW221576   1.925   2.081  12.007  1.2088 -0.6083  0.8061
 3372SOL     OW21577   3.724   0.089   9.867  0.7052 -0.0492 -0.1199
 3372SOL    HW121578   3.730   0.060   9.776  1.1624 -1.7827  0.4560
 3372SOL    HW221579   3.673   0.017   9.904  0.8762 -0.1745 -0.1268
 3373SOL     OW21580   3.520   0.400  11.482 -0.0296 -0.4342 -0.5047
 3373SOL    HW121581   3.509   0.425  11.390 -0.9863 -1.3016 -0.6247
 3373SOL    HW221582   3.503   0.307  11.499  0.9405 -0.4995  0.1170
 3374SOL     OW21583   3.971   2.236  16.670  0.5154  0.1532 -0.1660
 3374SOL    HW121584   4.060   2.240  16.634 -0.4704  1.6138 -2.4860
 3374SOL    HW221585   3.918   2.270  16.597 -0.0042 -1.6217 -0.6138
 3375SOL     OW21586   2.636   0.939  16.988  0.3964  0.1505 -0.4152
 3375SOL    HW121587   2.648   0.982  16.903  2.2603 -2.2672 -1.3727
 3375SOL    HW221588   2.726   0.917  17.013  0.6740  0.8046 -0.8437
 3376SOL     OW21589   2.015   2.585   9.707 -0.4884 -0.2854  0.3039
 3376SOL    HW121590   2.107   2.610   9.714 -1.0040  1.6122  0.0807
 3376SOL    HW221591   2.024   2.527   9.631  5.2640 -0.2337  0.9727
 3377SOL     OW21592   0.161   2.328  14.600 -0.1668  0.3222 -0.3218
 3377SOL    HW121593   0.126   2.363  14.518 -0.2364 -0.1734 -0.5026
 3377SOL    HW221594   0.192   2.241  14.576 -1.1596 -0.7100  2.1794
 3378SOL     OW21595   2.296   0.643  16.410 -0.2408 -0.2041 -0.5748
 3378SOL    HW121596   2.220   0.657  16.353 -0.9463  0.8000  0.5910
 3378SOL    HW221597   2.336   0.729  16.400  2.3345 -1.4318 -0.7304
 3379SOL     OW21598   4.658   3.650   2.114  0.3683  0.2377  0.6932
 3379SOL    HW121599   4.623   3.739   2.125  1.6931  1.0612 -1.7708
 3379SOL    HW221600   4.642   3.640   2.020 -0.0056 -1.0322  0.9027
 3380SOL     OW21601   4.393   0.044  13.817 -0.3517  0.2713 -0.3227
 3380SOL    HW121602   4.438   0.121  13.851  1.0456  0.1521 -1.8860
 3380SOL    HW221603   4.470   4.724  13.783  0.9819  1.5374  1.0242
 3381SOL     OW21604   3.825   3.712   7.377 -0.0030  0.6557  0.6003
 3381SOL    HW121605   3.899   3.755   7.334  0.2530 -2.6639 -2.2564
 3381SOL    HW221606   3.778   3.794   7.390 -0.1328  0.8164 -0.8454
 3382SOL     OW21607   2.890   4.057   7.471 -0.2195  0.5684 -0.0714
 3382SOL    HW121608   2.967   4.081   7.420 -0.6275 -0.4927 -1.1873
 3382SOL    HW221609   2.886   3.965   7.447  1.0071  0.0404  1.7444
 3383SOL     OW21610   1.391   2.241  13.651  0.8160  0.1667 -0.5428
 3383SOL    HW121611   1.453   2.186  13.603  0.3378 -0.0917 -0.8624
 3383SOL    HW221612   1.355   2.171  13.704  0.1472  0.9807  0.0743
 3384SOL     OW21613   0.363   0.426   2.399  0.2618  0.4919  0.2115
 3384SOL    HW121614   0.365   0.482   2.477 -0.2157 -0.9784  1.2649
 3384SOL    HW221615   0.391   0.339   2.427 -1.7187 -0.1950  0.0415
 3385SOL     OW21616   1.226   3.121   7.122  0.2454 -0.6724  0.4170
 3385SOL    HW121617   1.204   3.205   7.083  2.3209  0.9158  2.7094
 3385SOL    HW221618   1.165   3.114   7.196 -0.2138  0.3570  0.1242
 3386SOL     OW21619   0.392   1.666  13.382  0.5398  0.4430 -0.2794
 3386SOL    HW121620   0.450   1.668  13.306  1.8173 -1.0219  0.6625
 3386SOL    HW221621   0.422   1.592  13.435 -2.6788 -2.3127 -2.2580
 3387SOL     OW21622   0.985   1.285  12.152  0.2454  0.0379  0.1000
 3387SOL    HW121623   0.916   1.263  12.215  0.1704  2.5693  0.8848
 3387SOL    HW221624   1.061   1.265  12.207  0.6671 -0.2768 -0.5967
 3388SOL     OW21625   3.801   2.008   1.808 -0.1291 -0.0945  0.9152
 3388SOL    HW121626   3.853   2.087   1.824 -1.0199  0.9463 -1.3833
 3388SOL    HW221627   3.863   1.948   1.767  0.0315 -0.0425  1.0827
 3389SOL     OW21628   3.248   3.107   8.139 -0.3467 -0.1370  0.3795
 3389SOL    HW121629   3.339   3.090   8.113 -0.6663 -1.8724  0.3814
 3389SOL    HW221630   3.265   3.168   8.211  0.1451 -1.9905  1.8448
 3390SOL     OW21631   2.214   1.948   7.406 -0.5241 -0.0946  0.1574
 3390SOL    HW121632   2.253   2.034   7.389 -1.1460 -0.3590 -2.5916
 3390SOL    HW221633   2.130   1.960   7.361 -0.0729 -1.4064 -1.0614
 3391SOL     OW21634   1.039   2.378   3.604 -0.0280 -0.2058 -0.5810
 3391SOL    HW121635   0.948   2.356   3.625  0.3449 -0.8503  0.3555
 3391SOL    HW221636   1.077   2.424   3.679 -0.6861 -1.3856  0.4800
 3392SOL     OW21637   3.934   1.930   7.582  0.2171 -0.0748 -0.1696
 3392SOL    HW121638   3.874   1.902   7.513 -1.3994 -0.7488  1.5418
 3392SOL    HW221639   3.998   1.987   7.539 -0.1491 -0.0009 -0.6144
 3393SOL     OW21640   1.983   0.560   2.464 -0.1623  0.2074 -0.1531
 3393SOL    HW121641   2.014   0.600   2.546 -0.1059 -0.9770  0.4011
 3393SOL    HW221642   2.043   0.490   2.438 -0.0331 -0.2127  1.2654
 3394SOL     OW21643   4.372   0.360  15.212  0.0325 -0.8530 -0.1565
 3394SOL    HW121644   4.346   0.319  15.294 -2.8224  0.4261 -0.4373
 3394SOL    HW221645   4.307   0.326  15.151  1.1275  0.1681 -1.8991
 3395SOL     OW21646   0.526   2.954   4.533  0.2616 -0.2644  0.4226
 3395SOL    HW121647   0.621   2.942   4.533  0.1350 -1.3843 -0.7704
 3395SOL    HW221648   0.506   2.883   4.593  0.9135 -0.0872  0.8413
 3396SOL     OW21649   2.791   0.918  12.078 -0.1070 -0.0294  0.3203
 3396SOL    HW121650   2.771   0.963  11.995 -0.1787  1.0968  0.9487
 3396SOL    HW221651   2.701   0.908  12.109 -0.5665 -0.2187 -1.0419
 3397SOL     OW21652   1.292   0.898   5.222 -0.1972  0.7067  0.1381
 3397SOL    HW121653   1.352   0.933   5.156  0.5759 -2.8481 -1.0481
 3397SOL    HW221654   1.236   0.976   5.229 -0.5366  0.5393 -0.6461
 3398SOL     OW21655   3.225   1.322   7.350  0.3948  0.5647 -0.6118
 3398SOL    HW121656   3.286   1.386   7.386  0.5157 -0.3955  0.8796
 3398SOL    HW221657   3.290   1.267   7.305  3.0434  1.4684  2.0860
 3399SOL     OW21658   2.742   1.924   3.411 -0.6213 -0.5259 -0.3734
 3399SOL    HW121659   2.647   1.932   3.426 -0.3093  1.0638  0.7302
 3399SOL    HW221660   2.752   1.999   3.353 -2.1994  0.4875  0.6632
 3400SOL     OW21661   0.588   1.241   3.862 -0.0933  0.2719 -0.3382
 3400SOL    HW121662   0.550   1.156   3.885 -1.7480  0.7198 -1.4290
 3400SOL    HW221663   0.603   1.275   3.951 -3.5981  0.8069  0.0525
 3401SOL     OW21664   3.213   0.474   3.328 -0.5740 -0.4917  0.6386
 3401SOL    HW121665   3.210   0.539   3.399 -0.5066 -1.0288  1.1329
 3401SOL    HW221666   3.290   0.424   3.356 -1.1162 -1.4606  0.3887
 3402SOL     OW21667   2.869   2.414   3.308  0.5181 -0.0015  0.1933
 3402SOL    HW121668   2.918   2.478   3.360 -0.7605 -0.2438  1.6961
 3402SOL    HW221669   2.918   2.399   3.227  1.9741 -0.1423  1.1136
 3403SOL     OW21670   0.952   2.461   9.461  0.1521  0.4843 -0.2237
 3403SOL    HW121671   0.919   2.472   9.550  2.4346  0.2455  0.6628
 3403SOL    HW221672   0.937   2.366   9.457 -1.9079  0.8814 -1.7552
 3404SOL     OW21673   1.341   1.929   5.697  0.8059 -0.4412  0.1423
 3404SOL    HW121674   1.358   1.856   5.757  0.9616  0.7492  1.5691
 3404SOL    HW221675   1.247   1.935   5.709  0.8961  0.3012  0.5254
 3405SOL     OW21676   1.561   1.023  15.635  0.2143 -0.1549 -0.0031
 3405SOL    HW121677   1.638   1.054  15.588 -0.0453 -1.7648 -1.5210
 3405SOL    HW221678   1.565   0.929  15.615 -1.6870 -0.2107 -0.1238
 3406SOL     OW21679   1.957   3.563   1.729 -0.1272 -0.5283 -0.9817
 3406SOL    HW121680   2.031   3.507   1.703  1.7554  1.6061 -0.2735
 3406SOL    HW221681   1.892   3.506   1.770 -0.4838 -0.0795 -0.9346
 3407SOL     OW21682   1.071   3.876   0.400 -1.0262 -0.2905 -0.1358
 3407SOL    HW121683   1.138   3.842   0.340  0.0325 -0.4687  1.1493
 3407SOL    HW221684   0.991   3.832   0.372 -0.5466 -1.8048  0.8924
 3408SOL     OW21685   3.102   4.593  13.792 -0.1749  0.3356 -0.5204
 3408SOL    HW121686   3.072   4.668  13.742  1.2832  0.3302 -1.3875
 3408SOL    HW221687   3.135   4.535  13.723 -2.7118 -1.0345 -0.5645
 3409SOL     OW21688   2.818   4.166   5.748 -0.1871  0.4181  0.0115
 3409SOL    HW121689   2.753   4.146   5.816 -0.1153 -2.2287 -0.7109
 3409SOL    HW221690   2.838   4.077   5.720  0.8740  1.1155 -1.4237
 3410SOL     OW21691   0.692   1.332  16.161  0.7197  0.2752 -0.1871
 3410SOL    HW121692   0.672   1.240  16.150 -0.1745  0.8088 -2.9688
 3410SOL    HW221693   0.785   1.329  16.138  0.9158  2.1426  0.3216
 3411SOL     OW21694   0.798   4.282  12.468 -0.1862  0.5884  0.1183
 3411SOL    HW121695   0.832   4.270  12.379 -0.7235  1.0199 -0.1421
 3411SOL    HW221696   0.849   4.358  12.497 -0.2986  0.4155  0.7685
 3412SOL     OW21697   1.831   2.830   1.943  0.6842 -0.2551  0.6198
 3412SOL    HW121698   1.759   2.892   1.954  1.7592  1.0453  0.3867
 3412SOL    HW221699   1.859   2.857   1.855  0.5910  0.3483  0.7757
 3413SOL     OW21700   3.405   2.011  16.792 -0.1876 -0.4737  0.1416
 3413SOL    HW121701   3.336   2.072  16.817 -1.0757 -1.3749 -0.0768
 3413SOL    HW221702   3.481   2.031  16.846 -0.6030 -0.1717  0.6157
 3414SOL     OW21703   1.307   0.198   5.480  0.3313 -0.0226  0.3804
 3414SOL    HW121704   1.237   0.210   5.544 -0.4557 -0.3430 -0.4091
 3414SOL    HW221705   1.268   0.223   5.396  0.6770  0.8224  0.4722
 3415SOL     OW21706   3.123   3.969   2.320  0.6640 -0.4050 -0.2032
 3415SOL    HW121707   3.077   3.967   2.236  0.0223 -2.3208  0.1966
 3415SOL    HW221708   3.048   3.986   2.377  2.4365 -0.5783  2.1557
 3416SOL     OW21709   3.987   0.455   4.256  0.0127 -0.4166  0.3112
 3416SOL    HW121710   4.030   0.521   4.310  0.2837 -0.4152  0.0942
 3416SOL    HW221711   4.027   0.373   4.285  0.1989 -0.6027 -0.4952
 3417SOL     OW21712   2.432   1.131   8.662  0.4886 -0.0753 -0.1554
 3417SOL    HW121713   2.489   1.055   8.678 -1.9293 -1.5496  1.4839
 3417SOL    HW221714   2.476   1.201   8.710  0.4068 -0.6846  0.8183
 3418SOL     OW21715   1.134   0.962   0.506  0.3485  0.2706  0.4614
 3418SOL    HW121716   1.168   0.886   0.553  1.5149  0.8725  0.5745
 3418SOL    HW221717   1.182   0.964   0.423  1.3181  1.6916  1.0603
 3419SOL     OW21718   4.045   3.972  13.607 -0.1234 -0.1907  0.4351
 3419SOL    HW121719   4.100   3.897  13.584  1.0981  0.4113  1.3926
 3419SOL    HW221720   4.086   4.012  13.684 -0.3653 -0.6403  0.7970
 3420SOL     OW21721   1.574   3.248   0.268  0.0621 -0.7781  0.2216
 3420SOL    HW121722   1.585   3.281   0.357  1.2340 -0.7291  0.0536
 3420SOL    HW221723   1.481   3.267   0.256 -0.6012 -4.0076  0.3316
 3421SOL     OW21724   3.949   1.929   7.239  0.1536 -0.0655  0.0613
 3421SOL    HW121725   4.030   1.885   7.216 -0.3092 -1.4619  1.0663
 3421SOL    HW221726   3.915   1.966   7.158 -1.0429 -0.2028  0.4950
 3422SOL     OW21727   2.573   1.234   6.607 -0.0802 -0.3771  0.0327
 3422SOL    HW121728   2.614   1.309   6.565 -1.0258 -0.5832 -1.2419
 3422SOL    HW221729   2.557   1.267   6.696  2.6783  0.6578  0.1430
 3423SOL     OW21730   2.167   3.910   7.428 -0.8663  0.0452  0.0741
 3423SOL    HW121731   2.091   3.864   7.464 -1.1234  0.9792  0.7432
 3423SOL    HW221732   2.229   3.916   7.501 -2.0038  0.1604  1.0420
 3424SOL     OW21733   0.273   2.241   5.983 -0.5277  0.0462  0.2975
 3424SOL    HW121734   0.235   2.170   6.036 -1.8790 -0.2792 -1.1038
 3424SOL    HW221735   0.203   2.305   5.995  0.4902  1.1904  0.1478
 3425SOL     OW21736   2.341   3.554   6.162  0.0135  0.0479  0.0215
 3425SOL    HW121737   2.377   3.641   6.147  0.6407 -0.0206  1.1624
 3425SOL    HW221738   2.246   3.558   6.146  0.0632  0.9723 -0.0204
 3426SOL     OW21739   2.355   0.009   4.675  0.1814 -0.1956  0.0203
 3426SOL    HW121740   2.272   0.004   4.629  0.3186 -1.8510 -0.0545
 3426SOL    HW221741   2.336   0.084   4.733  1.5891  0.2708 -0.1202
 3427SOL     OW21742   4.578   2.103  12.197 -0.1248 -0.0423  0.2078
 3427SOL    HW121743   4.655   2.097  12.255 -0.1456  1.5311  0.3997
 3427SOL    HW221744   4.557   2.196  12.202 -0.8672 -0.3176  2.2303
 3428SOL     OW21745   4.048   1.504   7.091  0.2731 -0.3119  0.1078
 3428SOL    HW121746   3.992   1.521   7.167  1.5910  3.0109  0.3362
 3428SOL    HW221747   4.137   1.513   7.128 -0.8336 -1.0219  2.9633
 3429SOL     OW21748   4.455   4.341   1.749  0.3131 -0.1378  0.0480
 3429SOL    HW121749   4.472   4.425   1.707  1.5970 -0.3810  0.0768
 3429SOL    HW221750   4.543   4.315   1.779 -0.0928 -0.6311  0.8206
 3430SOL     OW21751   0.580   4.467  15.709 -0.1962 -0.2382 -0.5217
 3430SOL    HW121752   0.534   4.411  15.646  2.8718 -0.0026 -2.9483
 3430SOL    HW221753   0.602   4.407  15.780  1.0607  0.3815 -0.3846
 3431SOL     OW21754   2.178   2.837   2.568  0.1766  0.0641 -0.7310
 3431SOL    HW121755   2.253   2.815   2.513  0.1448 -4.3693  1.0389
 3431SOL    HW221756   2.103   2.807   2.518 -1.1227 -0.6948  1.6462
 3432SOL     OW21757   0.890   3.576   7.488  0.4988  0.5605  0.1766
 3432SOL    HW121758   0.969   3.551   7.536  1.0146  0.8990 -0.4964
 3432SOL    HW221759   0.875   3.486   7.457  1.0539  1.1364 -1.7479
 3433SOL     OW21760   3.008   4.064  10.717  0.6354 -0.2101  0.5112
 3433SOL    HW121761   2.997   4.064  10.812  0.1251 -2.0384  0.4423
 3433SOL    HW221762   3.032   4.156  10.706 -0.8311 -0.1395 -2.0883
 3434SOL     OW21763   1.517   1.537   8.973  0.2868  0.3495  0.0792
 3434SOL    HW121764   1.560   1.452   8.970 -0.2764  0.0582  0.2619
 3434SOL    HW221765   1.515   1.538   8.877 -0.5547  0.2205  0.0934
 3435SOL     OW21766   2.218   1.334   1.279 -0.2730 -0.0079  0.0147
 3435SOL    HW121767   2.180   1.331   1.367  0.6050  0.8976  0.4291
 3435SOL    HW221768   2.144   1.371   1.230 -0.0386  0.0530 -0.2968
 3436SOL     OW21769   3.406   0.071   9.512 -0.0178 -0.1911 -0.3094
 3436SOL    HW121770   3.374   0.146   9.461  0.2579  1.5457  2.0728
 3436SOL    HW221771   3.424   0.009   9.442  0.0543 -1.6294  0.9944
 3437SOL     OW21772   3.447   3.262  10.821 -0.1840  0.0113  0.1183
 3437SOL    HW121773   3.533   3.302  10.834 -0.9331  0.8417  2.5316
 3437SOL    HW221774   3.484   3.193  10.765 -0.1404 -1.7025  2.2349
 3438SOL     OW21775   4.007   1.922   4.280  0.8281  0.5592  0.1951
 3438SOL    HW121776   3.956   1.953   4.206  0.2640 -1.1105 -0.1045
 3438SOL    HW221777   3.941   1.903   4.346  0.4674  0.8697 -0.0773
 3439SOL     OW21778   1.756   1.809  15.235  0.1491  0.0087  0.3631
 3439SOL    HW121779   1.767   1.817  15.141 -1.7920  2.4646  0.3658
 3439SOL    HW221780   1.827   1.754  15.268  0.6431  0.1149 -0.5315
 3440SOL     OW21781   3.654   1.732  17.058 -0.4634  0.2817  0.6952
 3440SOL    HW121782   3.669   1.762  17.148 -1.9748  0.5256  0.8555
 3440SOL    HW221783   3.568   1.767  17.036  2.2153  4.6836 -2.7193
 3441SOL     OW21784   1.393   4.110   1.289  0.0016  0.4123 -0.1869
 3441SOL    HW121785   1.437   4.194   1.279 -0.8824  0.6833 -1.8933
 3441SOL    HW221786   1.338   4.132   1.365 -0.2099  2.2349 -0.8540
 3442SOL     OW21787   2.105   1.441  16.353 -0.1706 -0.8782 -0.2615
 3442SOL    HW121788   2.119   1.383  16.429 -2.3792  2.0425  2.3596
 3442SOL    HW221789   2.177   1.425  16.292  1.7512  1.2391  1.4677
 3443SOL     OW21790   2.926   1.153   0.325 -0.3325 -0.0238  0.0270
 3443SOL    HW121791   3.018   1.175   0.311 -1.0600  2.5217 -0.8877
 3443SOL    HW221792   2.921   1.138   0.419  0.6740  0.0995  0.0955
 3444SOL     OW21793   2.906   1.152   6.895 -0.2679  0.2694 -0.1044
 3444SOL    HW121794   2.989   1.168   6.941 -0.8780 -0.7755  1.3582
 3444SOL    HW221795   2.879   1.237   6.859  0.5618  0.7191  0.3153
 3445SOL     OW21796   0.193   4.488   6.218 -0.1923 -0.5821 -0.1638
 3445SOL    HW121797   0.265   4.528   6.170  0.1868  0.9221  1.6828
 3445SOL    HW221798   0.124   4.547   6.190 -0.5511 -1.1866 -0.5697
 3446SOL     OW21799   4.609   2.733   8.189 -0.1980  0.1305  0.3272
 3446SOL    HW121800   4.615   2.695   8.102 -0.9098  0.2924  0.2072
 3446SOL    HW221801   4.568   2.657   8.231  2.8824 -0.8952  1.4903
 3447SOL     OW21802   3.334   4.440   2.361  0.2650  0.1534  0.3870
 3447SOL    HW121803   3.367   4.376   2.297 -0.9949 -0.2045  0.0945
 3447SOL    HW221804   3.338   4.529   2.326  1.0852 -0.6420 -1.5896
 3448SOL     OW21805   3.759   0.065   3.327 -0.5165 -0.3270  0.0593
 3448SOL    HW121806   3.706   4.718   3.360  0.3185 -1.9604 -2.2001
 3448SOL    HW221807   3.844   0.020   3.330 -1.1519 -1.4955  0.6380
 3449SOL     OW21808   4.623   2.008   8.019  0.4619  0.2837 -0.8232
 3449SOL    HW121809   4.593   2.010   8.110  0.8583 -1.4513 -0.6521
 3449SOL    HW221810   4.708   1.965   8.030 -0.9678 -2.3272  0.1381
 3450SOL     OW21811   2.808   3.242   7.402  0.4990 -0.5424  0.4468
 3450SOL    HW121812   2.728   3.275   7.444  0.4392  2.5703 -2.1401
 3450SOL    HW221813   2.802   3.148   7.421 -1.6466 -0.1247  1.9099
 3451SOL     OW21814   2.155   2.185   2.127  0.2617  0.0825  0.0030
 3451SOL    HW121815   2.106   2.240   2.188  1.0371  0.6056  0.1551
 3451SOL    HW221816   2.166   2.241   2.049 -0.6382 -2.8006 -2.1831
 3452SOL     OW21817   2.121   2.292  13.321  0.4550  0.3994  0.2010
 3452SOL    HW121818   2.148   2.208  13.284  1.5394  1.3398 -1.1606
 3452SOL    HW221819   2.032   2.292  13.287  0.6694 -1.9636 -0.3576
 3453SOL     OW21820   1.689   1.914   7.404  0.2436 -0.1442  1.1108
 3453SOL    HW121821   1.692   1.823   7.374  1.5488 -0.0185  0.8407
 3453SOL    HW221822   1.781   1.941   7.402  0.3791 -0.6738  0.3174
 3454SOL     OW21823   2.293   1.715   0.181 -0.2520  0.1226  0.0080
 3454SOL    HW121824   2.204   1.686   0.164 -0.2350 -0.2287  0.5315
 3454SOL    HW221825   2.328   1.628   0.204  0.1191 -0.5132 -2.9361
 3455SOL     OW21826   0.056   0.616  12.586  0.2253  0.2078 -0.3805
 3455SOL    HW121827   0.037   0.689  12.644  0.2824 -0.6312  0.6968
 3455SOL    HW221828   0.011   0.545  12.632  2.3032 -1.6054 -1.1334
 3456SOL     OW21829   1.077   4.128   4.634 -0.0911  0.1055  0.5964
 3456SOL    HW121830   1.097   4.213   4.594  0.4029 -0.0695  0.4685
 3456SOL    HW221831   1.009   4.097   4.574  0.8114  0.8887 -0.8262
 3457SOL     OW21832   2.635   4.539   6.404 -0.0285 -0.2779 -0.7124
 3457SOL    HW121833   2.556   4.487   6.416 -0.0624 -0.1378 -0.3414
 3457SOL    HW221834   2.599   4.617   6.446 -0.3905 -0.7618 -0.1313
 3458SOL     OW21835   2.880   2.911   1.891  0.0421 -0.5189  0.7423
 3458SOL    HW121836   2.939   2.986   1.893  2.0044 -1.9821 -2.2234
 3458SOL    HW221837   2.925   2.858   1.825  1.0063  2.8408 -1.3439
 3459SOL     OW21838   4.334   3.203   8.236  0.5585  0.0866 -0.3593
 3459SOL    HW121839   4.426   3.214   8.213  1.4241 -0.4318  2.8816
 3459SOL    HW221840   4.346   3.186   8.329 -1.8654 -2.5753 -0.5282
 3460SOL     OW21841   3.654   0.681  10.445 -0.5603 -0.5320  0.2842
 3460SOL    HW121842   3.670   0.608  10.385 -1.8551 -0.6581  0.0928
 3460SOL    HW221843   3.592   0.642  10.507 -0.5023 -2.2685 -0.7271
 3461SOL     OW21844   0.331   0.968   4.239  0.5835 -0.2766 -0.2327
 3461SOL    HW121845   0.259   0.941   4.183  0.7026  1.3548 -1.1733
 3461SOL    HW221846   0.289   0.989   4.322  0.6333  0.9106 -0.5096
 3462SOL     OW21847   1.408   2.664   9.377 -0.2207 -0.4306 -0.1542
 3462SOL    HW121848   1.324   2.652   9.421 -0.2604 -0.1913 -0.1676
 3462SOL    HW221849   1.459   2.585   9.398 -0.7534 -0.5377  0.7460
 3463SOL     OW21850   2.626   3.811   5.964 -0.6086 -0.5972  0.0743
 3463SOL    HW121851   2.535   3.836   5.977 -0.0668 -0.0528  2.7509
 3463SOL    HW221852   2.606   3.739   5.904  2.5732 -1.8369  0.4876
 3464SOL     OW21853   3.153   0.517  12.754  0.4827 -0.0240 -0.2384
 3464SOL    HW121854   3.136   0.451  12.688 -0.5898 -0.0032  0.0216
 3464SOL    HW221855   3.218   0.469  12.805 -2.4273 -1.2369  2.3062
 3465SOL     OW21856   3.637   2.032   4.138 -0.7296  0.2435  0.8495
 3465SOL    HW121857   3.593   2.114   4.115  1.8740  1.0955 -1.0719
 3465SOL    HW221858   3.548   1.996   4.140  0.3164 -2.2694  1.2465
 3466SOL     OW21859   4.697   1.791   5.013 -0.0476  0.1128  0.3406
 3466SOL    HW121860   4.720   1.751   5.097  0.7249 -0.1566  0.0088
 3466SOL    HW221861   4.713   1.882   5.035  0.0961 -0.0208  0.7927
 3467SOL     OW21862   2.060   3.300   1.903  0.5482  0.1826 -0.2233
 3467SOL    HW121863   1.994   3.368   1.918  0.4897  0.0786  0.0041
 3467SOL    HW221864   2.094   3.332   1.821  0.0788 -3.7775 -1.9847
 3468SOL     OW21865   1.589   2.052   5.332  0.3208 -0.5127 -0.3367
 3468SOL    HW121866   1.551   1.986   5.391  1.1058 -2.4255 -1.9829
 3468SOL    HW221867   1.544   2.027   5.252 -0.9191  1.9893 -0.4345
 3469SOL     OW21868   3.924   1.998  10.578 -0.1959  0.1196 -0.2647
 3469SOL    HW121869   3.947   1.912  10.616 -1.1060  0.9168  2.1082
 3469SOL    HW221870   3.830   1.996  10.560 -0.1182  2.0309 -0.8440
 3470SOL     OW21871   2.059   2.972   5.714  0.4219  0.3886  0.2276
 3470SOL    HW121872   2.010   3.033   5.660 -2.9201 -2.2064  0.3335
 3470SOL    HW221873   2.145   3.008   5.691  0.4594  0.6006  0.7125
 3471SOL     OW21874   0.015   0.379   5.952 -0.2920  0.2931 -0.4124
 3471SOL    HW121875   0.093   0.326   5.938  0.1031  0.3967  1.4130
 3471SOL    HW221876   4.677   0.312   5.978 -1.4103  1.3430 -0.4506
 3472SOL     OW21877   0.743   2.795   6.189  0.0881  0.2756 -0.2230
 3472SOL    HW121878   0.719   2.791   6.096 -1.7847  0.4364  0.2577
 3472SOL    HW221879   0.816   2.857   6.190 -0.1674  0.5573  1.0832
 3473SOL     OW21880   1.193   1.213  12.299  0.9060 -0.1235  0.1525
 3473SOL    HW121881   1.227   1.276  12.363  1.6411 -0.3110 -0.0560
 3473SOL    HW221882   1.246   1.139  12.327  2.0956 -0.2750 -2.5017
 3474SOL     OW21883   2.751   2.705   6.969  0.1347  0.1014 -0.6058
 3474SOL    HW121884   2.666   2.747   6.980  1.2982  2.8184 -2.0619
 3474SOL    HW221885   2.810   2.762   7.018 -2.2896 -1.3791  4.0273
 3475SOL     OW21886   2.369   3.153   8.053 -0.0968  0.0409  0.1904
 3475SOL    HW121887   2.389   3.246   8.045  0.8811 -0.3261 -1.4945
 3475SOL    HW221888   2.384   3.137   8.146 -3.1612 -2.3909  0.2618
 3476SOL     OW21889   3.375   3.666   4.286 -0.3213  0.0542  0.1454
 3476SOL    HW121890   3.377   3.759   4.309  1.3022  0.4642 -1.6502
 3476SOL    HW221891   3.429   3.661   4.207  0.5037 -0.3075  0.7294
 3477SOL     OW21892   1.069   1.609   5.790  0.2963 -0.3041 -0.0377
 3477SOL    HW121893   1.016   1.662   5.849 -0.0053  0.5542 -1.0799
 3477SOL    HW221894   1.057   1.522   5.827  0.8452 -0.2592  0.2529
 3478SOL     OW21895   3.369   1.258   4.598  0.5173 -0.3048 -0.1084
 3478SOL    HW121896   3.295   1.217   4.642 -0.6337  0.5460 -1.2771
 3478SOL    HW221897   3.346   1.222   4.512  1.6254 -0.6151 -0.2753
 3479SOL     OW21898   3.895   2.857   7.520  0.5274  0.4437 -0.3489
 3479SOL    HW121899   3.913   2.862   7.426  0.3391 -2.7370 -0.5550
 3479SOL    HW221900   3.954   2.785   7.542  0.9496  1.6241  2.3289
 3480SOL     OW21901   4.322   0.277   2.717  0.4838  0.3248  0.1904
 3480SOL    HW121902   4.252   0.214   2.735  0.3919  0.1713 -0.7276
 3480SOL    HW221903   4.293   0.301   2.629 -0.5653  0.7484  0.6610
 3481SOL     OW21904   4.395   2.417   1.680 -0.2661  0.0330  0.4283
 3481SOL    HW121905   4.362   2.507   1.682  0.8319  0.4263  0.9674
 3481SOL    HW221906   4.319   2.378   1.636 -0.8171 -1.0094  2.3017
 3482SOL     OW21907   0.135   4.648   4.532 -0.2947  0.6326 -0.1539
 3482SOL    HW121908   0.089   0.006   4.539  0.6298  1.0041  1.4829
 3482SOL    HW221909   0.225   4.680   4.539 -0.5042  1.3679 -0.8038
 3483SOL     OW21910   3.030   3.404   3.275 -0.5289  0.4873 -0.2618
 3483SOL    HW121911   2.985   3.473   3.323 -0.4870  0.3442 -0.0187
 3483SOL    HW221912   2.976   3.396   3.196  0.4715 -2.3496 -0.6495
 3484SOL     OW21913   3.603   2.434  17.523  0.4155  0.8225  0.0064
 3484SOL    HW121914   3.644   2.361  17.478 -0.2910  0.8113 -0.6229
 3484SOL    HW221915   3.654   2.510  17.495 -0.7002  1.5044 -0.2090
 3485SOL     OW21916   1.928   1.663   2.778 -0.3057 -0.6324 -0.3054
 3485SOL    HW121917   1.916   1.586   2.722  0.8217 -1.0158 -0.0283
 3485SOL    HW221918   1.842   1.675   2.818 -0.7041 -2.6301 -0.5242
 3486SOL     OW21919   1.998   2.666   2.385 -0.2775 -0.1650 -0.6908
 3486SOL    HW121920   1.955   2.705   2.310  3.6539  0.6734 -2.5210
 3486SOL    HW221921   2.089   2.671   2.355  0.1261  0.0118  0.5464
 3487SOL     OW21922   4.523   4.376   2.112 -0.4035  0.3566  0.4544
 3487SOL    HW121923   4.443   4.342   2.073  1.4415 -2.4060 -0.9081
 3487SOL    HW221924   4.552   4.304   2.168 -0.2216  0.0090 -0.0962
 3488SOL     OW21925   0.965   4.564  13.172  0.1555  0.2574 -0.5009
 3488SOL    HW121926   0.871   4.585  13.176  0.2090  0.4776 -0.4210
 3488SOL    HW221927   0.995   4.580  13.083 -1.2022  3.8655 -0.2917
 3489SOL     OW21928   4.406   2.499   2.406  0.4131 -0.7589 -0.0496
 3489SOL    HW121929   4.475   2.541   2.355 -1.4089  0.2167 -1.7458
 3489SOL    HW221930   4.455   2.427   2.445  1.9401 -0.3091 -1.1360
 3490SOL     OW21931   3.710   3.328  10.833 -0.1081 -0.1874 -0.8075
 3490SOL    HW121932   3.746   3.248  10.871 -0.5980 -0.1106 -0.1890
 3490SOL    HW221933   3.776   3.336  10.763 -0.3743  1.6989 -0.8463
 3491SOL     OW21934   0.975   1.820   5.122  0.0001 -0.2664 -0.2000
 3491SOL    HW121935   0.977   1.861   5.208  0.0265  1.4034 -0.9856
 3491SOL    HW221936   1.037   1.879   5.080 -1.8974  0.7193 -1.6508
 3492SOL     OW21937   2.661   0.407   6.657 -0.2958 -0.4136 -0.1605
 3492SOL    HW121938   2.676   0.501   6.662  3.0186 -0.9638  0.0071
 3492SOL    HW221939   2.749   0.372   6.647  0.1809  1.4316 -2.4787
 3493SOL     OW21940   3.347   1.290   6.138 -0.3610  0.0359  0.0049
 3493SOL    HW121941   3.317   1.229   6.070  0.0608  0.3991 -0.5107
 3493SOL    HW221942   3.442   1.292   6.132 -0.4410  2.9397 -0.1367
 3494SOL     OW21943   4.048   2.387  17.184  0.1231  0.5588 -0.2892
 3494SOL    HW121944   4.013   2.457  17.239  2.0740  2.2782 -1.2783
 3494SOL    HW221945   4.065   2.445  17.110 -0.7581  0.6161 -0.4535
 3495SOL     OW21946   4.721   0.495   0.342 -0.4171 -0.1897 -0.2445
 3495SOL    HW121947   0.073   0.488   0.287 -0.0711 -2.7303  0.5644
 3495SOL    HW221948   4.653   0.514   0.278 -0.4408 -1.3652 -0.5674
 3496SOL     OW21949   2.142   3.613   6.572 -0.2276 -0.0816  0.0881
 3496SOL    HW121950   2.064   3.618   6.626 -0.1795  0.0064  0.1490
 3496SOL    HW221951   2.212   3.627   6.636 -0.0457 -0.1898 -0.0850
 3497SOL     OW21952   2.045   3.365   8.132  0.3596 -0.3032  0.4475
 3497SOL    HW121953   2.083   3.418   8.063 -1.1158  0.0605 -0.0739
 3497SOL    HW221954   2.011   3.429   8.195 -3.6892 -0.8780 -1.1157
 3498SOL     OW21955   3.465   4.355   3.802  0.3845 -0.1682 -0.2654
 3498SOL    HW121956   3.519   4.431   3.781 -1.0525  0.8921 -0.2134
 3498SOL    HW221957   3.492   4.295   3.733 -1.6442  0.7603 -1.8567
 3499SOL     OW21958   0.759   4.130  10.228 -0.7649  0.6973  0.0106
 3499SOL    HW121959   0.763   4.035  10.215  2.1837  0.6150  1.5933
 3499SOL    HW221960   0.702   4.153  10.155  3.4916  0.0482 -3.4494
 3500SOL     OW21961   3.816   1.509   8.785  0.0603  0.1928  0.4495
 3500SOL    HW121962   3.724   1.527   8.765  0.6867  1.6251 -1.1108
 3500SOL    HW221963   3.805   1.468   8.871  1.1142  0.9347  0.9432
 3501SOL     OW21964   1.070   3.024   5.884  0.1284  0.0282 -0.3796
 3501SOL    HW121965   1.093   2.934   5.906 -0.6992 -0.5691 -1.9497
 3501SOL    HW221966   1.139   3.046   5.821  1.1148 -1.2741  0.2393
 3502SOL     OW21967   3.080   0.183  11.168 -0.6722  0.4133  0.2153
 3502SOL    HW121968   3.065   0.276  11.182  0.5024  0.9846 -2.2950
 3502SOL    HW221969   3.090   0.158  11.260 -1.6544 -0.7243  0.0094
 3503SOL     OW21970   3.729   2.099   7.758 -0.3369  0.4363  0.0709
 3503SOL    HW121971   3.718   2.023   7.815  2.5282  0.7270  1.0416
 3503SOL    HW221972   3.671   2.082   7.684 -0.0541  0.2685 -0.1122
 3504SOL     OW21973   2.197   4.586  15.592  0.0565  0.0392  0.0279
 3504SOL    HW121974   2.243   4.666  15.565 -1.0825  0.5731 -0.3226
 3504SOL    HW221975   2.174   4.556  15.504  1.2080 -0.6712 -0.0413
 3505SOL     OW21976   0.665   3.370   9.639  0.3888 -0.2692  0.6454
 3505SOL    HW121977   0.633   3.367   9.549 -1.0588  1.1151  1.1167
 3505SOL    HW221978   0.754   3.402   9.620 -0.0642  0.9792  0.6455
 3506SOL     OW21979   1.621   1.328   5.726 -0.2923  0.0446 -0.1209
 3506SOL    HW121980   1.545   1.272   5.742 -1.3334  1.1441 -1.2283
 3506SOL    HW221981   1.581   1.414   5.735  0.2532  0.3058 -0.2394
 3507SOL     OW21982   4.038   2.620   3.412  0.6988 -0.1313  0.3318
 3507SOL    HW121983   4.107   2.663   3.362  1.0790 -1.0792  0.0328
 3507SOL    HW221984   4.076   2.613   3.499 -0.0778 -0.9803  0.6095
 3508SOL     OW21985   3.962   3.971   3.683 -0.3525  0.1968 -0.2464
 3508SOL    HW121986   3.994   3.928   3.762  0.5420  2.5607  0.6855
 3508SOL    HW221987   3.967   4.065   3.698  0.0200  0.2978 -1.0030
 3509SOL     OW21988   2.171   2.787  11.487 -0.2696 -0.2144  0.6384
 3509SOL    HW121989   2.188   2.733  11.409 -0.5441  1.4838 -0.5988
 3509SOL    HW221990   2.093   2.748  11.524  0.2328  0.0197  1.9230
 3510SOL     OW21991   4.386   2.651   4.829  0.2105  0.3526  0.3227
 3510SOL    HW121992   4.440   2.675   4.754 -0.2773  0.0480 -0.1288
 3510SOL    HW221993   4.349   2.568   4.800 -0.3389  0.6807  0.0773
 3511SOL     OW21994   2.410   3.784   3.752 -0.2050 -0.1848  0.6112
 3511SOL    HW121995   2.442   3.800   3.841 -0.0404  1.7078  0.2083
 3511SOL    HW221996   2.321   3.818   3.748  0.5848  1.7013 -0.9552
 3512SOL     OW21997   3.127   0.125  12.136  0.2390 -0.3048  0.8107
 3512SOL    HW121998   3.169   0.053  12.088 -0.8749 -1.5607  1.7219
 3512SOL    HW221999   3.073   0.162  12.066  0.3306  0.0436  0.9243
 3513SOL     OW22000   2.376   2.416   2.634 -0.1816 -0.3660  0.4534
 3513SOL    HW122001   2.443   2.466   2.586 -0.4586  0.3763  0.8448
 3513SOL    HW222002   2.352   2.351   2.568  2.9327  0.6731 -1.7076
 3514SOL     OW22003   2.363   4.388   1.316 -0.4348 -0.4507 -0.3081
 3514SOL    HW122004   2.365   4.373   1.411  1.0923 -0.1114 -0.2765
 3514SOL    HW222005   2.269   4.381   1.299 -0.6930 -0.9853  1.2868
 3515SOL     OW22006   3.033   1.228   7.572  0.0335 -0.1229 -0.1479
 3515SOL    HW122007   3.015   1.136   7.554 -0.9130  0.1489 -0.6127
 3515SOL    HW222008   3.092   1.261   7.504  2.1949 -0.2497  1.6608
 3516SOL     OW22009   1.434   2.118   5.068 -0.4623  0.0584  0.0523
 3516SOL    HW122010   1.413   2.211   5.065 -1.9097 -0.2827 -0.4194
 3516SOL    HW222011   1.507   2.117   5.006 -0.3026 -1.5242  0.2606
 3517SOL     OW22012   3.784   4.172   0.815 -0.0703 -0.0230  0.3889
 3517SOL    HW122013   3.811   4.231   0.885 -0.0474 -1.7447  1.8129
 3517SOL    HW222014   3.850   4.188   0.747  0.2882 -0.6916  0.5907
 3518SOL     OW22015   4.447   2.646   1.351  0.0655  0.0923 -0.0988
 3518SOL    HW122016   4.427   2.640   1.257  1.3113  0.0801 -0.3674
 3518SOL    HW222017   4.542   2.640   1.342  0.1314 -2.0006  1.8871
 3519SOL     OW22018   1.317   1.505   5.049 -0.6204 -0.7690 -0.4421
 3519SOL    HW122019   1.226   1.476   5.046 -1.4252  1.5060  1.5541
 3519SOL    HW222020   1.305   1.594   5.083  0.9620 -0.7022 -0.0597
 3520SOL     OW22021   4.712   4.577   5.793  0.0488 -0.3230  0.2141
 3520SOL    HW122022   0.014   4.487   5.811 -1.3059 -0.6755  0.5796
 3520SOL    HW222023   0.065   4.630   5.806 -2.3724  3.5108 -1.0014
 3521SOL     OW22024   4.345   3.149   6.676 -0.5904 -0.4283  0.2495
 3521SOL    HW122025   4.250   3.144   6.688 -0.6691 -2.5859 -1.2186
 3521SOL    HW222026   4.373   3.153   6.768 -1.7816  0.9895  0.5560
 3522SOL     OW22027   1.009   2.856  16.853  0.7231 -0.2555  0.7642
 3522SOL    HW122028   0.955   2.868  16.775  1.4331  0.2026  0.3435
 3522SOL    HW222029   0.955   2.798  16.908  0.8421  0.1886  1.3454
 3523SOL     OW22030   4.228   3.770  13.576 -0.3000 -0.3682 -0.0958
 3523SOL    HW122031   4.204   3.679  13.593 -2.3236  0.4022  1.1168
 3523SOL    HW222032   4.276   3.757  13.494  1.7659  1.3017  0.8544
 3524SOL     OW22033   0.879   0.517   7.740  0.2748 -0.0084 -0.1996
 3524SOL    HW122034   0.914   0.586   7.683 -1.2912  0.1555 -0.9767
 3524SOL    HW222035   0.922   0.527   7.824 -0.4065 -0.0499  0.1571
 3525SOL     OW22036   1.079   2.964   7.307 -0.5853  0.3598 -0.0646
 3525SOL    HW122037   1.095   2.876   7.271  2.7974  0.4423  1.2061
 3525SOL    HW222038   0.987   2.957   7.333  0.3525 -0.8633  3.0287
 3526SOL     OW22039   1.884   4.613   5.846  0.3144 -0.2142  0.3941
 3526SOL    HW122040   1.825   4.677   5.887  0.1284 -0.5789  0.6949
 3526SOL    HW222041   1.913   4.565   5.923  1.4427 -0.6284 -0.2983
 3527SOL     OW22042   0.829   3.488   8.163  0.1121 -0.1866 -0.3902
 3527SOL    HW122043   0.751   3.490   8.218  0.2671 -0.3411 -0.1663
 3527SOL    HW222044   0.877   3.412   8.196 -3.6094 -2.5337 -0.3180
 3528SOL     OW22045   4.351   4.007   7.752 -0.2371 -0.0755 -0.0598
 3528SOL    HW122046   4.327   4.065   7.824 -0.7695  0.0714 -0.3507
 3528SOL    HW222047   4.402   3.941   7.799  0.6798  1.3403  0.8996
 3529SOL     OW22048   2.155   0.963   6.227 -0.8885 -0.3699  0.3256
 3529SOL    HW122049   2.125   0.999   6.310  1.8756  1.1485  0.6532
 3529SOL    HW222050   2.236   1.009   6.205  0.0384 -0.9120  2.6931
 3530SOL     OW22051   1.477   4.381   7.230 -0.8513  0.0327 -0.4192
 3530SOL    HW122052   1.517   4.321   7.167  3.6947  0.7968  1.7047
 3530SOL    HW222053   1.491   4.334   7.313  1.1075 -0.4912 -1.0487
 3531SOL     OW22054   2.041   1.335   9.119 -0.1297  0.3080 -0.0091
 3531SOL    HW122055   2.006   1.247   9.115 -0.5598  0.6290 -3.2777
 3531SOL    HW222056   1.980   1.386   9.172  0.5122  0.9956  0.0828
 3532SOL     OW22057   4.182   0.392   6.888 -0.2465 -0.3273 -0.5598
 3532SOL    HW122058   4.169   0.468   6.831 -2.0291 -0.6132 -0.5527
 3532SOL    HW222059   4.267   0.352   6.873 -1.1328 -2.0331 -1.0501
 3533SOL     OW22060   1.305   1.396  12.433 -0.5963 -0.1986  0.4126
 3533SOL    HW122061   1.352   1.415  12.514 -0.1353  0.5643 -0.0219
 3533SOL    HW222062   1.314   1.477  12.381 -0.1294 -0.2514  0.4109
 3534SOL     OW22063   2.670   3.915   3.773  0.1807 -0.8062  0.0024
 3534SOL    HW122064   2.646   3.879   3.688 -0.9415  0.0841 -0.0542
 3534SOL    HW222065   2.583   3.929   3.809  0.8121  0.5113  1.0055
 3535SOL     OW22066   4.088   3.773   5.184  0.1178 -0.2224  0.1798
 3535SOL    HW122067   4.102   3.730   5.269  0.7780 -0.9796 -0.3125
 3535SOL    HW222068   4.017   3.833   5.205 -0.9151 -1.2195 -0.4447
 3536SOL     OW22069   2.150   0.627   2.693  0.2135  0.6490 -0.5893
 3536SOL    HW122070   2.186   0.708   2.729 -0.3310  0.3074  0.7630
 3536SOL    HW222071   2.118   0.607   2.782  0.1015  1.0702 -0.5355
 3537SOL     OW22072   3.160   3.148   5.383  0.1845 -0.2967 -0.5298
 3537SOL    HW122073   3.191   3.188   5.465 -0.9009 -1.0142  0.2218
 3537SOL    HW222074   3.223   3.076   5.377 -0.6617 -1.0073 -0.8300
 3538SOL     OW22075   2.861   2.230  17.413 -0.0920  0.1773 -0.0837
 3538SOL    HW122076   2.787   2.284  17.383  0.2795  0.7121 -0.0299
 3538SOL    HW222077   2.883   2.281  17.491 -1.0775  0.2190  0.1760
 3539SOL     OW22078   1.987   0.915  10.031  0.0638  0.4406  0.1126
 3539SOL    HW122079   1.965   0.830  10.069  2.6317 -0.1795  0.2524
 3539SOL    HW222080   2.065   0.934  10.083  0.6646 -0.4960 -0.4561
 3540SOL     OW22081   0.594   0.989   5.044 -0.0642  0.0234  0.1363
 3540SOL    HW122082   0.607   1.078   5.077 -0.5829 -0.0913  0.6436
 3540SOL    HW222083   0.599   0.946   5.129  1.4846 -1.2564 -0.5844
 3541SOL     OW22084   3.734   0.204   6.453 -0.2734 -0.2054 -0.2604
 3541SOL    HW122085   3.774   0.273   6.506 -0.5909 -0.4027  0.2393
 3541SOL    HW222086   3.663   0.243   6.402 -0.5731 -0.3552  0.0397
 3542SOL     OW22087   4.237   3.726   7.981 -0.2402 -0.2482 -0.6650
 3542SOL    HW122088   4.307   3.689   8.034 -0.2959  2.1739  1.0787
 3542SOL    HW222089   4.254   3.679   7.899 -0.5110 -0.3723 -0.6490
 3543SOL     OW22090   2.096   4.704   9.307 -0.3656  0.2785  0.2823
 3543SOL    HW122091   2.158   0.025   9.363  0.4816  0.3035 -0.6700
 3543SOL    HW222092   2.060   4.634   9.361 -0.8136 -0.3792 -0.8578
 3544SOL     OW22093   4.130   1.109  13.800  0.1251  0.5201 -0.2294
 3544SOL    HW122094   4.071   1.184  13.803 -0.0631  0.3298  0.7890
 3544SOL    HW222095   4.215   1.151  13.800 -0.0667  0.9159 -1.8789
 3545SOL     OW22096   3.041   2.707  10.553 -0.7500  0.3414 -0.5694
 3545SOL    HW122097   3.028   2.680  10.463 -2.2946 -1.2781  0.1477
 3545SOL    HW222098   2.999   2.637  10.603  0.1844 -1.0549 -1.7656
 3546SOL     OW22099   1.376   4.203  15.514 -0.3263 -0.6035  0.3277
 3546SOL    HW122100   1.320   4.133  15.481 -0.3456  0.2637 -1.4275
 3546SOL    HW222101   1.456   4.152  15.505  0.2013  0.4392 -0.8453
 3547SOL     OW22102   3.529   4.672   7.787  0.4533 -0.0227  0.0528
 3547SOL    HW122103   3.610   4.722   7.781  0.2149  0.0796 -2.2150
 3547SOL    HW222104   3.468   0.002   7.836 -4.2033 -2.2334 -3.1962
 3548SOL     OW22105   3.748   1.313   7.776  0.2617  0.3462  0.2026
 3548SOL    HW122106   3.692   1.330   7.700  1.2890  1.4759 -0.2900
 3548SOL    HW222107   3.696   1.245   7.818 -0.0088  0.5801  0.2465
 3549SOL     OW22108   1.607   1.722   9.149 -0.0613  0.2719  0.7506
 3549SOL    HW122109   1.700   1.699   9.155 -0.2883 -1.0315 -0.6272
 3549SOL    HW222110   1.569   1.650   9.099  0.3195  1.5463 -1.3413
 3550SOL     OW22111   0.042   0.036   6.165 -0.1208 -0.2969 -0.1433
 3550SOL    HW122112   0.118   0.094   6.174 -0.0909 -0.5417  1.1549
 3550SOL    HW222113   4.722   0.075   6.091 -1.0064  0.3648  0.7599
 3551SOL     OW22114   0.834   2.939   8.534  0.4683 -0.2175  0.6534
 3551SOL    HW122115   0.891   2.887   8.591  3.6368  0.3255 -2.0691
 3551SOL    HW222116   0.809   2.876   8.466 -0.9181  0.8294  0.1907
 3552SOL     OW22117   3.790   2.216  10.788  0.3191 -0.1343  0.8259
 3552SOL    HW122118   3.778   2.305  10.822 -1.5988 -0.2839  0.5570
 3552SOL    HW222119   3.884   2.222  10.803 -0.1934 -0.1817  4.0019
 3553SOL     OW22120   2.114   0.339   8.094 -0.6898 -0.2314 -0.3049
 3553SOL    HW122121   2.114   0.336   7.999  0.1211 -0.4958 -0.2949
 3553SOL    HW222122   2.051   0.407   8.121  1.5701  2.1950 -1.1986
 3554SOL     OW22123   1.321   0.787   4.292 -0.0097  0.2294 -0.2031
 3554SOL    HW122124   1.376   0.862   4.269 -0.0143  0.1233 -0.5586
 3554SOL    HW222125   1.379   0.716   4.264 -2.5471 -1.7401 -0.4396
 3555SOL     OW22126   3.769   1.788   2.812 -0.5605 -0.2056 -0.3622
 3555SOL    HW122127   3.743   1.705   2.851 -0.7691 -0.8343 -1.8400
 3555SOL    HW222128   3.821   1.766   2.735  2.3971 -0.6201  1.7467
 3556SOL     OW22129   2.438   0.712   3.312 -0.2981  0.5446  0.4521
 3556SOL    HW122130   2.445   0.670   3.398  0.9035  0.4311  0.3055
 3556SOL    HW222131   2.493   0.649   3.265 -1.6563 -0.5480  0.3201
 3557SOL     OW22132   3.062   1.796   2.353 -0.4601 -0.3668  0.3180
 3557SOL    HW122133   3.153   1.774   2.331  0.6276  2.4051  2.1054
 3557SOL    HW222134   3.013   1.721   2.320 -1.0928  0.1839  0.0174
 3558SOL     OW22135   1.474   3.996   6.281 -0.4752  0.0899  0.2218
 3558SOL    HW122136   1.402   3.936   6.261 -0.7620 -0.0545  1.7176
 3558SOL    HW222137   1.475   4.003   6.376  1.1322 -0.9596  0.2802
 3559SOL     OW22138   1.279   2.269  11.019 -0.6175  0.1498  0.0035
 3559SOL    HW122139   1.310   2.248  10.931 -1.1822 -1.0454  0.0878
 3559SOL    HW222140   1.354   2.244  11.074 -2.0974 -0.4541  1.7762
 3560SOL     OW22141   1.819   2.448   7.898 -0.0107  0.3802 -0.3508
 3560SOL    HW122142   1.802   2.458   7.804 -1.5125 -0.3998 -0.1578
 3560SOL    HW222143   1.849   2.358   7.898 -0.4618  0.2324  1.4744
 3561SOL     OW22144   3.217   2.992   3.829 -0.0099  0.2132  0.1734
 3561SOL    HW122145   3.300   2.969   3.869 -0.8535 -0.0584  1.7571
 3561SOL    HW222146   3.239   2.985   3.736 -3.5560 -0.9226 -0.5822
 3562SOL     OW22147   4.451   1.102   5.674  0.5391 -0.2027  0.1718
 3562SOL    HW122148   4.456   1.034   5.606 -4.8457 -1.3122  0.8157
 3562SOL    HW222149   4.388   1.056   5.731 -0.0340  0.0769 -0.2332
 3563SOL     OW22150   0.760   3.822  12.650  0.5352  0.0728  0.1520
 3563SOL    HW122151   0.721   3.770  12.579 -0.7676 -0.3825  1.2072
 3563SOL    HW222152   0.693   3.888  12.666 -0.4775 -1.1938  1.1280
 3564SOL     OW22153   0.652   2.782  16.416  0.1689  0.6576 -0.9640
 3564SOL    HW122154   0.638   2.875  16.402 -0.2286  0.3297 -2.8067
 3564SOL    HW222155   0.712   2.761  16.344  0.6084 -1.4477  0.0269
 3565SOL     OW22156   4.173   2.223   4.504 -0.2621 -0.2492  0.3011
 3565SOL    HW122157   4.146   2.252   4.591  0.7693  1.4527  0.0413
 3565SOL    HW222158   4.119   2.144   4.504 -1.8424  0.8263  1.3811
 3566SOL     OW22159   3.978   3.570   7.812  0.4591  0.0848  0.6248
 3566SOL    HW122160   4.073   3.555   7.811  0.5631  0.9971 -1.7383
 3566SOL    HW222161   3.965   3.546   7.720  0.4104  0.3135  0.5724
 3567SOL     OW22162   3.733   2.716   7.778 -0.4199 -0.0043  0.0835
 3567SOL    HW122163   3.671   2.758   7.837 -0.2622 -1.4871  1.2785
 3567SOL    HW222164   3.809   2.699   7.834  0.1896 -0.2545 -0.8180
 3568SOL     OW22165   3.197   4.689  14.848 -0.1075  0.2532 -0.1389
 3568SOL    HW122166   3.110   4.688  14.808 -0.3478  0.3172  0.3734
 3568SOL    HW222167   3.256   4.667  14.777  0.2787 -0.2460  0.3391
 3569SOL     OW22168   2.627   2.715   5.101  0.0989  0.5730 -0.2193
 3569SOL    HW122169   2.568   2.722   5.025 -0.0647 -0.0557 -0.1517
 3569SOL    HW222170   2.659   2.625   5.101 -3.2831 -0.6175  1.7709
 3570SOL     OW22171   3.425   2.149   2.107 -0.4123 -0.4705  0.1316
 3570SOL    HW122172   3.408   2.239   2.079 -1.6388 -0.0586  2.1896
 3570SOL    HW222173   3.390   2.106   2.029  2.2464 -4.3383  1.1003
 3571SOL     OW22174   1.023   4.274  12.269 -0.6657  0.5359 -0.1276
 3571SOL    HW122175   1.010   4.366  12.247 -1.6927  0.5148  0.4022
 3571SOL    HW222176   1.116   4.273  12.292 -1.4225 -0.5318  2.9355
 3572SOL     OW22177   3.224   2.838  12.267  0.1348  0.7927  0.5468
 3572SOL    HW122178   3.226   2.746  12.241 -0.1839  0.2757  2.3539
 3572SOL    HW222179   3.239   2.888  12.187 -1.2284  0.8964  0.3705
 3573SOL     OW22180   0.294   0.841   4.813 -0.6308  0.0428  0.8993
 3573SOL    HW122181   0.377   0.817   4.855 -0.6201 -1.8733 -0.2073
 3573SOL    HW222182   0.240   0.846   4.892  1.7229 -2.7514  2.6990
 3574SOL     OW22183   4.054   0.685   4.510 -0.3483 -0.0466 -0.3364
 3574SOL    HW122184   4.035   0.778   4.493  1.7997  0.3021 -0.8237
 3574SOL    HW222185   4.146   0.701   4.530 -0.2867 -1.1089  0.1991
 3575SOL     OW22186   2.233   4.612   7.073 -0.4678 -0.2499 -0.0309
 3575SOL    HW122187   2.191   4.616   7.159  0.4949  0.3632  0.4164
 3575SOL    HW222188   2.323   4.612   7.107  0.2989  0.7669 -2.0345
 3576SOL     OW22189   4.457   0.743   7.494 -0.5124  0.2472  0.8572
 3576SOL    HW122190   4.501   0.670   7.539  0.9383  0.0231 -0.9418
 3576SOL    HW222191   4.414   0.785   7.569 -2.8645 -1.9078  0.6851
 3577SOL     OW22192   2.114   2.693   2.794  0.1862  0.2727 -0.3482
 3577SOL    HW122193   2.182   2.681   2.860  0.3407 -3.7547 -1.2622
 3577SOL    HW222194   2.157   2.756   2.737 -1.1147  0.1488 -1.4521
 3578SOL     OW22195   4.350   1.773   7.592 -0.4424 -0.4974  0.3756
 3578SOL    HW122196   4.373   1.818   7.510 -2.5319 -0.0646  0.0208
 3578SOL    HW222197   4.256   1.775   7.574 -0.3857 -1.7071 -0.0803
 3579SOL     OW22198   1.782   1.038   7.012  0.3269 -0.0632 -0.1710
 3579SOL    HW122199   1.695   1.037   6.972 -0.2488 -0.0187  1.0794
 3579SOL    HW222200   1.763   1.111   7.070 -1.9782 -0.6295 -0.1984
 3580SOL     OW22201   1.044   4.674   8.568  0.4165  0.3441 -0.3470
 3580SOL    HW122202   1.100   0.019   8.537 -0.3224  0.7903 -0.6662
 3580SOL    HW222203   1.106   4.601   8.572 -0.2515 -0.4418 -3.5448
 3581SOL     OW22204   0.474   2.649   5.469 -0.1198  0.0122 -0.1679
 3581SOL    HW122205   0.546   2.643   5.406 -0.2324 -1.3039 -0.1862
 3581SOL    HW222206   0.523   2.608   5.541  0.5798 -0.2969 -0.8124
 3582SOL     OW22207   0.868   1.378  17.123 -0.8019  0.3174  0.0157
 3582SOL    HW122208   0.814   1.455  17.103  0.9702  1.8167  0.9855
 3582SOL    HW222209   0.845   1.367  17.215  1.6878 -1.8497  0.3586
 3583SOL     OW22210   4.503   3.242   1.650 -0.0064 -0.0211 -0.2288
 3583SOL    HW122211   4.469   3.331   1.638  1.7003  0.3108 -2.6010
 3583SOL    HW222212   4.582   3.235   1.596  1.4604 -0.9760  2.0341
 3584SOL     OW22213   1.087   2.956  11.039 -0.5222 -0.3983 -0.0877
 3584SOL    HW122214   1.045   2.935  10.956 -4.5099  2.7686  1.1490
 3584SOL    HW222215   1.159   2.893  11.042 -0.6424 -0.4451  2.2000
 3585SOL     OW22216   1.279   0.482  16.916 -0.1890 -0.3492 -0.5386
 3585SOL    HW122217   1.293   0.474  17.010 -1.1153  1.6266 -0.2335
 3585SOL    HW222218   1.193   0.442  16.900 -0.0161 -1.4014  1.2097
 3586SOL     OW22219   1.558   1.033   7.613 -0.4670  0.2650 -0.5253
 3586SOL    HW122220   1.584   0.941   7.620  0.1855  0.4361 -0.7298
 3586SOL    HW222221   1.468   1.016   7.585 -0.1269 -2.1594 -0.2015
 3587SOL     OW22222   1.628   1.216   4.742  0.1133  0.5447  0.0680
 3587SOL    HW122223   1.681   1.231   4.820 -0.2467 -3.0780  1.0087
 3587SOL    HW222224   1.584   1.300   4.738  2.7957  2.0095  1.3844
 3588SOL     OW22225   0.627   4.559   3.139  0.2610 -0.3663  0.4045
 3588SOL    HW122226   0.612   4.570   3.233 -2.1817 -1.8385  0.2118
 3588SOL    HW222227   0.551   4.504   3.118  0.5907 -0.5175 -0.3878
 3589SOL     OW22228   2.781   4.671   6.168  0.2222  0.0556  0.4140
 3589SOL    HW122229   2.714   4.626   6.219 -0.5669 -0.7347 -1.3300
 3589SOL    HW222230   2.819   0.009   6.229 -0.3160  1.2753 -0.5250
 3590SOL     OW22231   2.908   3.759  17.073  0.1401 -0.0915  0.9185
 3590SOL    HW122232   2.916   3.666  17.096  2.6715  0.2068  1.2803
 3590SOL    HW222233   2.866   3.753  16.988 -0.2263  0.5776  1.0484
 3591SOL     OW22234   3.139   2.296  10.684 -0.0640 -1.1701  0.3847
 3591SOL    HW122235   3.155   2.384  10.716  1.1699  0.1570 -3.9418
 3591SOL    HW222236   3.132   2.248  10.767 -0.4982 -1.6136  0.0937
 3592SOL     OW22237   3.720   3.963   8.465  0.1519  0.3583  0.8144
 3592SOL    HW122238   3.644   3.930   8.513 -1.7926  1.5422 -1.4144
 3592SOL    HW222239   3.761   3.882   8.436 -2.9449 -1.2150  0.8164
 3593SOL     OW22240   3.072   2.905   8.200  0.3032 -0.0406 -0.6562
 3593SOL    HW122241   3.006   2.966   8.232 -1.1457 -1.8881 -0.0955
 3593SOL    HW222242   3.138   2.962   8.162 -0.2217  1.3470  0.5180
 3594SOL     OW22243   3.006   0.570  17.689 -0.4060  0.5497 -0.1582
 3594SOL    HW122244   2.968   0.534   0.064  0.8789  1.7888  1.0051
 3594SOL    HW222245   3.091   0.597   0.019  0.8882 -0.8973 -2.1490
 3595SOL     OW22246   2.571   2.052   7.554 -0.0350 -0.2416 -0.2377
 3595SOL    HW122247   2.579   2.051   7.459  2.1288 -0.6022 -0.0424
 3595SOL    HW222248   2.511   1.977   7.558 -1.6161  1.0484  0.2099
 3596SOL     OW22249   4.554   0.243  10.934 -0.0918 -0.0082 -0.3464
 3596SOL    HW122250   4.549   0.310  10.865  0.6843 -1.2626 -1.6170
 3596SOL    HW222251   4.505   0.173  10.890 -0.1163 -1.4263  1.9487
 3597SOL     OW22252   0.131   0.231   7.250  0.0045 -0.1181  0.6069
 3597SOL    HW122253   0.204   0.236   7.188  1.0079  1.0479  1.8802
 3597SOL    HW222254   0.178   0.213   7.331  0.0812  0.4012  0.6754
 3598SOL     OW22255   0.517   2.117  11.082 -0.3837 -0.0561  0.3275
 3598SOL    HW122256   0.485   2.029  11.102  0.3517 -0.3274  0.3187
 3598SOL    HW222257   0.470   2.169  11.147 -0.3038  1.1871 -0.5968
 3599SOL     OW22258   2.064   0.156   4.435 -0.0225  0.4312  0.1591
 3599SOL    HW122259   1.978   0.187   4.463 -1.1616 -0.5146 -2.2771
 3599SOL    HW222260   2.123   0.230   4.448  0.0966  0.2876  0.4418
 3600SOL     OW22261   2.475   0.149  17.689  0.3105 -0.5086 -0.3393
 3600SOL    HW122262   2.520   0.071  17.658  1.1049 -0.3721  0.4381
 3600SOL    HW222263   2.456   0.128   0.075  2.5903 -1.3149 -0.0349
 3601SOL     OW22264   3.724   4.647   8.154  0.4170  0.1595 -0.7246
 3601SOL    HW122265   3.800   4.702   8.175 -0.6052  0.3667  2.4799
 3601SOL    HW222266   3.661   4.691   8.212 -1.0698 -2.0247 -0.6917
 3602SOL     OW22267   0.756   3.999   7.034 -0.4083  0.0905 -0.1940
 3602SOL    HW122268   0.730   3.907   7.026  3.6089 -0.9712 -1.2279
 3602SOL    HW222269   0.678   4.036   7.076  0.1131 -0.9414  1.6685
 3603SOL     OW22270   3.265   3.189   9.567  0.5685 -0.0029  0.4504
 3603SOL    HW122271   3.189   3.236   9.533  0.7025  0.5628  0.9167
 3603SOL    HW222272   3.229   3.165   9.653  0.0820  0.3030  0.3310
 3604SOL     OW22273   2.648   1.764   6.779  0.2383  0.1105  0.2495
 3604SOL    HW122274   2.586   1.827   6.744 -0.2115 -0.9476 -0.8427
 3604SOL    HW222275   2.599   1.722   6.850  0.6520 -2.0503 -0.7495
 3605SOL     OW22276   0.896   2.906   5.565  0.1145  0.7598  0.3392
 3605SOL    HW122277   0.987   2.876   5.571  0.4350  2.1507  2.5353
 3605SOL    HW222278   0.902   2.988   5.516 -0.9754 -0.0204 -1.0968
 3606SOL     OW22279   1.977   2.262  10.546  0.1009 -0.0384 -0.1266
 3606SOL    HW122280   2.057   2.232  10.503  0.1333 -0.1911  0.0376
 3606SOL    HW222281   1.919   2.219  10.483  1.1942 -0.6606 -0.7052
 3607SOL     OW22282   0.005   1.909   6.273  0.0339 -0.3384 -0.0086
 3607SOL    HW122283   0.075   1.891   6.335  0.1868 -0.4347 -0.2091
 3607SOL    HW222284   4.660   1.930   6.334  2.0012  2.8673  1.1457
 3608SOL     OW22285   3.028   1.918   3.566  0.0406  0.8001  0.0047
 3608SOL    HW122286   3.100   1.981   3.558  1.8551 -1.3311 -0.1678
 3608SOL    HW222287   3.043   1.875   3.482 -1.3502 -1.1018  0.7316
 3609SOL     OW22288   4.611   3.974  14.937  0.1466 -0.1259  0.3389
 3609SOL    HW122289   4.610   3.974  14.841 -2.2265 -0.1188  0.3562
 3609SOL    HW222290   4.606   3.882  14.962 -0.3201  0.0506  0.8842
 3610SOL     OW22291   3.416   0.293   8.568  0.1405 -0.4420 -0.0810
 3610SOL    HW122292   3.430   0.315   8.660 -0.9022  2.4780 -0.6315
 3610SOL    HW222293   3.492   0.340   8.536  1.4585 -2.0256  0.7334
 3611SOL     OW22294   0.070   3.418   3.583 -0.3870  0.2499  0.5616
 3611SOL    HW122295   4.726   3.386   3.526 -0.2425 -0.8671  1.0155
 3611SOL    HW222296   0.088   3.499   3.534  1.8779  0.3883  1.6314
 3612SOL     OW22297   0.999   2.038   9.727 -0.2798  0.2333 -0.2584
 3612SOL    HW122298   1.064   2.041   9.656 -1.4983  0.8333 -1.3593
 3612SOL    HW222299   0.925   2.070   9.675  0.7690  0.9191 -1.3541
 3613SOL     OW22300   0.635   3.380   3.907  0.2410  0.1492 -0.0826
 3613SOL    HW122301   0.651   3.472   3.886  1.6959 -0.2431 -0.7569
 3613SOL    HW222302   0.561   3.375   3.967 -0.2829  1.9296 -0.5949
 3614SOL     OW22303   3.671   1.963   3.825 -0.1622 -0.4291  0.1231
 3614SOL    HW122304   3.578   1.940   3.825 -0.0861 -0.7841 -1.2909
 3614SOL    HW222305   3.714   1.878   3.840  1.7034  0.3890 -0.5568
 3615SOL     OW22306   1.349   3.475   3.659  0.2940 -0.7710 -0.0639
 3615SOL    HW122307   1.396   3.529   3.596  1.6951 -2.0420 -0.1234
 3615SOL    HW222308   1.384   3.520   3.736  1.6282 -0.7795 -0.6598
 3616SOL     OW22309   1.782   1.140   1.859  0.0605 -0.0982 -0.3177
 3616SOL    HW122310   1.713   1.172   1.916 -0.7591 -0.7580 -0.9360
 3616SOL    HW222311   1.737   1.066   1.818  0.7992  0.1108 -1.5189
 3617SOL     OW22312   1.548   0.220   6.545  0.2196 -0.0702  0.2839
 3617SOL    HW122313   1.493   0.285   6.589  1.5930  0.5857  1.0232
 3617SOL    HW222314   1.577   0.262   6.464 -1.8968 -1.1155 -1.0478
 3618SOL     OW22315   0.019   2.013   7.273 -0.0626  0.1311 -0.3099
 3618SOL    HW122316   0.107   2.012   7.237 -1.0474 -1.6408 -2.7027
 3618SOL    HW222317   0.027   1.993   7.366  1.6829  1.0106 -0.2812
 3619SOL     OW22318   2.396   2.983   2.046 -0.4639 -0.5932  0.1822
 3619SOL    HW122319   2.307   2.962   2.019 -0.2473 -2.9635  1.3357
 3619SOL    HW222320   2.446   2.939   1.977  0.1759 -1.6020  1.2978
 3620SOL     OW22321   2.461   2.267   3.775  0.0490 -0.0353 -0.3344
 3620SOL    HW122322   2.459   2.294   3.866  0.0308  0.5799 -0.5182
 3620SOL    HW222323   2.535   2.319   3.744 -1.2815  1.7687 -0.5069
 3621SOL     OW22324   1.567   3.588   2.752  0.5481  0.0342 -0.3570
 3621SOL    HW122325   1.547   3.554   2.839  1.2441 -1.0235 -0.6098
 3621SOL    HW222326   1.557   3.504   2.707  0.2283  0.1253 -0.4542
 3622SOL     OW22327   0.411   3.039   4.277  0.1010  0.0775  0.2638
 3622SOL    HW122328   0.482   3.022   4.340  1.2676  1.2872 -0.7094
 3622SOL    HW222329   0.354   3.075   4.344 -1.2126  0.3617 -1.0031
 3623SOL     OW22330   2.719   1.401   9.418 -0.2931  0.2770  0.5451
 3623SOL    HW122331   2.682   1.489   9.421  0.0508  0.4671 -0.8906
 3623SOL    HW222332   2.744   1.411   9.326  3.4791 -0.1709  1.5180
 3624SOL     OW22333   0.148   0.750  14.000  0.0603  0.0290  0.4270
 3624SOL    HW122334   0.075   0.697  14.031 -1.4550  1.7536 -0.2124
 3624SOL    HW222335   0.127   0.834  14.041  1.1483  0.6197 -0.2215
 3625SOL     OW22336   4.628   2.132  14.841 -1.1706  0.2005  0.2859
 3625SOL    HW122337   4.639   2.227  14.837 -2.5660  0.3399 -0.1406
 3625SOL    HW222338   4.537   2.129  14.870 -1.2194  3.5777  0.5086
 3626SOL     OW22339   0.043   3.571   7.722 -0.1643  0.0882  0.6934
 3626SOL    HW122340   4.697   3.548   7.780  0.6155  0.9704  2.0104
 3626SOL    HW222341   0.006   3.649   7.681  0.9762 -0.4638 -1.3868
 3627SOL     OW22342   0.083   3.410   5.839  0.1847  0.4192 -0.3938
 3627SOL    HW122343   0.154   3.457   5.883  0.2171 -1.2379  1.3393
 3627SOL    HW222344   0.118   3.405   5.750  0.0772  3.3468 -0.5886
 3628SOL     OW22345   2.254   1.305  13.344 -0.1155 -0.1280  0.4647
 3628SOL    HW122346   2.226   1.290  13.254 -1.4640 -1.2931  1.0779
 3628SOL    HW222347   2.241   1.399  13.358 -0.2639 -0.1376  0.3890
 3629SOL     OW22348   3.631   3.105  16.375 -0.4993  0.6300 -0.6006
 3629SOL    HW122349   3.676   3.023  16.352  0.8229  1.2628 -0.2673
 3629SOL    HW222350   3.694   3.168  16.340  0.8773 -0.3098  0.2202
 3630SOL     OW22351   2.022   1.817   1.279 -0.5015 -0.2524  0.2878
 3630SOL    HW122352   2.067   1.858   1.205  1.4084 -1.1208  0.9597
 3630SOL    HW222353   2.080   1.827   1.354  0.4841  1.4769 -0.7072
 3631SOL     OW22354   0.398   4.513   5.632 -0.3656 -0.4480 -0.0942
 3631SOL    HW122355   0.490   4.532   5.619  0.1836 -1.0827  2.8884
 3631SOL    HW222356   0.358   4.599   5.626 -1.7831 -0.9586  1.7209
 3632SOL     OW22357   2.642   3.481   3.158  0.2083 -0.0125 -0.4208
 3632SOL    HW122358   2.663   3.472   3.065  0.5982  0.7344 -0.4025
 3632SOL    HW222359   2.658   3.388   3.175 -0.1612 -0.3423 -1.9011
 3633SOL     OW22360   1.467   4.683   9.413  0.2368  0.2947 -0.2156
 3633SOL    HW122361   1.404   4.712   9.479  0.7012 -1.7083  1.1113
 3633SOL    HW222362   1.508   4.621   9.473  0.2182 -0.6855 -1.2108
 3634SOL     OW22363   4.097   3.306  16.217  0.2877 -0.5176  0.4306
 3634SOL    HW122364   4.127   3.220  16.245 -2.0000 -1.0950  1.1228
 3634SOL    HW222365   4.063   3.271  16.135  1.8391 -2.8672  0.8053
 3635SOL     OW22366   0.990   4.602   6.799  0.2170 -0.0418 -0.2448
 3635SOL    HW122367   0.955   4.582   6.886 -1.9213 -0.0800 -1.1358
 3635SOL    HW222368   1.004   4.697   6.800  0.2500 -0.0355 -1.2768
 3636SOL     OW22369   1.596   0.302   7.590  0.2761 -0.2524 -0.2962
 3636SOL    HW122370   1.644   0.237   7.640  3.1569  1.0339 -1.3735
 3636SOL    HW222371   1.677   0.330   7.546 -0.0095 -0.6865 -1.1072
 3637SOL     OW22372   3.472   0.310   9.154  0.2349  0.2745 -0.0828
 3637SOL    HW122373   3.419   0.281   9.230  3.5858  2.0429  2.9161
 3637SOL    HW222374   3.419   0.379   9.114 -0.7081  0.6945  1.8719
 3638SOL     OW22375   4.624   1.073   0.060 -0.5707 -0.2135  0.0548
 3638SOL    HW122376   4.533   1.046   0.063  0.3461 -3.1276  1.9037
 3638SOL    HW222377   4.659   0.999   0.011 -0.9926  0.4162 -1.1829
 3639SOL     OW22378   1.669   1.208  15.325  0.1163  0.5469 -0.4497
 3639SOL    HW122379   1.721   1.163  15.392 -2.3156 -0.7876  0.5208
 3639SOL    HW222380   1.670   1.299  15.356 -0.5735 -0.0787  1.3970
 3640SOL     OW22381   0.096   2.772   3.265 -0.3753 -0.4849  0.1637
 3640SOL    HW122382   0.045   2.810   3.337  1.8032  1.3286  0.7517
 3640SOL    HW222383   0.051   2.790   3.183 -0.0429 -0.8192 -0.0904
 3641SOL     OW22384   4.024   3.656   7.011 -0.0678  0.1838  0.0915
 3641SOL    HW122385   4.110   3.632   7.043  0.0522  0.0956 -0.2922
 3641SOL    HW222386   4.040   3.716   6.938 -1.5134  0.7816  0.2496
 3642SOL     OW22387   0.457   4.090   7.843 -0.2834  1.0177  0.0696
 3642SOL    HW122388   0.443   4.049   7.757  0.7394  1.3350 -0.2464
 3642SOL    HW222389   0.539   4.137   7.830  0.7464 -0.2208  2.0894
 3643SOL     OW22390   1.513   2.522   3.919  0.2024  0.2063 -0.1157
 3643SOL    HW122391   1.596   2.495   3.879  1.8234  2.7013  1.5746
 3643SOL    HW222392   1.460   2.489   3.847 -1.1625  3.1327 -0.4362
 3644SOL     OW22393   4.436   3.908  14.037  0.5844  0.1521  0.6367
 3644SOL    HW122394   4.493   3.975  14.000  0.4964 -1.6298 -2.7424
 3644SOL    HW222395   4.381   3.883  13.963  0.6975  2.3537 -0.1939
 3645SOL     OW22396   1.605   4.112  12.762  0.2618  0.1888  0.0770
 3645SOL    HW122397   1.696   4.100  12.790  1.2619 -0.4625 -3.4821
 3645SOL    HW222398   1.578   4.192  12.806 -0.4568  0.1592 -0.3010
 3646SOL     OW22399   4.420   1.445  16.281  0.0333 -0.3452 -0.3793
 3646SOL    HW122400   4.446   1.375  16.222 -0.2280  0.7126 -1.7532
 3646SOL    HW222401   4.481   1.516  16.258 -1.4193  0.8749 -0.4419
 3647SOL     OW22402   2.208   3.845   9.436  0.3323  0.1794 -0.2845
 3647SOL    HW122403   2.276   3.806   9.491  0.9614  0.8994 -0.5580
 3647SOL    HW222404   2.135   3.791   9.468 -0.0670  0.9097  0.0256
 3648SOL     OW22405   1.095   3.591  16.102  0.2124  0.0219  0.0616
 3648SOL    HW122406   1.068   3.520  16.160 -0.9499 -1.0209 -1.7272
 3648SOL    HW222407   1.025   3.595  16.037 -0.8469  2.3860  1.3421
 3649SOL     OW22408   3.459   3.479  15.382  0.6088 -0.0813 -0.2928
 3649SOL    HW122409   3.484   3.567  15.410 -1.9204  0.7605 -0.6211
 3649SOL    HW222410   3.506   3.467  15.299  3.2455  1.4741  0.9698
 3650SOL     OW22411   2.885   2.078  13.336 -0.0677 -0.1345 -0.2731
 3650SOL    HW122412   2.928   2.155  13.299  0.1037  1.3920  3.1518
 3650SOL    HW222413   2.814   2.121  13.382 -0.5076 -0.1184 -0.9674
 3651SOL     OW22414   3.700   2.296   2.890 -0.9842  0.1373 -0.3800
 3651SOL    HW122415   3.793   2.276   2.902 -1.3890 -1.6008 -0.1635
 3651SOL    HW222416   3.676   2.205   2.872  0.6025  0.2826 -3.2797
 3652SOL     OW22417   3.911   3.025   6.013 -0.5147 -0.2796  0.4826
 3652SOL    HW122418   3.954   3.078   5.947 -1.0286  2.4422  2.3407
 3652SOL    HW222419   3.968   2.950   6.029  1.1731  1.1566  1.1526
 3653SOL     OW22420   2.582   1.611   5.778 -0.3530  0.1437 -0.7218
 3653SOL    HW122421   2.636   1.689   5.780  1.3770 -1.0841  0.6179
 3653SOL    HW222422   2.644   1.550   5.738 -1.2647 -1.1247 -0.2183
 3654SOL     OW22423   3.357   0.832  11.247 -0.4695  0.9615 -0.0562
 3654SOL    HW122424   3.304   0.908  11.270 -1.3415  0.7089 -1.2226
 3654SOL    HW222425   3.385   0.815  11.337 -0.6980  0.3452 -0.0948
 3655SOL     OW22426   0.652   0.957   6.320 -0.3717  0.0451 -0.0294
 3655SOL    HW122427   0.740   0.934   6.350 -0.2908 -0.3703 -0.5838
 3655SOL    HW222428   0.672   0.981   6.229  0.3507 -1.5614 -0.2972
 3656SOL     OW22429   3.303   3.243   1.794 -0.4854  0.1603  0.1436
 3656SOL    HW122430   3.390   3.251   1.756 -1.0957 -0.5294 -1.4080
 3656SOL    HW222431   3.271   3.178   1.731 -0.1942  1.6109 -1.4915
 3657SOL     OW22432   4.099   0.629   8.344 -0.0070  0.2947 -0.3565
 3657SOL    HW122433   4.175   0.683   8.322  0.6410 -0.6210 -0.3889
 3657SOL    HW222434   4.140   0.572   8.410 -0.7674  0.1713  0.0028
 3658SOL     OW22435   0.330   2.280  14.381 -0.3451  0.0025 -0.1542
 3658SOL    HW122436   0.340   2.363  14.334  0.4370 -0.2663 -0.4646
 3658SOL    HW222437   0.358   2.290  14.472 -1.6976 -0.4882  0.3172
 3659SOL     OW22438   4.572   4.656  16.891  0.2012 -0.6689  0.1047
 3659SOL    HW122439   4.648   4.639  16.835 -1.6248  1.4100 -2.9864
 3659SOL    HW222440   4.570   4.568  16.929  0.2694  0.5790  2.9772
 3660SOL     OW22441   1.791   2.645   5.876 -0.0295  0.3598  0.6156
 3660SOL    HW122442   1.877   2.621   5.840  1.3283  2.9033  2.1589
 3660SOL    HW222443   1.815   2.666   5.966  0.0691  0.4674  0.5646
 3661SOL     OW22444   0.551   0.492   4.102  0.3889 -0.0981  0.3773
 3661SOL    HW122445   0.467   0.495   4.147  0.7485 -1.8003  1.1827
 3661SOL    HW222446   0.562   0.585   4.087 -1.4642 -0.0326 -0.4915
 3662SOL     OW22447   0.046   2.409   1.462  0.8755 -0.1901 -0.0302
 3662SOL    HW122448   4.721   2.393   1.541 -0.8742 -2.2705 -1.5834
 3662SOL    HW222449   0.062   2.325   1.419 -0.2198  0.4389 -1.6744
 3663SOL     OW22450   0.717   2.804   8.874 -0.5485  0.1634  0.0871
 3663SOL    HW122451   0.765   2.878   8.912  2.0070 -0.0462 -2.6571
 3663SOL    HW222452   0.752   2.804   8.785  0.1428 -1.0645  0.3464
 3664SOL     OW22453   3.967   0.707   9.821 -0.2977 -0.1753  0.0803
 3664SOL    HW122454   3.968   0.706   9.726  1.2509  0.0147  0.0823
 3664SOL    HW222455   3.875   0.728   9.838  0.3099  1.2149  1.7465
 3665SOL     OW22456   2.140   2.001   2.389  0.1974  0.5332 -0.0266
 3665SOL    HW122457   2.135   2.093   2.366 -1.4830  0.3093 -0.5561
 3665SOL    HW222458   2.104   1.994   2.477  0.1428  0.1019 -0.0795
 3666SOL     OW22459   0.132   2.792   2.539 -0.1385  0.3999  0.5066
 3666SOL    HW122460   0.043   2.789   2.504  0.4627  2.6413 -1.1829
 3666SOL    HW222461   0.146   2.699   2.558  0.8623 -0.0176 -2.3072
 3667SOL     OW22462   4.505   0.794   6.034 -0.4384  0.4031  0.8700
 3667SOL    HW122463   4.512   0.825   5.943  0.0367  0.0363  0.7807
 3667SOL    HW222464   4.491   0.703   6.008  1.5473  0.5933 -0.8659
 3668SOL     OW22465   2.694   0.710   6.917 -0.3331 -0.3601 -0.2952
 3668SOL    HW122466   2.701   0.716   6.822  0.6953  1.8427 -0.0839
 3668SOL    HW222467   2.727   0.791   6.955  0.4325 -0.4247 -0.8102
 3669SOL     OW22468   4.346   0.504   8.789  0.5336  0.2247 -0.2137
 3669SOL    HW122469   4.401   0.544   8.721  1.3049  0.8671  0.7949
 3669SOL    HW222470   4.340   0.414   8.758 -2.1490 -0.6908  2.9743
 3670SOL     OW22471   4.340   3.402   3.592  0.0910 -0.0917 -0.0006
 3670SOL    HW122472   4.382   3.368   3.671 -2.1563 -2.1799  0.3370
 3670SOL    HW222473   4.312   3.319   3.553  1.0556  1.3066 -3.6161
 3671SOL     OW22474   1.971   4.679   3.161  0.0608 -0.1253 -1.1404
 3671SOL    HW122475   1.907   4.685   3.090 -1.2478  0.9769  0.1234
 3671SOL    HW222476   2.056   4.674   3.117 -0.0422  2.2301 -1.6078
 3672SOL     OW22477   0.926   0.636   4.391 -0.1732 -0.0426  0.0948
 3672SOL    HW122478   0.994   0.685   4.436  0.1152  0.4062 -0.8207
 3672SOL    HW222479   0.975   0.621   4.310  1.2968 -0.2242  1.0159
 3673SOL     OW22480   2.667   0.158  10.815 -0.3124 -0.5649 -0.0600
 3673SOL    HW122481   2.628   0.206  10.742 -0.2266 -0.0371  0.2403
 3673SOL    HW222482   2.673   0.068  10.782 -0.4467 -0.6108  0.0439
 3674SOL     OW22483   3.287   1.604  15.597 -0.4084  0.2488 -0.2711
 3674SOL    HW122484   3.355   1.656  15.554 -0.5370  1.3094  0.7782
 3674SOL    HW222485   3.236   1.669  15.646  0.7290  1.2094 -0.3599
 3675SOL     OW22486   0.067   0.155   0.678  0.0807  0.1467 -0.0637
 3675SOL    HW122487   0.024   0.203   0.606 -1.5579  0.8876  1.3986
 3675SOL    HW222488   0.031   0.201   0.754  1.7563  1.5976 -0.1424
 3676SOL     OW22489   3.425   3.050   6.740 -0.1064  0.0803  0.8904
 3676SOL    HW122490   3.405   2.988   6.670 -2.8693 -0.4752  2.1663
 3676SOL    HW222491   3.514   3.067   6.710 -0.3698  0.4088  0.2930
 3677SOL     OW22492   4.456   4.516   5.623  0.4102  0.8461  0.4152
 3677SOL    HW122493   4.404   4.486   5.698 -0.1981  0.2268 -0.2533
 3677SOL    HW222494   4.534   4.552   5.664  2.7074 -1.8016 -1.6853
 3678SOL     OW22495   3.250   1.075  11.281 -0.2815  0.2169  0.2819
 3678SOL    HW122496   3.306   1.121  11.344  1.7753 -1.8660 -0.0246
 3678SOL    HW222497   3.170   1.126  11.292 -0.8951 -0.6551 -0.1867
 3679SOL     OW22498   3.623   0.420  14.734  0.2929  0.3108 -0.1404
 3679SOL    HW122499   3.597   0.329  14.720  1.7043 -0.4204  2.0029
 3679SOL    HW222500   3.572   0.440  14.813  1.3458 -1.2603  0.9577
 3680SOL     OW22501   4.651   3.877  10.505 -0.0222  0.1088 -0.2494
 3680SOL    HW122502   4.637   3.948  10.567  3.4377  0.0371  0.6163
 3680SOL    HW222503   4.565   3.837  10.498 -0.2557  0.6380 -0.3528
 3681SOL     OW22504   4.643   3.615   5.766 -0.4788 -0.3925  0.2127
 3681SOL    HW122505   4.592   3.634   5.844 -0.4163 -1.2884  0.4744
 3681SOL    HW222506   4.698   3.540   5.791  0.8571  1.1792  2.0049
 3682SOL     OW22507   1.017   1.022  17.234 -0.4687 -0.1944  0.2832
 3682SOL    HW122508   1.102   1.054  17.203 -1.3477  0.8978 -1.0424
 3682SOL    HW222509   1.031   1.033  17.328  0.8634  2.0943 -0.1865
 3683SOL     OW22510   2.698   4.066   4.895  0.2771 -0.1222  0.0931
 3683SOL    HW122511   2.732   4.094   4.810 -2.0963  1.6418 -0.2794
 3683SOL    HW222512   2.709   3.972   4.880  1.0195  0.0821 -0.6706
 3684SOL     OW22513   1.258   0.756  13.404  0.2266  0.6999  0.5531
 3684SOL    HW122514   1.296   0.843  13.388 -0.8401  0.6187 -2.3683
 3684SOL    HW222515   1.332   0.697  13.405  0.0709  0.4926 -0.5725
 3685SOL     OW22516   0.252   1.723  16.598 -0.0692 -0.1228 -0.0932
 3685SOL    HW122517   0.310   1.784  16.553 -0.8078  0.9297  0.3937
 3685SOL    HW222518   0.227   1.668  16.523 -0.2467  1.3045 -1.0803
 3686SOL     OW22519   4.532   1.724  11.390 -0.0751  0.0903  0.1688
 3686SOL    HW122520   4.616   1.690  11.424  0.4428 -1.2472 -2.4437
 3686SOL    HW222521   4.513   1.647  11.337 -0.4174 -0.6616  1.3677
 3687SOL     OW22522   1.674   4.331   3.438  0.9102 -0.5973  0.0187
 3687SOL    HW122523   1.645   4.303   3.525 -1.2806  0.3385 -0.4198
 3687SOL    HW222524   1.609   4.400   3.424  0.6392 -0.7679  0.4106
 3688SOL     OW22525   2.810   2.090   5.849  0.5733 -0.6506  0.0048
 3688SOL    HW122526   2.888   2.109   5.901  0.2334  1.6792 -0.3276
 3688SOL    HW222527   2.788   2.005   5.887 -1.1205  0.5655  1.7732
 3689SOL     OW22528   0.686   2.239  14.557  0.1009 -0.8022  0.3422
 3689SOL    HW122529   0.610   2.298  14.554  1.0899  0.4894  0.8398
 3689SOL    HW222530   0.678   2.183  14.480 -0.4166  0.0072 -0.1919
 3690SOL     OW22531   3.166   0.194   8.935  0.1972 -0.2877 -0.4420
 3690SOL    HW122532   3.247   0.246   8.934  0.3837 -0.5545  2.1152
 3690SOL    HW222533   3.185   0.128   8.868 -1.5224 -1.7192  0.5202
 3691SOL     OW22534   1.610   2.153  11.696  0.0191  0.2410 -0.2018
 3691SOL    HW122535   1.701   2.173  11.716  0.1784 -0.0605 -0.6127
 3691SOL    HW222536   1.569   2.193  11.773  1.0472  0.7164  0.0998
 3692SOL     OW22537   1.468   3.057   5.485 -0.4880 -0.2818  0.2130
 3692SOL    HW122538   1.547   3.084   5.439  0.2553 -0.3091  1.4758
 3692SOL    HW222539   1.520   3.005   5.546 -1.4918 -0.5358  0.8524
 3693SOL     OW22540   2.147   2.227   3.916  0.2212  0.2714  0.5042
 3693SOL    HW122541   2.236   2.261   3.928  1.0427 -1.7060 -0.0670
 3693SOL    HW222542   2.106   2.280   3.985 -0.8470  2.7798 -2.0732
 3694SOL     OW22543   1.214   0.401   3.875  0.4997  0.4161  0.0194
 3694SOL    HW122544   1.155   0.326   3.871  1.1061  0.0542 -2.3026
 3694SOL    HW222545   1.247   0.404   3.785  1.8771 -2.5474  0.4254
 3695SOL     OW22546   3.526   4.713   3.000 -0.0496  0.0652 -0.3770
 3695SOL    HW122547   3.462   4.713   3.071  0.5119 -0.4772  0.1172
 3695SOL    HW222548   3.539   4.619   2.988  0.2417  0.0521  0.0316
 3696SOL     OW22549   2.475   0.915   3.769 -0.3260  0.0668 -0.6861
 3696SOL    HW122550   2.442   0.950   3.686  0.9823 -0.1942 -1.3070
 3696SOL    HW222551   2.494   0.998   3.813  0.0068 -0.5527  0.3254
 3697SOL     OW22552   2.619   0.406   5.167  0.7668  0.0445 -0.0227
 3697SOL    HW122553   2.570   0.357   5.233 -0.1734 -0.4039 -1.0581
 3697SOL    HW222554   2.654   0.342   5.106  0.4490  0.3297 -0.5062
 3698SOL     OW22555   2.611   1.087   2.801  0.5808 -0.5659  0.1105
 3698SOL    HW122556   2.637   0.995   2.795  0.9546 -0.5276  1.1432
 3698SOL    HW222557   2.694   1.127   2.772 -0.3299  0.9043 -0.4798
 3699SOL     OW22558   0.500   4.692   7.793  0.7485 -0.2620 -0.7781
 3699SOL    HW122559   0.500   4.709   7.698  1.5058  0.4221 -0.6609
 3699SOL    HW222560   0.422   4.637   7.794  0.5537  0.0328  0.7675
 3700SOL     OW22561   3.522   1.794  10.975 -0.4537 -0.2061 -0.1738
 3700SOL    HW122562   3.433   1.804  10.939  1.5885 -1.4222 -5.5500
 3700SOL    HW222563   3.526   1.854  11.049 -0.9431  0.1272 -0.4174
 3701SOL     OW22564   2.146   0.145   8.786 -0.1445  0.3374 -0.5756
 3701SOL    HW122565   2.210   0.150   8.716  1.1632 -0.4695  0.5602
 3701SOL    HW222566   2.192   0.091   8.851  1.4051  1.3721 -0.8219
 3702SOL     OW22567   2.090   3.078   6.648 -0.1191 -0.3601 -0.5937
 3702SOL    HW122568   2.142   3.113   6.720 -2.9438 -1.5570  2.0107
 3702SOL    HW222569   2.098   3.148   6.583  0.4940  0.9188  0.8512
 3703SOL     OW22570   2.094   2.331   7.296  0.4742 -0.1213  0.1946
 3703SOL    HW122571   2.146   2.251   7.298  0.9226  0.1806  0.6522
 3703SOL    HW222572   2.057   2.324   7.384  0.8005  2.3760  0.5367
 3704SOL     OW22573   0.688   3.149  15.784  0.7474  0.2988 -0.3565
 3704SOL    HW122574   0.781   3.129  15.784  0.6948  0.0911 -1.9219
 3704SOL    HW222575   0.647   3.065  15.763  1.3691 -0.1875  0.3671
 3705SOL     OW22576   0.690   3.271   7.525  0.2553 -0.1183 -0.1210
 3705SOL    HW122577   0.618   3.210   7.542  0.3020 -0.1573 -0.0637
 3705SOL    HW222578   0.768   3.254   7.578 -0.6466 -0.7016  1.0212
 3706SOL     OW22579   3.541   0.669  10.199 -0.2199  0.0227  0.5227
 3706SOL    HW122580   3.572   0.760  10.198  3.4927 -1.2673  0.3007
 3706SOL    HW222581   3.467   0.673  10.260  1.0776  0.1310  2.1074
 3707SOL     OW22582   0.958   0.260  10.260 -0.1619 -0.2085  0.4068
 3707SOL    HW122583   1.026   0.208  10.217 -2.9510 -1.4475 -2.4681
 3707SOL    HW222584   0.931   0.201  10.330 -0.2519  1.1878  1.5607
 3708SOL     OW22585   4.434   4.031   3.554  0.3047 -0.3523 -0.6235
 3708SOL    HW122586   4.383   3.953   3.536  1.9307 -1.8868  1.3808
 3708SOL    HW222587   4.505   3.995   3.607  0.4017 -4.0969 -3.2996
 3709SOL     OW22588   1.225   0.262  10.436  0.2267  0.3945  0.2334
 3709SOL    HW122589   1.207   0.328  10.368  0.5738 -0.6395 -0.8601
 3709SOL    HW222590   1.320   0.267  10.451  0.2385  1.0594 -0.0400
 3710SOL     OW22591   3.520   2.418   6.581  0.0626  0.1642  0.0052
 3710SOL    HW122592   3.612   2.396   6.565  0.6891  1.9815  1.2043
 3710SOL    HW222593   3.529   2.506   6.617  0.3315  0.7436 -1.4618
 3711SOL     OW22594   4.153   3.703   3.273  0.6582  0.4220  0.3417
 3711SOL    HW122595   4.188   3.734   3.189  1.1397 -1.9220 -0.3308
 3711SOL    HW222596   4.107   3.782   3.299 -0.1865  0.1959 -0.4290
 3712SOL     OW22597   1.341   0.281   1.005 -0.4909  0.2103 -0.2769
 3712SOL    HW122598   1.384   0.306   1.087  0.6224 -0.0642 -0.7765
 3712SOL    HW222599   1.264   0.240   1.045 -0.3540  0.4428  0.2310
 3713SOL     OW22600   3.152   0.810   8.123 -0.0452 -0.3055 -0.0974
 3713SOL    HW122601   3.143   0.848   8.210  1.4704 -0.0274 -0.0754
 3713SOL    HW222602   3.079   0.748   8.116  1.2462 -2.0961  2.4947
 3714SOL     OW22603   0.688   3.653   3.850 -0.2645 -0.5645 -0.0946
 3714SOL    HW122604   0.751   3.653   3.778 -0.3747 -1.1902 -0.1917
 3714SOL    HW222605   0.616   3.688   3.798 -1.0796 -3.0846 -0.6891
 3715SOL     OW22606   1.312   2.001   4.250 -0.1104  0.2310  0.0982
 3715SOL    HW122607   1.337   2.094   4.245  1.6427 -0.1785  1.0914
 3715SOL    HW222608   1.218   2.015   4.260  0.0157  1.7760 -0.9125
 3716SOL     OW22609   3.811   3.936   9.143 -0.1731 -0.1499  0.0819
 3716SOL    HW122610   3.870   3.938   9.068 -2.0660  1.9423 -1.3408
 3716SOL    HW222611   3.869   3.897   9.209  1.7601 -0.2352 -1.6707
 3717SOL     OW22612   3.459   0.362   3.424  0.9118  0.3826 -0.0813
 3717SOL    HW122613   3.471   0.274   3.458  1.7017  1.7999  3.3322
 3717SOL    HW222614   3.480   0.412   3.503  1.0727  1.0178 -0.5215
 3718SOL     OW22615   4.192   2.311   2.059  0.7026 -0.2603  0.0006
 3718SOL    HW122616   4.286   2.315   2.037  0.2559  0.5587 -1.7544
 3718SOL    HW222617   4.167   2.338   1.971 -0.7311  0.8115  0.7412
 3719SOL     OW22618   3.934   0.946   3.312 -0.5508  0.3291 -0.3361
 3719SOL    HW122619   3.978   0.861   3.304 -0.2887  0.4452 -0.1204
 3719SOL    HW222620   3.910   0.950   3.405  1.5205  0.2335  0.1955
 3720SOL     OW22621   4.644   1.014  15.884  0.2837 -0.3882 -0.3725
 3720SOL    HW122622   4.567   0.967  15.916  0.0381 -0.5854 -1.2820
 3720SOL    HW222623   4.613   1.054  15.803  0.4899 -0.9298 -0.7142
 3721SOL     OW22624   0.837   1.997   5.979 -0.1176  0.5727 -0.2663
 3721SOL    HW122625   0.748   1.966   5.996  1.4274 -2.0786  3.1626
 3721SOL    HW222626   0.840   2.058   6.052  1.2640 -2.3939  2.1489
 3722SOL     OW22627   2.632   3.619   9.296 -0.0092  0.2758  0.1193
 3722SOL    HW122628   2.698   3.688   9.291 -0.8053  1.1377  1.3969
 3722SOL    HW222629   2.569   3.658   9.357 -0.0750  3.2296 -1.8489
 3723SOL     OW22630   4.135   3.584   4.989  0.7580 -0.0966  0.2028
 3723SOL    HW122631   4.101   3.652   5.048 -1.3569 -0.5429 -0.5030
 3723SOL    HW222632   4.055   3.540   4.961  0.4679 -0.6385  1.8799
 3724SOL     OW22633   0.217   1.911   2.267 -0.3017  0.3951 -0.1810
 3724SOL    HW122634   0.169   1.831   2.244 -0.4569  1.3891 -3.2446
 3724SOL    HW222635   0.200   1.930   2.359  2.6281  1.9720  0.0325
 3725SOL     OW22636   1.427   3.789   2.040 -0.0993 -0.3218  0.6993
 3725SOL    HW122637   1.506   3.828   2.002 -1.9895  1.0579 -1.8319
 3725SOL    HW222638   1.471   3.753   2.117  0.2087  0.3457  0.8379
 3726SOL     OW22639   2.800   0.347   5.490  0.0700  0.1922 -0.1464
 3726SOL    HW122640   2.805   0.275   5.554  1.6445 -1.8843 -2.5925
 3726SOL    HW222641   2.707   0.362   5.477 -0.1410 -1.3185 -0.3644
 3727SOL     OW22642   4.603   3.003   3.989  0.1365  0.4457 -0.5064
 3727SOL    HW122643   4.548   3.001   3.910  1.4935  0.2472 -1.4520
 3727SOL    HW222644   4.527   2.992   4.046 -0.3129  2.6407 -0.6619
 3728SOL     OW22645   2.197   4.706  13.242 -0.0289  0.0813  0.5203
 3728SOL    HW122646   2.269   4.707  13.179  0.0064 -0.3930  0.5517
 3728SOL    HW222647   2.226   4.646  13.311  1.4510 -0.4496 -0.5740
 3729SOL     OW22648   1.306   4.272   6.795 -0.1802 -0.5431 -0.3046
 3729SOL    HW122649   1.281   4.182   6.777 -0.8075 -0.5640  0.7006
 3729SOL    HW222650   1.380   4.272   6.856 -0.9740  2.2610  0.6615
 3730SOL     OW22651   4.421   0.977   2.421 -0.9048 -0.1094 -0.6175
 3730SOL    HW122652   4.359   0.977   2.349  0.0911 -0.8109 -1.4737
 3730SOL    HW222653   4.481   0.908   2.392  0.3726  0.4658  0.6301
 3731SOL     OW22654   2.253   0.923   3.066 -1.1832 -0.1279  0.6011
 3731SOL    HW122655   2.308   0.949   3.140 -0.3213  2.1399 -0.8753
 3731SOL    HW222656   2.199   1.000   3.054 -0.0469  0.3857 -1.1669
 3732SOL     OW22657   2.735   1.058  12.360  0.1974  0.5820 -0.5389
 3732SOL    HW122658   2.827   1.055  12.386  0.5513  1.4728 -1.6993
 3732SOL    HW222659   2.743   1.096  12.273  0.6189 -0.6111 -1.0221
 3733SOL     OW22660   3.565   2.301   5.361 -0.1800  0.0389  0.5121
 3733SOL    HW122661   3.573   2.208   5.384 -0.0077 -0.0968 -0.0785
 3733SOL    HW222662   3.577   2.293   5.266  0.4899  0.9793  0.5217
 3734SOL     OW22663   2.995   4.160   5.248  0.1733  0.2823  0.2564
 3734SOL    HW122664   2.918   4.113   5.216  0.6870  0.8672 -1.8464
 3734SOL    HW222665   2.950   4.207   5.319  0.9121  0.1207  0.8330
 3735SOL     OW22666   1.371   4.554   6.400  0.2690 -0.4907 -0.0891
 3735SOL    HW122667   1.402   4.564   6.490  1.3921 -1.7851 -0.3291
 3735SOL    HW222668   1.359   4.645   6.373 -0.4934 -0.8507 -0.9824
 3736SOL     OW22669   2.038   3.504   5.549  0.1578 -0.0413 -0.5370
 3736SOL    HW122670   2.027   3.592   5.512  2.3154  0.1763 -0.6712
 3736SOL    HW222671   1.980   3.451   5.495  0.7753 -0.5620 -0.6854
 3737SOL     OW22672   1.882   0.622   3.170 -0.0090 -0.1751  0.9520
 3737SOL    HW122673   1.831   0.610   3.250  0.7398 -0.3067  1.4179
 3737SOL    HW222674   1.966   0.655   3.203  0.0158 -0.1396  0.8538
 3738SOL     OW22675   2.586   2.744   7.206 -0.2807  0.2732  0.3502
 3738SOL    HW122676   2.531   2.749   7.128  1.5023 -1.4394 -1.0048
 3738SOL    HW222677   2.552   2.675   7.263 -1.2552  0.1720 -0.3499
 3739SOL     OW22678   0.856   1.210   1.962 -0.3152 -0.9329 -0.1494
 3739SOL    HW122679   0.845   1.136   1.902 -3.9573 -2.0859  1.9081
 3739SOL    HW222680   0.855   1.187   2.055 -1.0313  0.4558  0.1844
 3740SOL     OW22681   0.359   4.342   9.770 -0.2026  0.4539 -0.2799
 3740SOL    HW122682   0.318   4.417   9.812 -1.0384  1.0632 -2.1591
 3740SOL    HW222683   0.337   4.270   9.830 -1.4738  1.7950  0.8516
 3741SOL     OW22684   1.654   4.193  15.183 -0.2358 -0.0624 -0.0291
 3741SOL    HW122685   1.721   4.213  15.248 -0.5347  1.0708 -0.0745
 3741SOL    HW222686   1.670   4.100  15.169 -0.3367 -0.1268  0.2665
 3742SOL     OW22687   3.006   4.711   8.462  0.1344  0.3655  0.6869
 3742SOL    HW122688   3.093   4.686   8.492 -0.7810 -1.1329  2.0458
 3742SOL    HW222689   3.026   0.045   8.389  1.8513 -1.5434 -0.4108
 3743SOL     OW22690   0.882   3.612  15.867  0.1910 -0.0943 -0.0262
 3743SOL    HW122691   0.834   3.694  15.851  1.2111 -0.1586 -3.5279
 3743SOL    HW222692   0.818   3.549  15.898 -1.2897  0.5088 -1.8481
 3744SOL     OW22693   2.856   0.165   5.719 -0.2959 -0.9295  0.0654
 3744SOL    HW122694   2.878   0.078   5.686  2.6668 -0.3821  0.6238
 3744SOL    HW222695   2.918   0.171   5.792  1.8025 -2.7122 -1.5841
 3745SOL     OW22696   1.444   2.529   3.609 -0.3452  0.0088  0.1821
 3745SOL    HW122697   1.385   2.605   3.606 -1.3047 -0.8554 -4.0081
 3745SOL    HW222698   1.379   2.460   3.624 -0.5803  0.3467  0.7260
 3746SOL     OW22699   1.223   4.478   0.741  0.0356 -0.2201 -0.4445
 3746SOL    HW122700   1.151   4.523   0.786 -0.6039 -2.1699  0.4921
 3746SOL    HW222701   1.266   4.426   0.809 -2.0853 -2.2520 -0.6393
 3747SOL     OW22702   0.813   1.172   6.744  0.1035  0.1710  0.2287
 3747SOL    HW122703   0.843   1.229   6.815  3.0516 -0.0034 -0.8931
 3747SOL    HW222704   0.875   1.189   6.673 -1.8438 -1.2829 -1.8072
 3748SOL     OW22705   0.831   2.076   6.645  0.1266  0.0363 -0.0070
 3748SOL    HW122706   0.880   2.131   6.706 -0.8040  1.2388 -0.3521
 3748SOL    HW222707   0.767   2.021   6.690  2.4154  0.6574  4.0061
 3749SOL     OW22708   3.962   0.216   2.302  0.2019  0.0916 -0.1626
 3749SOL    HW122709   4.046   0.246   2.336 -0.0154  0.7069 -0.1667
 3749SOL    HW222710   3.991   0.180   2.218 -2.8811 -0.1008 -1.1248
 3750SOL     OW22711   2.684   0.823   4.993  0.1579 -0.8984  0.4582
 3750SOL    HW122712   2.629   0.885   4.946 -1.1864 -2.3161  0.1427
 3750SOL    HW222713   2.768   0.809   4.948  0.5134 -1.8852  1.4273
 3751SOL     OW22714   0.938   1.307  12.894  0.2727  0.9162  0.4606
 3751SOL    HW122715   0.852   1.269  12.913 -0.0455  0.8783 -0.9790
 3751SOL    HW222716   0.940   1.293  12.799 -0.0878 -0.1029  0.5978
 3752SOL     OW22717   4.231   1.890   6.819  0.1284 -0.1222 -0.7427
 3752SOL    HW122718   4.175   1.827   6.864 -0.3088  0.8812  0.1186
 3752SOL    HW222719   4.278   1.823   6.769 -0.1601 -1.1151  0.3017
 3753SOL     OW22720   1.968   3.759   1.939 -0.0057 -0.1408  0.0955
 3753SOL    HW122721   1.975   3.710   1.857 -2.4245  1.3024 -0.9655
 3753SOL    HW222722   2.054   3.799   1.953  0.8854 -2.4954  1.2076
 3754SOL     OW22723   3.425   2.841  16.021  0.5230 -0.8572 -0.3342
 3754SOL    HW122724   3.335   2.807  16.019  0.0728  0.3307 -0.1268
 3754SOL    HW222725   3.438   2.830  16.116 -0.6141  0.4028 -0.0292
 3755SOL     OW22726   3.341   3.382   4.596  0.3268 -0.3603 -0.5540
 3755SOL    HW122727   3.344   3.383   4.501 -1.0957  0.4241 -0.5949
 3755SOL    HW222728   3.251   3.358   4.619 -0.0711  1.8653  0.2102
 3756SOL     OW22729   3.373   3.761   7.830  0.4263 -0.3144  0.0897
 3756SOL    HW122730   3.282   3.749   7.858  0.0820 -2.0874 -1.7980
 3756SOL    HW222731   3.418   3.701   7.890 -0.1580 -1.5294 -0.6982
 3757SOL     OW22732   3.400   4.640   1.617 -0.4401 -0.4530  0.1676
 3757SOL    HW122733   3.413   4.581   1.691 -0.4899  0.8872  1.2525
 3757SOL    HW222734   3.344   4.712   1.648 -0.8043 -0.7214  0.1331
 3758SOL     OW22735   1.225   4.333   5.537 -0.0594  0.2557 -0.3939
 3758SOL    HW122736   1.299   4.384   5.570 -1.3667  0.1104  2.8157
 3758SOL    HW222737   1.230   4.249   5.581 -2.1430  0.1427 -0.3545
 3759SOL     OW22738   4.039   1.467   3.773  0.6557 -0.7268 -0.5443
 3759SOL    HW122739   4.063   1.522   3.847  0.1589  1.0199 -1.6861
 3759SOL    HW222740   4.096   1.510   3.710  0.6600 -0.6720 -0.5021
 3760SOL     OW22741   1.956   2.653   7.722  0.4574 -0.2438 -0.4105
 3760SOL    HW122742   1.891   2.696   7.776 -0.7755 -0.9426 -1.3367
 3760SOL    HW222743   1.910   2.648   7.638 -0.2198  1.3401 -0.1422
 3761SOL     OW22744   3.151   3.245   9.798  0.6568  0.0455 -0.5826
 3761SOL    HW122745   3.131   3.339   9.797 -1.6835 -0.4320 -0.8285
 3761SOL    HW222746   3.096   3.214   9.870  2.1488 -1.6437 -0.1769
 3762SOL     OW22747   3.625   0.665   7.650  0.2710 -0.0436 -0.4714
 3762SOL    HW122748   3.604   0.757   7.665  1.3659  0.5036 -2.3156
 3762SOL    HW222749   3.704   0.666   7.704 -1.2062 -1.3859  1.7565
 3763SOL     OW22750   2.094   0.290   0.469  0.3141  0.0095  0.0504
 3763SOL    HW122751   2.037   0.231   0.518 -1.1652  0.0347 -1.6232
 3763SOL    HW222752   2.030   0.357   0.441 -0.9395 -1.3346 -0.2942
 3764SOL     OW22753   1.986   3.400   9.476 -0.0924 -0.1411  0.0413
 3764SOL    HW122754   1.937   3.343   9.536 -1.4821  1.8086  0.7410
 3764SOL    HW222755   2.036   3.333   9.429  2.4456  1.0542  1.0473
 3765SOL     OW22756   3.438   3.180   3.776  0.2220  0.2388 -0.3601
 3765SOL    HW122757   3.443   3.151   3.867  0.9424  0.0197 -0.4707
 3765SOL    HW222758   3.350   3.218   3.782  0.5812  1.4049 -2.9052
 3766SOL     OW22759   1.735   1.252   8.605 -0.8487  0.6716  0.2789
 3766SOL    HW122760   1.747   1.345   8.623  0.7987  0.8541 -1.7488
 3766SOL    HW222761   1.775   1.210   8.681 -0.9161 -0.6161 -0.3952
 3767SOL     OW22762   2.255   1.426   2.989 -0.3191 -0.2062  1.1618
 3767SOL    HW122763   2.307   1.502   2.964 -3.3245  1.6702  0.5604
 3767SOL    HW222764   2.173   1.474   3.001  0.6294  1.3898  1.2393
 3768SOL     OW22765   1.738   0.179   1.768 -0.0459  0.0809 -0.1407
 3768SOL    HW122766   1.749   0.102   1.713  1.3512  0.5180 -0.4600
 3768SOL    HW222767   1.811   0.176   1.829 -0.0917 -0.3491 -0.1039
 3769SOL     OW22768   3.847   0.540  10.268 -0.7881  0.0923 -0.0844
 3769SOL    HW122769   3.937   0.518  10.289 -1.2325 -2.0229 -0.4706
 3769SOL    HW222770   3.854   0.634  10.250  1.0575 -0.5160 -2.4824
 3770SOL     OW22771   4.366   1.120   6.338 -0.0453 -0.2972 -0.0972
 3770SOL    HW122772   4.275   1.127   6.367  0.2656  4.0863 -0.1254
 3770SOL    HW222773   4.375   1.028   6.314 -0.6647 -0.2186 -0.6332
 3771SOL     OW22774   2.102   2.418   1.280  0.2932  0.4841  0.7427
 3771SOL    HW122775   2.079   2.326   1.270  0.4518  0.8340 -2.8269
 3771SOL    HW222776   2.066   2.461   1.202 -0.8848  0.2265  1.1409
 3772SOL     OW22777   4.486   3.849   5.664 -0.1628 -0.3603  1.0687
 3772SOL    HW122778   4.534   3.769   5.684  0.4352 -0.1352  0.5381
 3772SOL    HW222779   4.554   3.916   5.668  0.5279 -0.8393 -2.2662
 3773SOL     OW22780   3.487   3.628   1.649  0.0536  0.7208  0.3855
 3773SOL    HW122781   3.395   3.648   1.670  0.9822  2.0461  3.1644
 3773SOL    HW222782   3.508   3.688   1.577  0.3431 -0.2162 -0.3162
 3774SOL     OW22783   0.432   0.329   4.738  0.2126 -1.0377  0.2270
 3774SOL    HW122784   0.426   0.254   4.798  4.2624 -0.5072  1.3084
 3774SOL    HW222785   0.475   0.392   4.796 -0.6768 -2.7056  2.7330
 3775SOL     OW22786   4.601   2.516   2.193  0.0734  0.8375  0.0064
 3775SOL    HW122787   4.519   2.510   2.144 -1.3984 -0.0487  2.5893
 3775SOL    HW222788   4.653   2.570   2.134 -0.5227  0.2061 -1.0972
 3776SOL     OW22789   3.458   1.126   3.987 -0.4783  0.1224  0.3371
 3776SOL    HW122790   3.509   1.150   3.910 -0.2773 -1.5504 -0.0479
 3776SOL    HW222791   3.382   1.081   3.952  0.2107 -0.3858 -0.4965
 3777SOL     OW22792   3.442   0.034   2.742  0.4445 -0.1616  0.1506
 3777SOL    HW122793   3.530   0.071   2.754  0.5890 -0.8839  1.2991
 3777SOL    HW222794   3.419   0.002   2.829  1.3166  0.0562  0.4594
 3778SOL     OW22795   2.858   0.503   4.037 -0.1090 -0.5656 -0.6667
 3778SOL    HW122796   2.805   0.449   4.095 -0.5202 -0.5629 -1.0422
 3778SOL    HW222797   2.929   0.440   4.024  0.8072  0.6639 -1.6233
 3779SOL     OW22798   0.585   4.062   2.436 -0.0565 -0.0643  0.2210
 3779SOL    HW122799   0.648   4.114   2.485 -0.0493 -0.7954  1.0053
 3779SOL    HW222800   0.515   4.125   2.453 -0.4850 -0.3139 -0.6145
 3780SOL     OW22801   2.918   1.340   3.681 -0.2307  0.4674 -0.6831
 3780SOL    HW122802   2.875   1.291   3.751  2.4009 -0.9531 -0.0709
 3780SOL    HW222803   2.997   1.355   3.732 -0.3203  1.3739 -0.7950
 3781SOL     OW22804   2.354   1.990   7.776 -0.1972  0.2410 -0.0563
 3781SOL    HW122805   2.364   1.924   7.708  1.8486  0.2960  0.1858
 3781SOL    HW222806   2.327   1.934   7.849  0.8149  0.2848  0.3551
 3782SOL     OW22807   0.824   1.858   6.378  0.2951  0.3645 -0.5021
 3782SOL    HW122808   0.863   1.945   6.372  0.8138  0.1888  0.2364
 3782SOL    HW222809   0.736   1.887   6.402 -0.6700 -1.3830 -1.9358
 3783SOL     OW22810   0.657   3.706   8.518 -0.5858  0.1392  0.1645
 3783SOL    HW122811   0.578   3.753   8.546 -1.3502 -1.9201  1.4196
 3783SOL    HW222812   0.736   3.724   8.569 -0.5922  1.4268 -0.2726
 3784SOL     OW22813   2.473   4.418  14.044 -0.0129  0.4252  0.5243
 3784SOL    HW122814   2.539   4.427  13.976 -1.5194  3.0374 -0.6101
 3784SOL    HW222815   2.533   4.459  14.107  1.0144  1.4383 -1.1254
 3785SOL     OW22816   2.505   2.357   2.053  0.0865  0.1094 -0.2950
 3785SOL    HW122817   2.569   2.361   2.124  0.4343 -1.1591 -0.5226
 3785SOL    HW222818   2.558   2.303   1.994 -0.0708  1.5544 -1.7382
 3786SOL     OW22819   4.635   3.049   3.634 -0.8798  0.1837 -0.2558
 3786SOL    HW122820   4.545   3.063   3.663 -0.7736  0.3477  0.0008
 3786SOL    HW222821   4.631   3.064   3.540 -2.6817 -1.7804 -0.4815
 3787SOL     OW22822   4.540   3.532   7.851 -0.1692  0.0317  0.1607
 3787SOL    HW122823   4.453   3.514   7.887 -1.0262 -0.1268 -1.9983
 3787SOL    HW222824   4.572   3.593   7.918 -0.4201 -0.7123  0.9658
 3788SOL     OW22825   1.017   1.120   1.051 -0.5686  0.4969  0.0965
 3788SOL    HW122826   1.016   1.107   0.956 -0.7328 -2.7055  0.5446
 3788SOL    HW222827   1.104   1.089   1.075  0.2019  1.8631 -0.9534
 3789SOL     OW22828   0.092   4.326   3.675 -0.0696  0.3028  0.4800
 3789SOL    HW122829   0.146   4.400   3.703 -1.3263  1.9772 -1.4677
 3789SOL    HW222830   0.027   4.320   3.745  1.2428 -1.7486  1.5083
 3790SOL     OW22831   1.495   3.881   4.731  0.3648 -0.5819 -0.2742
 3790SOL    HW122832   1.559   3.934   4.779  0.8887 -1.4456 -0.0156
 3790SOL    HW222833   1.432   3.944   4.695  0.7146 -0.6607 -1.0116
 3791SOL     OW22834   0.337   2.573   8.160  0.4150  0.2477  0.0704
 3791SOL    HW122835   0.379   2.514   8.097  0.4745  0.5504 -0.1735
 3791SOL    HW222836   0.412   2.622   8.194  0.0614  1.4607 -0.9274
 3792SOL     OW22837   1.907   4.549   7.647 -0.0612  0.1019 -0.0706
 3792SOL    HW122838   1.969   4.493   7.693 -1.0993 -0.3187  0.8130
 3792SOL    HW222839   1.966   4.619   7.619 -1.4889  0.9348 -1.0548
 3793SOL     OW22840   0.702   4.242  10.961  0.1585 -0.4383  0.3401
 3793SOL    HW122841   0.745   4.215  10.880  0.2627 -1.1165  0.6231
 3793SOL    HW222842   0.725   4.164  11.011 -1.0632 -0.0612  1.4935
 3794SOL     OW22843   1.224   0.492   0.710  0.3676  0.3569 -0.3914
 3794SOL    HW122844   1.222   0.426   0.779  0.3535 -1.5073 -2.1572
 3794SOL    HW222845   1.288   0.555   0.742 -0.3234  1.0935 -0.4680
 3795SOL     OW22846   3.963   3.829   0.962  0.0176 -0.2507 -0.2191
 3795SOL    HW122847   3.987   3.921   0.964 -0.5803 -0.1540  1.8748
 3795SOL    HW222848   3.868   3.829   0.955  0.1867  1.6678 -2.2864
 3796SOL     OW22849   0.892   4.371   8.909 -0.0674  0.6008 -0.0262
 3796SOL    HW122850   0.876   4.458   8.871  0.1476 -0.3157 -2.2095
 3796SOL    HW222851   0.844   4.319   8.845 -0.6902  0.5995  0.4453
 3797SOL     OW22852   2.050   0.879  16.215 -0.6712  0.4161  0.0207
 3797SOL    HW122853   1.975   0.916  16.168 -1.3881 -0.2628  0.6376
 3797SOL    HW222854   2.079   0.958  16.260  0.7381 -0.1257  0.0584
 3798SOL     OW22855   3.527   2.635   7.423 -0.3065 -0.5285 -0.2536
 3798SOL    HW122856   3.585   2.576   7.471  0.3850  0.1929 -0.1897
 3798SOL    HW222857   3.528   2.710   7.482 -0.8834  0.2671 -1.2547
 3799SOL     OW22858   4.416   4.152  10.444 -0.3040  0.8186  0.0773
 3799SOL    HW122859   4.501   4.168  10.402  0.2445  0.5101  1.0635
 3799SOL    HW222860   4.357   4.143  10.369  0.1686  0.3666 -0.2395
 3800SOL     OW22861   1.242   2.491   9.138 -0.8961 -0.1968 -0.1843
 3800SOL    HW122862   1.288   2.528   9.213 -1.4280 -1.8322  0.9499
 3800SOL    HW222863   1.311   2.430   9.112 -1.5658 -1.2039  0.4515
 3801SOL     OW22864   1.373   4.469   7.518  0.3520  0.1282  0.1978
 3801SOL    HW122865   1.295   4.456   7.464  0.3207 -1.0261  0.5308
 3801SOL    HW222866   1.415   4.552   7.494 -1.3042  0.3365 -1.9588
 3802SOL     OW22867   1.740   2.881   6.939  0.3322 -0.2702  0.0842
 3802SOL    HW122868   1.728   2.809   7.001 -0.5875  0.9709  1.3565
 3802SOL    HW222869   1.663   2.936   6.955 -0.2906 -0.4568 -2.3606
 3803SOL     OW22870   1.565   1.588   2.071 -0.0315 -0.2429 -0.4544
 3803SOL    HW122871   1.562   1.497   2.040  1.2825  0.1824 -1.7981
 3803SOL    HW222872   1.484   1.632   2.044 -0.5351  0.4332  2.0963
 3804SOL     OW22873   3.181   3.016   0.992 -0.4225 -0.1538  0.5946
 3804SOL    HW122874   3.141   3.102   0.979  0.1390 -0.3438 -2.4676
 3804SOL    HW222875   3.111   2.960   0.960  0.2770  0.3037 -1.7313
 3805SOL     OW22876   2.667   3.237   8.216  0.1278  0.7879 -0.1763
 3805SOL    HW122877   2.636   3.146   8.218  1.3131  0.3576 -1.0712
 3805SOL    HW222878   2.674   3.264   8.307  2.0165 -1.7702  0.4242
 3806SOL     OW22879   1.075   4.268   2.638  0.3572 -0.0423 -0.0792
 3806SOL    HW122880   0.988   4.252   2.674  1.2174 -2.7366  0.8445
 3806SOL    HW222881   1.132   4.231   2.706  1.0623  0.3291 -0.4602
 3807SOL     OW22882   1.849   4.331   3.813  0.2496 -0.4518  0.4208
 3807SOL    HW122883   1.834   4.426   3.816  0.3831 -0.3726 -1.3778
 3807SOL    HW222884   1.795   4.301   3.887  1.5926  0.2315  1.6731
 3808SOL     OW22885   2.150   3.332   7.469  0.1215  0.5055  0.1772
 3808SOL    HW122886   2.132   3.263   7.533  2.4781 -0.6488 -0.3991
 3808SOL    HW222887   2.221   3.299   7.414  0.2744  0.3785  0.4549
 3809SOL     OW22888   3.382   1.106   2.949  0.0730  0.1691 -0.7064
 3809SOL    HW122889   3.453   1.162   2.920 -0.1288  1.5240  1.3704
 3809SOL    HW222890   3.339   1.074   2.870  0.3150 -1.6657 -0.0889
 3810SOL     OW22891   2.492   1.255   7.144  0.2530  0.0711  0.1120
 3810SOL    HW122892   2.542   1.278   7.065 -1.3352  0.7812 -0.6930
 3810SOL    HW222893   2.549   1.275   7.218 -2.0801  0.9759  1.6755
 3811SOL     OW22894   1.551   0.375   3.613  0.4968  0.5341  0.0719
 3811SOL    HW122895   1.564   0.470   3.616 -2.4723  0.9248 -0.1784
 3811SOL    HW222896   1.516   0.354   3.700  0.7940 -3.1749 -0.6877
 3812SOL     OW22897   1.414   0.713   1.610 -0.2413  0.3835  0.3470
 3812SOL    HW122898   1.417   0.666   1.526 -0.3827  0.4511  0.3027
 3812SOL    HW222899   1.406   0.803   1.577  0.4253 -0.2003 -1.3868
 3813SOL     OW22900   3.333   3.580   3.866 -0.7434  0.3583  0.1201
 3813SOL    HW122901   3.355   3.503   3.814 -0.6297 -0.0315  0.7564
 3813SOL    HW222902   3.416   3.627   3.861 -1.3601  1.3798 -0.8797
 3814SOL     OW22903   0.645   0.488   0.067  0.2881  0.2374 -0.4905
 3814SOL    HW122904   0.629   0.560   0.128 -0.7069 -1.1613  0.8933
 3814SOL    HW222905   0.624   0.524  17.686  0.2015  0.9064 -0.1871
 3815SOL     OW22906   0.136   2.261   2.744  0.8738 -0.1741  0.4845
 3815SOL    HW122907   0.137   2.242   2.651 -1.8042  0.2704  0.3713
 3815SOL    HW222908   0.046   2.241   2.771  0.5752  1.0534  0.4082
 3816SOL     OW22909   0.300   0.705   6.695 -0.2414 -0.0554  0.9245
 3816SOL    HW122910   0.220   0.731   6.742 -0.3070 -1.9398  1.8351
 3816SOL    HW222911   0.279   0.728   6.604  0.7761  0.1514  0.7416
 3817SOL     OW22912   0.420   1.839   8.264 -0.2733 -0.2446 -0.2567
 3817SOL    HW122913   0.377   1.860   8.347 -0.9332 -0.8278 -0.4457
 3817SOL    HW222914   0.363   1.766   8.239  0.6670 -1.3147  0.7878
 3818SOL     OW22915   3.076   4.107   9.823 -0.1116 -0.3617 -0.2522
 3818SOL    HW122916   3.109   4.167   9.890  0.5282 -0.4007 -0.5349
 3818SOL    HW222917   3.015   4.163   9.775 -0.3518  0.2137  0.7170
 3819SOL     OW22918   3.630   1.203   3.725 -0.1973  0.2615  0.1772
 3819SOL    HW122919   3.621   1.286   3.772 -0.9568  0.5723 -0.5066
 3819SOL    HW222920   3.559   1.214   3.662  1.1073 -0.0869 -1.3882
 3820SOL     OW22921   1.147   2.642   9.816  0.3459  0.1181  0.5477
 3820SOL    HW122922   1.066   2.681   9.847 -0.2654  0.2678 -1.2323
 3820SOL    HW222923   1.141   2.551   9.845 -1.0254  0.0410 -0.0058
 3821SOL     OW22924   3.852   2.098   6.474  0.1649 -0.3985 -0.1517
 3821SOL    HW122925   3.810   2.106   6.388 -0.5416  0.7344  0.2997
 3821SOL    HW222926   3.780   2.051   6.517 -0.7586  0.6230 -0.5890
 3822SOL     OW22927   2.155   1.380   0.471 -0.1492  0.3807  0.0355
 3822SOL    HW122928   2.174   1.398   0.379 -0.2820 -1.2256 -0.3129
 3822SOL    HW222929   2.194   1.293   0.483 -0.8997  0.2388  1.4146
 3823SOL     OW22930   0.179   1.801   4.486 -0.0210 -0.4942  0.1865
 3823SOL    HW122931   0.147   1.856   4.557  0.8118 -0.1255  0.2816
 3823SOL    HW222932   0.115   1.730   4.483 -2.2268  1.4894  0.3820
 3824SOL     OW22933   3.774   3.648  12.064 -0.3910 -0.1171 -0.3581
 3824SOL    HW122934   3.790   3.595  12.142 -1.5510 -0.1558 -0.1378
 3824SOL    HW222935   3.689   3.682  12.093 -0.5641 -0.3009 -0.6478
 3825SOL     OW22936   2.912   3.647   2.218 -0.0939  0.4583 -0.3800
 3825SOL    HW122937   2.989   3.654   2.162 -0.4228  2.9247 -0.5374
 3825SOL    HW222938   2.851   3.612   2.153 -1.1148 -0.4227  1.0713
 3826SOL     OW22939   2.949   3.058   4.212 -0.3977  0.6062 -0.3912
 3826SOL    HW122940   3.017   2.993   4.193  1.1512  2.2968 -0.5653
 3826SOL    HW222941   2.867   3.011   4.194 -0.7740  1.4369 -0.8342
 3827SOL     OW22942   1.432   0.266   3.372  0.2902  0.3282 -0.0124
 3827SOL    HW122943   1.478   0.292   3.452  0.7417 -1.1233  0.1987
 3827SOL    HW222944   1.499   0.266   3.304 -0.0264  0.9958 -0.3248
 3828SOL     OW22945   4.268   1.037   2.001  0.5300  0.1695  0.6177
 3828SOL    HW122946   4.200   1.088   1.956  0.0167 -0.6345  0.4796
 3828SOL    HW222947   4.226   1.038   2.087 -0.3769 -0.5141  0.1747
 3829SOL     OW22948   4.208   3.196  16.589  0.4467 -0.1669  0.9133
 3829SOL    HW122949   4.181   3.123  16.534  0.3272  0.2287  0.4433
 3829SOL    HW222950   4.154   3.265  16.549  2.3208  1.6329  1.4549
 3830SOL     OW22951   2.050   3.974   9.031 -0.3920  0.5183 -0.2510
 3830SOL    HW122952   2.006   4.020   8.959 -0.9274 -0.9753 -0.8837
 3830SOL    HW222953   1.976   3.984   9.091 -0.9096 -1.7802 -0.4793
 3831SOL     OW22954   2.893   1.632  15.506  0.0316 -0.2726  0.6207
 3831SOL    HW122955   2.880   1.600  15.596  1.5892 -0.3590  0.8135
 3831SOL    HW222956   2.971   1.684  15.524  0.4849 -0.5560 -0.6020
 3832SOL     OW22957   3.433   1.626   2.205  0.1365 -0.3251  0.6718
 3832SOL    HW122958   3.358   1.659   2.156  0.6299 -2.2701 -1.3532
 3832SOL    HW222959   3.396   1.548   2.245 -0.1400 -0.6601 -0.2423
 3833SOL     OW22960   4.193   1.599  11.284  0.3114 -0.1110 -0.5202
 3833SOL    HW122961   4.208   1.692  11.267  0.9641 -0.1954 -0.4027
 3833SOL    HW222962   4.200   1.588  11.379  2.4477 -0.3637 -0.7083
 3834SOL     OW22963   3.622   0.582   8.396 -0.3315  0.1362 -0.4756
 3834SOL    HW122964   3.708   0.621   8.414 -0.2721 -0.3775  0.3413
 3834SOL    HW222965   3.581   0.645   8.336  0.1239  1.5722  0.7059
 3835SOL     OW22966   3.490   0.265  16.756  0.5068  0.2517  0.5922
 3835SOL    HW122967   3.580   0.295  16.745 -0.4593  2.1398 -2.1565
 3835SOL    HW222968   3.433   0.322  16.704  0.5970 -0.1082  0.1023
 3836SOL     OW22969   1.567   1.924  11.980  0.0813  0.3004  0.9239
 3836SOL    HW122970   1.539   2.014  11.965  0.0077  0.0566 -0.3836
 3836SOL    HW222971   1.526   1.898  12.063  0.5794 -3.6948 -0.1011
 3837SOL     OW22972   4.174   3.647   5.445  0.1392  0.2297 -0.2959
 3837SOL    HW122973   4.214   3.561   5.460 -2.2486 -0.9960 -0.9527
 3837SOL    HW222974   4.199   3.693   5.525  2.2708 -1.6404  0.1132
 3838SOL     OW22975   4.532   3.126   0.018 -0.1751  0.3571 -0.2494
 3838SOL    HW122976   4.489   3.099  17.642  0.7831 -1.0494 -0.2807
 3838SOL    HW222977   4.622   3.099   0.001  0.5541  1.1994  2.2125
 3839SOL     OW22978   2.029   4.056   8.564  0.0718 -0.3218  0.4658
 3839SOL    HW122979   2.120   4.080   8.583  1.2916 -3.9085 -0.9553
 3839SOL    HW222980   1.993   4.145   8.568 -2.6320 -1.4697  0.9006
 3840SOL     OW22981   4.083   0.215  10.291  0.8448 -0.4190 -0.8157
 3840SOL    HW122982   4.095   0.310  10.288 -1.1218 -0.1441  0.1034
 3840SOL    HW222983   4.044   0.207  10.204  0.5495  0.4354 -0.7701
 3841SOL     OW22984   1.279   3.081   5.681  0.2565  0.3262 -0.1678
 3841SOL    HW122985   1.370   3.067   5.707  0.4437 -2.5363 -2.3407
 3841SOL    HW222986   1.299   3.059   5.590  0.3775 -0.7058  0.1068
 3842SOL     OW22987   0.100   3.604   9.920 -0.3087  0.4157 -0.4383
 3842SOL    HW122988   0.045   3.565   9.853 -0.6565  0.3553 -0.1134
 3842SOL    HW222989   0.058   3.689   9.921  1.2559  1.1762  1.5844
 3843SOL     OW22990   3.639   1.673   5.111  0.1273 -0.0785 -0.3084
 3843SOL    HW122991   3.633   1.673   5.207 -1.8005 -1.7455 -0.4351
 3843SOL    HW222992   3.547   1.683   5.088  0.9816  0.9694 -3.2338
 3844SOL     OW22993   4.209   2.750  11.526 -0.0183 -0.6791  0.0787
 3844SOL    HW122994   4.168   2.682  11.579 -1.7823  0.1344 -0.2467
 3844SOL    HW222995   4.274   2.774  11.592  1.0638 -0.1498 -1.1845
 3845SOL     OW22996   1.417   4.014   7.279  0.4112  0.1769  0.3228
 3845SOL    HW122997   1.480   3.999   7.208 -1.1462 -1.5026 -0.7171
 3845SOL    HW222998   1.333   3.984   7.245 -0.5493  2.2031  0.9140
 3846SOL     OW22999   2.061   3.592   8.338  0.0416  0.3134  0.7379
 3846SOL    HW123000   2.105   3.608   8.422 -0.5678  2.2031  0.7042
 3846SOL    HW223001   2.010   3.672   8.325  0.1430  0.2759  0.1100
 3847SOL     OW23002   0.087   3.646  10.471  0.3980  0.5168 -0.7688
 3847SOL    HW123003   0.029   3.718  10.496 -0.0051  0.2428 -0.9051
 3847SOL    HW223004   0.162   3.641  10.531 -0.6954 -0.1979  0.5531
 3848SOL     OW23005   3.958   4.254   5.655 -0.2213  0.5451  0.0393
 3848SOL    HW123006   3.926   4.202   5.729 -1.7900  1.2395 -0.1580
 3848SOL    HW223007   3.892   4.323   5.648 -2.4711 -1.7992 -1.6041
 3849SOL     OW23008   0.123   1.725  13.072  0.1739  0.1446 -0.0166
 3849SOL    HW123009   0.215   1.732  13.099  0.3959 -3.8889  0.2822
 3849SOL    HW223010   0.141   1.667  12.998 -2.7203  0.4185 -0.9163
 3850SOL     OW23011   0.703   0.085   2.700  0.2753  0.4564 -0.2165
 3850SOL    HW123012   0.725   0.087   2.793  1.2986 -0.2047 -0.4473
 3850SOL    HW223013   0.684   0.178   2.694 -0.5450  0.4374  1.8637
 3851SOL     OW23014   4.375   4.674   2.582  0.2801 -0.1750 -0.5010
 3851SOL    HW123015   4.405   4.658   2.493  2.4071 -2.3243  0.6149
 3851SOL    HW223016   4.434   0.023   2.596 -0.6751  0.3858  0.5238
 3852SOL     OW23017   0.374   1.402   5.646  0.0968 -0.4495 -0.1908
 3852SOL    HW123018   0.305   1.466   5.628  2.9950  2.4448 -1.0132
 3852SOL    HW223019   0.415   1.388   5.561 -0.5972  0.4533 -0.6821
 3853SOL     OW23020   3.296   2.066  14.046  0.0055  0.3157  0.1018
 3853SOL    HW123021   3.279   1.999  14.112  0.2126 -0.9654 -1.1579
 3853SOL    HW223022   3.237   2.039  13.975  1.4660 -1.6724 -0.3281
 3854SOL     OW23023   3.192   4.593   7.512  0.0292 -1.0309 -0.3622
 3854SOL    HW123024   3.189   4.633   7.599  0.1065 -1.9695  0.0771
 3854SOL    HW223025   3.111   4.629   7.475  0.6479  0.9755  0.2180
 3855SOL     OW23026   3.386   4.354   9.850 -0.7017  0.1809  0.2847
 3855SOL    HW123027   3.447   4.378   9.919 -0.5410 -2.1361  0.9595
 3855SOL    HW223028   3.309   4.353   9.908 -0.0968  1.6228  1.1210
 3856SOL     OW23029   0.555   1.948  12.631 -0.2668 -0.2013 -0.3706
 3856SOL    HW123030   0.642   1.920  12.602 -1.1818 -1.9429 -1.4429
 3856SOL    HW223031   0.520   1.983  12.549  0.5168  0.3269 -0.4840
 3857SOL     OW23032   3.028   1.024  16.994 -0.1604 -0.1631 -0.3707
 3857SOL    HW123033   2.979   1.095  17.036  1.1891  0.4584  0.1605
 3857SOL    HW223034   2.984   0.946  17.028  1.1681 -0.6102  0.3374
 3858SOL     OW23035   0.704   2.267   3.967  0.5877  0.2870  0.0819
 3858SOL    HW123036   0.702   2.186   3.918  0.7940  0.0440  0.4750
 3858SOL    HW223037   0.647   2.254   4.043  0.6535  1.1003  0.2775
 3859SOL     OW23038   0.562   0.700   6.740 -0.2265  0.4368  0.0372
 3859SOL    HW123039   0.472   0.692   6.709  0.0582  0.5600 -0.8074
 3859SOL    HW223040   0.557   0.624   6.798  1.4107 -0.4816 -0.9925
 3860SOL     OW23041   4.389   0.232   6.769 -0.4986  0.6675 -0.3951
 3860SOL    HW123042   4.387   0.188   6.854  4.5272  2.1789  0.5115
 3860SOL    HW223043   4.359   0.164   6.709  1.1134 -0.6419  0.2874
 3861SOL     OW23044   1.746   0.714  12.002  0.1903  0.0267 -0.0044
 3861SOL    HW123045   1.762   0.622  12.024 -0.2568 -0.3424 -1.2161
 3861SOL    HW223046   1.729   0.752  12.088  0.1229  0.7695 -0.3512
 3862SOL     OW23047   3.916   3.567   5.663  0.0022 -0.7156  0.2998
 3862SOL    HW123048   3.987   3.549   5.724  1.9857 -0.2571 -1.8706
 3862SOL    HW223049   3.964   3.535   5.587 -1.1436 -0.6254 -0.4608
 3863SOL     OW23050   1.738   0.458   8.992 -0.2651 -0.1143  0.2506
 3863SOL    HW123051   1.764   0.448   9.084 -0.6538 -1.3563  0.2240
 3863SOL    HW223052   1.821   0.430   8.953 -0.2506  0.1853  0.0698
 3864SOL     OW23053   0.184   1.925  16.034  0.1612  0.3857  0.1954
 3864SOL    HW123054   0.161   2.013  16.003  0.6336 -0.0156 -1.2920
 3864SOL    HW223055   0.188   1.949  16.126  0.2060  0.9655  0.0449
 3865SOL     OW23056   1.466   3.879   5.697  0.6151  0.3658  0.2285
 3865SOL    HW123057   1.505   3.794   5.676 -0.3436 -0.3397  1.3116
 3865SOL    HW223058   1.423   3.848   5.777  0.2950  0.0285 -0.0681
 3866SOL     OW23059   4.143   1.705   5.218 -0.6337  0.2786  0.1836
 3866SOL    HW123060   4.073   1.729   5.279 -1.5265 -2.1219  0.0867
 3866SOL    HW223061   4.120   1.744   5.134 -0.1978  0.2328  0.0446
 3867SOL     OW23062   2.378   4.404   5.118 -0.1691 -0.4376 -0.1215
 3867SOL    HW123063   2.411   4.320   5.084  1.3596  0.6289 -1.2857
 3867SOL    HW223064   2.379   4.457   5.039 -0.4267 -0.4333 -0.1194
 3868SOL     OW23065   0.393   1.947   4.330  0.0127  0.2102 -0.0309
 3868SOL    HW123066   0.335   1.925   4.403 -2.0606 -2.4025 -2.4410
 3868SOL    HW223067   0.333   1.939   4.256 -0.8630 -2.7051  0.9903
 3869SOL     OW23068   3.355   1.531   7.492 -0.0498 -0.3957 -0.6074
 3869SOL    HW123069   3.271   1.571   7.516 -0.4144 -2.1692  1.0692
 3869SOL    HW223070   3.374   1.576   7.409 -2.5692 -0.4454 -1.2172
 3870SOL     OW23071   4.144   1.446  16.360  0.4237 -0.0514 -0.4451
 3870SOL    HW123072   4.166   1.464  16.451  1.2820  2.6875 -1.1982
 3870SOL    HW223073   4.227   1.460  16.314 -0.5167  2.8164 -1.2739
 3871SOL     OW23074   1.179   0.410   3.419  0.0796 -0.3923  0.2545
 3871SOL    HW123075   1.222   0.463   3.486  1.2690 -2.0079  0.7816
 3871SOL    HW223076   1.255   0.360   3.390 -0.7584 -1.0718 -0.7865
 3872SOL     OW23077   2.131   4.392   4.459  0.2642  0.4588  0.1772
 3872SOL    HW123078   2.074   4.406   4.383 -0.2396  1.0607  0.6668
 3872SOL    HW223079   2.103   4.467   4.512  1.2709  2.1327 -1.6745
 3873SOL     OW23080   1.482   1.368  13.542  0.2709  0.3566 -0.1475
 3873SOL    HW123081   1.398   1.346  13.502  0.0803  1.3782 -0.3175
 3873SOL    HW223082   1.470   1.463  13.550  0.7229  0.2960  1.1428
 3874SOL     OW23083   2.943   2.403   3.036 -0.0442  1.2111  0.3498
 3874SOL    HW123084   3.026   2.366   3.005 -0.8835  0.6635 -1.2201
 3874SOL    HW223085   2.883   2.341   2.996 -0.0176 -0.5809  3.1023
 3875SOL     OW23086   0.537   1.214   8.513 -0.1940 -0.0866 -0.2436
 3875SOL    HW123087   0.554   1.126   8.546 -0.0320  0.3942  0.9572
 3875SOL    HW223088   0.625   1.249   8.499 -0.2566  0.5271  0.9311
 3876SOL     OW23089   3.169   2.152   6.510  0.7457  0.0647  0.0789
 3876SOL    HW123090   3.195   2.218   6.446 -0.8978 -1.5325 -2.2397
 3876SOL    HW223091   3.077   2.174   6.527  0.7642  0.7940 -0.7758
 3877SOL     OW23092   1.233   4.430   2.941  0.5476 -0.7023 -0.6936
 3877SOL    HW123093   1.272   4.517   2.946  1.4586 -1.2037  0.8714
 3877SOL    HW223094   1.207   4.408   3.031  1.0679  0.6844 -0.2180
 3878SOL     OW23095   0.766   0.696  17.325 -0.1269 -0.0742 -0.0986
 3878SOL    HW123096   0.841   0.681  17.269 -2.5760  0.6863 -3.5870
 3878SOL    HW223097   0.733   0.783  17.301  2.0909  0.3526 -1.5198
 3879SOL     OW23098   0.249   0.172   6.234  0.6763 -0.9014  0.5693
 3879SOL    HW123099   0.245   0.107   6.304  2.7935 -2.4985 -0.8091
 3879SOL    HW223100   0.294   0.242   6.280 -0.3731 -0.7756  1.4113
 3880SOL     OW23101   4.382   4.679   6.691  0.2065  0.1850 -0.2237
 3880SOL    HW123102   4.478   4.681   6.695  0.2580  2.5141 -2.3041
 3880SOL    HW223103   4.370   4.641   6.604 -0.3987 -0.0035 -0.0564
 3881SOL     OW23104   1.249   3.996   6.667 -0.3683  0.4912 -0.1841
 3881SOL    HW123105   1.326   3.951   6.631 -0.5200  1.7546 -2.0737
 3881SOL    HW223106   1.222   4.041   6.587  1.0126 -0.4407 -1.1802
 3882SOL     OW23107   1.580   3.307   2.688 -0.0082 -0.2974 -0.3355
 3882SOL    HW123108   1.636   3.268   2.756  0.8775  1.8971  0.2071
 3882SOL    HW223109   1.493   3.286   2.721  0.9107 -2.8156  0.5069
 3883SOL     OW23110   0.291   4.516   3.739 -0.0086  0.1393  0.2038
 3883SOL    HW123111   0.288   4.599   3.690 -0.7337 -0.8348 -1.3969
 3883SOL    HW223112   0.359   4.467   3.693  1.0000  0.3327  1.4692
 3884SOL     OW23113   1.754   3.048   7.951  0.3510  0.6028  0.0736
 3884SOL    HW123114   1.725   2.964   7.986  0.5450  0.3292 -0.4209
 3884SOL    HW223115   1.817   3.075   8.018 -0.0583  0.7678  0.3913
 3885SOL     OW23116   3.677   1.457  13.310 -0.0425 -0.1655 -0.3935
 3885SOL    HW123117   3.655   1.389  13.246 -0.5650 -0.5006  0.1516
 3885SOL    HW223118   3.733   1.508  13.251 -0.1229  0.3913  0.0096
 3886SOL     OW23119   2.733   4.561  10.814 -0.4260 -0.3273 -0.0283
 3886SOL    HW123120   2.687   4.572  10.897 -0.4552  1.6783 -0.2947
 3886SOL    HW223121   2.822   4.553  10.847 -0.8145 -1.3408  0.7704
 3887SOL     OW23122   2.338   0.974  16.959 -0.4737  0.2691 -0.0615
 3887SOL    HW123123   2.418   0.991  17.009 -0.5995 -1.9302  0.8712
 3887SOL    HW223124   2.344   0.881  16.935 -1.1897  0.1178  0.3790
 3888SOL     OW23125   0.601   1.223   0.015  1.4976 -0.0838  0.2587
 3888SOL    HW123126   0.531   1.278   0.050  2.7341  1.9468 -0.4647
 3888SOL    HW223127   0.621   1.176   0.096  0.4252 -1.7800 -0.4514
 3889SOL     OW23128   1.515   0.052   3.128 -0.4140  0.1413 -0.2377
 3889SOL    HW123129   1.525   0.147   3.134 -1.3445  0.2964 -1.1290
 3889SOL    HW223130   1.558   0.036   3.044 -2.8379 -0.4063 -1.3793
 3890SOL     OW23131   4.688   3.809   5.233  0.7870 -0.3877  0.2470
 3890SOL    HW123132   0.012   3.740   5.190 -2.0034 -0.7752 -2.3708
 3890SOL    HW223133   4.615   3.766   5.279  0.8186 -1.4540 -0.7117
 3891SOL     OW23134   3.560   3.998  10.006  0.1922 -0.4053 -0.5065
 3891SOL    HW123135   3.495   3.927  10.004  0.3601 -0.6290  1.3367
 3891SOL    HW223136   3.581   3.997  10.100  0.6448 -0.4830 -0.6101
 3892SOL     OW23137   3.167   2.069   4.250  0.7170 -0.0397 -0.0889
 3892SOL    HW123138   3.086   2.081   4.201  1.7371  2.2243 -1.2331
 3892SOL    HW223139   3.173   2.152   4.296 -1.1299  0.2638 -0.4192
 3893SOL     OW23140   3.344   1.717   3.207  0.3939 -0.3357 -0.0907
 3893SOL    HW123141   3.318   1.741   3.118 -0.9731 -1.7796 -0.0895
 3893SOL    HW223142   3.377   1.800   3.241 -2.2117  1.0036 -0.7946
 3894SOL     OW23143   1.921   3.093   8.762  0.1182 -0.2784 -0.0144
 3894SOL    HW123144   1.989   3.076   8.697  0.8859 -1.2247  1.0314
 3894SOL    HW223145   1.971   3.051   8.833 -0.5177  0.2560  0.7480
 3895SOL     OW23146   0.566   0.034   1.778 -0.2354  0.1916  0.0464
 3895SOL    HW123147   0.527   0.107   1.825 -2.3607  0.0172 -1.4159
 3895SOL    HW223148   0.620   0.085   1.718 -0.0016 -0.6310 -0.4480
 3896SOL     OW23149   0.475   1.923   7.603  0.0149  0.1214 -0.7716
 3896SOL    HW123150   0.513   1.978   7.672  2.5831 -0.3994 -1.7483
 3896SOL    HW223151   0.428   1.990   7.554  0.7966  0.4160 -1.1151
 3897SOL     OW23152   0.900   4.374   8.508  0.3055  0.4025 -0.3945
 3897SOL    HW123153   0.938   4.305   8.453 -1.3652 -0.0231 -1.0025
 3897SOL    HW223154   0.821   4.324   8.526  0.0071  0.8178 -0.5405
 3898SOL     OW23155   0.223   2.592   5.719  0.1295 -0.3348  0.0887
 3898SOL    HW123156   0.128   2.583   5.712  0.4746 -3.0440 -1.3931
 3898SOL    HW223157   0.245   2.554   5.634  0.1945  0.1973 -0.1337
 3899SOL     OW23158   2.350   0.446   4.667 -0.2080 -0.0692  0.9572
 3899SOL    HW123159   2.434   0.409   4.694  0.7167  0.2190 -1.4399
 3899SOL    HW223160   2.362   0.540   4.648 -0.2602 -0.0668  0.9354
 3900SOL     OW23161   2.765   4.222  10.971 -0.1738 -0.5912  0.1418
 3900SOL    HW123162   2.738   4.309  10.940  1.3883 -0.0034  0.4182
 3900SOL    HW223163   2.859   4.217  10.953  0.0553 -3.7476  2.4241
 3901SOL     OW23164   3.255   4.115   9.226 -0.1179 -0.7245 -0.4306
 3901SOL    HW123165   3.197   4.121   9.149 -0.2966  2.0557 -0.0920
 3901SOL    HW223166   3.343   4.102   9.192  0.6722  1.6379  0.7214
 3902SOL     OW23167   1.262   4.593   1.067 -0.4819  0.4966 -0.7226
 3902SOL    HW123168   1.256   4.498   1.073  5.2411  0.1282 -0.9989
 3902SOL    HW223169   1.341   4.599   1.122  0.4846  2.6338 -2.3650
 3903SOL     OW23170   3.143   0.581   3.091  0.0221  0.3599  0.1920
 3903SOL    HW123171   3.180   0.545   3.172 -1.8771 -2.0004  0.0360
 3903SOL    HW223172   3.152   0.675   3.101  2.1804 -0.1182  2.8989
 3904SOL     OW23173   1.246   3.738   0.191 -0.0992 -0.6547  0.1703
 3904SOL    HW123174   1.228   3.656   0.237 -0.0050 -0.6724  0.1768
 3904SOL    HW223175   1.244   3.704   0.101  0.2724  0.7562 -0.3749
 3905SOL     OW23176   0.888   4.560   1.059 -0.1438  0.1832 -0.0564
 3905SOL    HW123177   0.912   4.588   0.971 -0.5248  1.4371  0.2336
 3905SOL    HW223178   0.816   4.501   1.040 -0.5790  0.7920 -0.3056
 3906SOL     OW23179   0.855   2.196  12.182  0.2337 -0.2069  0.7731
 3906SOL    HW123180   0.796   2.260  12.223 -2.3583 -0.0315 -3.2177
 3906SOL    HW223181   0.783   2.138  12.156  0.6472 -0.1088 -0.5603
 3907SOL     OW23182   2.549   0.158   9.349  0.1367 -0.6960  0.0285
 3907SOL    HW123183   2.641   0.131   9.345  0.4487  0.5189 -0.8408
 3907SOL    HW223184   2.558   0.252   9.334  1.2391 -0.4414  2.1926
 3908SOL     OW23185   0.259   0.169   7.480  0.1598 -0.2339  0.0283
 3908SOL    HW123186   0.210   0.207   7.553  1.7033 -0.6518  1.2782
 3908SOL    HW223187   0.341   0.219   7.486 -0.9107  1.3794  1.0536
 3909SOL     OW23188   3.008   1.658   8.460 -0.2299 -0.2668 -0.1066
 3909SOL    HW123189   3.066   1.693   8.392 -1.3879 -1.0214 -1.4734
 3909SOL    HW223190   2.941   1.615   8.408 -0.9839  1.3928 -0.5096
 3910SOL     OW23191   2.265   4.141   6.007  0.1027 -0.5197 -0.7239
 3910SOL    HW123192   2.312   4.171   6.085  0.0924 -0.5877 -0.6915
 3910SOL    HW223193   2.216   4.061   6.026  1.4233 -1.3704 -0.8731
 3911SOL     OW23194   0.586   3.757   4.077 -0.2217 -0.4246 -0.1953
 3911SOL    HW123195   0.644   3.733   4.005  1.0236 -0.3627  0.7975
 3911SOL    HW223196   0.632   3.724   4.154  0.0371  0.0206 -0.1613
 3912SOL     OW23197   4.214   0.634   3.835 -0.1167  0.2395  0.2851
 3912SOL    HW123198   4.157   0.650   3.910  0.3467  1.2556  0.4217
 3912SOL    HW223199   4.273   0.709   3.837  0.0514  0.0761  1.5294
 3913SOL     OW23200   0.336   3.483   4.688  0.3267  0.0438  0.1474
 3913SOL    HW123201   0.288   3.534   4.624 -0.2843  0.0190  0.5880
 3913SOL    HW223202   0.423   3.524   4.687  0.8606 -1.1845 -2.9372
 3914SOL     OW23203   1.002   0.529  11.325  0.0099  0.2573 -0.4213
 3914SOL    HW123204   0.922   0.579  11.308 -0.3151 -0.5315 -1.2284
 3914SOL    HW223205   1.017   0.488  11.240  0.9108  1.6144 -0.9172
 3915SOL     OW23206   3.527   4.211   6.569  0.1812 -0.1160  0.0283
 3915SOL    HW123207   3.469   4.269   6.618  0.9072  1.4064 -0.9343
 3915SOL    HW223208   3.492   4.122   6.572 -1.1476  0.4365  0.7063
 3916SOL     OW23209   0.371   0.198   8.077 -0.5849  0.5217  0.5005
 3916SOL    HW123210   0.444   0.136   8.085 -1.1899  0.1216  2.6813
 3916SOL    HW223211   0.293   0.157   8.114  0.9633 -1.6791  1.3568
 3917SOL     OW23212   2.801   3.323   7.986 -0.4674 -0.4605  0.1908
 3917SOL    HW123213   2.772   3.311   8.077  2.1897  4.2993  1.6676
 3917SOL    HW223214   2.886   3.280   7.975 -0.7814 -0.9431 -0.3452
 3918SOL     OW23215   2.437   3.658   9.533  0.9419 -0.3290  0.0484
 3918SOL    HW123216   2.481   3.661   9.618  0.2773  1.3408  0.3276
 3918SOL    HW223217   2.363   3.604   9.559  1.0888 -1.6424 -2.2705
 3919SOL     OW23218   1.303   2.152   3.097 -0.3148  0.1720 -0.1293
 3919SOL    HW123219   1.227   2.112   3.140 -1.7917  1.5793 -1.4034
 3919SOL    HW223220   1.271   2.135   3.009  0.7270 -0.0995 -0.4511
 3920SOL     OW23221   1.932   4.423   4.180  0.4074  0.0104 -0.2973
 3920SOL    HW123222   1.912   4.517   4.185  1.0279  0.1356 -0.2013
 3920SOL    HW223223   2.017   4.424   4.135  0.7367  2.3627  0.3559
 3921SOL     OW23224   1.182   2.081   9.548  0.0605  0.5130 -0.0085
 3921SOL    HW123225   1.212   2.034   9.470  1.5794  1.4335  0.0311
 3921SOL    HW223226   1.269   2.116   9.565  0.6240 -0.6979 -0.3906
 3922SOL     OW23227   3.894   2.484   5.796 -0.1114 -0.1207  0.2202
 3922SOL    HW123228   3.931   2.563   5.759 -0.3382 -0.5991 -1.0275
 3922SOL    HW223229   3.873   2.432   5.718 -0.8647  1.2288 -0.4814
 3923SOL     OW23230   1.211   2.303   4.074 -0.3053 -0.3530 -0.1712
 3923SOL    HW123231   1.271   2.280   4.144 -0.9780 -1.6668 -0.0292
 3923SOL    HW223232   1.256   2.268   3.997  2.1527  2.3580  0.0449
 3924SOL     OW23233   3.908   3.957   5.305 -0.4650  0.1432  0.3137
 3924SOL    HW123234   3.949   4.044   5.305 -0.1395 -0.0062 -1.0198
 3924SOL    HW223235   3.862   3.961   5.389 -2.1692  2.1215 -0.7219
 3925SOL     OW23236   2.909   3.470   9.327 -0.0712  0.3304  0.1693
 3925SOL    HW123237   2.937   3.547   9.276 -0.6141  0.3888 -0.0418
 3925SOL    HW223238   2.827   3.505   9.363 -0.5483  0.1427 -0.7311
 3926SOL     OW23239   1.129   4.134  13.532 -0.6745 -0.1221 -0.0874
 3926SOL    HW123240   1.144   4.227  13.552 -0.0385 -0.0416 -0.9251
 3926SOL    HW223241   1.034   4.138  13.535 -0.8010 -2.3832 -1.4140
 3927SOL     OW23242   1.718   2.691   9.328  0.1588  0.8004  0.4274
 3927SOL    HW123243   1.713   2.597   9.347 -0.0453  1.1630  2.1517
 3927SOL    HW223244   1.780   2.726   9.393  0.0454  1.5157  0.1473
 3928SOL     OW23245   3.385   4.008   3.967 -0.1486 -0.2944 -0.3465
 3928SOL    HW123246   3.305   4.037   4.010 -0.6545  0.6670 -1.9193
 3928SOL    HW223247   3.350   4.011   3.878  0.7933 -1.0868 -0.7370
 3929SOL     OW23248   4.725   1.955  13.130  0.3452 -0.6926 -0.6418
 3929SOL    HW123249   0.031   1.865  13.119 -0.2824 -1.2869  2.2525
 3929SOL    HW223250   4.629   1.953  13.123  0.3631  1.9529 -1.3902
 3930SOL     OW23251   0.230   4.160   4.442 -0.2283  0.0398  0.0104
 3930SOL    HW123252   0.142   4.175   4.477 -0.2166  1.0489 -0.3955
 3930SOL    HW223253   0.213   4.154   4.348  1.8058  0.6449 -0.3998
 3931SOL     OW23254   2.913   0.470   7.972  0.0047 -0.0732  0.4331
 3931SOL    HW123255   2.863   0.551   7.960  0.7267  0.1896 -0.7647
 3931SOL    HW223256   2.970   0.486   8.047 -0.0007  1.5804  0.0947
 3932SOL     OW23257   3.168   0.651   2.800  0.1426 -0.1201  0.1416
 3932SOL    HW123258   3.144   0.617   2.887 -0.6215  0.4858  0.1705
 3932SOL    HW223259   3.222   0.580   2.767  0.0323 -0.2668  0.2749
 3933SOL     OW23260   1.321   2.706   5.234 -0.9151  0.0926 -0.1547
 3933SOL    HW123261   1.395   2.723   5.174 -0.0478 -1.4557  0.4886
 3933SOL    HW223262   1.312   2.801   5.247  0.0659  0.2728 -0.7482
 3934SOL     OW23263   4.051   1.385  11.520 -0.3062 -0.3135  0.1457
 3934SOL    HW123264   3.962   1.407  11.545 -0.1260  1.7132 -0.9595
 3934SOL    HW223265   4.098   1.467  11.534 -0.4332 -0.6463  2.5142
 3935SOL     OW23266   1.774   1.606   4.788  0.1152 -0.8485 -0.4551
 3935SOL    HW123267   1.748   1.542   4.722  1.2675 -0.8416 -0.9160
 3935SOL    HW223268   1.716   1.575   4.858  0.6717 -1.7932 -0.4087
 3936SOL     OW23269   0.873   1.190   9.199 -0.1534 -0.2028  0.0085
 3936SOL    HW123270   0.956   1.236   9.188 -0.9497  1.1104 -0.5247
 3936SOL    HW223271   0.825   1.268   9.226  0.7754  0.2278  0.4061
 3937SOL     OW23272   1.046   3.675   1.351 -0.2159  0.1659 -0.1550
 3937SOL    HW123273   1.020   3.762   1.380 -2.1289  0.9370 -4.2030
 3937SOL    HW223274   0.962   3.635   1.328 -1.0341  1.5293  0.4847
 3938SOL     OW23275   0.348   2.435   4.605  0.1296 -0.5054 -0.3353
 3938SOL    HW123276   0.443   2.437   4.603  0.0911  0.1902 -1.3528
 3938SOL    HW223277   0.321   2.425   4.514  3.3687  1.4493 -1.5257
 3939SOL     OW23278   1.518   1.492  12.149 -0.1611  0.1260  0.2330
 3939SOL    HW123279   1.452   1.424  12.133 -0.4761  0.9677 -1.9450
 3939SOL    HW223280   1.562   1.486  12.064  0.4937  1.2591  0.5001
 3940SOL     OW23281   2.789   1.523   9.921 -0.5255  0.3095 -0.4390
 3940SOL    HW123282   2.871   1.532   9.872 -0.0005 -2.6854 -0.0947
 3940SOL    HW223283   2.731   1.498   9.849  0.9238  0.3694 -1.6293
 3941SOL     OW23284   3.964   3.967   7.451  0.3557  0.0264 -0.1374
 3941SOL    HW123285   3.998   3.911   7.520  1.7340  0.0608 -0.7841
 3941SOL    HW223286   3.873   3.937   7.445  0.4670 -0.0558 -1.5312
 3942SOL     OW23287   2.907   3.847   8.632 -0.1751  0.1919 -0.2399
 3942SOL    HW123288   2.812   3.845   8.647  0.3833  0.1042  3.1193
 3942SOL    HW223289   2.926   3.755   8.613 -1.9250  0.3459 -2.8122
 3943SOL     OW23290   2.469   4.501  15.510 -0.0255  0.2172  0.9823
 3943SOL    HW123291   2.438   4.563  15.445  0.8955 -1.2046 -0.8353
 3943SOL    HW223292   2.444   4.543  15.592  0.2106  3.2033 -0.4887
 3944SOL     OW23293   1.884   3.415   4.000 -0.3480  0.4404 -0.3351
 3944SOL    HW123294   1.902   3.488   4.060  1.5861  0.0556 -0.4243
 3944SOL    HW223295   1.939   3.446   3.928 -0.7777 -0.0042 -0.8520
 3945SOL     OW23296   1.344   2.118  15.232  0.2084 -0.0989 -0.6221
 3945SOL    HW123297   1.419   2.073  15.192  0.9637  1.6414 -1.1610
 3945SOL    HW223298   1.338   2.187  15.166 -1.8203  2.0631  1.8584
 3946SOL     OW23299   1.378   4.085   2.966 -0.8063 -0.7792  0.0477
 3946SOL    HW123300   1.348   3.998   2.991 -0.7122 -0.9015 -0.2584
 3946SOL    HW223301   1.376   4.075   2.871  1.9315  2.3179 -0.3839
 3947SOL     OW23302   1.292   3.654  15.908 -0.1503 -0.6279  0.2503
 3947SOL    HW123303   1.238   3.605  15.846  0.0948  0.9329 -1.1826
 3947SOL    HW223304   1.240   3.649  15.988 -1.1635 -0.4636 -0.4022
 3948SOL     OW23305   4.040   0.749  14.152  0.0416 -0.3561  0.1858
 3948SOL    HW123306   4.077   0.804  14.221  0.2036 -0.3707  0.1119
 3948SOL    HW223307   4.029   0.815  14.083  1.0248 -0.1194  0.2503
 3949SOL     OW23308   2.911   3.819   5.894  0.4252  0.3356 -0.5573
 3949SOL    HW123309   2.816   3.832   5.899  0.1676 -1.3277 -1.1660
 3949SOL    HW223310   2.925   3.857   5.808  1.4633  1.3864  0.0871
 3950SOL     OW23311   0.977   2.663  11.281 -0.6204  0.1441  0.4014
 3950SOL    HW123312   0.915   2.637  11.213  1.2572  1.8824 -1.9428
 3950SOL    HW223313   1.002   2.577  11.316  2.5178  0.8115 -0.2579
 3951SOL     OW23314   3.801   2.896  13.255  1.0414 -0.4326  0.1254
 3951SOL    HW123315   3.861   2.967  13.235  0.5572  0.3050  1.3077
 3951SOL    HW223316   3.756   2.940  13.327 -1.2610 -1.9690 -0.3335
 3952SOL     OW23317   4.189   3.459  10.494 -0.0872 -0.4178 -0.0717
 3952SOL    HW123318   4.161   3.541  10.536  0.5601 -0.0125 -0.4413
 3952SOL    HW223319   4.220   3.404  10.566 -2.2326 -0.2420  0.9835
 3953SOL     OW23320   0.952   4.290  15.379  0.4106  0.6852 -0.3678
 3953SOL    HW123321   0.956   4.205  15.334  2.0218  0.9677 -0.7657
 3953SOL    HW223322   0.981   4.261  15.465 -0.5821  1.0767  0.0984
 3954SOL     OW23323   2.809   1.062  16.560  0.2048  0.8861 -0.9345
 3954SOL    HW123324   2.870   0.993  16.534 -0.8730 -0.2332 -0.5194
 3954SOL    HW223325   2.864   1.135  16.589 -0.6213  0.9313  0.5134
 3955SOL     OW23326   1.449   0.352   8.414  0.1889  0.2344  0.3860
 3955SOL    HW123327   1.518   0.351   8.348 -1.8463 -0.2657 -1.7371
 3955SOL    HW223328   1.391   0.410   8.365 -0.1748 -1.4701 -1.2288
 3956SOL     OW23329   0.595   1.073   1.082 -0.0062 -0.3154  0.1162
 3956SOL    HW123330   0.602   0.998   1.023 -0.6262  0.5759 -1.0947
 3956SOL    HW223331   0.618   1.136   1.014 -1.2877 -0.2409 -0.2499
 3957SOL     OW23332   4.392   0.193  12.809 -0.2129 -0.5815 -0.6075
 3957SOL    HW123333   4.478   0.159  12.783  0.3646  0.3085  0.1237
 3957SOL    HW223334   4.411   0.262  12.873  0.4900 -1.1111 -0.2395
 3958SOL     OW23335   3.025   1.465   1.198  0.9055 -0.1951  0.1687
 3958SOL    HW123336   3.094   1.441   1.136 -1.1154  0.3140 -2.2897
 3958SOL    HW223337   2.982   1.531   1.142  1.3853 -0.8174 -0.9451
 3959SOL     OW23338   3.265   0.074   4.960  0.2339 -0.1892  0.3295
 3959SOL    HW123339   3.262   0.106   5.050 -0.7569  1.0822 -0.1640
 3959SOL    HW223340   3.188   0.018   4.967  0.5407 -0.9147 -1.9680
 3960SOL     OW23341   4.118   4.496   8.360  0.0528  0.2172  0.3954
 3960SOL    HW123342   4.131   4.496   8.266  0.5591 -0.6582  0.4663
 3960SOL    HW223343   4.032   4.457   8.380  0.1877 -0.6921 -0.8337
 3961SOL     OW23344   0.678   2.326   7.485 -0.1951  0.2549 -0.3700
 3961SOL    HW123345   0.614   2.346   7.553  1.4474  0.2193  1.1760
 3961SOL    HW223346   0.722   2.411   7.476  1.3883 -0.5173  0.1255
 3962SOL     OW23347   0.243   1.132  13.164  0.8904  0.3321 -0.3431
 3962SOL    HW123348   0.262   1.213  13.211  1.2790  0.2396 -0.3400
 3962SOL    HW223349   0.238   1.168  13.076  0.8986 -0.2605 -0.5817
 3963SOL     OW23350   1.668   0.154  11.308  0.7496 -0.0805 -0.9232
 3963SOL    HW123351   1.644   0.062  11.309  0.9913 -0.1425 -0.7247
 3963SOL    HW223352   1.611   0.195  11.243 -0.2940  0.7818  0.5357
 3964SOL     OW23353   3.588   1.368   8.403  0.2580 -0.6554 -0.1974
 3964SOL    HW123354   3.635   1.437   8.356 -0.1858  1.1451  2.0482
 3964SOL    HW223355   3.529   1.423   8.454  1.7587  0.3063  0.4975
 3965SOL     OW23356   1.599   3.342   2.106 -0.3015  0.0357  0.2208
 3965SOL    HW123357   1.570   3.393   2.181  0.2508 -0.4858  0.7806
 3965SOL    HW223358   1.526   3.281   2.097 -1.5417  1.5459  0.0277
 3966SOL     OW23359   3.924   0.609   2.346 -0.5820 -0.3521 -0.0437
 3966SOL    HW123360   4.002   0.664   2.354 -2.8584  2.8659 -0.1952
 3966SOL    HW223361   3.891   0.626   2.258 -1.6996  1.4845  0.7256
 3967SOL     OW23362   3.695   4.425   4.594 -1.0373  0.4188 -0.5295
 3967SOL    HW123363   3.782   4.415   4.634 -1.8248 -2.4980  0.4717
 3967SOL    HW223364   3.718   4.393   4.507  0.8088 -0.4001  0.2674
 3968SOL     OW23365   3.409   1.738  12.048 -0.0767  0.4818  0.1074
 3968SOL    HW123366   3.404   1.704  11.959 -1.0692  1.0237 -0.0360
 3968SOL    HW223367   3.392   1.829  12.025  2.0407  1.2952  1.7241
 3969SOL     OW23368   3.661   2.517   5.923 -0.0445 -0.2758 -0.4805
 3969SOL    HW123369   3.661   2.467   6.004 -0.3113  1.0861  0.3686
 3969SOL    HW223370   3.747   2.497   5.886  1.0583  0.7769  1.5070
 3970SOL     OW23371   2.187   1.961   3.131  0.1741  0.0617  0.2466
 3970SOL    HW123372   2.129   1.901   3.177  2.0496 -0.6849  1.6248
 3970SOL    HW223373   2.204   2.033   3.191  1.3901  0.9090 -1.0883
 3971SOL     OW23374   2.744   4.312   6.785 -0.6642 -0.1170 -0.3271
 3971SOL    HW123375   2.702   4.228   6.765  1.9959 -1.7064  0.8837
 3971SOL    HW223376   2.829   4.275   6.810 -0.0129  0.4287 -1.6990
 3972SOL     OW23377   3.895   1.564   7.313 -0.0717 -0.2548  0.4946
 3972SOL    HW123378   3.944   1.566   7.395  0.0177  1.6681  0.3962
 3972SOL    HW223379   3.810   1.587   7.351 -0.3845  1.5200 -1.2817
 3973SOL     OW23380   1.642   3.953   3.020  0.3072 -0.1966  0.0101
 3973SOL    HW123381   1.632   4.023   2.956  0.2423 -0.5953 -0.4093
 3973SOL    HW223382   1.670   3.880   2.965 -0.5704 -0.9801  0.6039
 3974SOL     OW23383   0.395   3.799   6.117  0.3079  0.2486 -0.1199
 3974SOL    HW123384   0.400   3.755   6.031  1.4862 -1.0423  0.5978
 3974SOL    HW223385   0.371   3.730   6.178  1.0316  0.7177  0.6832
 3975SOL     OW23386   0.376   3.152  13.482  0.3063 -0.1783  0.6009
 3975SOL    HW123387   0.386   3.063  13.517  1.2803 -0.4959 -0.4470
 3975SOL    HW223388   0.456   3.195  13.513  0.4477 -2.4884  3.4766
 3976SOL     OW23389   0.947   1.515   7.711  0.2612  0.2045  0.6672
 3976SOL    HW123390   0.961   1.443   7.773 -1.5649 -0.3558  0.4186
 3976SOL    HW223391   1.016   1.576   7.740  1.7168  0.5430 -3.5135
 3977SOL     OW23392   3.152   1.801  15.731  0.2499 -0.2055 -0.5657
 3977SOL    HW123393   3.086   1.797  15.801  1.0246 -0.1211  0.1723
 3977SOL    HW223394   3.176   1.893  15.735 -2.8710  0.4308  3.2511
 3978SOL     OW23395   0.079   1.905  14.442  0.2360 -0.3207 -1.0126
 3978SOL    HW123396   0.006   1.870  14.391 -0.0017 -0.0791 -0.8436
 3978SOL    HW223397   0.140   1.834  14.459 -1.4095 -1.3317  0.7177
 3979SOL     OW23398   1.529   3.299   3.159 -0.0328  0.5365 -0.3197
 3979SOL    HW123399   1.578   3.223   3.189 -0.4369  0.1798 -0.5564
 3979SOL    HW223400   1.524   3.344   3.243  2.6940  1.7430 -0.7948
 3980SOL     OW23401   4.009   4.262   6.324 -0.2304  0.5231  0.1034
 3980SOL    HW123402   3.920   4.240   6.350 -0.0965  1.0827  1.0633
 3980SOL    HW223403   3.990   4.302   6.239 -0.3356  1.7020  0.6774
 3981SOL     OW23404   2.406   3.159  10.357  0.2397  0.4883  0.5201
 3981SOL    HW123405   2.501   3.166  10.360  0.4256 -0.4294 -2.4559
 3981SOL    HW223406   2.393   3.067  10.332  1.3305  0.5634 -0.3299
 3982SOL     OW23407   3.136   1.149  16.767 -0.0280  0.5252 -0.1073
 3982SOL    HW123408   3.055   1.166  16.719 -0.5603  0.0318  0.6133
 3982SOL    HW223409   3.104   1.119  16.852 -3.1732 -1.2297 -1.8873
 3983SOL     OW23410   1.476   1.331  16.730  0.0584 -0.0539  0.1377
 3983SOL    HW123411   1.510   1.338  16.641  1.9513  0.1642  0.8788
 3983SOL    HW223412   1.514   1.411  16.768  0.9718 -0.7700  0.7358
 3984SOL     OW23413   1.077   4.724  15.138  0.4943  0.9638  0.1569
 3984SOL    HW123414   0.990   4.694  15.111  0.6496  0.6473  0.0048
 3984SOL    HW223415   1.072   0.075  15.081 -2.2031  0.4502 -0.3327
 3985SOL     OW23416   0.544   2.723   7.998 -0.2325 -0.1084 -0.4861
 3985SOL    HW123417   0.549   2.628   7.985 -0.4301  0.2821 -3.3818
 3985SOL    HW223418   0.531   2.733   8.092 -0.3226 -0.7462 -0.4287
 3986SOL     OW23419   0.063   3.177   8.750  0.2937 -0.1938  0.3865
 3986SOL    HW123420   0.132   3.219   8.801  2.1466 -0.8107 -1.5893
 3986SOL    HW223421   0.055   3.098   8.803 -1.7897  1.3204  2.3476
 3987SOL     OW23422   0.495   3.354   2.172  0.5448  0.8378 -0.4053
 3987SOL    HW123423   0.415   3.383   2.129  0.1857  2.1080  1.0965
 3987SOL    HW223424   0.488   3.393   2.260 -1.3333  1.7082 -0.9353
 3988SOL     OW23425   1.830   1.184   3.203  0.0116  0.6503  0.7303
 3988SOL    HW123426   1.925   1.198   3.194  0.5832 -1.4110  3.3151
 3988SOL    HW223427   1.790   1.269   3.186 -1.7407  0.0558  1.9111
 3989SOL     OW23428   4.454   3.856  10.188 -0.2164  0.0897  0.3450
 3989SOL    HW123429   4.391   3.928  10.198  0.8286  1.0500 -0.0234
 3989SOL    HW223430   4.422   3.806  10.113 -0.6202 -0.2265  0.7259
 3990SOL     OW23431   0.893   0.961   0.353  0.5988 -0.2973  0.1358
 3990SOL    HW123432   0.963   0.985   0.414  0.0485  1.7971 -0.0682
 3990SOL    HW223433   0.914   0.877   0.312 -0.7388 -1.3564  1.6287
 3991SOL     OW23434   3.422   0.830   7.978  0.1177 -0.1786 -0.2156
 3991SOL    HW123435   3.429   0.819   7.883  0.4249  2.6595 -0.5156
 3991SOL    HW223436   3.345   0.782   8.008  1.6653 -2.5793 -0.0812
 3992SOL     OW23437   2.845   2.727  11.054 -0.3731 -0.3954  0.1375
 3992SOL    HW123438   2.864   2.814  11.018 -0.8825  0.1610  1.2081
 3992SOL    HW223439   2.846   2.690  10.966  0.1418 -1.7268  0.7073
 3993SOL     OW23440   0.958   3.431   3.887 -0.4248  0.2837  0.1167
 3993SOL    HW123441   0.915   3.488   3.823 -0.9494  1.1252  1.2133
 3993SOL    HW223442   0.906   3.438   3.967  2.0585 -0.1961  1.7659
 3994SOL     OW23443   0.205   3.265   4.337 -0.2525 -0.2258 -0.1338
 3994SOL    HW123444   0.167   3.202   4.398 -2.4045  0.4297 -0.7718
 3994SOL    HW223445   0.145   3.261   4.262 -1.5574  2.4848  0.7584
 3995SOL     OW23446   4.368   1.382   3.901  0.0313  0.0445  0.2750
 3995SOL    HW123447   4.337   1.393   3.990  1.5520 -0.9900  0.9478
 3995SOL    HW223448   4.325   1.298   3.886  0.0410 -0.2351  1.8544
 3996SOL     OW23449   3.607   2.968  15.853 -0.6672 -0.3637  0.2887
 3996SOL    HW123450   3.550   2.920  15.913  1.4065 -2.3423  0.6881
 3996SOL    HW223451   3.569   3.055  15.864 -1.4654 -0.5704 -0.8050
 3997SOL     OW23452   3.723   0.323   0.884 -0.2711  0.0259  0.2234
 3997SOL    HW123453   3.809   0.337   0.924 -0.2662  1.8766 -0.4451
 3997SOL    HW223454   3.725   0.385   0.812  0.5414 -0.2423  0.0191
 3998SOL     OW23455   2.255   4.079   2.615  0.0006  0.2719 -0.1177
 3998SOL    HW123456   2.206   4.136   2.675 -0.6549 -2.5641  2.0125
 3998SOL    HW223457   2.211   3.997   2.634 -0.9331  1.5020  3.1106
 3999SOL     OW23458   1.354   2.886   4.109  0.2253 -0.2020  0.1590
 3999SOL    HW123459   1.370   2.970   4.067 -2.1702  0.4284  0.5205
 3999SOL    HW223460   1.259   2.883   4.117 -0.1335  1.0708 -3.8761
 4000SOL     OW23461   0.164   4.200   3.453  0.3554  0.0577  0.3380
 4000SOL    HW123462   0.235   4.260   3.432 -0.0082  0.2004 -0.5102
 4000SOL    HW223463   0.150   4.225   3.544  0.5868  1.5887 -0.0558
 4001SOL     OW23464   0.905   0.343  11.670  0.1921  0.5012  0.0976
 4001SOL    HW123465   0.856   0.327  11.589 -1.3613 -2.2774  1.5700
 4001SOL    HW223466   0.864   0.287  11.736  0.7799  0.7606  0.6794
 4002SOL     OW23467   3.659   2.110  14.495  0.4749  0.5477  0.5736
 4002SOL    HW123468   3.579   2.136  14.449  0.7186 -0.1208 -0.2362
 4002SOL    HW223469   3.656   2.171  14.568  1.0111 -0.2997  1.2946
 4003SOL     OW23470   4.312   3.345   0.063 -0.2669 -0.5264 -0.5538
 4003SOL    HW123471   4.289   3.319  17.678  0.6256 -1.0142 -0.6386
 4003SOL    HW223472   4.312   3.260   0.108 -0.8971  1.6295  3.5311
 4004SOL     OW23473   4.073   4.087   1.050  0.2922  0.1532 -0.4896
 4004SOL    HW123474   4.022   4.160   1.016 -0.0081 -0.9759 -2.4838
 4004SOL    HW223475   4.136   4.076   0.979  0.2974 -0.1957 -0.4316
 4005SOL     OW23476   2.654   1.142   4.610  0.0684  0.1775 -0.2878
 4005SOL    HW123477   2.574   1.114   4.565 -1.7377  0.3750  2.7769
 4005SOL    HW223478   2.709   1.067   4.584 -0.5279  0.1150 -1.3587
 4006SOL     OW23479   0.581   0.191   3.236  0.1156 -0.1451 -0.3837
 4006SOL    HW123480   0.576   0.156   3.325  2.0992  1.2271  0.2493
 4006SOL    HW223481   0.614   0.280   3.240 -2.5095  0.6788  2.6210
 4007SOL     OW23482   3.027   3.916   5.397  0.3668 -0.2661  0.1609
 4007SOL    HW123483   3.006   3.931   5.305  1.4178 -1.1043 -0.2148
 4007SOL    HW223484   3.119   3.943   5.397  0.6575 -1.2334  0.9888
 4008SOL     OW23485   1.051   4.386   3.159  0.2650  0.0119 -0.0144
 4008SOL    HW123486   0.988   4.334   3.109 -0.7508  1.9388 -0.7383
 4008SOL    HW223487   1.002   4.466   3.172 -1.2842 -0.5460 -2.4876
 4009SOL     OW23488   4.626   3.378   4.911 -0.1011  0.3319 -0.0070
 4009SOL    HW123489   4.616   3.442   4.981 -0.2597  1.6200 -1.2100
 4009SOL    HW223490   4.718   3.393   4.890 -0.0037 -0.8038 -0.4283
 4010SOL     OW23491   2.480   0.619   2.787  0.7017  0.1689 -0.0850
 4010SOL    HW123492   2.465   0.561   2.713  0.7299  0.1362 -0.0652
 4010SOL    HW223493   2.497   0.553   2.855  0.4891 -1.1010 -1.2760
 4011SOL     OW23494   3.563   3.461   5.944 -0.3314  0.5186 -0.0082
 4011SOL    HW123495   3.525   3.548   5.950 -1.1129  0.0429  2.2740
 4011SOL    HW223496   3.485   3.412   5.971  0.3414 -0.6197 -0.1120
 4012SOL     OW23497   4.640   1.439   7.046  0.1564  0.0772  0.1144
 4012SOL    HW123498   4.676   1.432   7.135  2.1863 -0.1901 -0.7518
 4012SOL    HW223499   4.716   1.407   6.998  1.0613  1.7690  0.4058
 4013SOL     OW23500   0.840   2.000  17.274 -0.4604 -0.2999 -0.6285
 4013SOL    HW123501   0.929   1.976  17.248  0.4221  0.8440  1.3344
 4013SOL    HW223502   0.843   1.977  17.367  0.3733  0.0994 -0.5591
 4014SOL     OW23503   0.524   2.735   8.279 -0.3483 -0.1958  0.2474
 4014SOL    HW123504   0.497   2.822   8.310  1.0358  0.0961  0.6188
 4014SOL    HW223505   0.593   2.716   8.342  0.0467 -2.9106 -1.0284
 4015SOL     OW23506   0.488   0.821  16.890  0.1487 -0.6604 -0.0517
 4015SOL    HW123507   0.424   0.886  16.861  1.6222 -0.4772 -2.9404
 4015SOL    HW223508   0.529   0.864  16.964  1.6382  0.8078 -1.7406
 4016SOL     OW23509   1.840   3.994   9.218 -0.4716 -0.0778  0.4130
 4016SOL    HW123510   1.854   3.900   9.229  2.2907  0.1137 -1.2789
 4016SOL    HW223511   1.851   4.034   9.303 -2.7912  1.3331  0.0460
 4017SOL     OW23512   2.061   2.906   1.122 -0.1955  0.2961  0.1973
 4017SOL    HW123513   2.054   2.965   1.047  2.0759 -1.7837 -1.6372
 4017SOL    HW223514   2.064   2.967   1.196 -0.7964  0.5884 -0.0218
 4018SOL     OW23515   2.384   2.076   9.273 -0.0894 -0.1197  0.2579
 4018SOL    HW123516   2.399   2.063   9.367  0.6005 -0.4525  0.1005
 4018SOL    HW223517   2.364   2.169   9.267  1.4877  0.1924 -0.2134
 4019SOL     OW23518   0.143   3.813  12.410 -0.2268 -0.5395 -0.4518
 4019SOL    HW123519   0.141   3.720  12.432  1.3974 -0.2621  0.7926
 4019SOL    HW223520   0.149   3.806  12.314  0.3003 -1.4949 -0.3455
 4020SOL     OW23521   3.889   1.795   6.272 -0.4096  0.3615  0.6469
 4020SOL    HW123522   3.951   1.734   6.232 -1.9413 -1.3392  0.8702
 4020SOL    HW223523   3.930   1.818   6.355 -0.2549  1.4512  0.2680
 4021SOL     OW23524   0.909   2.771   8.115  0.3662  0.2008 -0.6275
 4021SOL    HW123525   0.985   2.806   8.163 -0.3704 -1.5959  1.8616
 4021SOL    HW223526   0.909   2.683   8.154 -1.9599 -0.5959 -2.4541
 4022SOL     OW23527   3.212   3.258   5.637  0.0262 -0.1325  0.1618
 4022SOL    HW123528   3.255   3.250   5.722  1.6719  1.5649 -0.4987
 4022SOL    HW223529   3.252   3.338   5.601  1.6886 -0.3963  1.4059
 4023SOL     OW23530   2.102   1.054   6.462 -0.1645 -0.0995  0.3128
 4023SOL    HW123531   2.168   1.097   6.517  0.7517 -0.0875 -0.7842
 4023SOL    HW223532   2.027   1.093   6.506 -0.2929 -1.6517  1.4634
 4024SOL     OW23533   2.043   0.998   5.868 -0.2890 -0.2007  0.0143
 4024SOL    HW123534   2.066   1.091   5.867 -0.9787 -0.0638 -1.8700
 4024SOL    HW223535   2.002   0.986   5.954  0.1177 -1.6245  0.0024
 4025SOL     OW23536   3.063   0.651   8.736 -0.5111  0.4272 -0.2424
 4025SOL    HW123537   3.152   0.662   8.769  0.8250  1.9665 -4.3296
 4025SOL    HW223538   3.017   0.598   8.802  1.4617 -1.0314 -0.0278
 4026SOL     OW23539   4.585   0.365  11.312  0.4736 -0.3778 -0.2140
 4026SOL    HW123540   4.627   0.280  11.303 -0.9921 -1.0231 -0.8675
 4026SOL    HW223541   4.627   0.403  11.389 -0.3408 -1.0115  0.5290
 4027SOL     OW23542   1.190   2.422   7.821 -0.1334 -0.2340  0.3219
 4027SOL    HW123543   1.150   2.369   7.890 -0.6041  2.3530  2.0372
 4027SOL    HW223544   1.282   2.396   7.827 -0.6542 -2.5996 -1.9003
 4028SOL     OW23545   1.781   2.566   3.429  0.2600  0.1315  0.1649
 4028SOL    HW123546   1.843   2.637   3.413 -2.3529  2.5302  0.7064
 4028SOL    HW223547   1.711   2.579   3.365  0.2097 -1.3239 -0.0823
 4029SOL     OW23548   0.661   0.914   9.096  1.2667 -0.2679 -0.3887
 4029SOL    HW123549   0.681   0.995   9.048 -1.8199  0.4583 -0.4720
 4029SOL    HW223550   0.712   0.927   9.175  1.2145 -2.2840 -0.0368
 4030SOL     OW23551   1.913   4.286   8.527 -0.0945 -0.1559  0.0068
 4030SOL    HW123552   1.903   4.367   8.477 -2.3659 -0.3469  0.1847
 4030SOL    HW223553   1.823   4.263   8.548 -0.9269  1.5881 -1.6004
 4031SOL     OW23554   3.088   3.182   7.458  0.7123  0.0181 -0.1771
 4031SOL    HW123555   3.117   3.251   7.399  0.8412 -1.1735 -1.5203
 4031SOL    HW223556   3.067   3.107   7.402  2.7679 -0.7034  0.0106
 4032SOL     OW23557   1.814   3.403   5.370 -0.3368  0.7557 -0.6279
 4032SOL    HW123558   1.729   3.443   5.351 -1.3658 -0.1713  2.1028
 4032SOL    HW223559   1.817   3.319   5.325  1.0258  1.3179 -1.6028
 4033SOL     OW23560   3.184   1.678   2.092 -0.1845 -0.2139  0.1284
 4033SOL    HW123561   3.097   1.653   2.124 -0.3215 -1.1030 -0.9486
 4033SOL    HW223562   3.177   1.721   2.007 -0.7684 -0.8910 -0.1638
 4034SOL     OW23563   1.430   3.403   9.476  0.5450  0.1699 -0.3128
 4034SOL    HW123564   1.464   3.317   9.499 -1.6790 -1.0509 -1.7364
 4034SOL    HW223565   1.508   3.454   9.451 -1.1401  2.6780 -0.4465
 4035SOL     OW23566   4.453   0.099   1.578  0.1970  0.3074 -0.2010
 4035SOL    HW123567   4.466   0.078   1.485 -2.3250 -1.0911 -0.2268
 4035SOL    HW223568   4.360   0.123   1.578  0.0052 -0.3720 -2.3298
 4036SOL     OW23569   1.439   1.289   7.143 -0.4532 -0.1332 -0.5836
 4036SOL    HW123570   1.344   1.279   7.136 -0.2619 -0.5881 -2.3727
 4036SOL    HW223571   1.451   1.380   7.116  1.4711 -0.2643 -0.1732
 4037SOL     OW23572   0.825   2.478   7.960 -0.0201  0.0295  0.1321
 4037SOL    HW123573   0.905   2.429   7.982 -0.2244 -0.7954 -0.9792
 4037SOL    HW223574   0.780   2.485   8.045 -0.0668 -2.8242  0.3463
 4038SOL     OW23575   4.042   1.009   0.791 -0.6333  0.2304 -0.1575
 4038SOL    HW123576   4.118   1.064   0.774  0.0890 -0.6118  0.3338
 4038SOL    HW223577   4.014   1.030   0.880 -1.8607  1.9270 -0.9406
 4039SOL     OW23578   2.439   0.171  16.618 -0.8199  0.4040  0.1611
 4039SOL    HW123579   2.394   0.235  16.563 -2.5676  0.1523  1.2936
 4039SOL    HW223580   2.527   0.210  16.618  0.1488 -1.7634 -1.4751
 4040SOL     OW23581   1.022   3.482   8.971 -0.4688  0.4499 -0.2430
 4040SOL    HW123582   1.060   3.514   9.053  1.0952 -0.3111 -0.6847
 4040SOL    HW223583   1.082   3.505   8.901  0.5071 -1.1642  0.0638
 4041SOL     OW23584   3.179   1.441   4.852 -0.3651  0.4869  0.2784
 4041SOL    HW123585   3.118   1.384   4.900  0.9433  0.7050  2.1799
 4041SOL    HW223586   3.122   1.449   4.776 -0.1904  0.8205  0.1839
 4042SOL     OW23587   3.711   4.679  12.445  0.8165  0.2811 -0.5238
 4042SOL    HW123588   3.790   0.005  12.455  0.6339  0.4313  0.1820
 4042SOL    HW223589   3.722   4.646  12.356  0.9741  2.0886 -1.1842
 4043SOL     OW23590   3.269   2.372   8.961 -0.2522  0.2309  0.0966
 4043SOL    HW123591   3.248   2.430   9.034  0.4665  0.3910  0.1784
 4043SOL    HW223592   3.187   2.379   8.913 -0.4133 -0.4223  0.2787
 4044SOL     OW23593   0.215   1.188   5.293  0.0152 -0.4705  0.1120
 4044SOL    HW123594   0.181   1.098   5.295 -1.2186 -0.0023  0.3257
 4044SOL    HW223595   0.230   1.191   5.198  2.9152 -2.0272  0.5247
 4045SOL     OW23596   2.342   3.985  11.142  0.5573 -0.3440  0.3576
 4045SOL    HW123597   2.337   4.065  11.090  0.3802 -0.1142  0.7349
 4045SOL    HW223598   2.389   3.925  11.084 -1.4189 -1.7356  0.1916
 4046SOL     OW23599   4.647   2.572   5.653  0.0662  0.3797 -0.3728
 4046SOL    HW123600   4.609   2.553   5.567  1.3060 -0.1949 -0.8012
 4046SOL    HW223601   4.636   2.667   5.654  1.0456  0.4632  3.1924
 4047SOL     OW23602   4.586   1.829   2.889  0.2511 -0.5079 -0.3505
 4047SOL    HW123603   4.642   1.755   2.865 -0.7981 -2.0472  1.9224
 4047SOL    HW223604   4.567   1.794   2.976 -4.5192  0.0675 -1.1671
 4048SOL     OW23605   1.379   3.290   2.306 -0.0620 -0.0870  0.3459
 4048SOL    HW123606   1.389   3.216   2.365 -1.2153  0.4710  1.2492
 4048SOL    HW223607   1.321   3.251   2.240  1.3228 -2.3741  0.4726
 4049SOL     OW23608   3.244   1.749  11.018 -0.0678  0.5088  0.1827
 4049SOL    HW123609   3.274   1.704  11.096  0.6210  2.8594  1.2881
 4049SOL    HW223610   3.219   1.674  10.965 -2.1736  2.0098 -0.9532
 4050SOL     OW23611   3.685   3.237  16.132  0.6191 -0.0036  0.3859
 4050SOL    HW123612   3.603   3.227  16.083  0.0226  0.2658  1.3249
 4050SOL    HW223613   3.664   3.316  16.181 -2.1173 -0.1368 -0.5281
 4051SOL     OW23614   0.250   0.259  11.339 -0.0624 -0.1238 -0.4978
 4051SOL    HW123615   0.331   0.259  11.391 -0.2030  1.3074 -0.2860
 4051SOL    HW223616   0.283   0.248  11.250 -0.3797  0.2352 -0.6596
 4052SOL     OW23617   1.662   1.151  12.053 -0.3853  0.1604 -0.0831
 4052SOL    HW123618   1.688   1.098  12.128  0.5611  3.1625  1.7041
 4052SOL    HW223619   1.574   1.175  12.083 -0.1632 -0.6236  1.1950
 4053SOL     OW23620   4.146   4.052  10.629  0.5795  0.3020  0.4228
 4053SOL    HW123621   4.117   4.015  10.545  0.1483  3.3370 -0.7797
 4053SOL    HW223622   4.107   3.997  10.697 -0.5313  2.8082  1.8015
 4054SOL     OW23623   1.734   2.611  17.099  0.1377 -0.4505  0.9303
 4054SOL    HW123624   1.815   2.605  17.150  0.1537 -1.4835  0.7968
 4054SOL    HW223625   1.744   2.526  17.056 -1.5564  0.0432 -0.4567
 4055SOL     OW23626   0.004   2.571   1.252  0.5291  0.4640  0.4608
 4055SOL    HW123627   0.005   2.507   1.324 -1.2016  0.1160  0.1580
 4055SOL    HW223628   0.092   2.563   1.216  0.7477  0.2861  1.0230
 4056SOL     OW23629   3.909   3.511  16.030  0.3855 -0.5748 -0.0880
 4056SOL    HW123630   3.966   3.482  16.102  1.7620  2.6314  0.0833
 4056SOL    HW223631   3.820   3.514  16.065  0.2968 -4.7879  0.0879
 4057SOL     OW23632   0.816   0.991   4.211 -0.0183  0.5025 -0.5604
 4057SOL    HW123633   0.774   0.912   4.178 -1.4427  0.8851  0.3639
 4057SOL    HW223634   0.858   1.022   4.131  0.1468  0.2194 -0.5827
 4058SOL     OW23635   0.081   1.014   8.042 -0.6350  0.1328  0.3216
 4058SOL    HW123636   0.113   1.061   7.965  0.2561 -0.1577  0.5041
 4058SOL    HW223637   0.051   1.084   8.099  0.9706  1.0385  0.0593
 4059SOL     OW23638   3.785   0.750  12.607  0.6790 -0.0521  0.0066
 4059SOL    HW123639   3.721   0.731  12.676  1.1671 -0.1780  0.4279
 4059SOL    HW223640   3.870   0.717  12.635  0.5152 -0.7546 -0.3322
 4060SOL     OW23641   1.965   3.129   1.265 -0.1898  0.0348  0.0668
 4060SOL    HW123642   1.950   3.188   1.338  1.9285  0.7550 -0.1005
 4060SOL    HW223643   1.878   3.129   1.225 -0.3892  0.6397  0.5089
 4061SOL     OW23644   3.639   3.640   8.223 -0.5791  0.4071 -0.0229
 4061SOL    HW123645   3.687   3.640   8.140  0.5781 -0.9434  0.6425
 4061SOL    HW223646   3.711   3.650   8.286 -0.2818  1.9742 -0.5920
 4062SOL     OW23647   4.500   0.520  13.499 -0.0830 -0.1509 -0.4669
 4062SOL    HW123648   4.488   0.425  13.503 -0.5380 -0.0731  0.0947
 4062SOL    HW223649   4.587   0.508  13.462  0.1601 -2.4716  0.8022
 4063SOL     OW23650   3.743   3.918   8.087 -0.4915 -0.0952 -0.7791
 4063SOL    HW123651   3.829   3.903   8.048  0.7886  2.5392  1.0047
 4063SOL    HW223652   3.710   3.828   8.083  0.9535 -0.6893  0.7644
 4064SOL     OW23653   3.496   3.333  15.798 -0.4438 -0.0757 -0.0252
 4064SOL    HW123654   3.581   3.296  15.775  1.1290  2.6740  1.4031
 4064SOL    HW223655   3.443   3.332  15.718  1.2487 -1.5200 -1.1306
 4065SOL     OW23656   2.922   3.918   9.657  0.8603 -0.0729 -0.0643
 4065SOL    HW123657   2.966   3.972   9.723 -1.4937  1.1743  0.4621
 4065SOL    HW223658   2.944   3.828   9.682 -0.1436 -0.2667  0.1009
 4066SOL     OW23659   3.074   2.405   6.430  0.2590  0.5905 -0.8969
 4066SOL    HW123660   3.061   2.360   6.346  0.5167  0.1720 -0.7130
 4066SOL    HW223661   2.991   2.434   6.466  0.7609  0.8547  0.0460
 4067SOL     OW23662   4.656   1.744   0.453  0.0989 -0.1712 -0.7545
 4067SOL    HW123663   4.602   1.680   0.406 -0.2036 -1.4260  1.2823
 4067SOL    HW223664   4.708   1.698   0.520 -1.0197  1.8652  1.5076
 4068SOL     OW23665   4.189   0.656   9.011 -0.4031 -0.3188  0.0598
 4068SOL    HW123666   4.253   0.721   8.983 -3.2712  2.0050 -1.0696
 4068SOL    HW223667   4.244   0.579   8.995  0.2233 -0.2452  1.7804
 4069SOL     OW23668   2.268   3.661   5.702 -0.1906 -0.1554 -0.5367
 4069SOL    HW123669   2.217   3.717   5.761 -2.4915 -2.3970 -0.4217
 4069SOL    HW223670   2.211   3.587   5.681  0.3140 -1.1758  1.6938
 4070SOL     OW23671   4.097   0.392   5.721 -0.6057  0.4414  0.0018
 4070SOL    HW123672   4.080   0.310   5.674 -1.5350  0.9206 -0.5065
 4070SOL    HW223673   4.160   0.430   5.661  1.6070 -1.6511  0.9851
 4071SOL     OW23674   3.632   3.719  14.691 -0.1214  0.1556 -0.2585
 4071SOL    HW123675   3.644   3.710  14.786  0.5334 -0.4252 -0.3922
 4071SOL    HW223676   3.719   3.739  14.654  0.1914  0.1280  0.4523
 4072SOL     OW23677   0.650   0.044  14.643  0.3307  0.3949  0.1812
 4072SOL    HW123678   0.562   0.076  14.625 -0.0224 -0.4167  0.4497
 4072SOL    HW223679   0.636   4.703  14.710 -2.6112  1.7869  0.9580
 4073SOL     OW23680   3.003   3.152  11.031 -0.5664 -0.2544  0.7209
 4073SOL    HW123681   3.069   3.211  10.994 -1.3383 -0.7159 -1.3644
 4073SOL    HW223682   2.932   3.215  11.022  0.6711  0.4914 -3.8344
 4074SOL     OW23683   4.311   3.638  17.629  0.1197 -0.1130  0.0028
 4074SOL    HW123684   4.373   3.569  17.604  2.4151  1.3297  1.6593
 4074SOL    HW223685   4.301   3.615   0.017 -0.9748 -1.1294 -0.3700
 4075SOL     OW23686   4.344   3.466  16.787  0.2624 -0.6657  0.0785
 4075SOL    HW123687   4.371   3.453  16.878 -0.5712 -2.6276  0.0504
 4075SOL    HW223688   4.268   3.524  16.792  1.2080  0.6744 -1.1231
 4076SOL     OW23689   0.802   2.203  11.421 -0.1102 -0.6446 -0.3165
 4076SOL    HW123690   0.775   2.128  11.369 -2.0686 -0.7471  0.8552
 4076SOL    HW223691   0.762   2.181  11.506 -0.9247  0.6511 -0.3686
 4077SOL     OW23692   1.538   1.493  11.616 -0.0942  0.3996  0.0984
 4077SOL    HW123693   1.466   1.513  11.556 -0.9915  0.5661  1.2249
 4077SOL    HW223694   1.611   1.481  11.554 -0.3792 -0.4671 -0.0689
 4078SOL     OW23695   1.836   1.308   7.972 -0.2440 -0.0893 -0.4117
 4078SOL    HW123696   1.791   1.224   7.985 -0.7543  0.6093  2.3911
 4078SOL    HW223697   1.900   1.309   8.043  1.8060  4.1454 -2.3826
 4079SOL     OW23698   1.646   2.513   2.675 -0.6014 -0.0866  0.2784
 4079SOL    HW123699   1.719   2.502   2.614  1.2027  1.3544  2.1793
 4079SOL    HW223700   1.578   2.454   2.643 -0.2969 -1.6787  2.4814
 4080SOL     OW23701   1.442   0.534   4.479  0.3064  0.7675 -0.3252
 4080SOL    HW123702   1.400   0.616   4.505 -2.8328  0.0702 -3.2741
 4080SOL    HW223703   1.497   0.525   4.557 -0.5480  0.3873  0.2313
 4081SOL     OW23704   1.651   1.178   2.414  0.5581  0.5998  0.1123
 4081SOL    HW123705   1.615   1.109   2.471  2.1996 -0.8358 -0.5780
 4081SOL    HW223706   1.631   1.261   2.457  0.7467 -0.0247  1.4158
 4082SOL     OW23707   1.291   1.938  13.149  0.4019 -0.4431 -0.4435
 4082SOL    HW123708   1.200   1.966  13.152  0.4269 -0.4937  0.6938
 4082SOL    HW223709   1.289   1.871  13.081  1.3016 -1.0077  0.0839
 4083SOL     OW23710   1.306   0.869   0.894 -0.0235  0.8560  0.3116
 4083SOL    HW123711   1.248   0.873   0.970  1.1166 -0.1054  1.2232
 4083SOL    HW223712   1.385   0.915   0.923 -0.4190  2.8904 -1.7837
 4084SOL     OW23713   3.249   4.149   8.305  0.1210 -0.1953  0.1156
 4084SOL    HW123714   3.202   4.108   8.233 -0.1560  0.8064 -0.2738
 4084SOL    HW223715   3.292   4.214   8.249 -0.8283  1.2263  1.0269
 4085SOL     OW23716   1.837   4.546   9.379 -0.2393  0.1536 -0.1537
 4085SOL    HW123717   1.899   4.473   9.370 -0.9267 -0.2077 -2.0453
 4085SOL    HW223718   1.769   4.509   9.434 -1.4902  1.4728 -0.8248
 4086SOL     OW23719   2.438   3.839   4.244  0.0056 -0.2647  0.5236
 4086SOL    HW123720   2.376   3.860   4.314  0.4371  0.1051  0.7927
 4086SOL    HW223721   2.447   3.745   4.261  1.7997  0.0238  1.2362
 4087SOL     OW23722   3.109   2.774   1.958  0.2386 -0.0545 -0.3125
 4087SOL    HW123723   3.181   2.837   1.963 -0.7197  1.1224 -1.2421
 4087SOL    HW223724   3.096   2.746   1.867  0.6298  2.0547 -1.0264
 4088SOL     OW23725   1.117   0.149   3.828  0.3940 -0.2015 -0.0527
 4088SOL    HW123726   1.203   0.120   3.800 -0.1018 -2.2852  0.6142
 4088SOL    HW223727   1.061   0.101   3.767  1.7084 -1.6528 -0.1039
 4089SOL     OW23728   3.376   1.914   3.849 -0.6583 -0.3696  0.2212
 4089SOL    HW123729   3.368   1.996   3.899 -0.4808  0.0854 -0.4969
 4089SOL    HW223730   3.285   1.888   3.862 -1.6917  2.5852 -0.9599
 4090SOL     OW23731   4.259   1.821   4.296 -0.4121  0.4053 -0.0033
 4090SOL    HW123732   4.178   1.865   4.272 -1.5903 -2.0487 -0.5184
 4090SOL    HW223733   4.243   1.727   4.305  2.7303 -0.1683 -0.4965
 4091SOL     OW23734   3.232   1.092   7.095 -0.0537 -0.1380  1.0840
 4091SOL    HW123735   3.182   1.054   7.167 -1.5833  1.2048  0.7212
 4091SOL    HW223736   3.322   1.061   7.098 -0.2756 -1.1123 -2.7139
 4092SOL     OW23737   2.717   2.982   7.409  0.2183 -0.4439 -0.3092
 4092SOL    HW123738   2.685   2.992   7.498 -4.4153 -1.2001 -1.8625
 4092SOL    HW223739   2.662   2.909   7.381 -0.6201  0.8282 -2.0005
 4093SOL     OW23740   1.665   1.319   8.252  0.0909  0.4122  0.7825
 4093SOL    HW123741   1.735   1.256   8.265  0.0479 -0.1693 -1.6952
 4093SOL    HW223742   1.707   1.386   8.198 -0.6855  0.4703  0.2392
 4094SOL     OW23743   1.005   1.196   0.526  0.0232  0.7505  0.3984
 4094SOL    HW123744   1.060   1.118   0.534  0.0722  0.7639  0.1826
 4094SOL    HW223745   1.064   1.269   0.508  1.2869 -0.4863 -0.4956
 4095SOL     OW23746   0.653   0.994   8.626 -0.1057  0.3161 -0.1502
 4095SOL    HW123747   0.640   0.919   8.685 -1.1096  0.2860 -0.4236
 4095SOL    HW223748   0.663   0.957   8.538  3.2426 -0.6799  0.6250
 4096SOL     OW23749   0.331   1.342   6.430  0.0544 -0.1179  0.3810
 4096SOL    HW123750   0.424   1.331   6.412 -0.3189 -1.3421 -0.7825
 4096SOL    HW223751   0.311   1.276   6.496  0.1863 -0.1774  0.3616
 4097SOL     OW23752   1.212   2.317   0.809 -0.3177 -0.0419 -0.2989
 4097SOL    HW123753   1.259   2.276   0.882 -0.0896  0.7413 -0.0003
 4097SOL    HW223754   1.194   2.402   0.849  0.2792  0.9231 -2.0914
 4098SOL     OW23755   1.842   1.281  11.906  0.0104 -0.5868  0.3974
 4098SOL    HW123756   1.795   1.364  11.895  1.2503 -0.1414 -1.4809
 4098SOL    HW223757   1.787   1.231  11.966  1.1161 -1.3306  0.7870
 4099SOL     OW23758   0.147   3.958   9.832 -0.5787  0.3500 -0.6853
 4099SOL    HW123759   0.143   3.924   9.743  0.7236  0.8034 -0.9111
 4099SOL    HW223760   0.064   3.922   9.864 -1.5536  0.1322 -3.4551
 4100SOL     OW23761   0.582   2.518   4.310  0.4715  0.3786 -0.3888
 4100SOL    HW123762   0.498   2.564   4.313  0.7159  0.8378 -0.4929
 4100SOL    HW223763   0.552   2.432   4.282 -2.4076  0.8849  1.1781
 4101SOL     OW23764   0.609   0.632  17.543  0.1632 -0.6083  0.0206
 4101SOL    HW123765   0.541   0.668  17.487 -1.7404 -2.2217  1.2963
 4101SOL    HW223766   0.686   0.638  17.486 -0.9675 -0.0405 -1.4333
 4102SOL     OW23767   2.165   0.312   1.001  0.3062 -0.2501  0.0301
 4102SOL    HW123768   2.085   0.342   0.958 -0.2756  0.5608  1.6714
 4102SOL    HW223769   2.161   0.219   1.019 -0.4011  0.1940  2.1010
 4103SOL     OW23770   1.342   4.607  11.213  0.2627 -0.4149  0.2454
 4103SOL    HW123771   1.349   4.607  11.117  1.2318 -1.4169  0.3171
 4103SOL    HW223772   1.318   4.699  11.226 -0.2749 -0.4618 -0.3689
 4104SOL     OW23773   2.361   3.191   8.761  0.0140 -0.4368 -0.3617
 4104SOL    HW123774   2.337   3.186   8.854  0.8987  0.0405 -0.1043
 4104SOL    HW223775   2.304   3.120   8.730 -1.2441  0.1674  0.5755
 4105SOL     OW23776   0.927   4.263   7.225 -0.0121 -0.6176 -0.4025
 4105SOL    HW123777   0.949   4.314   7.147  2.1844  0.7621  1.0873
 4105SOL    HW223778   0.947   4.173   7.201  1.1797 -0.2694 -0.7270
 4106SOL     OW23779   1.714   2.221   5.557 -0.4072 -0.2870  0.1746
 4106SOL    HW123780   1.635   2.169   5.568 -1.0766  0.4831 -0.9996
 4106SOL    HW223781   1.782   2.154   5.564 -1.6028 -1.6346 -0.9484
 4107SOL     OW23782   1.700   0.728  17.429  0.1285 -0.5533  0.5503
 4107SOL    HW123783   1.755   0.788  17.379 -0.8788 -0.2592 -0.2020
 4107SOL    HW223784   1.621   0.769  17.396 -0.5695 -0.5053  2.2877
 4108SOL     OW23785   3.957   2.950   1.921  0.0080 -0.3475  0.4185
 4108SOL    HW123786   4.004   3.016   1.972 -0.8352  1.1034 -0.6833
 4108SOL    HW223787   3.915   3.006   1.856 -0.7762 -0.1804  1.0688
 4109SOL     OW23788   1.272   4.576   3.868 -0.8754 -0.1698  0.5548
 4109SOL    HW123789   1.349   4.526   3.840  0.8728  0.8709  3.4965
 4109SOL    HW223790   1.284   4.648   3.807  1.4248 -0.5780  0.5016
 4110SOL     OW23791   0.986   0.886   5.407  0.3000 -0.3305 -0.4494
 4110SOL    HW123792   1.066   0.938   5.404 -1.6161  2.6466  0.2607
 4110SOL    HW223793   0.935   0.924   5.478 -0.5296 -3.2083  0.5163
 4111SOL     OW23794   3.080   2.035   1.814 -0.0147  0.1598 -0.0684
 4111SOL    HW123795   3.116   2.102   1.756  0.5819  0.5576  0.7534
 4111SOL    HW223796   3.155   2.003   1.864  2.0102  1.2662 -2.3908
 4112SOL     OW23797   0.590   0.237   4.205  0.2229 -0.0973  0.0003
 4112SOL    HW123798   0.597   0.264   4.297  1.1520  3.0005 -1.0053
 4112SOL    HW223799   0.544   0.311   4.165  1.2459  1.4278  1.6576
 4113SOL     OW23800   3.777   4.262   3.575  0.1442  0.1578  0.0542
 4113SOL    HW123801   3.696   4.213   3.588  1.0041 -1.5504 -0.9364
 4113SOL    HW223802   3.730   4.342   3.599 -0.9783 -0.6241  0.4838
 4114SOL     OW23803   1.540   2.648   5.793 -0.4333 -0.2697 -0.7194
 4114SOL    HW123804   1.513   2.602   5.872 -0.5632  1.1861  0.0943
 4114SOL    HW223805   1.634   2.638   5.809 -0.9613 -3.1757  0.4919
 4115SOL     OW23806   2.567   1.187   9.819  0.0167  0.3209  0.1021
 4115SOL    HW123807   2.584   1.094   9.836  0.7250  0.4711  0.2085
 4115SOL    HW223808   2.473   1.194   9.800 -0.0421  2.7567  1.3523
 4116SOL     OW23809   1.384   1.010  12.387 -0.2072  0.2395 -0.1070
 4116SOL    HW123810   1.390   0.976  12.476 -0.1864  1.5366  0.3812
 4116SOL    HW223811   1.469   1.052  12.378  1.1453 -2.0357  2.1871
 4117SOL     OW23812   3.902   1.965  17.024 -0.0270 -0.2760 -0.4576
 4117SOL    HW123813   3.995   1.984  17.032  0.4098 -2.2396 -0.9947
 4117SOL    HW223814   3.885   1.903  17.095 -0.5684  2.4716  1.8245
 4118SOL     OW23815   2.951   2.561  13.892  0.0127  0.1858  0.7056
 4118SOL    HW123816   3.032   2.553  13.841  0.9465  2.6948  1.7579
 4118SOL    HW223817   2.976   2.646  13.928  0.2381  0.3044  0.2736
 4119SOL     OW23818   1.229   3.430   7.889 -0.2439 -0.4987  0.1902
 4119SOL    HW123819   1.199   3.520   7.903  0.4446 -0.0360 -1.3488
 4119SOL    HW223820   1.321   3.445   7.867 -0.0786 -2.1737 -0.2583
 4120SOL     OW23821   0.462   2.067  14.246  0.2447  0.2236 -0.4219
 4120SOL    HW123822   0.419   1.992  14.286  1.8123  0.2966  1.3490
 4120SOL    HW223823   0.415   2.142  14.283  0.0779  0.0311 -0.2467
 4121SOL     OW23824   1.238   3.138  14.643 -0.2077 -0.9279  0.0071
 4121SOL    HW123825   1.303   3.080  14.604  0.7605  0.1054  0.0566
 4121SOL    HW223826   1.244   3.102  14.731 -0.0226 -0.3589  0.2320
 4122SOL     OW23827   0.976   0.793   5.733 -0.3753 -0.4510 -0.4080
 4122SOL    HW123828   1.063   0.776   5.697 -0.5411 -0.1654 -0.9368
 4122SOL    HW223829   0.963   0.705   5.768 -0.5205 -0.7410 -1.1915
 4123SOL     OW23830   2.934   1.305  14.611  0.2268  0.7352 -0.0751
 4123SOL    HW123831   2.860   1.305  14.551  1.5489  0.0906 -1.6936
 4123SOL    HW223832   2.902   1.241  14.675 -0.8291 -0.0813 -1.4181
 4124SOL     OW23833   3.352   1.047  15.357 -0.7645  0.1558  0.3155
 4124SOL    HW123834   3.434   1.073  15.398 -0.0934 -0.0016 -0.9388
 4124SOL    HW223835   3.311   1.132  15.343  1.5409  0.9654 -1.5345
 4125SOL     OW23836   0.054   3.435  13.341 -0.3883 -0.1265 -0.7798
 4125SOL    HW123837   0.129   3.465  13.290 -1.5129 -0.1329 -2.4478
 4125SOL    HW223838   0.086   3.354  13.380  1.5685  0.8815 -0.2651
 4126SOL     OW23839   4.375   2.096   1.386  0.3651  0.0039  0.1188
 4126SOL    HW123840   4.441   2.070   1.321 -0.0853 -2.0020  0.4406
 4126SOL    HW223841   4.361   2.176   1.335 -2.0244  1.4193  2.9827
 4127SOL     OW23842   1.184   2.418   1.970  0.0943 -0.0054  0.6622
 4127SOL    HW123843   1.238   2.416   1.890 -1.7417  1.4786 -0.6170
 4127SOL    HW223844   1.256   2.451   2.023  1.2193  0.9698 -1.4485
 4128SOL     OW23845   3.605   2.918   7.602 -0.4720 -0.7937 -0.1808
 4128SOL    HW123846   3.679   2.964   7.562 -0.6105 -1.0790 -0.7780
 4128SOL    HW223847   3.649   2.850   7.653 -1.6851 -1.1545  0.3785
 4129SOL     OW23848   2.268   0.709  15.282  0.1399  0.5882 -0.1204
 4129SOL    HW123849   2.220   0.631  15.311  4.1530 -2.0461 -0.5284
 4129SOL    HW223850   2.334   0.663  15.230 -1.2622  0.2926 -1.6149
 4130SOL     OW23851   2.814   4.723  12.096 -0.4354 -0.0820  0.1378
 4130SOL    HW123852   2.836   0.090  12.109 -4.2482  0.8511 -0.2218
 4130SOL    HW223853   2.831   4.708  12.003  0.3604  0.3112  0.2196
 4131SOL     OW23854   0.818   2.993   3.319  0.5579 -0.5403 -0.8798
 4131SOL    HW123855   0.901   3.008   3.273  2.4005 -0.4307  2.4332
 4131SOL    HW223856   0.762   2.950   3.255 -0.6398  1.1429 -0.9775
 4132SOL     OW23857   0.699   2.451   0.019 -0.0787 -0.2492 -0.3536
 4132SOL    HW123858   0.696   2.462  17.629 -1.9556  0.7966 -0.1734
 4132SOL    HW223859   0.626   2.512   0.035  1.4780  1.9387 -1.5785
 4133SOL     OW23860   1.208   3.627   5.308 -0.2734  0.1916 -0.1432
 4133SOL    HW123861   1.160   3.589   5.382 -0.7913 -1.5934 -1.3698
 4133SOL    HW223862   1.266   3.691   5.349 -0.0075 -0.5452  0.6240
 4134SOL     OW23863   4.228   0.952   0.008 -0.6274  0.0091 -0.3531
 4134SOL    HW123864   4.205   1.041   0.034 -0.4259 -1.1334  3.6566
 4134SOL    HW223865   4.183   0.940  17.629  0.7694  0.1119 -1.1356
 4135SOL     OW23866   3.950   3.165   2.923 -0.1392 -0.1391  0.0032
 4135SOL    HW123867   3.961   3.256   2.950 -2.9205  0.1697  0.1125
 4135SOL    HW223868   3.857   3.164   2.900 -0.4200  0.1017  1.1377
 4136SOL     OW23869   1.364   4.101   2.053  0.3020 -0.3036  0.0451
 4136SOL    HW123870   1.411   4.057   2.124 -1.6463 -4.2846 -1.1123
 4136SOL    HW223871   1.308   4.028   2.027 -1.2401  0.9245 -0.1116
 4137SOL     OW23872   1.509   4.713   5.468 -0.7014  0.4179 -0.0150
 4137SOL    HW123873   1.439   0.052   5.471 -1.6899 -0.6994  1.3670
 4137SOL    HW223874   1.555   0.029   5.540 -0.3447  1.6416 -0.9561
 4138SOL     OW23875   2.545   3.358   4.156 -0.2755 -0.6417  0.4075
 4138SOL    HW123876   2.530   3.331   4.246  0.0890 -0.1005  0.6290
 4138SOL    HW223877   2.639   3.340   4.150  0.2736  2.6577 -0.8326
 4139SOL     OW23878   3.426   0.780   5.733  0.0218 -0.5657 -0.7443
 4139SOL    HW123879   3.439   0.771   5.639  0.7209  1.1225 -0.8106
 4139SOL    HW223880   3.501   0.734   5.772 -0.7701 -1.2948 -0.0905
 4140SOL     OW23881   2.972   1.189   4.754 -0.7031  0.4963 -0.0344
 4140SOL    HW123882   3.014   1.109   4.785 -1.2551  0.5167  0.7500
 4140SOL    HW223883   2.963   1.248   4.829 -1.7702  0.9088 -0.4832
 4141SOL     OW23884   0.675   0.072  16.806 -0.2846  0.1192 -0.2766
 4141SOL    HW123885   0.652   0.114  16.889  0.3742 -0.9186  0.4283
 4141SOL    HW223886   0.763   0.108  16.814  0.1361 -1.4551  1.9081
 4142SOL     OW23887   4.378   0.173  11.183 -0.1096 -0.0922  0.6613
 4142SOL    HW123888   4.311   0.113  11.150 -0.6231 -0.0829  1.7069
 4142SOL    HW223889   4.439   0.110  11.221 -0.6421 -0.9444  0.1122
 4143SOL     OW23890   2.644   1.764   1.794  0.2329 -0.1057 -0.6111
 4143SOL    HW123891   2.728   1.799   1.767  1.5803 -3.1374 -0.4126
 4143SOL    HW223892   2.623   1.711   1.717 -0.2186  0.0659 -0.6033
 4144SOL     OW23893   3.332   2.180   5.033  0.3351 -0.3431 -0.5960
 4144SOL    HW123894   3.426   2.166   5.019  0.0713  0.1509 -2.8216
 4144SOL    HW223895   3.329   2.225   5.118 -1.2421  1.2450 -1.5212
 4145SOL     OW23896   3.631   2.236   3.208  0.2745  0.4159  0.1449
 4145SOL    HW123897   3.688   2.212   3.135  0.7467  0.8053  0.3816
 4145SOL    HW223898   3.613   2.153   3.252  0.6521 -0.2080 -0.8668
 4146SOL     OW23899   1.754   1.332   4.304  0.2886  0.4657  0.5397
 4146SOL    HW123900   1.771   1.338   4.210 -1.4822 -0.9625  0.1281
 4146SOL    HW223901   1.799   1.414   4.324 -0.0498  0.6135  0.6891
 4147SOL     OW23902   4.493   0.101   1.285  0.0523  0.4779 -0.1381
 4147SOL    HW123903   4.566   0.107   1.224  0.1155 -0.4831 -0.1554
 4147SOL    HW223904   4.426   0.124   1.221 -0.2611  0.6726  0.2571
 4148SOL     OW23905   3.341   2.408   4.847 -0.5286  0.1713  0.2830
 4148SOL    HW123906   3.300   2.327   4.877  1.8924 -0.4072  1.9958
 4148SOL    HW223907   3.399   2.431   4.919  1.2717 -1.0316 -0.7971
 4149SOL     OW23908   1.997   4.407   4.949  0.4199 -0.2166 -0.0041
 4149SOL    HW123909   2.065   4.473   4.936  0.7960 -0.8474 -1.1643
 4149SOL    HW223910   1.919   4.461   4.967 -0.4316 -1.7887  1.0290
 4150SOL     OW23911   4.468   1.153   4.311  0.2231 -0.1213  0.1157
 4150SOL    HW123912   4.523   1.149   4.233 -0.1158  1.7209 -0.2243
 4150SOL    HW223913   4.406   1.218   4.278  1.1305 -0.1624 -1.6571
 4151SOL     OW23914   0.551   0.087   8.899 -0.0391  0.1447 -0.4499
 4151SOL    HW123915   0.527   0.179   8.916 -0.0901 -0.0030  0.2943
 4151SOL    HW223916   0.537   0.061   8.990 -0.3188 -0.8433 -0.7756
 4152SOL     OW23917   0.131   0.440  14.252 -0.4482  0.1684 -0.4933
 4152SOL    HW123918   0.079   0.477  14.181  1.9173  3.8618 -0.3381
 4152SOL    HW223919   0.198   0.508  14.247 -0.0121 -0.3103 -1.2484
 4153SOL     OW23920   4.613   1.770   2.531 -0.5581 -0.2843  0.0314
 4153SOL    HW123921   4.598   1.677   2.515 -0.3423 -0.6324  1.8816
 4153SOL    HW223922   4.527   1.797   2.563 -0.4349  0.8090 -0.5289
 4154SOL     OW23923   3.688   3.975   1.242 -0.0983  0.4309  0.4134
 4154SOL    HW123924   3.674   3.895   1.192  0.9288  0.3070  0.3105
 4154SOL    HW223925   3.624   4.036   1.207  0.8392  0.8025 -0.6573
 4155SOL     OW23926   3.446   2.524  15.985 -0.1638 -0.0418 -0.6736
 4155SOL    HW123927   3.476   2.607  16.022  0.3450 -1.1063  1.3414
 4155SOL    HW223928   3.472   2.463  16.054  0.5740  2.3163  1.1319
 4156SOL     OW23929   1.023   4.147  16.337 -0.7711  0.4239  0.0286
 4156SOL    HW123930   0.967   4.176  16.264 -1.6516  0.2405  0.6263
 4156SOL    HW223931   1.093   4.103  16.290 -2.5871 -2.2702 -0.1618
 4157SOL     OW23932   1.653   2.392  12.453  0.7662 -0.0866  1.2435
 4157SOL    HW123933   1.701   2.320  12.413 -1.1639 -1.0474  0.6731
 4157SOL    HW223934   1.588   2.408  12.385  0.9999  0.7867  1.2281
 4158SOL     OW23935   2.535   0.101  14.465  0.4848 -0.3829  0.2642
 4158SOL    HW123936   2.505   0.127  14.378 -1.3552  1.1049  1.3441
 4158SOL    HW223937   2.489   0.161  14.523 -1.1731 -0.6223 -0.8043
 4159SOL     OW23938   2.241   0.725  16.832 -0.4286 -0.1133 -0.2128
 4159SOL    HW123939   2.250   0.784  16.757  1.4426 -1.3074 -0.9292
 4159SOL    HW223940   2.160   0.752  16.874 -0.5274 -0.3115 -0.2752
 4160SOL     OW23941   2.949   3.731   4.050 -0.0190 -0.5701  0.1024
 4160SOL    HW123942   3.005   3.708   4.125  0.6283 -0.4533 -0.3428
 4160SOL    HW223943   2.994   3.697   3.973  0.3100  1.0645 -0.4159
 4161SOL     OW23944   1.606   4.262  15.814 -0.5160  0.7031 -0.4216
 4161SOL    HW123945   1.519   4.288  15.784 -1.8693 -0.8454  2.2546
 4161SOL    HW223946   1.634   4.337  15.866  1.1966  0.0962 -0.4739
 4162SOL     OW23947   3.031   3.651  11.790  0.1876  0.1323 -0.5762
 4162SOL    HW123948   3.060   3.611  11.708 -1.3936 -0.6579 -0.7437
 4162SOL    HW223949   2.953   3.695  11.757 -0.8820 -0.1771  1.5288
 4163SOL     OW23950   2.602   2.593   2.473  0.3290 -0.0496  0.1085
 4163SOL    HW123951   2.564   2.673   2.436  0.3500  0.8317  1.9873
 4163SOL    HW223952   2.667   2.636   2.528  2.0480  0.0329 -1.9752
 4164SOL     OW23953   3.022   0.885  12.630  0.2143  0.7450 -0.1699
 4164SOL    HW123954   2.956   0.942  12.669 -1.7950 -1.1896 -0.6886
 4164SOL    HW223955   2.999   0.805  12.678 -1.5333  0.3991 -1.5944
 4165SOL     OW23956   1.958   3.010   4.059 -0.4459 -0.8859  0.1800
 4165SOL    HW123957   1.967   2.919   4.032  0.3142 -0.3107 -1.4486
 4165SOL    HW223958   1.871   3.021   4.099 -0.6846  1.3080 -0.9027
 4166SOL     OW23959   1.976   1.748   1.657 -0.0054 -0.2257  0.1346
 4166SOL    HW123960   1.888   1.772   1.688  0.2964  1.3400 -0.1855
 4166SOL    HW223961   1.986   1.669   1.709  0.0049 -1.0069 -1.0545
 4167SOL     OW23962   0.293   2.164   8.343 -0.4601  0.0266  0.1389
 4167SOL    HW123963   0.271   2.255   8.358 -0.9409 -0.4724  2.3552
 4167SOL    HW223964   0.207   2.127   8.324 -1.7781  2.1558  2.0399
 4168SOL     OW23965   3.893   1.924   1.432 -0.1979 -0.2555 -0.4352
 4168SOL    HW123966   3.853   1.839   1.446  0.4644 -0.2003  1.8361
 4168SOL    HW223967   3.822   1.974   1.391  1.8884  1.1023 -2.4303
 4169SOL     OW23968   2.115   2.850   5.428 -0.3537 -0.4466  0.3748
 4169SOL    HW123969   2.159   2.772   5.392  0.2541  1.0536 -2.1563
 4169SOL    HW223970   2.022   2.828   5.428 -0.4768  0.0325 -1.3217
 4170SOL     OW23971   0.564   4.375   8.030 -0.5547 -0.2032 -0.0767
 4170SOL    HW123972   0.602   4.415   7.952 -0.4949  2.3867  1.2423
 4170SOL    HW223973   0.589   4.436   8.100 -0.6798  0.6738 -0.7956
 4171SOL     OW23974   1.332   0.570   5.388  0.0881  0.6091 -0.1433
 4171SOL    HW123975   1.422   0.537   5.398 -0.7318 -1.6105 -0.1987
 4171SOL    HW223976   1.317   0.538   5.300  0.3792  1.5803 -0.5456
 4172SOL     OW23977   3.690   1.807   3.461 -0.4707 -0.6772 -0.0133
 4172SOL    HW123978   3.614   1.766   3.501  1.3644 -0.6097  3.4955
 4172SOL    HW223979   3.761   1.774   3.516 -1.1690 -0.7899  0.8175
 4173SOL     OW23980   2.613   1.699   0.582  0.1322  0.2994  0.0825
 4173SOL    HW123981   2.520   1.690   0.602  0.1814  1.7259  0.9181
 4173SOL    HW223982   2.618   1.681   0.488 -0.1818 -1.6883  0.4496
 4174SOL     OW23983   2.738   2.786   9.695  0.0224  0.1620 -0.0372
 4174SOL    HW123984   2.795   2.771   9.620 -0.0599 -0.4455  0.0237
 4174SOL    HW223985   2.694   2.703   9.712 -2.0531  0.8130 -2.2155
 4175SOL     OW23986   0.870   2.107   7.781  0.9146 -0.2631  0.5455
 4175SOL    HW123987   0.916   2.170   7.726 -2.2525  2.0731  0.6007
 4175SOL    HW223988   0.913   2.115   7.866 -0.4725  0.0509  1.2203
 4176SOL     OW23989   3.339   0.682   8.328 -0.1818  0.2200  0.7454
 4176SOL    HW123990   3.392   0.601   8.332  0.0186  0.3060 -0.0050
 4176SOL    HW223991   3.263   0.664   8.383  0.5724 -1.4323  1.2497
 4177SOL     OW23992   1.775   4.212  14.581  0.0104 -0.7662  0.0674
 4177SOL    HW123993   1.791   4.279  14.515  0.0408 -0.1426  0.7002
 4177SOL    HW223994   1.835   4.141  14.558  1.6875  0.6392  0.1650
 4178SOL     OW23995   3.930   1.025   3.588  0.2658  0.7008 -0.0597
 4178SOL    HW123996   3.841   0.992   3.601 -0.1266  1.4862 -0.7733
 4178SOL    HW223997   3.924   1.120   3.587  1.0827  0.7543  0.2260
 4179SOL     OW23998   4.471   2.557   0.698  0.1506  0.3843 -0.2578
 4179SOL    HW123999   4.484   2.601   0.782 -1.7118  1.2044 -0.4147
 4179SOL    HW224000   4.393   2.596   0.660  0.0977  0.0491 -0.4978
 4180SOL     OW24001   2.334   2.100   9.011 -0.5654  0.2089  0.4488
 4180SOL    HW124002   2.365   2.075   9.098 -0.9502 -1.1259  0.2041
 4180SOL    HW224003   2.277   2.025   8.992 -0.4221  0.2359 -0.0846
 4181SOL     OW24004   0.161   2.291   7.402  0.5622 -0.0135 -0.3884
 4181SOL    HW124005   0.201   2.378   7.402 -3.7591  1.9805  1.5374
 4181SOL    HW224006   0.070   2.317   7.418  0.3033  0.5558 -2.7806
 4182SOL     OW24007   2.125   3.296   8.443  0.1737 -0.0048  0.2698
 4182SOL    HW124008   2.060   3.356   8.406 -0.5891 -2.0495 -1.6855
 4182SOL    HW224009   2.168   3.271   8.362  1.7283 -0.0753  1.1053
 4183SOL     OW24010   1.041   0.955  14.885  0.6900  0.5357  0.0438
 4183SOL    HW124011   1.039   0.905  14.967  0.7772  0.6396  0.1098
 4183SOL    HW224012   0.992   0.901  14.822 -0.8247 -0.6729  2.2575
 4184SOL     OW24013   3.245   3.560   8.829  0.5905  0.2107 -1.0089
 4184SOL    HW124014   3.244   3.476   8.874 -4.1164 -0.4942 -2.4765
 4184SOL    HW224015   3.323   3.592   8.876 -0.2232 -1.1245  1.2138
 4185SOL     OW24016   3.383   2.901  16.564  0.1937  0.1279  0.4962
 4185SOL    HW124017   3.386   2.983  16.612  1.2238  0.7245 -0.5679
 4185SOL    HW224018   3.362   2.832  16.627 -1.0866  1.5326  1.6007
 4186SOL     OW24019   1.429   0.548  16.496 -0.1882 -0.4178 -0.0967
 4186SOL    HW124020   1.338   0.567  16.476 -0.3020  1.9582  2.6825
 4186SOL    HW224021   1.421   0.455  16.518 -0.2093 -0.2802  0.4753
 4187SOL     OW24022   0.864   0.283   7.112 -0.0569  0.3037  0.3327
 4187SOL    HW124023   0.812   0.206   7.088  0.1606  0.9957 -2.3840
 4187SOL    HW224024   0.802   0.343   7.071  1.9019  1.7394 -0.5346
 4188SOL     OW24025   2.291   0.839   2.814 -0.2591  0.0325  0.6370
 4188SOL    HW124026   2.285   0.887   2.896 -2.7186 -0.8814  0.9647
 4188SOL    HW224027   2.363   0.783   2.843 -1.6413 -1.7286  0.5956
 4189SOL     OW24028   3.824   1.102  15.425 -0.5178  0.5485  0.3221
 4189SOL    HW124029   3.744   1.154  15.427 -0.9608 -0.1827  1.9867
 4189SOL    HW224030   3.784   1.015  15.431 -1.5555  0.8614 -2.0609
 4190SOL     OW24031   2.093   3.143   4.283 -0.6538  0.3408  0.3968
 4190SOL    HW124032   2.057   3.124   4.197 -0.7351  1.9326  0.0782
 4190SOL    HW224033   2.171   3.088   4.287 -0.2373  0.9637  0.9063
 4191SOL     OW24034   3.127   1.432   2.861  0.0906  0.3512  0.4002
 4191SOL    HW124035   3.105   1.490   2.933 -0.8685 -1.3934  1.5142
 4191SOL    HW224036   3.068   1.463   2.793 -1.5425 -2.5874  0.4681
 4192SOL     OW24037   2.861   2.921   2.306  0.0997  0.2204 -0.1937
 4192SOL    HW124038   2.944   2.965   2.320 -0.0418  0.1676  0.8089
 4192SOL    HW224039   2.888   2.829   2.305 -2.0574 -0.4427  2.7073
 4193SOL     OW24040   3.449   3.309   1.354  0.1240  0.4912  0.3419
 4193SOL    HW124041   3.460   3.319   1.448  1.3014  0.0414  0.2512
 4193SOL    HW224042   3.517   3.241   1.352  0.2397  0.5964  0.8014
 4194SOL     OW24043   4.459   0.624  17.437  0.0875 -0.3483  0.2954
 4194SOL    HW124044   4.405   0.545  17.426 -2.2348  1.3089 -0.0827
 4194SOL    HW224045   4.492   0.649  17.351  1.4374  1.1208  1.2457
 4195SOL     OW24046   1.575   3.424   3.395  0.5945  0.2716 -0.7349
 4195SOL    HW124047   1.584   3.514   3.364  0.2885 -0.8046 -3.8616
 4195SOL    HW224048   1.562   3.435   3.490  3.4038  0.8755 -0.4072
 4196SOL     OW24049   3.000   4.371   5.790  0.2639 -0.4253  0.0111
 4196SOL    HW124050   2.987   4.355   5.884  0.7093 -2.0866 -0.2123
 4196SOL    HW224051   2.936   4.307   5.761 -1.0252 -0.0959  2.1142
 4197SOL     OW24052   3.677   3.030   9.318 -0.7849 -0.0528  0.3891
 4197SOL    HW124053   3.624   3.018   9.397 -4.1239 -2.3956 -2.2094
 4197SOL    HW224054   3.621   3.064   9.249  0.9047  4.1476  1.0732
 4198SOL     OW24055   2.256   3.863   5.284  0.2804 -0.5852 -0.1259
 4198SOL    HW124056   2.289   3.950   5.262  0.8102 -0.8021 -0.1975
 4198SOL    HW224057   2.311   3.844   5.361  1.7797  0.8918 -0.8177
 4199SOL     OW24058   1.117   1.219  14.378 -0.0936 -0.3243  0.5240
 4199SOL    HW124059   1.099   1.186  14.466  0.2090  1.1360  1.1263
 4199SOL    HW224060   1.027   1.221  14.344  1.0867  1.4915 -2.4922
 4200SOL     OW24061   2.594   1.384   6.854  0.1498 -0.2975 -0.9939
 4200SOL    HW124062   2.680   1.422   6.871  0.5259 -1.1083 -1.0990
 4200SOL    HW224063   2.545   1.461   6.825 -2.7316 -1.7372 -0.0211
 4201SOL     OW24064   4.038   0.138   7.857  0.2059 -0.6250 -0.0734
 4201SOL    HW124065   4.115   0.117   7.804 -0.9743 -2.3991 -1.1067
 4201SOL    HW224066   4.086   0.201   7.910 -0.1991  0.0817 -0.5428
 4202SOL     OW24067   0.212   2.736   5.095 -0.5739  0.0346 -0.6168
 4202SOL    HW124068   0.232   2.743   5.188  1.9727  1.5071 -1.2917
 4202SOL    HW224069   0.236   2.827   5.081 -3.1857  0.6456 -1.2038
 4203SOL     OW24070   1.899   3.081   4.707 -0.3418 -0.3056  0.1024
 4203SOL    HW124071   1.940   3.107   4.789  0.0845  1.8151 -0.7836
 4203SOL    HW224072   1.914   3.154   4.646  0.3322  1.1495  2.0178
 4204SOL     OW24073   1.597   3.025   3.170  0.1299  0.1559  0.1817
 4204SOL    HW124074   1.556   2.939   3.158  0.5666  0.2599 -2.0798
 4204SOL    HW224075   1.681   3.010   3.127 -0.5355 -0.8787 -0.7490
 4205SOL     OW24076   0.884   2.472   5.903 -0.4582 -0.1126 -0.2118
 4205SOL    HW124077   0.895   2.382   5.872  0.5320 -0.0889  0.0844
 4205SOL    HW224078   0.898   2.462   5.997  1.8755 -2.9254 -0.8315
 4206SOL     OW24079   3.804   1.275   4.917  0.1434  0.4386  0.4906
 4206SOL    HW124080   3.872   1.265   4.851  0.2387 -0.5080  0.7252
 4206SOL    HW224081   3.823   1.361   4.955  1.6760  0.1340  0.4010
 4207SOL     OW24082   0.909   0.185   9.473 -1.0219 -0.4721 -0.7667
 4207SOL    HW124083   0.846   0.250   9.444 -0.6598 -1.5453 -3.9218
 4207SOL    HW224084   0.866   0.102   9.451  1.9146 -1.5237 -2.4902
 4208SOL     OW24085   0.790   0.760   6.043  0.2710 -0.1880 -0.6932
 4208SOL    HW124086   0.881   0.746   6.069 -0.5095 -1.0944  1.5238
 4208SOL    HW224087   0.765   0.850   6.064 -0.9454 -0.0905 -2.4954
 4209SOL     OW24088   1.715   4.673   6.165 -0.4227  0.4378  0.0147
 4209SOL    HW124089   1.638   4.691   6.112 -0.0125  1.4091 -0.2495
 4209SOL    HW224090   1.727   0.025   6.220 -2.0331  0.5330  0.2344
 4210SOL     OW24091   4.407   2.917   2.208 -0.3310 -0.7571 -0.6621
 4210SOL    HW124092   4.386   2.841   2.262 -0.2286  0.0545  0.4953
 4210SOL    HW224093   4.349   2.983   2.246 -1.2709 -1.1623 -1.3795
 4211SOL     OW24094   3.472   2.792   3.192 -0.1071 -0.2222  0.3501
 4211SOL    HW124095   3.483   2.718   3.133 -0.9229  0.0047 -0.0944
 4211SOL    HW224096   3.384   2.773   3.224  0.3542  2.3188  3.1619
 4212SOL     OW24097   1.278   0.668   5.916  0.3867 -0.1630  0.9941
 4212SOL    HW124098   1.358   0.695   5.963  0.1656  2.2798 -0.0168
 4212SOL    HW224099   1.311   0.612   5.846 -0.6618  0.4094  0.0552
 4213SOL     OW24100   4.512   3.009   6.184 -0.1108  0.1974 -0.2042
 4213SOL    HW124101   4.465   3.021   6.267  0.3986 -0.0993  0.1273
 4213SOL    HW224102   4.601   2.995   6.215 -0.6538 -2.6434  0.0440
 4214SOL     OW24103   4.621   0.358   7.240  0.5132  0.1389  0.3845
 4214SOL    HW124104   4.708   0.317   7.244 -0.0168 -0.9787  0.5459
 4214SOL    HW224105   4.643   0.439   7.194  0.9827  0.7767  1.7302
 4215SOL     OW24106   1.423   2.925   2.143  0.6678 -0.6015 -0.6427
 4215SOL    HW124107   1.452   2.983   2.072  0.8336  2.3083  1.7732
 4215SOL    HW224108   1.332   2.954   2.145  0.9035  0.1146 -0.0362
 4216SOL     OW24109   0.516   0.643  16.027  0.4264  0.1062 -0.4137
 4216SOL    HW124110   0.458   0.571  16.002 -0.6582  1.3707 -1.4672
 4216SOL    HW224111   0.486   0.670  16.114 -0.1906  1.0331 -0.9158
 4217SOL     OW24112   1.324   1.854  10.893  0.1579 -0.4299  0.4294
 4217SOL    HW124113   1.350   1.765  10.918  2.4765 -0.6236 -2.6222
 4217SOL    HW224114   1.237   1.851  10.853 -0.3667  0.2721  1.5085
 4218SOL     OW24115   3.652   2.866   2.795 -0.1524  0.2840  0.2727
 4218SOL    HW124116   3.676   2.809   2.721 -0.8967  1.0184 -0.5343
 4218SOL    HW224117   3.735   2.873   2.842  0.3010  0.6585 -0.5719
 4219SOL     OW24118   2.775   3.158   2.924 -0.0641  0.2633 -0.2558
 4219SOL    HW124119   2.865   3.188   2.913  0.1995  0.3924  2.1171
 4219SOL    HW224120   2.804   3.067   2.915 -0.7783  0.2281 -2.1595
 4220SOL     OW24121   0.989   0.099   4.515  0.2039  0.3391 -0.0652
 4220SOL    HW124122   0.962   0.191   4.509 -1.2722  0.0807  2.8120
 4220SOL    HW224123   0.970   0.068   4.427 -0.4287 -2.9516  1.2227
 4221SOL     OW24124   2.162   1.877  13.404  0.3245  0.6684  0.2183
 4221SOL    HW124125   2.169   1.818  13.329  1.2367  1.8055 -0.5964
 4221SOL    HW224126   2.250   1.911  13.416  0.4043  0.0915  1.3045
 4222SOL     OW24127   2.673   3.497   5.555 -0.1644  0.4018 -0.1285
 4222SOL    HW124128   2.693   3.411   5.518  1.7075 -0.4373  2.8387
 4222SOL    HW224129   2.761   3.524   5.583 -0.8042 -1.6105  3.8523
 4223SOL     OW24130   4.057   0.976   4.490  0.3780  0.1722  0.4300
 4223SOL    HW124131   3.962   0.980   4.488  0.4141  0.8816  0.0985
 4223SOL    HW224132   4.086   1.067   4.498 -1.3530  1.0391 -3.2746
 4224SOL     OW24133   0.088   0.601   2.363  0.4587  0.1844  0.0734
 4224SOL    HW124134   0.137   0.658   2.422 -0.6329  0.9337  0.2407
 4224SOL    HW224135   0.143   0.577   2.289  3.9256 -0.4716  2.8406
 4225SOL     OW24136   1.852   3.109   9.423 -1.1731  0.2505 -0.6440
 4225SOL    HW124137   1.825   3.121   9.332  1.7365  1.1709 -1.3860
 4225SOL    HW224138   1.785   3.161   9.468 -0.1887  1.1250 -0.1854
 4226SOL     OW24139   1.156   1.170   6.985  1.1168 -0.1198 -0.3148
 4226SOL    HW124140   1.150   1.161   7.080 -0.4049 -1.8990 -0.5817
 4226SOL    HW224141   1.106   1.094   6.957  1.2157 -0.1724 -0.3517
 4227SOL     OW24142   2.962   1.419   0.838 -0.5595  0.5434 -0.3507
 4227SOL    HW124143   3.052   1.415   0.869 -0.6307 -1.1370 -0.3554
 4227SOL    HW224144   2.965   1.412   0.743  2.0253  0.2294 -0.2326
 4228SOL     OW24145   4.549   3.058   5.925 -0.5999  0.2738  0.2482
 4228SOL    HW124146   4.467   3.013   5.905 -2.2224  2.5653  1.7697
 4228SOL    HW224147   4.547   3.053   6.021 -0.2120 -0.1059  0.2334
 4229SOL     OW24148   4.658   1.819  16.946 -0.4089  0.1719  0.4275
 4229SOL    HW124149   4.633   1.761  17.019 -2.7607 -0.4868 -0.9071
 4229SOL    HW224150   0.011   1.780  16.909 -0.3332 -0.2156  0.9930
 4230SOL     OW24151   2.088   1.084   2.876 -0.5469  0.3393 -0.1189
 4230SOL    HW124152   2.174   1.124   2.860 -0.3398 -0.5068 -1.1625
 4230SOL    HW224153   2.103   1.011   2.816 -1.9529  0.5487 -0.7255
 4231SOL     OW24154   4.685   4.648   0.805 -0.0760  1.0870 -0.1146
 4231SOL    HW124155   0.034   4.602   0.766  1.0229 -0.1620  3.4247
 4231SOL    HW224156   4.723   0.003   0.771  1.3919 -0.0700 -1.2461
 4232SOL     OW24157   4.684   0.660   0.553  0.2314 -0.5846 -0.5940
 4232SOL    HW124158   4.648   0.727   0.495 -1.5945 -1.4932 -0.5176
 4232SOL    HW224159   4.686   0.580   0.500  2.1256  0.8027 -2.5951
 4233SOL     OW24160   1.369   0.775   4.589 -0.1425 -0.0961  0.0542
 4233SOL    HW124161   1.346   0.748   4.677  0.5905 -0.6664  0.0704
 4233SOL    HW224162   1.446   0.831   4.603  0.4023 -0.9587  0.5316
 4234SOL     OW24163   3.873   1.813  16.527 -0.3132  0.4438  0.3461
 4234SOL    HW124164   3.873   1.867  16.606  1.5668  1.7173 -0.5459
 4234SOL    HW224165   3.869   1.880  16.459 -1.3747  0.2041  0.1621
 4235SOL     OW24166   4.031   1.414   8.651  0.2550 -0.5830 -0.3536
 4235SOL    HW124167   3.948   1.445   8.687  0.6354  0.1043 -0.0794
 4235SOL    HW224168   4.094   1.440   8.718  0.9199 -3.0621 -0.0135
 4236SOL     OW24169   1.280   3.419   1.567 -1.0421  0.0734 -0.2686
 4236SOL    HW124170   1.244   3.480   1.631 -0.2139 -0.1472  0.4180
 4236SOL    HW224171   1.356   3.467   1.536 -2.0451  2.4537  1.0036
 4237SOL     OW24172   0.098   1.815   9.207  0.1512 -0.1573 -0.0133
 4237SOL    HW124173   0.048   1.896   9.205 -1.9098 -1.3988  1.0183
 4237SOL    HW224174   0.096   1.795   9.301  1.8433 -1.6538 -0.2775
 4238SOL     OW24175   3.936   2.995  13.792  0.1797 -0.6540  0.1029
 4238SOL    HW124176   3.925   3.020  13.883  1.1993 -0.8037  0.2637
 4238SOL    HW224177   3.882   2.916  13.788  1.0760 -1.2754  0.1359
 4239SOL     OW24178   0.225   2.503   2.483 -0.3874  0.2605  0.3558
 4239SOL    HW124179   0.256   2.414   2.496  2.5164  1.3191  0.6561
 4239SOL    HW224180   0.308   2.551   2.489  0.3906 -1.0301 -0.2399
 4240SOL     OW24181   0.537   2.429   8.035 -0.1742  0.0468 -0.7617
 4240SOL    HW124182   0.602   2.422   8.105 -2.3581 -0.8726  1.1684
 4240SOL    HW224183   0.517   2.337   8.021 -0.2792  0.0160 -0.4061
 4241SOL     OW24184   4.418   2.513   7.568 -0.0411  0.8083  0.1070
 4241SOL    HW124185   4.508   2.515   7.534 -0.2313  0.7553 -0.4067
 4241SOL    HW224186   4.401   2.600   7.602  0.9094  0.3714  1.6872
 4242SOL     OW24187   1.090   4.118   6.154 -0.0561  0.7414  0.4645
 4242SOL    HW124188   1.130   4.079   6.232 -1.0400 -0.3171  0.4492
 4242SOL    HW224189   1.019   4.054   6.149  0.3792  0.3946 -1.0863
 4243SOL     OW24190   0.335   1.687   7.692 -0.4037  0.0853 -0.1763
 4243SOL    HW124191   0.258   1.727   7.733  0.1480 -0.6315  1.5481
 4243SOL    HW224192   0.370   1.769   7.656 -0.0210 -0.0911 -0.1999
 4244SOL     OW24193   3.193   1.746   6.920  0.0482 -0.2108 -0.4390
 4244SOL    HW124194   3.163   1.659   6.947 -1.8831  0.1553 -1.4232
 4244SOL    HW224195   3.113   1.775   6.876  0.7714  1.3174 -0.6954
 4245SOL     OW24196   3.293   0.518   9.185 -0.3832 -0.2155 -0.4764
 4245SOL    HW124197   3.279   0.550   9.275  0.3016 -1.0572 -0.0637
 4245SOL    HW224198   3.203   0.521   9.152 -0.4055  0.5552 -0.3431
 4246SOL     OW24199   0.510   0.535   9.417  0.2843  0.3974 -1.0710
 4246SOL    HW124200   0.434   0.496   9.373 -0.5312  2.0652 -1.1316
 4246SOL    HW224201   0.558   0.584   9.350  0.0198  2.5897  0.3423
 4247SOL     OW24202   3.438   1.741  15.423 -0.1317  0.4035  0.1701
 4247SOL    HW124203   3.449   1.764  15.331  1.1906 -1.9508 -0.2866
 4247SOL    HW224204   3.430   1.827  15.464  1.1557 -0.3788  2.0651
 4248SOL     OW24205   1.450   2.108   7.749  0.3371  0.1291  0.0713
 4248SOL    HW124206   1.374   2.075   7.701 -0.3387  0.1702  1.1221
 4248SOL    HW224207   1.415   2.085   7.835 -2.9239  0.4927 -1.1274
 4249SOL     OW24208   2.921   3.024  11.245 -0.1883  0.5583  0.2048
 4249SOL    HW124209   2.933   3.061  11.157  0.8711 -2.2847 -0.8468
 4249SOL    HW224210   2.953   3.097  11.298 -2.4108 -0.0646  2.4048
 4250SOL     OW24211   1.439   3.333   7.193 -0.0582  0.1104 -0.4673
 4250SOL    HW124212   1.390   3.385   7.129  1.8959  2.5242  0.0058
 4250SOL    HW224213   1.393   3.361   7.272  0.7484 -4.9503  1.8169
 4251SOL     OW24214   0.195   0.230  15.619 -0.1476  0.9014  0.0125
 4251SOL    HW124215   0.236   0.226  15.532  1.4494  0.1686  0.7933
 4251SOL    HW224216   0.135   0.156  15.610  1.1002 -0.0136 -0.8040
 4252SOL     OW24217   4.078   1.726   3.131  0.1373 -0.0636  0.1330
 4252SOL    HW124218   3.999   1.705   3.082  0.7997  1.0083 -1.4276
 4252SOL    HW224219   4.144   1.707   3.064  1.1747  0.5619  0.9730
 4253SOL     OW24220   3.594   3.636   5.659 -0.2750  0.1277 -0.0868
 4253SOL    HW124221   3.662   3.574   5.682 -1.3767 -1.3010 -0.6653
 4253SOL    HW224222   3.602   3.692   5.736 -3.4732 -0.1567  0.4586
 4254SOL     OW24223   4.340   3.866   1.832  0.4121 -0.2148  0.1131
 4254SOL    HW124224   4.319   3.959   1.819  2.6435  0.3046  0.1762
 4254SOL    HW224225   4.418   3.845   1.781  1.3965 -0.1225  1.5817
 4255SOL     OW24226   2.911   1.587  16.431  0.0071  0.8695 -0.0754
 4255SOL    HW124227   2.876   1.668  16.395  1.9952  1.3932 -0.8146
 4255SOL    HW224228   2.964   1.539  16.367 -0.7511 -0.2273  0.1195
 4256SOL     OW24229   4.163   3.291   1.812  0.3042 -0.4166 -0.0363
 4256SOL    HW124230   4.107   3.239   1.870 -0.1197  0.4354  0.3270
 4256SOL    HW224231   4.155   3.228   1.740  0.7673 -1.6889  1.0313
 4257SOL     OW24232   0.978   4.553  12.183  0.4266  0.1655 -0.3109
 4257SOL    HW124233   1.013   4.590  12.102  1.6633  2.1939  1.1718
 4257SOL    HW224234   0.966   4.631  12.237  2.4112  0.5307 -0.3810
 4258SOL     OW24235   0.380   1.398   5.358  0.0668 -0.1029  0.0152
 4258SOL    HW124236   0.312   1.333   5.339  1.2441 -1.7745  1.4157
 4258SOL    HW224237   0.397   1.440   5.273  0.1409  1.0716  0.6118
 4259SOL     OW24238   1.292   1.520   9.143 -0.0402  0.3855 -0.5985
 4259SOL    HW124239   1.357   1.537   9.074 -2.5716 -0.7236 -3.2387
 4259SOL    HW224240   1.313   1.582   9.213 -1.2470 -1.9168  1.8048
 4260SOL     OW24241   4.570   3.392   4.162  0.4657  0.3520 -0.3284
 4260SOL    HW124242   4.641   3.328   4.158 -1.0337 -1.1720 -3.0938
 4260SOL    HW224243   4.586   3.429   4.249  0.6102  2.9370 -1.4368
 4261SOL     OW24244   2.426   2.700  11.534 -0.1246 -0.3991 -0.0947
 4261SOL    HW124245   2.478   2.754  11.475 -1.2761  1.4632  0.5943
 4261SOL    HW224246   2.338   2.719  11.504  0.1431  0.7063 -0.1645
 4262SOL     OW24247   4.308   1.461   7.226 -0.1474 -0.2742  0.1259
 4262SOL    HW124248   4.378   1.470   7.291  0.4361 -2.2271 -0.2099
 4262SOL    HW224249   4.307   1.367   7.207 -1.1219 -0.6749  2.2013
 4263SOL     OW24250   0.034   1.117   7.538 -0.2652  0.2301 -0.2935
 4263SOL    HW124251   4.678   1.080   7.569  0.4337 -0.2134  0.9983
 4263SOL    HW224252   0.032   1.084   7.448  0.1199  0.7538 -0.4964
 4264SOL     OW24253   3.842   2.552   4.804 -0.5998  0.0795 -0.1951
 4264SOL    HW124254   3.800   2.547   4.890  3.0124 -2.3227  1.4304
 4264SOL    HW224255   3.881   2.640   4.813 -0.4930 -0.0806  0.9525
 4265SOL     OW24256   3.796   0.968   7.779 -0.2313  0.3119  0.1933
 4265SOL    HW124257   3.760   0.986   7.866 -0.1214  0.3926  0.2213
 4265SOL    HW224258   3.718   0.941   7.729 -0.2096  1.1608 -0.3102
 4266SOL     OW24259   3.584   4.080   8.905 -0.3113  0.0112 -0.3713
 4266SOL    HW124260   3.589   4.168   8.867 -1.5206  0.2824  0.0846
 4266SOL    HW224261   3.666   4.082   8.954 -1.2209  0.1022  1.1256
 4267SOL     OW24262   1.009   0.258   8.421 -0.6294 -0.1735 -0.1771
 4267SOL    HW124263   0.939   0.251   8.356 -0.5779 -1.6297 -0.0782
 4267SOL    HW224264   0.969   0.323   8.480 -0.3228  1.9132 -2.2931
 4268SOL     OW24265   3.874   3.972  13.252  0.2047  0.6904 -0.7714
 4268SOL    HW124266   3.948   4.025  13.220  2.5135 -1.4247  1.0243
 4268SOL    HW224267   3.834   4.029  13.317  1.7781  1.0006 -0.0746
 4269SOL     OW24268   2.444   1.721   4.821  0.0484  0.2583  0.0750
 4269SOL    HW124269   2.470   1.645   4.873  1.2725  0.9688  0.5243
 4269SOL    HW224270   2.457   1.707   4.728  0.1155  1.8036 -0.1599
 4270SOL     OW24271   0.648   3.486   3.572  0.1441  0.2346 -0.3168
 4270SOL    HW124272   0.655   3.449   3.484 -1.1616 -1.7944  0.4366
 4270SOL    HW224273   0.726   3.541   3.579 -0.2911  0.7533  0.3836
 4271SOL     OW24274   3.813   2.840   4.495  0.5449  0.4853  0.0166
 4271SOL    HW124275   3.784   2.764   4.445 -2.3340 -0.1745  2.7045
 4271SOL    HW224276   3.741   2.864   4.553 -0.9001 -1.1007 -1.1170
 4272SOL     OW24277   0.072   0.942   0.553  0.5674 -0.0496 -0.1037
 4272SOL    HW124278   0.057   0.954   0.646  3.9149 -0.7206  0.5307
 4272SOL    HW224279   0.097   0.850   0.544 -1.7720 -0.7944  0.9896
 4273SOL     OW24280   3.328   2.938   5.438  1.0373  0.2473  0.0079
 4273SOL    HW124281   3.412   2.922   5.480  1.1663 -1.6988 -0.9778
 4273SOL    HW224282   3.325   2.869   5.372  0.0590 -0.0719  0.3858
 4274SOL     OW24283   2.093   4.269  14.027  0.3345  0.1443 -0.3403
 4274SOL    HW124284   2.157   4.258  13.956  1.9892 -0.9799  1.3023
 4274SOL    HW224285   2.152   4.257  14.101 -0.1047 -1.9461 -0.3279
 4275SOL     OW24286   1.730   3.773   2.842  0.0889  0.4413 -0.5062
 4275SOL    HW124287   1.813   3.734   2.870 -0.8837  0.1156  1.9438
 4275SOL    HW224288   1.670   3.701   2.826  1.6001 -0.5394 -1.7573
 4276SOL     OW24289   3.003   2.941   9.395  0.3740 -0.2838 -0.0548
 4276SOL    HW124290   3.025   2.850   9.372  1.0987 -0.3312  0.8437
 4276SOL    HW224291   2.976   2.979   9.311 -1.0273  0.9667  0.9617
 4277SOL     OW24292   1.579   0.269   9.218  0.7578 -0.9649 -0.4859
 4277SOL    HW124293   1.643   0.334   9.246  1.5239 -2.1555  0.5248
 4277SOL    HW224294   1.627   0.188   9.234  0.5522 -1.1379 -0.7321
 4278SOL     OW24295   2.113   4.638   8.213 -0.0300 -0.5349  0.1667
 4278SOL    HW124296   2.208   4.642   8.227 -0.0226  0.5214 -0.1862
 4278SOL    HW224297   2.092   4.549   8.242  2.5308 -1.3057 -0.2744
 4279SOL     OW24298   0.684   2.607  16.609 -0.1407  0.6613  0.2745
 4279SOL    HW124299   0.693   2.665  16.533 -1.2941 -0.6897 -0.8968
 4279SOL    HW224300   0.597   2.572  16.587  0.8494 -3.1411  2.3575
 4280SOL     OW24301   3.255   3.569   7.571 -0.2525  0.0833 -0.4115
 4280SOL    HW124302   3.213   3.551   7.655 -0.0146  1.0293 -0.0967
 4280SOL    HW224303   3.258   3.664   7.574  0.2097  0.0947 -1.1318
 4281SOL     OW24304   2.960   2.476   1.220  0.7569  0.2510 -0.2210
 4281SOL    HW124305   2.891   2.461   1.156 -0.4065 -0.7262  1.2437
 4281SOL    HW224306   2.980   2.568   1.204 -1.5469  0.7903 -0.0032
 4282SOL     OW24307   0.583   1.190   2.059 -0.7067  0.0472  0.3760
 4282SOL    HW124308   0.654   1.246   2.029  0.1609 -0.8455  0.7557
 4282SOL    HW224309   0.604   1.186   2.152  3.4306 -0.1369 -0.5645
 4283SOL     OW24310   0.771   1.708   8.079 -0.0135 -0.5431 -0.1542
 4283SOL    HW124311   0.793   1.762   8.155 -0.4445 -0.7985  0.1525
 4283SOL    HW224312   0.714   1.638   8.112 -1.1482  0.6585  0.4548
 4284SOL     OW24313   1.334   0.721   6.712  0.0250 -0.6067 -0.2790
 4284SOL    HW124314   1.407   0.658   6.713  1.4448  1.0620  0.8578
 4284SOL    HW224315   1.298   0.721   6.801 -1.8089  1.8397 -1.0227
 4285SOL     OW24316   3.334   0.751   7.666  0.1793  0.8734  0.0286
 4285SOL    HW124317   3.247   0.747   7.706  0.3481 -0.8193  0.2477
 4285SOL    HW224318   3.300   0.713   7.586  1.3297  3.2976 -1.5918
 4286SOL     OW24319   0.940   3.993   9.111 -0.0310  0.3789  0.4986
 4286SOL    HW124320   0.954   3.909   9.155  0.0996  0.8947  1.4415
 4286SOL    HW224321   0.951   4.056   9.182 -1.0979  0.1560  0.8700
 4287SOL     OW24322   2.424   2.599  12.957 -0.1370 -0.2072 -0.1790
 4287SOL    HW124323   2.504   2.548  12.953  1.1795  1.7164  1.5001
 4287SOL    HW224324   2.387   2.569  13.040 -0.3243 -0.6909 -0.4372
 4288SOL     OW24325   4.481   2.656   5.351  0.0019  0.0324  0.4611
 4288SOL    HW124326   4.564   2.702   5.333  0.0427 -0.8494 -1.6092
 4288SOL    HW224327   4.435   2.681   5.271  0.1253  1.3602  0.7989
 4289SOL     OW24328   1.950   2.786   3.373  0.0462 -0.3165 -0.0401
 4289SOL    HW124329   1.967   2.877   3.396  0.4507 -0.3601 -0.1651
 4289SOL    HW224330   2.000   2.786   3.291  0.0287  0.3798 -0.0503
 4290SOL     OW24331   4.208   2.439   1.425 -0.4192  0.7728 -0.1253
 4290SOL    HW124332   4.292   2.475   1.397  1.8646 -1.1739  4.2795
 4290SOL    HW224333   4.186   2.381   1.352 -0.2171  0.2738  0.2170
 4291SOL     OW24334   3.718   2.659   2.242  0.2888 -1.0695 -0.1488
 4291SOL    HW124335   3.718   2.723   2.171  1.6789 -0.8410  0.0576
 4291SOL    HW224336   3.784   2.595   2.217  0.7728 -0.6865  0.1497
 4292SOL     OW24337   2.968   2.837   0.913  0.6708  0.2226  1.0294
 4292SOL    HW124338   2.944   2.841   1.006 -0.1647  0.0905  0.8227
 4292SOL    HW224339   2.985   2.743   0.904  1.4684  0.6102 -1.5389
 4293SOL     OW24340   4.097   4.113   0.090  0.2582 -0.0059 -0.4886
 4293SOL    HW124341   4.066   4.114  17.705  2.6234  0.8360 -1.2744
 4293SOL    HW224342   4.021   4.125   0.147 -1.9425 -0.1596 -3.3941
 4294SOL     OW24343   3.549   3.299   8.617 -0.1527 -0.1713  0.2548
 4294SOL    HW124344   3.581   3.294   8.707  0.2825  1.0883  0.1683
 4294SOL    HW224345   3.625   3.333   8.571  0.2115 -0.8664  0.3447
 4295SOL     OW24346   4.328   1.735   8.176 -0.0047  0.5719  0.4196
 4295SOL    HW124347   4.260   1.802   8.183 -0.4152  0.3098 -1.1225
 4295SOL    HW224348   4.308   1.681   8.100  1.6758 -0.7592  0.9239
 4296SOL     OW24349   2.515   3.120   2.581 -0.1667 -0.0221  0.3840
 4296SOL    HW124350   2.486   3.128   2.490  0.8305 -2.8149 -0.1561
 4296SOL    HW224351   2.437   3.150   2.628 -1.3950 -1.6709 -0.6088
 4297SOL     OW24352   0.017   1.135   2.981 -0.2317 -0.2268  0.0632
 4297SOL    HW124353   0.035   1.094   2.896  1.4218  1.3116 -0.3109
 4297SOL    HW224354   0.102   1.162   3.015 -0.5410 -0.4121  0.9800
 4298SOL     OW24355   0.648   1.644   7.215  0.3713 -0.2269 -0.1233
 4298SOL    HW124356   0.720   1.678   7.162 -0.1393  0.0701 -0.6243
 4298SOL    HW224357   0.689   1.641   7.301 -1.6096  0.9163  0.8390
 4299SOL     OW24358   1.879   2.952   6.317 -0.1284 -0.0139  0.2204
 4299SOL    HW124359   1.950   2.901   6.357  0.3021 -0.8352 -1.5810
 4299SOL    HW224360   1.815   2.885   6.295 -0.1910  0.4884 -1.1072
 4300SOL     OW24361   1.130   1.368   4.160 -0.2403 -0.5607  0.0961
 4300SOL    HW124362   1.193   1.436   4.182  1.0745 -1.6084 -0.4623
 4300SOL    HW224363   1.100   1.319   4.237 -1.2834 -1.3497 -0.7988
 4301SOL     OW24364   1.409   0.645   1.197 -0.3577 -0.0119 -0.2319
 4301SOL    HW124365   1.387   0.566   1.246 -0.6644  1.2223  1.6475
 4301SOL    HW224366   1.327   0.694   1.200 -0.9748 -1.1199  0.8198
 4302SOL     OW24367   3.800   0.346   4.580  0.3938 -0.6120 -0.2295
 4302SOL    HW124368   3.758   0.400   4.513  0.9942 -1.3257 -1.1907
 4302SOL    HW224369   3.821   0.412   4.646  0.0187 -0.4084 -0.3140
 4303SOL     OW24370   2.934   1.340   1.398  0.3854  0.0394  0.1421
 4303SOL    HW124371   2.908   1.254   1.364 -0.1908  0.4803 -0.5350
 4303SOL    HW224372   2.985   1.385   1.330  0.7592  1.9139  1.6708
 4304SOL     OW24373   3.890   1.691  13.748  0.1946 -0.2273 -0.4336
 4304SOL    HW124374   3.810   1.721  13.791  0.7080 -0.3362  0.5778
 4304SOL    HW224375   3.862   1.627  13.683  0.1101 -1.9318  1.2827
 4305SOL     OW24376   2.941   3.127   1.353 -0.7543  0.0776 -0.3814
 4305SOL    HW124377   2.873   3.185   1.318  1.0608  1.2668 -1.9845
 4305SOL    HW224378   3.011   3.192   1.359 -0.4140 -0.4216  1.2226
 4306SOL     OW24379   3.133   1.390   8.700 -0.3203 -0.5290 -0.2587
 4306SOL    HW124380   3.079   1.315   8.723 -0.3358 -1.0318 -1.9051
 4306SOL    HW224381   3.199   1.338   8.654 -1.0327 -1.5739 -0.0802
 4307SOL     OW24382   3.948   1.960   0.740  0.3053 -0.5592 -0.7231
 4307SOL    HW124383   3.960   1.925   0.652 -0.5056  0.0355 -1.0700
 4307SOL    HW224384   4.037   1.993   0.748 -0.3009  0.9098  0.1274
 4308SOL     OW24385   0.902   1.201   6.241  0.5115  0.0178 -0.4829
 4308SOL    HW124386   0.966   1.176   6.175  1.0573 -1.9705  0.7835
 4308SOL    HW224387   0.874   1.284   6.203  4.2804  0.9439 -1.1735
 4309SOL     OW24388   1.352   1.198   0.505 -0.2911 -0.0620  0.0617
 4309SOL    HW124389   1.401   1.213   0.424 -0.9431  1.5553 -0.0203
 4309SOL    HW224390   1.337   1.103   0.506 -0.7534  0.0277  3.4098
 4310SOL     OW24391   4.696   3.503  16.846 -0.1739 -0.3872 -0.7166
 4310SOL    HW124392   4.615   3.489  16.895  1.1697 -2.2564  0.9702
 4310SOL    HW224393   4.660   3.556  16.775 -0.0939  1.5599  0.7090
 4311SOL     OW24394   1.230   2.720   2.303  0.2529 -0.1692  0.0823
 4311SOL    HW124395   1.288   2.760   2.239  1.6970  1.0315  2.1416
 4311SOL    HW224396   1.302   2.691   2.359  0.0235  1.3081  1.1373
 4312SOL     OW24397   3.085   3.837   1.035  0.0344 -0.1719  0.1328
 4312SOL    HW124398   3.009   3.879   1.076 -0.8069 -1.4016 -0.1529
 4312SOL    HW224399   3.060   3.851   0.944 -1.5398  0.5722  0.6688
 4313SOL     OW24400   0.003   2.787   6.823 -0.2071  0.3053 -0.9413
 4313SOL    HW124401   0.065   2.757   6.889  0.4003  1.3924 -1.0284
 4313SOL    HW224402   4.689   2.865   6.861 -1.7450  0.3889 -2.6933
 4314SOL     OW24403   3.004   3.696  10.101  1.0388  0.5516  0.2691
 4314SOL    HW124404   3.077   3.698  10.162 -0.0611 -2.2292  1.6853
 4314SOL    HW224405   2.932   3.741  10.146  1.7471  0.1002  1.8606
 4315SOL     OW24406   0.619   4.427   2.410 -0.1407  0.3589  0.3720
 4315SOL    HW124407   0.671   4.346   2.406  3.8554  2.9714 -0.8990
 4315SOL    HW224408   0.621   4.459   2.320 -0.5968  0.3092  0.3453
 4316SOL     OW24409   3.380   2.730  13.385 -0.1410 -0.3250 -0.7597
 4316SOL    HW124410   3.437   2.724  13.309  0.2806 -1.4339 -0.3549
 4316SOL    HW224411   3.362   2.638  13.403  1.5248 -0.2261  1.3762
 4317SOL     OW24412   3.487   0.695  14.798 -0.5796 -0.2044 -0.0738
 4317SOL    HW124413   3.492   0.618  14.854  1.7073  0.3710  0.5312
 4317SOL    HW224414   3.397   0.690  14.766 -1.1676 -2.1825  1.9292
 4318SOL     OW24415   2.352   0.553   2.016 -0.1973  0.2086 -0.0896
 4318SOL    HW124416   2.369   0.630   1.963  0.0435 -1.1780 -2.0170
 4318SOL    HW224417   2.265   0.567   2.055  0.2484 -0.2974  1.0958
 4319SOL     OW24418   4.475   2.479   4.273 -0.0492 -0.2088 -0.1452
 4319SOL    HW124419   4.394   2.442   4.238 -0.1852 -0.9223  0.9067
 4319SOL    HW224420   4.464   2.433   4.357  0.6438 -1.4123 -0.7147
 4320SOL     OW24421   3.743   3.165   3.799  0.0266  0.1709  0.0590
 4320SOL    HW124422   3.649   3.164   3.782  0.2629 -2.1577 -1.0877
 4320SOL    HW224423   3.783   3.111   3.731 -1.8365 -0.8578 -0.2055
 4321SOL     OW24424   4.051   0.001   5.007  0.7197 -0.0207 -0.0014
 4321SOL    HW124425   4.121   4.662   5.016 -0.4289 -1.0835  1.1653
 4321SOL    HW224426   3.980   4.664   4.995 -0.6826  1.1505  2.1290
 4322SOL     OW24427   2.083   2.295   4.419  0.1013 -0.3199  0.2886
 4322SOL    HW124428   2.096   2.200   4.419 -2.4007 -0.6793  2.2752
 4322SOL    HW224429   2.029   2.315   4.495  0.3859  1.0783  0.1111
 4323SOL     OW24430   2.894   2.665   6.219 -0.4661  0.3461  0.0100
 4323SOL    HW124431   2.978   2.693   6.255 -0.4008 -0.9113  0.8513
 4323SOL    HW224432   2.914   2.594   6.159  0.3518  1.1630 -0.6724
 4324SOL     OW24433   1.542   4.681  10.657  0.1321 -0.0190 -0.7287
 4324SOL    HW124434   1.553   4.597  10.703 -0.3281  0.3266  0.0182
 4324SOL    HW224435   1.586   0.016  10.717  0.0507  1.5427 -2.2685
 4325SOL     OW24436   2.426   2.925  14.319 -0.2522 -1.0646 -0.5341
 4325SOL    HW124437   2.413   2.841  14.275  0.2731 -0.3206 -2.1317
 4325SOL    HW224438   2.341   2.926  14.363  1.9315  0.9675  3.6224
 4326SOL     OW24439   0.668   0.855   8.092  0.7813  0.1187  0.5935
 4326SOL    HW124440   0.586   0.885   8.053  1.1207 -0.8025 -0.8255
 4326SOL    HW224441   0.725   0.896   8.027  0.8463  0.4230  0.8446
 4327SOL     OW24442   1.082   0.069   9.750 -1.0023 -0.1030 -0.3444
 4327SOL    HW124443   0.996   0.110   9.742 -0.9490 -0.1064 -0.9247
 4327SOL    HW224444   1.081   0.019   9.668 -1.6223 -1.3992  0.4483
 4328SOL     OW24445   1.050   2.022   4.309 -0.4219  0.5848 -0.4139
 4328SOL    HW124446   0.986   2.077   4.353 -0.8400  0.9466 -1.4891
 4328SOL    HW224447   1.017   1.932   4.311  0.9999  0.0539 -0.1309
 4329SOL     OW24448   2.497   4.473  10.202 -0.8013 -0.5562  0.2021
 4329SOL    HW124449   2.565   4.474  10.270  1.1971 -0.9884 -1.7837
 4329SOL    HW224450   2.446   4.532  10.257  0.5722 -0.9581  1.9165
 4330SOL     OW24451   4.252   0.283  11.453  0.1678  0.3573  0.3674
 4330SOL    HW124452   4.171   0.233  11.449  0.9071 -0.9913  2.2966
 4330SOL    HW224453   4.310   0.228  11.401 -0.3816 -0.0017  0.1397
 4331SOL     OW24454   0.557   3.376   7.239  0.0235 -0.1668  0.1489
 4331SOL    HW124455   0.507   3.318   7.296 -0.4998 -0.6762 -0.8244
 4331SOL    HW224456   0.490   3.398   7.174  1.5646 -1.7507 -1.9710
 4332SOL     OW24457   1.093   1.233   4.413 -0.3647 -0.3021  0.0183
 4332SOL    HW124458   1.029   1.215   4.482 -0.7108 -1.1554 -0.5206
 4332SOL    HW224459   1.146   1.307   4.445 -0.6505 -1.7214  3.8364
 4333SOL     OW24460   0.080   4.245  15.361  0.1285  0.0381 -0.2063
 4333SOL    HW124461   0.108   4.234  15.270  1.1924  1.8171 -0.0870
 4333SOL    HW224462   0.119   4.164  15.396 -0.0081 -0.9188 -2.2472
 4334SOL     OW24463   2.546   0.879  12.426  0.5670  0.2754 -1.0175
 4334SOL    HW124464   2.481   0.945  12.404  1.4519  1.0357 -1.3528
 4334SOL    HW224465   2.622   0.923  12.387  2.9587 -1.5214  1.5978
 4335SOL     OW24466   2.767   4.501  11.681 -0.1468 -0.6349  0.2079
 4335SOL    HW124467   2.782   4.594  11.693  0.7946 -0.6149 -1.0935
 4335SOL    HW224468   2.844   4.465  11.724 -0.6205 -2.4317 -0.4332
 4336SOL     OW24469   2.057   2.026   7.761 -0.2880 -0.0100 -0.2960
 4336SOL    HW124470   2.023   1.951   7.810 -0.7061 -0.2636 -0.9724
 4336SOL    HW224471   2.145   2.006   7.730 -0.0481  0.0594  0.3518
 4337SOL     OW24472   2.525   0.103  10.061  0.0088  0.3217  0.0497
 4337SOL    HW124473   2.512   0.185  10.109  0.2710  0.3792  0.0254
 4337SOL    HW224474   2.469   0.052  10.120 -1.5464  2.3425  0.3194
 4338SOL     OW24475   1.253   1.596  15.131  0.7367  0.0928  0.0111
 4338SOL    HW124476   1.260   1.502  15.117 -0.3387 -0.2271  1.7270
 4338SOL    HW224477   1.163   1.610  15.159  0.1184  1.3770 -2.6026
 4339SOL     OW24478   3.609   2.123  10.989 -0.1235 -0.0482  0.2625
 4339SOL    HW124479   3.628   2.144  10.898  2.0459 -0.6900  0.5700
 4339SOL    HW224480   3.522   2.084  10.987  0.0884 -0.4881 -0.5869
 4340SOL     OW24481   2.681   1.343  14.481  0.2506 -0.1156 -0.3521
 4340SOL    HW124482   2.649   1.254  14.500 -2.8038  0.3442 -3.4120
 4340SOL    HW224483   2.598   1.391  14.477  0.1905  0.0197  2.4391
 4341SOL     OW24484   0.299   4.378   2.678 -0.5748 -0.2663 -0.0876
 4341SOL    HW124485   0.385   4.410   2.703  0.7467 -2.0338 -2.4059
 4341SOL    HW224486   0.262   4.332   2.753  2.6797  0.5417  2.0105
 4342SOL     OW24487   1.896   1.575   7.005 -0.6599 -0.1703  0.2123
 4342SOL    HW124488   1.942   1.506   6.957 -1.1427 -1.7042  1.9906
 4342SOL    HW224489   1.845   1.610   6.931 -1.4708 -0.4348  0.6396
 4343SOL     OW24490   3.047   0.675  16.264  0.2349  0.0159  0.2342
 4343SOL    HW124491   3.055   0.581  16.279  0.8508 -0.1524 -1.1190
 4343SOL    HW224492   2.958   0.675  16.228 -0.8914 -1.2679  2.9644
 4344SOL     OW24493   0.587   2.226   6.590  0.4434 -0.0631 -0.1610
 4344SOL    HW124494   0.545   2.176   6.519  0.4591  1.2258 -1.0787
 4344SOL    HW224495   0.654   2.168   6.626  2.4027  0.4176 -2.9992
 4345SOL     OW24496   0.006   2.777   5.356 -0.1435 -0.5235 -0.7998
 4345SOL    HW124497   0.087   2.728   5.366  0.6752  1.0387  0.2307
 4345SOL    HW224498   0.037   2.864   5.330  1.2740 -0.2594  1.7888
 4346SOL     OW24499   0.854   0.646  14.364 -0.0347  0.0754  0.4149
 4346SOL    HW124500   0.947   0.627  14.376  0.0860  1.5174  1.7139
 4346SOL    HW224501   0.820   0.662  14.452  0.8427  0.6884  0.6318
 4347SOL     OW24502   4.598   2.127   3.778  0.0158 -0.6588  0.1350
 4347SOL    HW124503   4.634   2.074   3.849  0.8561 -0.8089 -0.4088
 4347SOL    HW224504   4.577   2.209   3.824  0.8585 -0.6873  0.5667
 4348SOL     OW24505   2.482   4.551   3.031  0.2911  0.3236 -0.1417
 4348SOL    HW124506   2.502   4.580   2.942 -1.8207 -0.8836 -1.0123
 4348SOL    HW224507   2.445   4.633   3.063  0.5472  0.7604 -0.9707
 4349SOL     OW24508   0.921   2.882   3.808 -0.1293  0.5189  0.2224
 4349SOL    HW124509   0.906   2.907   3.717 -1.7760  0.4139  0.4714
 4349SOL    HW224510   0.891   2.959   3.857  0.3771  0.3973  0.7256
 4350SOL     OW24511   3.809   3.349   5.913 -0.9821  0.0481  0.3392
 4350SOL    HW124512   3.836   3.338   6.004 -0.4249  3.2692  0.5323
 4350SOL    HW224513   3.723   3.391   5.923 -0.5464  1.8191 -3.2353
 4351SOL     OW24514   2.663   0.508  13.333 -0.2141 -0.7837  0.5842
 4351SOL    HW124515   2.657   0.575  13.264 -0.8721 -1.8710 -0.4012
 4351SOL    HW224516   2.729   0.547  13.390 -0.3001  0.9173 -0.4590
 4352SOL     OW24517   4.540   0.169   2.605 -0.2023 -0.2485  1.0126
 4352SOL    HW124518   4.612   0.230   2.588 -0.8249 -0.0505 -0.8503
 4352SOL    HW224519   4.495   0.203   2.682  0.4167  1.8436  0.4489
 4353SOL     OW24520   3.465   2.286   4.618  0.3068  1.0093 -0.0484
 4353SOL    HW124521   3.461   2.337   4.699  0.7760  0.5548  0.2559
 4353SOL    HW224522   3.375   2.253   4.606 -0.0896  2.6247 -1.5781
 4354SOL     OW24523   1.336   4.253  11.651  0.0769 -0.5945 -0.1517
 4354SOL    HW124524   1.323   4.293  11.737  0.3679  0.2436 -0.4993
 4354SOL    HW224525   1.323   4.327  11.592  2.3248 -0.9307 -1.0591
 4355SOL     OW24526   2.361   2.247   2.399 -0.2881 -0.0816  0.2326
 4355SOL    HW124527   2.366   2.328   2.349 -0.0947  0.5008  1.1839
 4355SOL    HW224528   2.305   2.193   2.343 -1.3578  1.8586 -0.5696
 4356SOL     OW24529   4.512   3.802   8.190  0.2363 -0.0600  0.3129
 4356SOL    HW124530   4.475   3.799   8.278 -2.1699 -1.1565 -0.7458
 4356SOL    HW224531   4.489   3.713   8.163  0.2582  0.7934 -2.5553
 4357SOL     OW24532   3.260   0.854   4.280  0.1728 -0.5276  0.1569
 4357SOL    HW124533   3.183   0.807   4.312  1.7594 -2.3919  1.2957
 4357SOL    HW224534   3.310   0.776   4.254  3.4678  1.4355  0.5217
 4358SOL     OW24535   0.045   1.651   5.270  0.6068 -0.3745 -0.4101
 4358SOL    HW124536   0.126   1.692   5.301  0.5459 -0.0777 -0.6341
 4358SOL    HW224537   4.713   1.725   5.290 -0.2486 -1.0218 -0.4591
 4359SOL     OW24538   0.782   1.155   1.593  0.1070 -0.5921  0.3917
 4359SOL    HW124539   0.757   1.143   1.501 -1.2712 -0.1550  0.7096
 4359SOL    HW224540   0.875   1.138   1.579 -0.6467 -3.1741 -1.4507
 4360SOL     OW24541   1.654   4.138   7.337 -0.2795  0.3170  0.3749
 4360SOL    HW124542   1.564   4.106   7.341 -0.5961  1.1740  0.1040
 4360SOL    HW224543   1.683   4.106   7.251  0.0815 -0.5617  0.8174
 4361SOL     OW24544   0.543   4.670   6.615  0.2955 -0.0762 -0.1706
 4361SOL    HW124545   0.573   4.653   6.526  1.0502  0.4080 -0.0061
 4361SOL    HW224546   0.549   4.580   6.647  0.0749  0.7433  2.2358
 4362SOL     OW24547   0.413   0.587   7.662 -0.2827  0.3708 -0.3529
 4362SOL    HW124548   0.399   0.665   7.716 -1.0900  1.4431 -2.1337
 4362SOL    HW224549   0.443   0.520   7.724  0.9322  1.5383  0.3350
 4363SOL     OW24550   1.082   0.582   6.593  0.0686 -0.5178  0.1015
 4363SOL    HW124551   1.132   0.643   6.648  1.6783 -1.2919 -0.5099
 4363SOL    HW224552   1.146   0.519   6.561 -0.9258 -0.6969 -1.5200
 4364SOL     OW24553   4.435   2.150   5.364 -0.0596 -0.1011 -0.0932
 4364SOL    HW124554   4.518   2.145   5.411  0.0653 -0.7053 -0.3739
 4364SOL    HW224555   4.416   2.057   5.353 -1.3300 -0.1035  2.2820
 4365SOL     OW24556   1.036   4.195   4.890 -0.1180 -0.0360  0.5212
 4365SOL    HW124557   1.054   4.113   4.936 -0.5971  1.0834  2.7111
 4365SOL    HW224558   1.038   4.159   4.801  4.4963  1.5834 -0.0376
 4366SOL     OW24559   3.223   0.505   3.650 -0.5996  0.1622 -0.6092
 4366SOL    HW124560   3.202   0.567   3.719 -0.2536 -0.0098 -0.3458
 4366SOL    HW224561   3.316   0.519   3.630 -0.6210 -1.2559 -1.7433
 4367SOL     OW24562   1.935   2.026   7.357  0.2938 -0.6459  0.7975
 4367SOL    HW124563   1.964   2.100   7.410 -2.9839  0.5354  0.9513
 4367SOL    HW224564   1.964   2.041   7.267 -1.0444  1.4714  0.7064
 4368SOL     OW24565   2.056   0.914   7.462  0.2843  0.6114 -0.2548
 4368SOL    HW124566   2.015   0.999   7.449 -1.1839 -0.1742 -0.7244
 4368SOL    HW224567   2.146   0.936   7.485  0.1494  0.8973 -0.0006
 4369SOL     OW24568   1.936   1.845   0.209  0.2718  0.8751 -0.2175
 4369SOL    HW124569   1.954   1.928   0.253  0.5445  0.6883  0.0232
 4369SOL    HW224570   1.870   1.805   0.265 -0.5838  2.0779 -0.3817
 4370SOL     OW24571   4.047   0.581   1.810  0.1167  0.0588  0.3602
 4370SOL    HW124572   4.072   0.498   1.851  0.2957 -0.6598 -1.2185
 4370SOL    HW224573   4.101   0.641   1.862 -2.6020  0.8502  2.2521
 4371SOL     OW24574   0.644   0.197   7.748 -0.3349 -0.3687  0.1657
 4371SOL    HW124575   0.579   0.139   7.787  0.1461 -0.6152  0.6001
 4371SOL    HW224576   0.684   0.245   7.821  0.3631 -0.3093 -0.2587
 4372SOL     OW24577   1.814   3.153   0.176  0.4959  0.1467  0.1016
 4372SOL    HW124578   1.800   3.145   0.082  1.3240 -0.6201  0.0532
 4372SOL    HW224579   1.728   3.190   0.197 -0.2840 -2.0180  0.6450
 4373SOL     OW24580   1.244   1.149   6.145  0.2780  0.0305  0.1174
 4373SOL    HW124581   1.322   1.103   6.175  0.8546  0.7533 -0.2784
 4373SOL    HW224582   1.267   1.242   6.149  1.0687 -0.0409 -2.2162
 4374SOL     OW24583   2.179   1.621  13.747  0.3132  0.0035  0.0998
 4374SOL    HW124584   2.119   1.677  13.797 -0.4508 -1.0642  0.3765
 4374SOL    HW224585   2.130   1.539  13.750  1.1266 -0.4791  0.0897
 4375SOL     OW24586   1.347   4.317  15.757 -0.4280 -0.9580  0.1896
 4375SOL    HW124587   1.257   4.338  15.734  0.0415 -0.0087 -0.7871
 4375SOL    HW224588   1.369   4.263  15.680  1.5053 -0.1622  0.1888
 4376SOL     OW24589   1.443   4.399   3.762  0.3688  0.0131 -0.7840
 4376SOL    HW124590   1.512   4.436   3.816  1.3848 -1.7009 -0.8935
 4376SOL    HW224591   1.493   4.322   3.734  0.9279 -0.8942  2.6862
 4377SOL     OW24592   3.243   3.543   5.836  0.6531  1.0004 -0.0496
 4377SOL    HW124593   3.275   3.533   5.747  3.2263 -2.3321  1.2553
 4377SOL    HW224594   3.299   3.615   5.866  2.5588 -0.4439 -0.1500
 4378SOL     OW24595   3.097   2.537   7.086 -0.0811 -0.4673 -0.0736
 4378SOL    HW124596   3.083   2.442   7.082  0.0630 -0.5196  0.7756
 4378SOL    HW224597   3.140   2.563   7.005  1.7298  0.8118  1.3014
 4379SOL     OW24598   0.560   3.213   3.679 -0.5297 -0.4652 -0.1854
 4379SOL    HW124599   0.465   3.230   3.675 -0.8213 -2.2057 -1.1556
 4379SOL    HW224600   0.606   3.296   3.688  1.8365 -1.7924 -0.0782
 4380SOL     OW24601   1.612   3.445  11.432 -0.0903  0.5325  0.1119
 4380SOL    HW124602   1.693   3.496  11.424 -0.0540  0.1858 -1.7472
 4380SOL    HW224603   1.552   3.483  11.368  2.3177  0.8900 -1.9234
 4381SOL     OW24604   2.399   0.765   1.812  0.3580 -0.1189  0.3266
 4381SOL    HW124605   2.490   0.735   1.811  0.7824  1.0629  2.1238
 4381SOL    HW224606   2.359   0.759   1.725  0.0947  1.4704  0.3448
 4382SOL     OW24607   4.270   1.511   8.005  0.7689  0.3492 -0.4020
 4382SOL    HW124608   4.193   1.537   7.954  2.2629  0.7611 -2.4258
 4382SOL    HW224609   4.230   1.442   8.058 -1.7146  0.8882 -1.5852
 4383SOL     OW24610   1.161   0.748  11.268  0.1302 -0.8352  0.4963
 4383SOL    HW124611   1.099   0.679  11.293 -0.3367 -0.6321 -0.1135
 4383SOL    HW224612   1.191   0.726  11.180 -1.4310 -0.1657 -0.2111
 4384SOL     OW24613   4.639   4.270   2.603  0.4196 -0.3305 -0.9184
 4384SOL    HW124614   0.002   4.303   2.618  0.7234 -0.9761 -1.2644
 4384SOL    HW224615   4.625   4.323   2.524  2.1279  0.5866 -0.5938
 4385SOL     OW24616   4.122   2.923   8.928  0.4102  0.2540  0.0144
 4385SOL    HW124617   4.201   2.917   8.982  0.9408  2.2140 -0.5217
 4385SOL    HW224618   4.048   2.887   8.977  0.7837 -0.5123  0.0017
 4386SOL     OW24619   1.393   0.780  14.889 -0.1934  0.0001 -0.5572
 4386SOL    HW124620   1.325   0.719  14.858 -0.7591 -0.3250  1.3444
 4386SOL    HW224621   1.413   0.741  14.974 -0.8472 -0.9235 -0.8287
 4387SOL     OW24622   2.974   2.153  17.180  0.8882  0.1506 -0.3413
 4387SOL    HW124623   2.938   2.211  17.113 -0.9749  1.2005  1.5423
 4387SOL    HW224624   2.937   2.184  17.263  1.1728  3.8519 -1.5960
 4388SOL     OW24625   1.346   1.318   8.149 -0.0120 -0.0842 -0.4720
 4388SOL    HW124626   1.259   1.354   8.167  1.0403  1.0109  2.5365
 4388SOL    HW224627   1.366   1.270   8.229  1.2991  0.9252 -0.1841
 4389SOL     OW24628   3.320   3.366   4.077  0.4650  0.4769  0.2580
 4389SOL    HW124629   3.282   3.313   4.007 -1.0181 -0.2089  1.5735
 4389SOL    HW224630   3.335   3.448   4.031  1.0552 -0.4944 -1.2590
 4390SOL     OW24631   2.424   1.231   0.260  0.1299 -0.0925  0.4039
 4390SOL    HW124632   2.343   1.186   0.233  0.6387 -1.7894  1.7450
 4390SOL    HW224633   2.483   1.162   0.229  1.4060  1.3919 -0.4437
 4391SOL     OW24634   4.425   0.005   5.030  0.1492  0.1090 -0.6311
 4391SOL    HW124635   4.375   4.655   5.001  2.1677 -1.4883  0.0751
 4391SOL    HW224636   4.386   0.068   4.970  1.6843 -0.0484 -1.7896
 4392SOL     OW24637   3.701   2.646   8.699  0.1284  0.1502  0.4244
 4392SOL    HW124638   3.670   2.611   8.782 -1.6377 -1.7845 -1.0461
 4392SOL    HW224639   3.703   2.740   8.716 -1.2182  0.3082 -0.3271
 4393SOL     OW24640   3.227   2.462   1.252  0.4121 -0.6471  0.2005
 4393SOL    HW124641   3.255   2.371   1.260  0.6017 -0.5641  0.4616
 4393SOL    HW224642   3.137   2.449   1.221  0.3879 -0.1252  0.0543
 4394SOL     OW24643   2.826   1.152   0.858 -0.1611  0.4590 -0.3530
 4394SOL    HW124644   2.767   1.172   0.785 -0.7580  1.1717  0.3267
 4394SOL    HW224645   2.841   1.234   0.904  2.0243  0.0155 -0.2818
 4395SOL     OW24646   3.453   1.676   6.681  0.7152  0.5520 -0.3907
 4395SOL    HW124647   3.382   1.615   6.660  0.5678  0.0976  1.4199
 4395SOL    HW224648   3.406   1.759   6.671 -1.8158 -0.9150 -0.7944
 4396SOL     OW24649   1.619   3.653   8.170  0.3942 -0.0611 -0.0194
 4396SOL    HW124650   1.586   3.737   8.203  0.8441  0.1553 -0.1189
 4396SOL    HW224651   1.687   3.680   8.109 -0.2500  0.8848 -0.3283
 4397SOL     OW24652   3.984   1.351   4.703 -0.6489  0.0267 -0.1495
 4397SOL    HW124653   4.026   1.359   4.617 -0.0558  1.0823  0.2306
 4397SOL    HW224654   4.008   1.436   4.740 -0.4631  0.4778 -1.2922
 4398SOL     OW24655   2.111   3.874  10.203  0.4070 -0.1735 -0.1055
 4398SOL    HW124656   2.042   3.816  10.235  1.4827 -1.1623  0.4248
 4398SOL    HW224657   2.152   3.904  10.284 -0.6404 -1.6328  0.9704
 4399SOL     OW24658   4.052   2.905   7.746  0.1371 -0.4202 -0.3268
 4399SOL    HW124659   3.998   2.914   7.668  0.2475  0.4135 -0.3146
 4399SOL    HW224660   3.986   2.947   7.802 -1.0841 -1.2856 -1.1297
 4400SOL     OW24661   1.550   3.536  15.954  0.3687 -0.0604  0.2645
 4400SOL    HW124662   1.618   3.554  15.889  0.6411 -0.8434  0.3332
 4400SOL    HW224663   1.483   3.591  15.913  0.0816 -0.4907  0.1595
 4401SOL     OW24664   3.576   2.730   2.447  0.0937 -0.0999  0.3048
 4401SOL    HW124665   3.645   2.713   2.511 -0.6248 -0.9031  0.8677
 4401SOL    HW224666   3.628   2.728   2.366  3.2883  0.9100  2.3372
 4402SOL     OW24667   0.821   2.592   4.194  0.2499  0.6235 -0.5290
 4402SOL    HW124668   0.745   2.565   4.246 -0.0199  0.3795 -1.0496
 4402SOL    HW224669   0.880   2.517   4.187 -2.4339 -1.3933 -1.5561
 4403SOL     OW24670   2.158   1.354   5.601 -0.1584 -0.0158 -0.0697
 4403SOL    HW124671   2.222   1.283   5.608  1.6281  1.9311  3.1167
 4403SOL    HW224672   2.081   1.302   5.578  0.5728 -0.7372 -0.8829
 4404SOL     OW24673   4.690   1.479   7.667 -0.1159 -0.4571  0.6149
 4404SOL    HW124674   4.623   1.456   7.732 -1.0331 -0.2897 -0.2735
 4404SOL    HW224675   0.032   1.531   7.709 -1.0793  1.1454  0.2036
 4405SOL     OW24676   1.786   2.163   9.770  0.3479 -0.6122 -0.1714
 4405SOL    HW124677   1.785   2.218   9.692 -0.9922 -3.2716 -1.9912
 4405SOL    HW224678   1.770   2.225   9.841  1.5739  0.2666 -0.6541
 4406SOL     OW24679   4.659   0.441   1.170 -0.1889  0.0034 -0.1352
 4406SOL    HW124680   4.589   0.486   1.122 -0.2983 -1.6991 -1.5771
 4406SOL    HW224681   4.667   0.359   1.121  3.1264 -0.4618  1.2140
 4407SOL     OW24682   3.408   3.812   0.929 -0.2017 -0.1102 -0.2284
 4407SOL    HW124683   3.354   3.854   0.996  1.0849  0.4135  0.4793
 4407SOL    HW224684   3.488   3.865   0.926 -0.6987  0.6064 -0.8777
 4408SOL     OW24685   3.078   3.619   4.302  0.2037  0.4723  0.5333
 4408SOL    HW124686   3.087   3.524   4.290  0.1791  0.6672 -0.9555
 4408SOL    HW224687   3.170   3.640   4.316  0.2571 -1.4322  3.1705
 4409SOL     OW24688   2.910   1.670  17.293 -0.0082 -0.0212 -0.4600
 4409SOL    HW124689   2.980   1.734  17.278  0.1658 -0.7335 -2.7682
 4409SOL    HW224690   2.917   1.622  17.210 -2.4365  1.7955 -1.7308
 4410SOL     OW24691   3.265   0.826  12.452 -0.0654 -0.1148 -0.0680
 4410SOL    HW124692   3.303   0.913  12.443 -0.4297 -0.0081 -0.5451
 4410SOL    HW224693   3.199   0.847  12.518  0.1770  1.2892 -0.2843
 4411SOL     OW24694   0.219   1.778   0.294  0.1136  0.1698  0.0876
 4411SOL    HW124695   0.277   1.769   0.370 -2.0180 -0.8903  1.5778
 4411SOL    HW224696   0.189   1.867   0.311  0.0168  0.7446 -3.1228
 4412SOL     OW24697   2.672   4.592  13.584  0.5015 -0.1050  0.4524
 4412SOL    HW124698   2.582   4.581  13.615 -0.0544  2.7146 -0.1678
 4412SOL    HW224699   2.691   4.684  13.602  0.0960  0.2179 -0.7601
 4413SOL     OW24700   2.484   0.734  17.103 -0.2827 -0.4350  0.1102
 4413SOL    HW124701   2.529   0.806  17.059 -0.6484  0.0166  0.4755
 4413SOL    HW224702   2.546   0.661  17.105  0.7337  0.3865 -1.7869
 4414SOL     OW24703   1.144   4.446   4.873 -0.4141 -0.3055  0.5625
 4414SOL    HW124704   1.168   4.452   4.966  0.2214  2.1163  0.2603
 4414SOL    HW224705   1.118   4.354   4.872 -0.5852 -0.2439 -0.6499
 4415SOL     OW24706   2.946   4.073   0.458  0.4768 -0.7273  0.1853
 4415SOL    HW124707   2.882   4.024   0.511  1.8571  0.0827  2.6126
 4415SOL    HW224708   2.901   4.156   0.441 -1.7422 -1.7396  0.9609
 4416SOL     OW24709   3.781   0.495   5.973  0.5503 -0.4915  0.1768
 4416SOL    HW124710   3.813   0.405   5.975 -1.2738 -1.2023 -4.6335
 4416SOL    HW224711   3.769   0.514   5.880 -1.2336  0.4587  0.6007
 4417SOL     OW24712   0.792   2.103   5.194 -0.0799  0.2391 -0.2252
 4417SOL    HW124713   0.868   2.160   5.185  0.4162  0.0886  2.9318
 4417SOL    HW224714   0.748   2.136   5.273  0.6253  0.7054 -0.0324
 4418SOL     OW24715   2.063   4.614   4.624 -0.6465  0.3549 -0.2479
 4418SOL    HW124716   2.002   4.628   4.695 -2.6891 -1.1232 -1.7111
 4418SOL    HW224717   2.039   4.686   4.565 -0.1085  0.4631 -0.3406
 4419SOL     OW24718   2.146   0.686   3.221 -0.6929 -0.3156  0.0855
 4419SOL    HW124719   2.172   0.722   3.136  1.0300 -0.0651  0.7372
 4419SOL    HW224720   2.210   0.734   3.274  2.6157 -2.9448 -1.5654
 4420SOL     OW24721   1.402   2.710   9.718 -0.3438 -0.1038 -0.0769
 4420SOL    HW124722   1.320   2.709   9.768 -0.2409  1.9666  0.1047
 4420SOL    HW224723   1.442   2.625   9.739  2.4877  1.6999  1.8833
 4421SOL     OW24724   0.013   1.052   4.679 -0.2906  0.1590 -0.1150
 4421SOL    HW124725   0.002   1.070   4.586  0.3261  1.3442  0.0368
 4421SOL    HW224726   0.077   1.118   4.706 -0.6868  0.5978 -0.2469
 4422SOL     OW24727   0.393   1.266  16.459  0.1421  0.0765  0.2064
 4422SOL    HW124728   0.362   1.294  16.373 -0.8226 -2.3519 -0.2477
 4422SOL    HW224729   0.473   1.317  16.447  0.1271  0.2193  0.7114
 4423SOL     OW24730   0.431   2.921   8.812 -0.0325 -0.6042  0.1399
 4423SOL    HW124731   0.482   2.842   8.794 -2.0361 -1.6429 -0.9677
 4423SOL    HW224732   0.344   2.895   8.844  0.0264  1.0931  1.7066
 4424SOL     OW24733   0.544   2.375   3.099 -0.2449 -0.0638 -0.1372
 4424SOL    HW124734   0.569   2.465   3.120 -0.8187 -0.3204  1.6426
 4424SOL    HW224735   0.628   2.334   3.116  0.8669  1.8270 -1.0511
 4425SOL     OW24736   2.183   4.141   8.305  0.2640 -0.2845  0.2511
 4425SOL    HW124737   2.272   4.111   8.326  0.5685 -0.5273 -1.4014
 4425SOL    HW224738   2.133   4.064   8.279 -0.3362 -0.1342  0.9744
 4426SOL     OW24739   4.650   4.580   1.986  0.1522  0.2171 -0.0055
 4426SOL    HW124740   4.623   4.661   2.029 -1.0964 -0.0192 -0.3442
 4426SOL    HW224741   4.614   4.509   2.039  0.8182  0.2503  0.4855
 4427SOL     OW24742   4.067   0.161  15.139  0.1700 -1.0097 -0.0547
 4427SOL    HW124743   4.038   0.093  15.199 -0.2874 -0.4050  0.4060
 4427SOL    HW224744   4.066   0.241  15.191  4.2395 -0.8831 -0.1498
 4428SOL     OW24745   4.285   2.539   8.707  0.0871 -0.3903  0.2527
 4428SOL    HW124746   4.212   2.535   8.769  0.4405  0.8878  0.7448
 4428SOL    HW224747   4.336   2.612   8.742  2.5011 -0.9305 -2.1130
 4429SOL     OW24748   0.774   1.418  17.393 -0.2002  0.3469  0.0908
 4429SOL    HW124749   0.794   1.505  17.358 -1.6359  0.4435 -0.5125
 4429SOL    HW224750   0.813   1.418  17.480 -0.8091  0.7261  0.3633
 4430SOL     OW24751   3.072   3.618   3.847  0.7421  0.3251  0.3003
 4430SOL    HW124752   3.168   3.615   3.853  0.6420  1.3602  2.3522
 4430SOL    HW224753   3.063   3.587   3.757  0.9750  0.8667  0.0900
 4431SOL     OW24754   3.548   4.516   0.120  0.1798  0.3674 -0.5054
 4431SOL    HW124755   3.606   4.524   0.196  1.4179 -2.0754 -1.1921
 4431SOL    HW224756   3.582   4.586   0.064 -0.7657  0.6324 -0.7417
 4432SOL     OW24757   0.176   1.513   0.414  0.2124  0.0056 -0.1668
 4432SOL    HW124758   0.205   1.597   0.380 -2.7009  0.7359 -0.8958
 4432SOL    HW224759   0.105   1.535   0.475 -0.4061 -2.3483 -0.0323
 4433SOL     OW24760   0.809   0.811  11.829 -0.0070 -0.2151 -0.1396
 4433SOL    HW124761   0.761   0.815  11.747 -0.0940  0.8986 -0.0390
 4433SOL    HW224762   0.850   0.728  11.805  1.5125  0.6293 -0.5279
 4434SOL     OW24763   3.444   3.936   4.909 -0.4380  0.1249  0.6913
 4434SOL    HW124764   3.422   3.855   4.863  1.2860 -0.2810  0.5724
 4434SOL    HW224765   3.536   3.935   4.880 -0.2299  1.7642  1.3058
 4435SOL     OW24766   2.472   0.752   0.807 -0.1771 -0.4453  0.2270
 4435SOL    HW124767   2.505   0.664   0.789  1.6681  0.3739 -0.4421
 4435SOL    HW224768   2.438   0.748   0.897 -1.6320 -1.6385 -0.3700
 4436SOL     OW24769   1.128   4.399   6.396 -0.1506 -0.3441 -0.0542
 4436SOL    HW124770   1.208   4.440   6.361 -0.0762  0.5748  1.1816
 4436SOL    HW224771   1.132   4.424   6.488 -0.4205 -1.3961  0.2375
 4437SOL     OW24772   0.078   0.583   6.117 -0.2760 -0.3042 -0.0601
 4437SOL    HW124773   0.042   0.512   6.065 -1.2761  0.4073 -0.3301
 4437SOL    HW224774   0.079   0.539   6.202 -1.8354  0.2793  0.2491
 4438SOL     OW24775   1.317   3.172   3.630  0.5128  0.2288  0.6376
 4438SOL    HW124776   1.413   3.168   3.639  0.4711 -0.7581  0.7379
 4438SOL    HW224777   1.311   3.267   3.636 -0.6848  0.1593  0.4083
 4439SOL     OW24778   3.513   1.548   6.343  0.0402  0.4853  0.4640
 4439SOL    HW124779   3.425   1.513   6.358  0.5272 -0.1542  1.7568
 4439SOL    HW224780   3.503   1.574   6.251  1.5252  1.4864  0.5888
 4440SOL     OW24781   4.262   4.236   6.348 -0.5122  0.4898  0.0136
 4440SOL    HW124782   4.168   4.228   6.329 -0.6538  1.1660  0.4511
 4440SOL    HW224783   4.265   4.311   6.407 -0.4036  0.9632 -0.5870
 4441SOL     OW24784   2.655   3.550  11.679 -0.3636 -0.0007  0.2391
 4441SOL    HW124785   2.707   3.629  11.693 -1.0792  0.6572 -0.8116
 4441SOL    HW224786   2.576   3.594  11.646  1.1213  0.5858 -2.6151
 4442SOL     OW24787   3.575   4.057  14.684  0.3307 -0.3814  0.0868
 4442SOL    HW124788   3.525   4.056  14.603 -0.0124  1.1508  0.2763
 4442SOL    HW224789   3.521   4.029  14.758  0.8443  0.6932  0.8713
 4443SOL     OW24790   4.600   3.233   7.705  0.0123  0.3378 -0.6564
 4443SOL    HW124791   4.608   3.316   7.751  2.2222  0.8909 -2.0425
 4443SOL    HW224792   4.552   3.184   7.772 -1.5204  1.1055 -1.1768
 4444SOL     OW24793   2.610   2.850   4.356  0.2371  0.0737 -0.9494
 4444SOL    HW124794   2.582   2.874   4.445  3.4722 -0.4913  0.1922
 4444SOL    HW224795   2.564   2.768   4.340  1.6692 -0.6927 -1.1001
 4445SOL     OW24796   2.572   0.189   4.340 -0.2861 -0.1460 -0.2011
 4445SOL    HW124797   2.480   0.168   4.357 -0.8329  1.9296 -0.5568
 4445SOL    HW224798   2.620   0.115   4.377 -1.0751  0.0277  1.1981
 4446SOL     OW24799   0.917   0.773   5.171  0.1747 -0.5162 -0.5117
 4446SOL    HW124800   0.938   0.813   5.255  0.7009 -2.2554  0.1732
 4446SOL    HW224801   1.000   0.726   5.162  0.9228  0.2704  2.4905
 4447SOL     OW24802   1.731   3.931  14.638 -0.3387  0.3842 -0.0731
 4447SOL    HW124803   1.791   3.937  14.564 -1.0103 -0.2708 -0.6701
 4447SOL    HW224804   1.698   4.018  14.661 -1.5242 -0.4540  1.3943
 4448SOL     OW24805   1.464   1.873  12.215 -0.1175 -0.1663 -0.3836
 4448SOL    HW124806   1.375   1.867  12.249  0.3715  0.2870  1.0005
 4448SOL    HW224807   1.504   1.942  12.268 -0.9796  0.5936 -0.7358
 4449SOL     OW24808   3.202   3.675   1.705 -0.4417 -0.2792  0.5169
 4449SOL    HW124809   3.108   3.681   1.686  0.0656  2.1384 -1.1551
 4449SOL    HW224810   3.203   3.597   1.761 -0.6443 -0.4173  0.3268
 4450SOL     OW24811   4.198   1.576   1.733 -0.0915 -0.5010 -0.4509
 4450SOL    HW124812   4.150   1.563   1.651  0.4479  2.1397 -1.1858
 4450SOL    HW224813   4.126   1.586   1.795 -0.6584  0.1704 -1.2166
 4451SOL     OW24814   3.022   1.259   2.168  0.3811  0.8876  0.3347
 4451SOL    HW124815   3.009   1.171   2.132  1.7411  0.2066  1.5230
 4451SOL    HW224816   2.932   1.293   2.170 -0.2939 -0.9968  2.4466
 4452SOL     OW24817   2.928   2.344   5.051  0.9984  0.0307 -0.4249
 4452SOL    HW124818   2.844   2.380   5.080  0.7094  0.4789 -1.8217
 4452SOL    HW224819   2.967   2.344   5.139 -2.3070  1.1727  1.0330
 4453SOL     OW24820   1.058   2.901   3.191  0.0182 -0.4080  0.2785
 4453SOL    HW124821   1.031   2.944   3.110 -1.0335 -2.6815 -0.5820
 4453SOL    HW224822   1.153   2.910   3.185 -0.0194 -0.9436 -1.1662
 4454SOL     OW24823   1.066   0.207   5.629  0.3688 -0.1526  0.3980
 4454SOL    HW124824   0.981   0.177   5.597 -0.1336 -0.2187  1.7849
 4454SOL    HW224825   1.086   0.130   5.683 -0.5068 -0.2944  0.5213
 4455SOL     OW24826   1.995   2.220   7.530  0.0293 -0.0168 -0.5106
 4455SOL    HW124827   2.066   2.280   7.551 -0.4254  0.2388  0.2926
 4455SOL    HW224828   1.999   2.177   7.616  1.8682  2.7201  0.7673
 4456SOL     OW24829   2.653   4.285  13.121  0.1652 -0.0086 -0.0808
 4456SOL    HW124830   2.701   4.365  13.145  0.4719 -0.1139 -0.3482
 4456SOL    HW224831   2.601   4.282  13.202  0.8969  0.1516  0.3974
 4457SOL     OW24832   2.455   1.218   3.719  0.2223  0.3030 -0.1706
 4457SOL    HW124833   2.459   1.241   3.627 -0.0202  0.2469 -0.1966
 4457SOL    HW224834   2.361   1.224   3.737 -0.3137 -0.5348 -2.8010
 4458SOL     OW24835   1.139   0.344   4.631  0.3121 -0.4566  0.3593
 4458SOL    HW124836   1.176   0.338   4.543  1.0046  0.8903  0.5613
 4458SOL    HW224837   1.133   0.253   4.658  0.0424 -0.0388  1.7043
 4459SOL     OW24838   0.373   0.570  11.539 -0.0784  0.2341 -0.0653
 4459SOL    HW124839   0.376   0.539  11.629 -0.8045  3.2298  1.0113
 4459SOL    HW224840   0.461   0.566  11.502  0.2217  0.2319  0.6354
 4460SOL     OW24841   0.057   2.416   6.049 -0.9068  0.1744  0.5693
 4460SOL    HW124842   0.084   2.423   6.140 -3.2528  1.9630  1.1239
 4460SOL    HW224843   0.006   2.496   6.042  2.4530  2.1365 -1.2956
 4461SOL     OW24844   1.750   0.075   9.340 -0.2478 -0.2152 -0.2771
 4461SOL    HW124845   1.798   0.139   9.393 -1.3448  2.1209 -2.1002
 4461SOL    HW224846   1.791   4.724   9.379  0.2003  0.5447  0.7432
 4462SOL     OW24847   0.231   4.649  12.298 -0.5460 -0.0890  0.5879
 4462SOL    HW124848   0.151   4.619  12.255 -0.7433  0.5585  0.5083
 4462SOL    HW224849   0.213   4.598  12.377 -2.5433  0.1367  0.2898
 4463SOL     OW24850   2.315   2.985   4.245 -0.1443  0.2066 -0.0121
 4463SOL    HW124851   2.304   2.899   4.204 -3.0267 -0.1829  1.6106
 4463SOL    HW224852   2.389   3.022   4.197 -0.7262  0.9943 -0.2836
 4464SOL     OW24853   0.132   1.161   2.338 -0.3234  0.0153  0.6010
 4464SOL    HW124854   0.140   1.256   2.331  0.6506 -0.1660 -0.7867
 4464SOL    HW224855   0.048   1.149   2.383 -0.7722  1.0716  0.0284
 4465SOL     OW24856   3.155   1.102  13.392  0.0443  0.9356 -0.7494
 4465SOL    HW124857   3.071   1.110  13.436 -0.1546  0.7567 -1.1040
 4465SOL    HW224858   3.143   1.029  13.332 -2.3452 -0.3576  1.3559
 4466SOL     OW24859   1.085   1.676   4.288  0.7415  0.6906 -0.0565
 4466SOL    HW124860   1.063   1.656   4.379 -0.6141 -0.0440 -0.5554
 4466SOL    HW224861   1.173   1.638   4.281  0.1998 -0.4536 -0.5340
 4467SOL     OW24862   1.432   1.564   7.737 -0.2326  0.5055  0.1400
 4467SOL    HW124863   1.512   1.610   7.713  0.4304 -1.2507 -1.0403
 4467SOL    HW224864   1.441   1.490   7.678  2.1834 -0.0961  1.2786
 4468SOL     OW24865   4.016   4.058   2.692 -0.8618 -0.0323  0.2848
 4468SOL    HW124866   3.990   4.100   2.773 -0.6929 -0.8298  0.7522
 4468SOL    HW224867   4.111   4.047   2.696 -0.6857  1.0709 -0.9059
 4469SOL     OW24868   3.706   0.100   2.274 -0.0047 -0.6603 -0.1811
 4469SOL    HW124869   3.783   0.157   2.273  0.2837 -1.0705 -1.0367
 4469SOL    HW224870   3.666   0.116   2.359  1.0194  0.5167  0.0879
 4470SOL     OW24871   1.360   0.783   4.879 -0.8267  0.0409 -0.6417
 4470SOL    HW124872   1.309   0.817   4.951  0.6116  0.8595 -0.0050
 4470SOL    HW224873   1.308   0.705   4.857  0.4761 -0.3405 -2.4407
 4471SOL     OW24874   1.705   3.130  16.936  0.0191  0.0023 -0.0534
 4471SOL    HW124875   1.754   3.130  16.854  0.5580  2.1162  0.2557
 4471SOL    HW224876   1.742   3.053  16.978  0.8712  0.7666  0.5710
 4472SOL     OW24877   1.120   0.242   7.013 -0.2148 -0.1101 -0.4412
 4472SOL    HW124878   1.033   0.254   7.051  0.3836 -0.2646  0.9774
 4472SOL    HW224879   1.090   0.172   6.955  0.2760 -0.6354 -0.0574
 4473SOL     OW24880   4.555   4.568   7.223  0.4214 -0.2168 -0.3067
 4473SOL    HW124881   4.465   4.586   7.194  1.3099 -0.4482 -3.1669
 4473SOL    HW224882   4.575   4.636   7.287 -1.0732 -0.9514  0.9205
 4474SOL     OW24883   4.114   3.652  11.284 -0.8350 -0.4898 -0.1048
 4474SOL    HW124884   4.185   3.642  11.347  0.3401  0.0711 -1.3331
 4474SOL    HW224885   4.090   3.560  11.276 -0.4749 -0.6043  0.1240
 4475SOL     OW24886   1.983   1.185   4.760  0.2178 -0.0174 -0.2967
 4475SOL    HW124887   1.919   1.181   4.831 -1.2191 -2.1415 -1.7121
 4475SOL    HW224888   1.923   1.188   4.685 -0.2195  0.1957  0.0567
 4476SOL     OW24889   2.904   3.642   5.595 -0.1263 -0.4413 -0.4503
 4476SOL    HW124890   2.951   3.647   5.512 -1.1244  1.4153 -0.8916
 4476SOL    HW224891   2.971   3.613   5.658 -0.7971  1.8045  1.3064
 4477SOL     OW24892   2.753   0.353   8.193  0.2557 -0.7088  0.4851
 4477SOL    HW124893   2.812   0.372   8.266 -0.6895  0.6413  0.9092
 4477SOL    HW224894   2.806   0.379   8.118  0.3553 -0.1999  0.7349
 4478SOL     OW24895   0.442   3.472  13.095  0.2266 -0.0135 -0.3261
 4478SOL    HW124896   0.511   3.413  13.064  0.5731  0.9846 -1.4506
 4478SOL    HW224897   0.399   3.410  13.153  0.9224  1.7528  2.1036
 4479SOL     OW24898   4.152   2.606   8.453 -0.5647  0.1924 -0.0467
 4479SOL    HW124899   4.084   2.612   8.520  1.4491  0.1275  1.9775
 4479SOL    HW224900   4.202   2.537   8.496 -0.1334 -0.9379 -2.3547
 4480SOL     OW24901   3.068   3.357   6.529 -0.5757  0.1440  0.4367
 4480SOL    HW124902   3.006   3.359   6.457 -0.8431 -3.2871  0.5726
 4480SOL    HW224903   3.086   3.451   6.520 -1.6920  0.3124 -0.0563
 4481SOL     OW24904   1.588   1.860   6.054 -0.4081  0.1638  0.1814
 4481SOL    HW124905   1.641   1.892   5.981  0.6233 -0.0655  0.8290
 4481SOL    HW224906   1.501   1.890   6.027 -0.0221  0.3517 -0.8719
 4482SOL     OW24907   1.155   1.397   7.542  0.0259 -0.2452  0.1047
 4482SOL    HW124908   1.085   1.440   7.590  0.0267  1.4345 -1.4125
 4482SOL    HW224909   1.214   1.388   7.617 -1.3911  1.3895  1.4063
 4483SOL     OW24910   2.844   2.923   7.110 -0.2789 -0.1552  0.0897
 4483SOL    HW124911   2.782   2.930   7.183  0.7207 -1.1577  1.0462
 4483SOL    HW224912   2.917   2.899   7.167  0.7939  2.2312 -0.2759
 4484SOL     OW24913   2.894   0.160   3.183  0.0040 -0.1632  0.2914
 4484SOL    HW124914   2.799   0.149   3.186 -0.1131 -0.1134 -3.3334
 4484SOL    HW224915   2.919   0.141   3.092  0.4539  4.2340 -0.5203
 4485SOL     OW24916   1.240   1.659   2.272  0.2979 -0.0146  0.4656
 4485SOL    HW124917   1.270   1.669   2.363 -0.4971  0.4738  0.6717
 4485SOL    HW224918   1.320   1.630   2.227 -0.9609  1.7789 -2.8631
 4486SOL     OW24919   3.320   1.695   2.704  0.7210 -0.0887  0.1478
 4486SOL    HW124920   3.388   1.659   2.761  0.2346  2.2413  2.2012
 4486SOL    HW224921   3.371   1.738   2.635  1.6164  0.1879  0.9878
 4487SOL     OW24922   3.307   2.176   3.928  0.3244  0.2039 -0.3741
 4487SOL    HW124923   3.340   2.199   3.841  2.7114 -0.4803  0.3450
 4487SOL    HW224924   3.218   2.211   3.920  0.3912  0.1115 -1.5562
 4488SOL     OW24925   1.978   3.974   9.997  0.3362 -0.0110 -0.2022
 4488SOL    HW124926   2.031   3.924   9.935  2.0761  1.0589  0.4318
 4488SOL    HW224927   2.019   3.941  10.077 -0.3396 -1.9535 -0.6414
 4489SOL     OW24928   0.222   2.511   6.284  0.5073 -0.4446  0.3575
 4489SOL    HW124929   0.217   2.595   6.239  2.0564 -1.3121 -1.4568
 4489SOL    HW224930   0.192   2.534   6.372 -0.0439  0.2883 -0.0274
 4490SOL     OW24931   2.542   1.173   8.001 -1.0241 -0.0141 -1.0646
 4490SOL    HW124932   2.483   1.098   8.007 -1.3597  0.4534  1.3007
 4490SOL    HW224933   2.585   1.154   7.918 -1.9584 -1.2153 -1.2838
 4491SOL     OW24934   4.039   2.783   4.824 -0.1006  0.1950 -0.8060
 4491SOL    HW124935   4.121   2.735   4.820 -0.0606  0.3311 -1.6150
 4491SOL    HW224936   4.022   2.790   4.730 -0.4783  0.3239 -0.7275
 4492SOL     OW24937   4.306   0.367   1.739 -0.5663  0.1645 -0.0129
 4492SOL    HW124938   4.396   0.370   1.706 -0.2384 -1.8523  0.7112
 4492SOL    HW224939   4.315   0.434   1.808  1.8206 -0.9623  0.7933
 4493SOL     OW24940   0.857   0.704   1.659 -0.0908  0.0369  0.3547
 4493SOL    HW124941   0.883   0.669   1.574 -2.0254 -0.9234  0.1566
 4493SOL    HW224942   0.915   0.651   1.713  0.7900  0.4069 -0.2374
 4494SOL     OW24943   2.793   2.077   7.699  0.2568 -0.3984  0.1035
 4494SOL    HW124944   2.710   2.061   7.655 -0.2366 -1.1502  1.3247
 4494SOL    HW224945   2.785   2.172   7.711 -0.1674 -0.1132 -2.3421
 4495SOL     OW24946   2.504   1.756   2.682  1.3902 -0.6876  0.0372
 4495SOL    HW124947   2.549   1.799   2.609 -0.0402  0.2382 -0.3098
 4495SOL    HW224948   2.461   1.834   2.718  0.6125 -0.7057 -0.8527
 4496SOL     OW24949   3.670   2.613   8.394  0.6774  0.2233  0.3827
 4496SOL    HW124950   3.679   2.571   8.480 -0.7963 -0.9155 -0.0021
 4496SOL    HW224951   3.661   2.704   8.421  2.2584 -0.2109  2.3611
 4497SOL     OW24952   0.650   2.774   7.623  0.1843 -0.0598  0.8678
 4497SOL    HW124953   0.574   2.782   7.681  0.7904  4.1023  1.1113
 4497SOL    HW224954   0.683   2.689   7.652 -2.3590 -1.7085 -1.1095
 4498SOL     OW24955   0.452   1.649   5.953 -0.1307 -0.3912  0.5924
 4498SOL    HW124956   0.358   1.662   5.967  0.0633 -1.1811  2.5996
 4498SOL    HW224957   0.482   1.603   6.031 -1.0275 -3.0910 -0.6537
 4499SOL     OW24958   2.026   4.132   3.859 -0.3071  0.4630  0.2481
 4499SOL    HW124959   1.978   4.211   3.833 -1.6376 -0.7788 -1.0249
 4499SOL    HW224960   2.111   4.171   3.881 -0.5002  0.4953  0.9212
 4500SOL     OW24961   1.297   0.338   2.768  0.4332 -0.3321  0.2183
 4500SOL    HW124962   1.384   0.298   2.763  1.1434  1.1327  0.8960
 4500SOL    HW224963   1.247   0.301   2.695 -0.9025  0.6952  0.6285
 4501SOL     OW24964   2.834   2.634   2.020  0.3487  0.0084 -0.0988
 4501SOL    HW124965   2.822   2.591   1.936  0.0776  0.9639 -0.5547
 4501SOL    HW224966   2.876   2.712   1.984 -1.8185 -0.6100 -3.9986
 4502SOL     OW24967   2.852   3.334   3.768  0.2785 -0.1850  0.1174
 4502SOL    HW124968   2.774   3.368   3.722  1.2730  2.7700  0.5803
 4502SOL    HW224969   2.891   3.412   3.807  2.5630 -0.7533 -1.0562
 4503SOL     OW24970   4.479   3.203  14.386  0.0021  0.1804 -0.3842
 4503SOL    HW124971   4.402   3.159  14.423 -1.8357  1.9936 -2.0190
 4503SOL    HW224972   4.551   3.142  14.402  0.0026  0.1992 -0.3153
 4504SOL     OW24973   0.611   2.064   7.799 -0.1217 -0.3570 -0.0882
 4504SOL    HW124974   0.623   2.009   7.876 -0.2053  1.8012  1.4780
 4504SOL    HW224975   0.699   2.101   7.789 -0.1399 -0.0599  0.8450
 4505SOL     OW24976   0.156   2.769   8.579 -0.5963 -0.3814  0.3375
 4505SOL    HW124977   0.127   2.814   8.500 -1.7316 -0.0898  0.9342
 4505SOL    HW224978   0.091   2.787   8.646 -0.7053 -1.7992  0.6141
 4506SOL     OW24979   0.321   4.092   3.850 -0.7372  0.0849 -0.3698
 4506SOL    HW124980   0.274   4.067   3.930 -0.1462  0.7221  0.1771
 4506SOL    HW224981   0.284   4.032   3.785  0.3954  1.3056 -2.1341
 4507SOL     OW24982   1.522   4.497   4.870  0.2240 -0.2016  0.3753
 4507SOL    HW124983   1.524   4.401   4.867  2.5684 -0.1593  0.4523
 4507SOL    HW224984   1.444   4.519   4.921  0.6448 -1.7249  1.6774
 4508SOL     OW24985   1.922   0.434   3.765  0.6319 -0.0463  0.0537
 4508SOL    HW124986   1.843   0.449   3.818  0.3652  0.0356 -0.3710
 4508SOL    HW224987   1.908   0.350   3.722  1.5058 -1.4810  2.5523
 4509SOL     OW24988   3.527   1.346   6.767 -0.2127  0.1804  0.6468
 4509SOL    HW124989   3.465   1.359   6.838 -1.4310  2.6918 -0.8905
 4509SOL    HW224990   3.530   1.252   6.748  1.3624  0.1294  1.1605
 4510SOL     OW24991   2.212   1.717   5.959 -0.0980 -0.3559 -0.1718
 4510SOL    HW124992   2.119   1.734   5.941  0.3054  1.2374 -0.8000
 4510SOL    HW224993   2.249   1.724   5.871 -1.8563 -0.7158 -0.9464
 4511SOL     OW24994   0.357   0.843   3.236 -0.1582  0.0470 -0.6537
 4511SOL    HW124995   0.399   0.874   3.316 -0.9529 -1.7300  0.4620
 4511SOL    HW224996   0.274   0.889   3.223 -0.2425 -0.4881 -1.9782
 4512SOL     OW24997   3.177   1.249   3.073  0.4181  0.5153 -0.0637
 4512SOL    HW124998   3.234   1.184   3.034 -0.9818 -0.8935  0.2395
 4512SOL    HW224999   3.162   1.306   2.998 -3.3891  0.5190  0.6886
 4513SOL     OW25000   4.479   1.365   2.743  0.2696  0.6088  0.5352
 4513SOL    HW125001   4.441   1.277   2.747  1.0357  0.2034 -1.3151
 4513SOL    HW225002   4.412   1.408   2.690 -0.6119  0.3662  1.4471
 4514SOL     OW25003   4.056   3.106   3.201  0.0285  0.0187  0.2356
 4514SOL    HW125004   4.001   3.027   3.202  0.1420 -0.0330  2.9839
 4514SOL    HW225005   4.035   3.130   3.111 -2.3729  2.9078  1.5550
 4515SOL     OW25006   3.530   0.112   6.962  0.2296 -0.5478 -0.8570
 4515SOL    HW125007   3.605   0.157   7.001  0.4498 -2.7336  1.2021
 4515SOL    HW225008   3.527   0.160   6.879 -0.1747  3.3168  1.3850
 4516SOL     OW25009   3.985   4.398   5.227 -0.2045  0.1056 -0.3738
 4516SOL    HW125010   3.951   4.444   5.151 -0.1995  0.1508 -0.3486
 4516SOL    HW225011   3.913   4.391   5.290  0.3764 -3.1136 -0.0326
 4517SOL     OW25012   0.442   2.185   4.890 -1.1540 -0.1149 -0.1786
 4517SOL    HW125013   0.519   2.241   4.876 -1.4898  0.4817  0.3898
 4517SOL    HW225014   0.438   2.137   4.808 -0.3960 -0.6673  0.1048
 4518SOL     OW25015   4.722   4.591  10.174 -0.2027  0.0897 -0.2040
 4518SOL    HW125016   4.656   4.556  10.113  0.4374 -0.0618 -0.8094
 4518SOL    HW225017   4.679   4.571  10.258  0.1163 -0.1355 -0.0929
 4519SOL     OW25018   3.120   1.773   3.323  0.8027  0.0679 -0.2727
 4519SOL    HW125019   3.199   1.740   3.279  0.0621 -1.1501 -0.6894
 4519SOL    HW225020   3.091   1.686   3.352  0.0170 -0.2030 -1.8717
 4520SOL     OW25021   1.878   3.144   7.247 -0.2459  0.0383  0.1216
 4520SOL    HW125022   1.847   3.163   7.336 -0.5456 -0.2077  0.0677
 4520SOL    HW225023   1.803   3.171   7.194 -0.8138 -1.1532  0.3121
 4521SOL     OW25024   3.469   4.433   2.615  0.3557 -0.3608  0.1926
 4521SOL    HW125025   3.393   4.385   2.648  0.4063 -1.4032 -1.1723
 4521SOL    HW225026   3.434   4.457   2.529  0.5015 -0.5344  0.0855
 4522SOL     OW25027   2.087   1.409  14.923  0.1750 -0.0621  0.1363
 4522SOL    HW125028   2.142   1.344  14.967  0.0392 -1.1613 -1.3067
 4522SOL    HW225029   2.005   1.359  14.927  0.4538 -0.3849  1.9802
 4523SOL     OW25030   1.249   3.404   8.242  0.2749 -0.2737  0.6244
 4523SOL    HW125031   1.323   3.344   8.242 -0.0009 -0.6127 -0.2555
 4523SOL    HW225032   1.175   3.366   8.194  1.9832 -0.6094 -1.7335
 4524SOL     OW25033   0.487   2.430  12.242 -0.4127 -0.2192 -0.0978
 4524SOL    HW125034   0.448   2.467  12.321 -1.4856  0.5507 -0.9856
 4524SOL    HW225035   0.471   2.497  12.175  0.5932  0.6229  0.5116
 4525SOL     OW25036   3.719   1.793  13.934 -0.5317 -0.4180  0.2824
 4525SOL    HW125037   3.711   1.865  13.997 -2.3312 -0.9080  0.6138
 4525SOL    HW225038   3.628   1.784  13.905 -0.8603 -0.6765  1.3684
 4526SOL     OW25039   1.974   1.775   9.565 -0.4378 -0.2742 -0.4342
 4526SOL    HW125040   2.033   1.832   9.517  0.2315 -1.7538 -1.3730
 4526SOL    HW225041   1.907   1.833   9.600 -1.1303 -0.7276 -1.0256
 4527SOL     OW25042   3.111   4.181  14.704 -0.4845 -0.0940 -0.5101
 4527SOL    HW125043   3.152   4.235  14.636 -2.6966  2.9420  0.5642
 4527SOL    HW225044   3.152   4.220  14.782 -3.1376  0.0025  0.8228
 4528SOL     OW25045   3.514   2.928   8.207 -0.0322  0.3859  0.2628
 4528SOL    HW125046   3.548   2.894   8.290  1.4714  0.3297 -0.3685
 4528SOL    HW225047   3.514   3.020   8.233 -2.2973  0.3748  0.3348
 4529SOL     OW25048   2.090   1.899   5.551 -0.3473  0.3846 -0.1201
 4529SOL    HW125049   2.140   1.937   5.623 -0.2667 -1.5968  0.8706
 4529SOL    HW225050   2.162   1.862   5.500 -0.6559  0.4416 -0.5923
 4530SOL     OW25051   0.452   2.362  14.612 -0.5611  0.1255  0.2586
 4530SOL    HW125052   0.481   2.432  14.671  0.8560 -0.0479 -0.2238
 4530SOL    HW225053   0.386   2.317  14.665 -0.9229  0.4605  0.0894
 4531SOL     OW25054   0.288   1.235   3.790  0.4953 -0.5319  0.0155
 4531SOL    HW125055   0.355   1.290   3.750  2.8432 -0.9100  3.3242
 4531SOL    HW225056   0.345   1.187   3.851  1.8130  0.5914 -0.3314
 4532SOL     OW25057   3.591   4.425   5.064  0.6122  0.3619 -0.3299
 4532SOL    HW125058   3.596   4.332   5.042 -0.1516 -0.0012  1.0758
 4532SOL    HW225059   3.592   4.413   5.159 -1.3435 -0.0240 -0.3574
 4533SOL     OW25060   2.930   2.241   6.254 -1.0847 -0.2574  0.5115
 4533SOL    HW125061   2.908   2.217   6.344 -2.7331  4.8937  1.4949
 4533SOL    HW225062   2.895   2.172   6.198  0.1400 -1.4209  1.1951
 4534SOL     OW25063   3.962   1.590   6.709 -0.0030  0.1121  0.5567
 4534SOL    HW125064   3.878   1.550   6.683 -1.6604  2.2075  2.7614
 4534SOL    HW225065   3.970   1.654   6.638 -1.5196  0.0178  0.2819
 4535SOL     OW25066   4.461   1.986  12.971 -0.0583 -0.5057  0.0199
 4535SOL    HW125067   4.406   2.062  12.950  3.4411  2.1223  0.5207
 4535SOL    HW225068   4.515   1.987  12.893  0.2178 -0.0361  0.2165
 4536SOL     OW25069   3.249   3.729   0.084 -0.2235  0.1801  0.0013
 4536SOL    HW125070   3.274   3.821   0.086  2.1728 -0.4928  0.5934
 4536SOL    HW225071   3.170   3.734   0.030 -0.6403  0.1008  0.5974
 4537SOL     OW25072   1.628   2.658   6.508  0.2873  0.1686  0.1968
 4537SOL    HW125073   1.588   2.615   6.584 -0.8996 -0.5101 -0.8048
 4537SOL    HW225074   1.690   2.719   6.548 -0.1422  0.3275  0.6210
 4538SOL     OW25075   3.927   2.297   5.123  0.2140 -0.1701  0.1210
 4538SOL    HW125076   3.852   2.265   5.072 -0.3814  0.5583  0.5412
 4538SOL    HW225077   3.984   2.336   5.056  0.4216  0.2986  0.5734
 4539SOL     OW25078   3.446   0.447   7.755 -0.3135  0.5428  1.1203
 4539SOL    HW125079   3.514   0.387   7.725  0.6404  1.1211  2.1581
 4539SOL    HW225080   3.482   0.532   7.733  1.2676 -1.2433 -3.2347
 4540SOL     OW25081   2.557   1.547   9.078  0.1591 -0.0451 -0.9784
 4540SOL    HW125082   2.652   1.553   9.086  0.3146 -1.4228 -1.7104
 4540SOL    HW225083   2.548   1.490   9.002  3.3913 -2.6591  0.6181
 4541SOL     OW25084   1.172   3.855   3.821 -0.2227  0.6734 -0.1763
 4541SOL    HW125085   1.123   3.872   3.901 -1.1942  1.7165 -0.9961
 4541SOL    HW225086   1.257   3.891   3.847 -0.2427 -0.0043  0.8006
 4542SOL     OW25087   2.878   2.641  11.523 -0.1433  0.2572  0.8210
 4542SOL    HW125088   2.918   2.696  11.455 -0.6738 -1.8214 -1.1612
 4542SOL    HW225089   2.914   2.558  11.490 -0.5976 -0.7584  2.8791
 4543SOL     OW25090   3.692   3.629   1.836 -0.2978 -0.0241  0.4267
 4543SOL    HW125091   3.689   3.724   1.851 -1.0627  0.4225 -2.5079
 4543SOL    HW225092   3.612   3.620   1.784 -1.1537 -0.3596  1.7831
 4544SOL     OW25093   3.479   1.091   8.443  0.4119 -0.1727 -0.2323
 4544SOL    HW125094   3.457   1.052   8.359  2.4376 -0.2759 -0.6993
 4544SOL    HW225095   3.533   1.166   8.417 -0.0974  0.0345 -0.6777
 4545SOL     OW25096   4.555   1.436   5.879 -0.1456 -0.3761 -0.5009
 4545SOL    HW125097   4.644   1.469   5.895 -0.9600  0.9968  1.1118
 4545SOL    HW225098   4.571   1.344   5.857 -0.4250 -0.2954 -1.0537
 4546SOL     OW25099   2.199   1.603  14.366  0.9271 -0.0252 -0.1020
 4546SOL    HW125100   2.289   1.583  14.392  1.4851  0.8996 -1.3548
 4546SOL    HW225101   2.189   1.574  14.275  0.9464  0.9297 -0.4068
 4547SOL     OW25102   1.158   4.162   5.879 -0.2903  0.1917 -0.7749
 4547SOL    HW125103   1.084   4.107   5.852  0.5609 -0.5344 -1.6152
 4547SOL    HW225104   1.142   4.143   5.972 -1.5503 -1.2983 -1.3003
 4548SOL     OW25105   0.693   1.455   1.892 -0.3484  0.7290 -0.0759
 4548SOL    HW125106   0.770   1.412   1.929  0.1655  1.5796 -0.1651
 4548SOL    HW225107   0.727   1.544   1.898  0.6635  0.1861  2.0386
 4549SOL     OW25108   1.435   2.764  10.960  0.5724 -0.0301  0.0483
 4549SOL    HW125109   1.343   2.739  10.974 -0.0863  2.4057  0.0441
 4549SOL    HW225110   1.470   2.679  10.932 -0.2549 -1.1877  2.4729
 4550SOL     OW25111   2.863   1.052  12.740  0.3749  0.4920  0.0405
 4550SOL    HW125112   2.848   1.065  12.834 -0.0955 -1.4679  0.2480
 4550SOL    HW225113   2.913   1.133  12.725  3.1308 -1.4638 -1.3573
 4551SOL     OW25114   2.129   1.026   0.803 -0.0318 -0.1702  0.4425
 4551SOL    HW125115   2.179   1.043   0.882  0.3916 -2.0559  0.5833
 4551SOL    HW225116   2.110   0.932   0.810  5.3574 -1.3467 -0.4363
 4552SOL     OW25117   3.781   0.900  17.494 -0.2640  0.4541  0.4011
 4552SOL    HW125118   3.865   0.946  17.493  1.3080 -2.4365 -1.3106
 4552SOL    HW225119   3.815   0.818  17.528  0.0673  0.3964 -0.0721
 4553SOL     OW25120   1.178   0.134   5.972 -0.2331  0.4252 -0.0365
 4553SOL    HW125121   1.091   0.147   5.934  0.4327  0.7499 -1.4646
 4553SOL    HW225122   1.167   0.051   6.018 -2.5687  0.0637 -1.2070
 4554SOL     OW25123   1.120   4.193   3.833  0.1927  0.1630 -1.0219
 4554SOL    HW125124   1.172   4.163   3.908  0.0084  1.1638 -0.4934
 4554SOL    HW225125   1.186   4.239   3.781  1.7766 -0.3290  0.5378
 4555SOL     OW25126   1.663   1.614   8.420  0.3740  0.1305  0.1281
 4555SOL    HW125127   1.649   1.520   8.413  2.0388 -0.0305 -1.0984
 4555SOL    HW225128   1.752   1.602   8.455  1.0813  1.1822 -1.2873
 4556SOL     OW25129   2.995   2.011   8.158 -0.4609 -0.1341 -0.2434
 4556SOL    HW125130   2.954   2.097   8.158  1.0330  0.5674  1.2876
 4556SOL    HW225131   3.058   2.017   8.230 -0.4595 -2.5939 -0.0068
 4557SOL     OW25132   2.554   2.403   6.280 -0.1669 -0.1961  0.1019
 4557SOL    HW125133   2.558   2.466   6.209 -0.6951 -1.5280 -1.1146
 4557SOL    HW225134   2.565   2.452   6.361 -0.6011  2.6315 -1.5755
 4558SOL     OW25135   0.142   3.859   5.820 -0.0256  0.6020 -0.3329
 4558SOL    HW125136   0.234   3.887   5.825 -0.6396  2.3821  0.9040
 4558SOL    HW225137   0.159   3.811   5.739 -1.7865 -2.5775  1.1604
 4559SOL     OW25138   0.279   3.442   7.619 -0.1519  0.1433 -0.1221
 4559SOL    HW125139   0.364   3.472   7.652 -1.2435  1.2662  1.6491
 4559SOL    HW225140   0.226   3.504   7.669 -2.2385 -1.5469 -0.2433
 4560SOL     OW25141   1.662   4.413   5.299  0.3687  0.1407  0.0722
 4560SOL    HW125142   1.648   4.354   5.374  4.1136 -0.3363  0.3867
 4560SOL    HW225143   1.739   4.377   5.255 -0.2826 -0.6798 -0.4049
 4561SOL     OW25144   3.551   2.762   4.531 -0.4009  0.1099  0.8612
 4561SOL    HW125145   3.536   2.709   4.609 -1.7120 -0.5953  0.1156
 4561SOL    HW225146   3.535   2.701   4.459 -0.0843 -0.1743  1.0301
 4562SOL     OW25147   2.235   2.729  14.439  0.3821 -0.2928  0.0192
 4562SOL    HW125148   2.196   2.669  14.376 -2.1884 -0.7321  2.0197
 4562SOL    HW225149   2.290   2.669  14.489 -0.5069 -1.3914 -0.3347
 4563SOL     OW25150   0.208   3.308   8.962  0.6713 -0.3139 -0.3807
 4563SOL    HW125151   0.213   3.359   9.043 -1.0291  0.8724 -1.0078
 4563SOL    HW225152   0.248   3.223   8.983 -1.1337 -1.5663 -2.0349
 4564SOL     OW25153   2.455   1.754   4.041 -0.1990 -0.4996  0.5470
 4564SOL    HW125154   2.407   1.704   4.107 -3.0431  1.1364 -0.3074
 4564SOL    HW225155   2.414   1.838   4.061  0.3709 -0.5442  1.8917
 4565SOL     OW25156   3.902   1.427   3.352 -0.8931 -0.1786  0.3721
 4565SOL    HW125157   3.869   1.485   3.420 -1.4140  0.5406 -0.4920
 4565SOL    HW225158   3.822   1.423   3.301  0.4456 -2.6388 -1.5753
 4566SOL     OW25159   1.834   1.350   6.699  0.0299 -0.1341  0.1935
 4566SOL    HW125160   1.914   1.330   6.748  0.4438  0.7184 -0.1272
 4566SOL    HW225161   1.761   1.347   6.760 -0.7919  1.2298 -0.7304
 4567SOL     OW25162   1.091   2.259   7.292  0.1029  0.1902  0.3111
 4567SOL    HW125163   1.021   2.317   7.263 -0.1732 -0.8391 -1.0444
 4567SOL    HW225164   1.163   2.296   7.241  1.6673 -1.1703  1.4910
 4568SOL     OW25165   2.006   1.207   1.675 -0.1415  0.1018  0.2169
 4568SOL    HW125166   2.056   1.125   1.674 -3.1288 -1.6918 -1.1836
 4568SOL    HW225167   1.919   1.185   1.706  0.1891  0.3816  1.3411
 4569SOL     OW25168   4.079   4.584   5.902 -0.5016 -0.2687 -0.4901
 4569SOL    HW125169   4.136   4.657   5.925 -0.6688 -0.3450  0.1655
 4569SOL    HW225170   4.119   4.509   5.946  1.5868  0.9853 -0.2493
 4570SOL     OW25171   1.865   1.722  11.355 -0.6622 -0.0810  0.5171
 4570SOL    HW125172   1.902   1.634  11.351 -0.1765  0.1486 -0.0535
 4570SOL    HW225173   1.772   1.702  11.345 -0.6129  0.8863 -2.0374
 4571SOL     OW25174   1.311   2.154   9.927  0.4427 -0.2335 -0.5685
 4571SOL    HW125175   1.336   2.085   9.866  0.8364 -0.1074 -0.5447
 4571SOL    HW225176   1.388   2.159   9.983 -0.7555 -0.1777  1.0708
 4572SOL     OW25177   3.096   0.316   3.940  0.5124  0.0602 -0.1963
 4572SOL    HW125178   3.090   0.357   3.854  2.5595  2.0279  0.5965
 4572SOL    HW225179   3.151   0.378   3.989  0.9187 -1.9707  1.9506
 4573SOL     OW25180   4.434   3.182   6.929 -0.6809  0.4895 -0.1711
 4573SOL    HW125181   4.340   3.202   6.922 -1.0881 -1.8220 -1.3461
 4573SOL    HW225182   4.449   3.247   6.998  0.9194 -1.7719  1.6221
 4574SOL     OW25183   0.602   0.356   2.732 -0.5201 -0.0006 -0.2209
 4574SOL    HW125184   0.524   0.359   2.787  0.0774  0.5825  0.5982
 4574SOL    HW225185   0.673   0.381   2.791 -1.5546  0.1158  0.9651
 4575SOL     OW25186   2.949   0.428  15.933  0.3302  0.4070 -0.0205
 4575SOL    HW125187   3.038   0.413  15.964 -0.3444 -1.8893  0.8065
 4575SOL    HW225188   2.941   0.344  15.887 -0.2640  0.9465 -0.8906
 4576SOL     OW25189   3.462   0.618  11.978  0.1961 -0.2801  0.0517
 4576SOL    HW125190   3.394   0.679  12.006  0.2741 -0.0250 -0.3107
 4576SOL    HW225191   3.446   0.605  11.885 -2.3789  0.7199  0.3573
 4577SOL     OW25192   2.944   0.071   4.322  0.7526 -0.4120  0.6034
 4577SOL    HW125193   2.972   0.053   4.232  0.7801  1.6747  0.1876
 4577SOL    HW225194   3.025   0.046   4.368  2.5908  1.3093 -1.6891
 4578SOL     OW25195   0.620   2.206   5.795  0.7500  0.5459 -0.2452
 4578SOL    HW125196   0.563   2.136   5.828 -1.8110  2.9284  0.4206
 4578SOL    HW225197   0.657   2.230   5.880  0.6268 -1.7907  0.4535
 4579SOL     OW25198   3.700   4.558   9.830 -0.1146  0.0471 -0.2727
 4579SOL    HW125199   3.778   4.582   9.880  0.4664 -0.3313 -0.9920
 4579SOL    HW225200   3.647   4.499   9.884 -1.2139  0.9324 -0.3722
 4580SOL     OW25201   1.816   3.424   7.087 -0.1316 -0.8505  0.7425
 4580SOL    HW125202   1.907   3.429   7.058  0.0589 -3.6493  0.7895
 4580SOL    HW225203   1.804   3.332   7.061 -1.3130 -0.5324  0.1596
 4581SOL     OW25204   3.211   3.117  12.768  0.5505  0.2127 -0.3083
 4581SOL    HW125205   3.156   3.054  12.722 -0.9138  0.0507  1.6850
 4581SOL    HW225206   3.165   3.125  12.851  0.3028 -0.4227 -0.3828
 4582SOL     OW25207   3.863   1.311   6.921 -0.0949 -0.3902  0.2437
 4582SOL    HW125208   3.919   1.366   6.976 -0.0322  0.5052 -0.7040
 4582SOL    HW225209   3.888   1.337   6.832  0.8379 -1.2576  0.2526
 4583SOL     OW25210   2.595   0.934   8.693 -0.2097  0.2225 -0.6602
 4583SOL    HW125211   2.689   0.938   8.711  0.2602 -0.9903 -2.9248
 4583SOL    HW225212   2.562   0.896   8.775  0.2297  0.9466 -0.1514
 4584SOL     OW25213   4.303   4.308   7.411 -0.4817 -0.4134  0.4854
 4584SOL    HW125214   4.372   4.251   7.445 -0.0411  0.8573  1.6995
 4584SOL    HW225215   4.323   4.307   7.317 -2.1173 -1.5430  0.1392
 4585SOL     OW25216   1.039   2.130  10.777  0.3358 -0.3711 -0.0480
 4585SOL    HW125217   1.111   2.190  10.757  0.5805 -0.8687 -0.6549
 4585SOL    HW225218   1.070   2.041  10.765  0.4936 -0.1975 -0.9122
 4586SOL     OW25219   0.975   4.017  15.331 -0.0139 -0.1449 -0.7042
 4586SOL    HW125220   0.915   4.028  15.258  2.6072  1.1143 -2.6681
 4586SOL    HW225221   0.928   3.949  15.380  0.7909  0.1968  0.5312
 4587SOL     OW25222   2.699   3.680   3.944  0.5486  0.4357  0.1203
 4587SOL    HW125223   2.686   3.750   3.880 -0.3302 -1.4768 -1.7904
 4587SOL    HW225224   2.790   3.695   3.969  0.6715  0.7015 -0.5005
 4588SOL     OW25225   3.468   1.258   8.013 -0.3669  0.1024 -0.1239
 4588SOL    HW125226   3.387   1.265   8.064  0.4196  0.1784  1.1059
 4588SOL    HW225227   3.444   1.325   7.948  2.7621  0.4525 -0.9192
 4589SOL     OW25228   3.389   1.933   8.133 -0.0408 -0.1641 -0.1924
 4589SOL    HW125229   3.472   1.886   8.130 -0.7375 -1.3873 -0.5324
 4589SOL    HW225230   3.386   1.985   8.213  1.8923 -1.1834  0.5537
 4590SOL     OW25231   1.523   3.093  13.628  0.4295  0.2789  1.1054
 4590SOL    HW125232   1.531   3.179  13.670 -1.5135 -0.3487  2.7506
 4590SOL    HW225233   1.430   3.084  13.612  0.3838 -2.5980  3.1142
 4591SOL     OW25234   0.407   1.796   6.259 -0.1395  0.3056 -0.0380
 4591SOL    HW125235   0.324   1.787   6.211  0.9125 -1.6731 -1.4632
 4591SOL    HW225236   0.408   1.717   6.313 -1.6590  0.5236  0.3200
 4592SOL     OW25237   0.791   1.902  14.688  0.0851 -0.5885 -0.5682
 4592SOL    HW125238   0.768   1.993  14.704  1.8051 -0.3896  0.7627
 4592SOL    HW225239   0.744   1.849  14.753 -0.4869 -0.0579 -0.5502
 4593SOL     OW25240   2.162   1.879   1.835  0.2996  0.0092 -0.4887
 4593SOL    HW125241   2.113   1.824   1.774  0.3363 -0.0258 -0.4868
 4593SOL    HW225242   2.245   1.835   1.854  0.1414  0.2629  0.7518
 4594SOL     OW25243   2.596   1.011  16.734  0.0493 -0.0211  0.0276
 4594SOL    HW125244   2.591   0.915  16.737 -0.9727  0.1133  2.1275
 4594SOL    HW225245   2.665   1.029  16.671 -0.1695 -2.0690 -0.8237
 4595SOL     OW25246   4.626   0.333   6.652  0.3232 -0.5567 -0.0122
 4595SOL    HW125247   4.624   0.416   6.700  0.9120  0.3913 -1.6070
 4595SOL    HW225248   4.549   0.284   6.679 -0.3225  0.8828  0.7836
 4596SOL     OW25249   4.707   3.118   5.047  0.2009 -0.1437  0.1757
 4596SOL    HW125250   4.627   3.087   5.089  0.1139 -0.2401 -0.0617
 4596SOL    HW225251   4.680   3.201   5.008  0.9472  0.5931  1.2236
 4597SOL     OW25252   4.168   3.895   6.290 -0.8843 -0.6682  0.3220
 4597SOL    HW125253   4.238   3.859   6.346  0.6463  0.0740 -1.1315
 4597SOL    HW225254   4.086   3.863   6.328 -0.7206 -1.1151  0.2969
 4598SOL     OW25255   4.061   3.552  13.073  0.0719 -1.1570 -0.1068
 4598SOL    HW125256   4.027   3.465  13.054 -0.7002 -0.6403 -1.1149
 4598SOL    HW225257   4.143   3.525  13.115  0.6365  0.3691 -0.2082
 4599SOL     OW25258   1.641   2.822   7.331 -0.1831 -0.7393 -0.1620
 4599SOL    HW125259   1.660   2.822   7.425 -0.8819  1.7097 -0.0151
 4599SOL    HW225260   1.576   2.892   7.321  0.1436 -0.3317  0.5506
 4600SOL     OW25261   1.712   4.007   7.592 -0.0527 -0.1271 -0.2004
 4600SOL    HW125262   1.752   4.076   7.645  1.7064 -0.6828 -0.8065
 4600SOL    HW225263   1.679   4.046   7.512  0.5801 -0.2061 -0.5006
 4601SOL     OW25264   2.234   2.145   6.956 -0.1848  0.0377 -0.3145
 4601SOL    HW125265   2.205   2.220   7.007 -0.6093  1.1905 -2.2223
 4601SOL    HW225266   2.162   2.125   6.896 -1.0087 -0.1650  0.7511
 4602SOL     OW25267   2.964   1.482  15.295 -0.1106  0.3288 -0.1049
 4602SOL    HW125268   2.935   1.533  15.371 -3.2357  0.7370 -1.5814
 4602SOL    HW225269   2.958   1.549  15.226  0.6244  0.6889  0.1770
 4603SOL     OW25270   1.577   3.670  16.199 -0.6469  0.6215  0.0430
 4603SOL    HW125271   1.616   3.745  16.153 -3.9346  2.0218 -0.4303
 4603SOL    HW225272   1.561   3.606  16.131  1.1579  0.7478 -0.5029
 4604SOL     OW25273   3.235   4.419  12.971 -0.3869 -0.7431 -0.2368
 4604SOL    HW125274   3.262   4.504  12.936  0.0895 -0.0514  1.8121
 4604SOL    HW225275   3.308   4.403  13.032  0.8935 -0.4620 -1.6790
 4605SOL     OW25276   2.099   3.872   2.592  0.3436 -0.6344 -0.5940
 4605SOL    HW125277   2.107   3.807   2.662 -1.3419 -0.4852 -0.2679
 4605SOL    HW225278   2.109   3.810   2.520  0.0396  0.4539 -1.5676
 4606SOL     OW25279   1.309   3.991   2.705  0.3065  0.0883  0.1720
 4606SOL    HW125280   1.310   3.896   2.716 -1.3055  0.1437  0.7353
 4606SOL    HW225281   1.246   4.007   2.635 -1.2264  0.2791  1.6010
 4607SOL     OW25282   3.116   1.736   6.636 -0.1874 -0.2621 -0.4656
 4607SOL    HW125283   3.136   1.644   6.653 -0.7655 -0.4164 -0.5876
 4607SOL    HW225284   3.036   1.755   6.685  0.3455  0.0864  0.2552
 4608SOL     OW25285   3.298   0.351   6.374  0.0224  0.0809 -0.1990
 4608SOL    HW125286   3.381   0.328   6.333  0.5192  2.2054 -0.3767
 4608SOL    HW225287   3.263   0.421   6.319  1.8067  1.2937  0.1975
 4609SOL     OW25288   1.703   1.706   1.806 -0.5327  0.1495  0.3274
 4609SOL    HW125289   1.761   1.687   1.879  0.8692  0.1302 -0.8020
 4609SOL    HW225290   1.678   1.616   1.783  0.5445 -0.1046  0.1646
 4610SOL     OW25291   0.872   0.118   5.448 -0.5393 -0.2421  0.4825
 4610SOL    HW125292   0.866   0.026   5.424  1.7005  0.1219 -1.5025
 4610SOL    HW225293   0.932   0.145   5.378  0.3002 -3.3865 -0.0233
 4611SOL     OW25294   1.716   3.646   6.939 -0.3215  0.0695 -0.4124
 4611SOL    HW125295   1.639   3.686   6.979 -0.3335  0.1290 -0.4944
 4611SOL    HW225296   1.738   3.569   6.992 -1.2007 -1.6317 -2.5626
 4612SOL     OW25297   2.005   1.545   1.851  0.2800 -0.0905  0.5298
 4612SOL    HW125298   1.937   1.560   1.917 -1.4232  0.9551 -1.4336
 4612SOL    HW225299   2.088   1.540   1.899  0.8096 -1.0357 -0.4822
 4613SOL     OW25300   2.755   1.972   4.815  0.4914 -0.4345  0.4278
 4613SOL    HW125301   2.665   1.944   4.800 -0.0605  0.5502  1.8979
 4613SOL    HW225302   2.745   2.067   4.812 -1.0305 -0.6329 -0.7498
 4614SOL     OW25303   2.908   3.062   9.645  0.1537 -0.0852 -0.2627
 4614SOL    HW125304   2.960   2.982   9.655 -0.7182 -0.5863  0.2745
 4614SOL    HW225305   2.916   3.068   9.550  1.4849  1.0561 -0.0888
 4615SOL     OW25306   4.257   4.647  11.860  0.2281 -0.2445 -0.0292
 4615SOL    HW125307   4.333   4.640  11.802 -0.1358  0.5437 -0.6021
 4615SOL    HW225308   4.281   0.003  11.904 -0.9171  1.5776 -2.8400
 4616SOL     OW25309   1.019   1.086   6.035 -0.4308  0.3794 -0.1233
 4616SOL    HW125310   1.014   0.995   6.065  1.0079  0.5898  0.7611
 4616SOL    HW225311   1.108   1.109   6.064 -0.0855 -2.4769  1.0786
 4617SOL     OW25312   4.635   1.450   8.473  0.4861 -0.2390 -0.2926
 4617SOL    HW125313   4.638   1.359   8.503  0.9172  0.0718  0.6067
 4617SOL    HW225314   4.544   1.473   8.492  1.3549 -0.4422  3.9922
 4618SOL     OW25315   0.319   0.191   2.127 -0.0817 -0.5061 -1.3185
 4618SOL    HW125316   0.410   0.198   2.098 -0.0446  2.1371 -0.5586
 4618SOL    HW225317   0.339   0.148   2.211 -2.5063 -1.0977 -1.0288
 4619SOL     OW25318   3.561   3.110  10.366 -0.0223 -0.5744 -0.3563
 4619SOL    HW125319   3.646   3.073  10.389  1.3907 -0.6146 -5.5206
 4619SOL    HW225320   3.495   3.044  10.387 -0.1458  0.4622  2.4155
 4620SOL     OW25321   0.491   4.097   4.533  0.1168 -0.2384 -0.2375
 4620SOL    HW125322   0.397   4.113   4.523  0.3537  1.2619 -0.0545
 4620SOL    HW225323   0.534   4.167   4.482 -1.0498  1.3568  0.9591
 4621SOL     OW25324   0.110   2.753   6.144  0.0813 -0.6157  0.4461
 4621SOL    HW125325   0.081   2.813   6.213  0.9046 -1.9660  1.9606
 4621SOL    HW225326   0.026   2.721   6.110 -0.1126  0.9709 -0.5584
 4622SOL     OW25327   3.447   0.176   5.711 -0.0628 -0.4184  0.0562
 4622SOL    HW125328   3.374   0.134   5.756 -0.6375  0.0480 -0.4434
 4622SOL    HW225329   3.412   0.197   5.624 -1.4138  1.1943  0.9920
 4623SOL     OW25330   1.295   3.271   2.749  0.8161 -0.5248  0.1575
 4623SOL    HW125331   1.282   3.221   2.668 -0.8684  0.6052 -0.2608
 4623SOL    HW225332   1.258   3.358   2.734 -1.1635 -1.0706  1.8538
 4624SOL     OW25333   1.275   2.446   8.705 -0.5513  0.2823  0.5427
 4624SOL    HW125334   1.243   2.389   8.636  3.5912 -0.5071 -0.7288
 4624SOL    HW225335   1.357   2.480   8.669  0.0647 -2.4349 -0.6119
 4625SOL     OW25336   0.501   1.260  12.787  0.0968 -0.1890  0.1170
 4625SOL    HW125337   0.476   1.172  12.762  2.5648 -0.4323 -1.4515
 4625SOL    HW225338   0.582   1.231  12.829 -0.0746  0.3595  0.8340
 4626SOL     OW25339   4.552   0.810  14.960 -0.2761 -0.4395 -0.3641
 4626SOL    HW125340   4.534   0.729  15.008  0.4725  0.2447  1.0697
 4626SOL    HW225341   4.608   0.775  14.891 -0.9084  0.2330 -1.2214
 4627SOL     OW25342   0.712   1.390   8.789 -0.4175  0.5776  0.1270
 4627SOL    HW125343   0.624   1.356   8.805 -1.2720  2.0881 -1.4294
 4627SOL    HW225344   0.768   1.312   8.795 -0.8690  0.0367 -2.4668
 4628SOL     OW25345   2.193   1.861   1.495  0.0142  0.7972 -0.4873
 4628SOL    HW125346   2.257   1.832   1.559 -0.6057 -0.0322 -0.2450
 4628SOL    HW225347   2.113   1.847   1.546  0.3706  1.8145  0.3775
 4629SOL     OW25348   0.474   4.610   2.524  0.0197 -0.4093  0.5196
 4629SOL    HW125349   0.529   4.537   2.496  1.1031 -0.1448  1.9426
 4629SOL    HW225350   0.493   4.611   2.618  0.5652  0.5783  0.4091
 4630SOL     OW25351   4.038   0.720   6.791  0.9899 -0.2736 -0.2336
 4630SOL    HW125352   4.063   0.735   6.699  1.5621 -2.7084 -0.4743
 4630SOL    HW225353   3.984   0.642   6.780 -0.0999  0.6422 -1.4740
 4631SOL     OW25354   0.268   1.217  14.346 -0.1792  0.1959  0.6284
 4631SOL    HW125355   0.325   1.292  14.362  1.6500 -0.2558 -3.8987
 4631SOL    HW225356   0.290   1.174  14.264  1.2322  2.3742 -0.1298
 4632SOL     OW25357   3.336   3.017   4.342  0.1953 -0.1802 -0.2999
 4632SOL    HW125358   3.261   2.977   4.297 -0.3663 -0.9114  1.2658
 4632SOL    HW225359   3.374   2.944   4.391 -1.1400 -1.7032 -1.5429
 4633SOL     OW25360   2.946   1.360   6.614  0.4958  0.5084 -0.0926
 4633SOL    HW125361   3.028   1.405   6.593 -0.3074  2.3826  0.8176
 4633SOL    HW225362   2.881   1.429   6.605  0.2104  0.0972 -1.1793
 4634SOL     OW25363   3.547   0.923   7.674  0.4512  0.3268 -0.3140
 4634SOL    HW125364   3.473   0.863   7.665  1.0335 -0.5987  1.0733
 4634SOL    HW225365   3.499   1.004   7.689 -1.3124 -0.4949 -1.5335
 4635SOL     OW25366   2.193   2.631  11.237  0.6548  0.0186  0.0840
 4635SOL    HW125367   2.230   2.559  11.289  0.4137  1.9605  2.9545
 4635SOL    HW225368   2.104   2.601  11.219  0.4240 -0.4852  2.0663
 4636SOL     OW25369   3.597   4.661   4.021 -0.6077 -0.2452  0.5978
 4636SOL    HW125370   3.556   0.019   4.041 -1.5089 -0.0178 -2.2332
 4636SOL    HW225371   3.584   4.668   3.927 -1.4684 -0.6616  0.6889
 4637SOL     OW25372   4.588   0.876  11.669  0.6911 -0.0668 -0.3020
 4637SOL    HW125373   4.679   0.866  11.640  0.3207 -0.4021 -1.3336
 4637SOL    HW225374   4.587   0.839  11.757  0.4692 -1.3535 -0.8507
 4638SOL     OW25375   1.467   4.518   3.272  0.1036  0.2562 -0.5062
 4638SOL    HW125376   1.467   4.457   3.198  1.8228 -0.2316 -0.1114
 4638SOL    HW225377   1.486   4.602   3.230  1.0831 -1.1015 -2.8250
 4639SOL     OW25378   0.767   1.922   7.589  0.3518  0.2403 -0.1417
 4639SOL    HW125379   0.688   1.905   7.640  1.1849 -2.0122  0.3773
 4639SOL    HW225380   0.807   1.982   7.651 -0.7432  1.7869 -0.9031
 4640SOL     OW25381   1.158   0.452   6.862  0.0160  0.0497 -0.0441
 4640SOL    HW125382   1.137   0.388   6.930 -1.3724  0.4327 -0.1233
 4640SOL    HW225383   1.120   0.412   6.784  2.7070 -1.6705 -0.4921
 4641SOL     OW25384   4.441   4.308   5.871  0.4440  0.4180  0.7287
 4641SOL    HW125385   4.508   4.290   5.805  1.0092  1.4030  1.0369
 4641SOL    HW225386   4.445   4.220   5.908 -0.5968 -0.1232 -0.4497
 4642SOL     OW25387   4.363   2.313   6.581  0.3331 -0.0541  0.4220
 4642SOL    HW125388   4.346   2.230   6.625 -0.5739 -0.8956 -1.4935
 4642SOL    HW225389   4.290   2.314   6.519 -0.4583  0.2687  1.3651
 4643SOL     OW25390   2.655   0.119   7.646  0.2379 -0.2898  0.2211
 4643SOL    HW125391   2.677   0.029   7.670  0.1163  0.3539  2.8259
 4643SOL    HW225392   2.731   0.150   7.597 -1.8224  1.7066 -1.6531
 4644SOL     OW25393   1.015   0.830   9.059  0.4914  0.1562 -0.3050
 4644SOL    HW125394   1.089   0.878   9.096  1.4479 -0.4283 -1.4565
 4644SOL    HW225395   1.009   0.751   9.113 -1.6772  0.7813  0.3573
 4645SOL     OW25396   4.393   0.614   2.200 -0.0285  0.2997  0.5723
 4645SOL    HW125397   4.454   0.660   2.258  1.2772 -0.1681 -0.4432
 4645SOL    HW225398   4.437   0.533   2.176  0.4169  0.8339 -0.4102
 4646SOL     OW25399   4.677   0.309   8.641 -0.0629  0.0212 -0.1695
 4646SOL    HW125400   4.670   0.368   8.716 -2.0375  1.0915 -1.1704
 4646SOL    HW225401   0.038   0.329   8.607  0.2424  0.9457  1.1933
 4647SOL     OW25402   3.246   1.284   3.340  0.7206 -0.5149  0.5951
 4647SOL    HW125403   3.171   1.246   3.387 -0.2547 -3.4600 -3.3384
 4647SOL    HW225404   3.227   1.254   3.251 -0.5237  1.8423  0.0656
 4648SOL     OW25405   0.473   1.511   3.152 -0.1532  0.3361  0.2774
 4648SOL    HW125406   0.516   1.426   3.157 -0.1179  0.2518 -1.3991
 4648SOL    HW225407   0.463   1.532   3.245  0.0055  1.3301  0.0724
 4649SOL     OW25408   3.767   2.047   6.216  0.0535  0.1826 -0.1475
 4649SOL    HW125409   3.699   2.047   6.149 -0.2622 -0.0765  0.1670
 4649SOL    HW225410   3.778   1.955   6.239  2.0286  0.6011  0.5853
 4650SOL     OW25411   3.339   0.774   5.468  0.3343 -0.2664 -0.2810
 4650SOL    HW125412   3.358   0.859   5.427  2.6249 -0.7739 -0.2618
 4650SOL    HW225413   3.399   0.719   5.418 -0.7372  0.4527 -2.3960
 4651SOL     OW25414   0.725   2.959   9.920 -0.2178 -0.0158  0.3903
 4651SOL    HW125415   0.778   2.880   9.922 -3.4515 -2.2363 -1.8179
 4651SOL    HW225416   0.731   2.988  10.011  0.2418  1.8852 -0.2458
 4652SOL     OW25417   0.167   2.528  13.128 -0.4035 -0.1583  1.2241
 4652SOL    HW125418   0.236   2.594  13.131 -0.7945  0.2927 -0.0232
 4652SOL    HW225419   0.182   2.499  13.219  0.2921  0.4220  1.2961
 4653SOL     OW25420   2.515   1.209  11.194 -0.0117 -0.5243  0.4872
 4653SOL    HW125421   2.503   1.119  11.162 -0.9682  0.2296 -1.2788
 4653SOL    HW225422   2.448   1.246  11.137  0.5236  0.1027  0.2699
 4654SOL     OW25423   2.445   0.300   3.243 -0.1016  1.0544 -0.1238
 4654SOL    HW125424   2.418   0.234   3.179  0.9953 -0.9356  1.4836
 4654SOL    HW225425   2.364   0.304   3.295 -1.4016  0.4379 -2.0691
 4655SOL     OW25426   1.333   2.007  15.818 -0.9372 -0.0798  0.3290
 4655SOL    HW125427   1.285   1.999  15.736  1.7932  1.4487 -1.4169
 4655SOL    HW225428   1.302   2.089  15.857  1.6430  0.6475  0.8590
 4656SOL     OW25429   1.122   4.231   4.182  0.2332 -0.5780  0.4799
 4656SOL    HW125430   1.115   4.254   4.089 -0.4289 -1.8398  0.2149
 4656SOL    HW225431   1.073   4.301   4.226 -1.5075  0.3809 -2.9630
 4657SOL     OW25432   4.723   2.430  17.342 -0.1891  0.2933  0.0089
 4657SOL    HW125433   4.650   2.484  17.372 -0.1833 -0.4590  1.3713
 4657SOL    HW225434   4.719   2.450  17.249 -1.2333  0.1289  0.0135
 4658SOL     OW25435   4.201   2.086   0.733  0.0698  0.0845 -0.2007
 4658SOL    HW125436   4.257   2.066   0.808  2.6410 -0.3958 -2.2537
 4658SOL    HW225437   4.228   2.178   0.721  0.4347  0.4993  3.6205
 4659SOL     OW25438   0.911   0.721   0.198  0.1014  0.3941  0.1969
 4659SOL    HW125439   0.852   0.717   0.123  0.9149  4.0897 -0.6352
 4659SOL    HW225440   0.917   0.629   0.225 -0.7452  0.4818  0.6627
 4660SOL     OW25441   3.603   1.780  10.712 -0.0123  0.4390 -0.4360
 4660SOL    HW125442   3.515   1.776  10.673 -0.1677 -0.1826 -0.0196
 4660SOL    HW225443   3.582   1.790  10.805  1.1601 -0.6467 -0.0641
 4661SOL     OW25444   1.469   1.048  16.299  0.2102 -0.1673  0.1140
 4661SOL    HW125445   1.440   0.989  16.369 -2.8896  2.0432  0.6864
 4661SOL    HW225446   1.556   1.014  16.277 -0.1963 -0.6416 -0.7586
 4662SOL     OW25447   3.671   0.627  12.134  0.0022 -0.7562 -0.5456
 4662SOL    HW125448   3.591   0.608  12.085 -0.5701 -1.0430  0.4971
 4662SOL    HW225449   3.641   0.666  12.216  1.0379 -1.7013  0.2783
 4663SOL     OW25450   1.930   0.166   0.644  0.0905 -0.3845  0.1992
 4663SOL    HW125451   1.991   0.136   0.711 -1.9865  0.2871  2.3945
 4663SOL    HW225452   1.850   0.130   0.683  1.2496 -0.7532  2.2404
 4664SOL     OW25453   0.319   4.015  16.032  0.2864 -0.3519  0.1249
 4664SOL    HW125454   0.257   3.982  15.968 -0.4544 -0.7081  1.0213
 4664SOL    HW225455   0.322   4.110  16.022  1.3085 -0.4180 -0.2345
 4665SOL     OW25456   0.604   2.720   6.441  0.6494  0.2526 -0.4596
 4665SOL    HW125457   0.633   2.741   6.352 -0.2006  0.0811 -0.7824
 4665SOL    HW225458   0.548   2.645   6.418  0.3751  0.7010 -1.2757
 4666SOL     OW25459   0.624   2.176   9.004  0.0065 -0.3939  0.0180
 4666SOL    HW125460   0.657   2.107   9.061  4.4023 -0.1585 -2.2524
 4666SOL    HW225461   0.537   2.144   8.980 -0.2567  0.2947  0.0471
 4667SOL     OW25462   2.369   3.209   7.341  0.5839  0.1112  0.3786
 4667SOL    HW125463   2.403   3.140   7.398  0.6106 -0.7159 -0.6351
 4667SOL    HW225464   2.371   3.185   7.248  1.6594  2.1879 -0.1345
 4668SOL     OW25465   1.461   1.545   3.704 -0.2883 -0.4232 -0.2900
 4668SOL    HW125466   1.460   1.454   3.673 -0.5173  0.4282 -2.7712
 4668SOL    HW225467   1.397   1.544   3.775  0.0055  3.0516  0.0300
 4669SOL     OW25468   1.476   2.215   8.883  0.0339  0.3288 -1.4395
 4669SOL    HW125469   1.572   2.218   8.878  0.0546 -1.5656 -2.1132
 4669SOL    HW225470   1.444   2.294   8.838 -1.8459  0.8491  0.8414
 4670SOL     OW25471   3.918   0.636   8.879 -0.1833  0.0865 -0.0381
 4670SOL    HW125472   3.852   0.674   8.820  0.5568  1.0619 -0.2333
 4670SOL    HW225473   3.992   0.646   8.819  1.1578 -1.5670  1.3337
 4671SOL     OW25474   2.880   0.230  12.776  0.2886  0.3415 -0.0241
 4671SOL    HW125475   2.970   0.240  12.744  0.0905  0.9034 -0.4104
 4671SOL    HW225476   2.888   0.153  12.832  0.3741  1.9926  2.2771
 4672SOL     OW25477   0.426   0.244  11.589 -0.3891 -0.2291 -0.6751
 4672SOL    HW125478   0.422   0.311  11.657  1.0262 -0.7442 -0.0864
 4672SOL    HW225479   0.348   0.193  11.610 -0.2266 -0.6739 -1.1573
 4673SOL     OW25480   0.355   0.852   1.292 -0.1519  0.1741 -0.1004
 4673SOL    HW125481   0.334   0.931   1.241  0.4924  0.5763  0.2567
 4673SOL    HW225482   0.340   0.793   1.218 -1.3982 -0.5929  0.7779
 4674SOL     OW25483   3.205   1.621  11.544  0.3466  0.3079 -0.2054
 4674SOL    HW125484   3.211   1.537  11.500 -1.6318 -0.3204  0.7420
 4674SOL    HW225485   3.162   1.589  11.623  0.1962  0.6152 -0.1622
 4675SOL     OW25486   1.136   1.374   3.674 -0.0986 -0.0130  0.2573
 4675SOL    HW125487   1.098   1.365   3.587  0.5895 -0.4328  0.0072
 4675SOL    HW225488   1.094   1.454   3.706 -0.1110 -0.1435  0.5751
 4676SOL     OW25489   2.289   4.251  13.842 -0.2042  0.3811  0.0838
 4676SOL    HW125490   2.262   4.333  13.800  2.8869  2.0952  1.4439
 4676SOL    HW225491   2.369   4.277  13.887  1.8460 -1.8723 -2.2759
 4677SOL     OW25492   4.504   3.789   6.966 -0.0600  0.8534 -0.1226
 4677SOL    HW125493   4.555   3.859   7.005  0.4859  0.1049  0.5115
 4677SOL    HW225494   4.556   3.723   7.013 -1.7589  0.7122  1.5301
 4678SOL     OW25495   1.525   3.522  13.932  0.0330 -0.1888  0.5325
 4678SOL    HW125496   1.594   3.584  13.955 -2.8376  2.3965  2.0730
 4678SOL    HW225497   1.452   3.551  13.987 -0.3298  0.1390 -0.1262
 4679SOL     OW25498   1.125   3.983   8.189  0.6675  0.2207  0.5645
 4679SOL    HW125499   1.071   3.998   8.112  2.1067 -2.6553 -1.0191
 4679SOL    HW225500   1.195   3.946   8.136 -1.4606 -2.2553 -0.5637
 4680SOL     OW25501   4.624   0.037   3.771  0.7788 -0.2650  0.1537
 4680SOL    HW125502   4.678   4.723   3.839 -1.7605  0.4367  2.5597
 4680SOL    HW225503   4.561   4.692   3.755  0.3385  0.2014 -0.1601
 4681SOL     OW25504   1.517   3.530  13.562  0.4380 -0.0225 -0.2668
 4681SOL    HW125505   1.475   3.460  13.612  0.5737  1.7578  2.3657
 4681SOL    HW225506   1.594   3.529  13.619  1.1835 -0.8536 -1.2917
 4682SOL     OW25507   2.254   1.021   0.028 -0.1774  0.5492 -0.2145
 4682SOL    HW125508   2.259   0.945   0.087 -1.3336 -0.4902 -1.4624
 4682SOL    HW225509   2.198   0.999  17.658  1.9338  0.9069 -1.9052
 4683SOL     OW25510   1.294   3.082   2.516  0.4355  0.4469  0.2369
 4683SOL    HW125511   1.379   3.043   2.540  0.7462  1.7231  1.1882
 4683SOL    HW225512   1.238   3.004   2.515 -0.7474  1.2928  0.8970
 4684SOL     OW25513   1.334   4.338  17.134  0.2882  0.0145  0.4844
 4684SOL    HW125514   1.413   4.285  17.129  0.2105  0.0171 -0.8100
 4684SOL    HW225515   1.330   4.380  17.048 -2.7572 -0.4490  0.4069
 4685SOL     OW25516   2.739   0.698  14.767  0.9472 -0.6046 -0.1793
 4685SOL    HW125517   2.785   0.675  14.848 -1.4038 -1.0629  0.9955
 4685SOL    HW225518   2.777   0.632  14.708  3.5512  0.4355  0.3051
 4686SOL     OW25519   1.568   3.777   2.489 -0.1486  0.1455 -0.2702
 4686SOL    HW125520   1.545   3.750   2.578  0.7589  1.8421  0.4797
 4686SOL    HW225521   1.654   3.813   2.511 -1.0231  0.1662  3.0150
 4687SOL     OW25522   0.089   1.201  16.909  0.0017  0.4467 -0.6451
 4687SOL    HW125523   0.092   1.182  16.815 -0.2357  1.8103 -0.9280
 4687SOL    HW225524   0.059   1.292  16.904 -0.4740  0.3477  0.4377
 4688SOL     OW25525   1.650   3.913  15.129 -0.2731  0.3923 -0.3662
 4688SOL    HW125526   1.675   3.896  15.038  0.6012  0.8860 -0.2244
 4688SOL    HW225527   1.555   3.901  15.132  0.0538 -2.1188 -0.0438
 4689SOL     OW25528   2.083   0.071   3.417 -0.2940 -0.1771 -0.4818
 4689SOL    HW125529   2.136   0.011   3.470  0.4189  0.6794 -0.2391
 4689SOL    HW225530   2.038   0.012   3.356  0.3152 -1.4663  0.3165
 4690SOL     OW25531   4.562   3.895   2.166  0.7372  0.1144  0.3489
 4690SOL    HW125532   4.506   3.948   2.109  0.3759  0.6144  1.1690
 4690SOL    HW225533   4.562   3.940   2.251  0.4847 -0.2133  0.5234
 4691SOL     OW25534   2.032   2.355   4.133 -0.2122 -0.0139  0.0006
 4691SOL    HW125535   2.015   2.446   4.160  0.2864 -0.5997  2.3458
 4691SOL    HW225536   2.065   2.326   4.218  0.9248 -1.4677 -0.9446
 4692SOL     OW25537   1.961   3.592   1.411 -0.0255 -0.2052  0.2151
 4692SOL    HW125538   1.993   3.598   1.501  0.5701 -2.5489  0.1543
 4692SOL    HW225539   1.922   3.679   1.406  0.2189 -0.1732 -1.1626
 4693SOL     OW25540   3.223   0.646   7.450  0.0373  0.4897  0.0823
 4693SOL    HW125541   3.293   0.692   7.404 -0.5563  0.6196 -0.6897
 4693SOL    HW225542   3.228   0.562   7.403 -2.2836  0.5351 -0.2719
 4694SOL     OW25543   0.950   0.126  15.576  0.0019 -0.4767  0.1438
 4694SOL    HW125544   0.877   0.065  15.579 -0.3154 -0.1701 -1.0814
 4694SOL    HW225545   1.012   0.086  15.514 -0.8276  0.8347 -1.5533
 4695SOL     OW25546   0.297   4.503   6.464  0.2701 -0.2406  0.3927
 4695SOL    HW125547   0.353   4.577   6.440  0.3981 -0.5098 -0.1372
 4695SOL    HW225548   0.258   4.475   6.381  0.4252 -0.3945  0.3724
 4696SOL     OW25549   0.530   3.069   6.104  0.5290  1.0047 -0.5609
 4696SOL    HW125550   0.511   2.978   6.125  1.6725  1.3003  1.7419
 4696SOL    HW225551   0.448   3.108   6.133  0.6985  0.4623  0.6680
 4697SOL     OW25552   3.347   1.351   7.008  1.1376  0.2704 -0.9180
 4697SOL    HW125553   3.383   1.388   7.089 -0.0465  1.0037 -0.7266
 4697SOL    HW225554   3.325   1.261   7.031 -0.0561  1.2270  1.6392
 4698SOL     OW25555   3.008   3.733   3.313 -0.4719  0.0252 -0.1657
 4698SOL    HW125556   3.080   3.774   3.266  0.5973 -0.9894  0.6163
 4698SOL    HW225557   2.942   3.802   3.303  0.1227  0.8343  1.4277
 4699SOL     OW25558   1.374   0.946   7.036 -0.3440  0.3382  0.2193
 4699SOL    HW125559   1.298   0.900   7.001 -0.1453 -1.8245  2.6651
 4699SOL    HW225560   1.397   1.004   6.963 -2.7059 -0.0816 -0.8644
 4700SOL     OW25561   0.692   1.516   4.274 -0.1881 -0.3693 -0.4967
 4700SOL    HW125562   0.637   1.591   4.295  0.6746 -0.0949  0.7635
 4700SOL    HW225563   0.717   1.460   4.348 -4.3850 -0.2173  0.9902
 4701SOL     OW25564   4.562   0.871   9.183  0.0069  0.5628  0.6515
 4701SOL    HW125565   4.480   0.867   9.233 -0.0226  2.3912  0.7343
 4701SOL    HW225566   4.628   0.889   9.249  1.5532  0.3322 -0.8312
 4702SOL     OW25567   2.214   1.925   6.421 -0.1651  0.3119 -0.3044
 4702SOL    HW125568   2.283   1.990   6.406  0.9671 -0.4847  1.4112
 4702SOL    HW225569   2.214   1.876   6.339  0.8738 -1.5757  0.8242
 4703SOL     OW25570   0.191   3.129   2.796 -0.2669  0.3035 -0.0613
 4703SOL    HW125571   0.229   3.080   2.868 -0.3957  1.4464  0.7883
 4703SOL    HW225572   0.245   3.208   2.804 -0.9629  0.5781  2.0765
 4704SOL     OW25573   3.813   4.475   8.362 -0.0264  0.2204  0.3120
 4704SOL    HW125574   3.792   4.382   8.354  0.7851 -0.0144  0.9226
 4704SOL    HW225575   3.776   4.516   8.284 -1.7904 -1.3385  0.3195
 4705SOL     OW25576   2.124   3.581   7.956  0.1400 -0.2796  0.0523
 4705SOL    HW125577   2.096   3.611   7.870 -2.0986  1.1516  1.2775
 4705SOL    HW225578   2.173   3.658   7.988  0.0803 -0.6553  1.0652
 4706SOL     OW25579   4.496   2.796   7.687  0.4071 -0.4775  0.2860
 4706SOL    HW125580   4.588   2.822   7.679  0.6072 -0.9514  1.1029
 4706SOL    HW225581   4.458   2.868   7.636 -1.4314 -0.7470  1.2901
 4707SOL     OW25582   2.190   3.811   0.107  0.4312  0.2457 -1.0410
 4707SOL    HW125583   2.121   3.848   0.051  1.1977  2.2043 -0.7129
 4707SOL    HW225584   2.206   3.723   0.074 -1.2895 -0.5078  0.0926
 4708SOL     OW25585   4.506   4.281  13.970  0.4495  0.0756 -0.0715
 4708SOL    HW125586   4.556   4.362  13.967  0.6444 -0.0944 -1.4185
 4708SOL    HW225587   4.453   4.295  13.892 -2.2936  0.3076  1.8278
 4709SOL     OW25588   3.485   2.689   3.818 -0.8342  0.2961  0.7410
 4709SOL    HW125589   3.516   2.627   3.753  0.3611 -0.1517  1.7365
 4709SOL    HW225590   3.481   2.770   3.767  1.4519  1.1510  1.9380
 4710SOL     OW25591   3.515   4.336  11.022 -0.0458 -0.2758 -0.1238
 4710SOL    HW125592   3.530   4.421  11.063  1.2768 -0.0433 -1.0879
 4710SOL    HW225593   3.590   4.326  10.963  0.5625 -0.4344  0.6744
 4711SOL     OW25594   0.484   1.033  15.383 -0.5870 -0.0137  0.2787
 4711SOL    HW125595   0.437   0.979  15.447  1.6567  0.6265  2.4642
 4711SOL    HW225596   0.529   0.963  15.336 -1.5200  0.3515 -1.1505
 4712SOL     OW25597   3.359   1.199  15.639  0.0424  0.4195 -0.0735
 4712SOL    HW125598   3.327   1.277  15.685 -1.1463  0.0851 -0.3381
 4712SOL    HW225599   3.292   1.139  15.673  0.3006 -0.3687 -0.9604
 4713SOL     OW25600   0.044   0.425   9.769 -0.3412  0.4120 -0.4652
 4713SOL    HW125601   0.125   0.403   9.723  0.0105  0.7112  0.0110
 4713SOL    HW225602   0.067   0.423   9.862  1.0730  1.8709 -0.7699
 4714SOL     OW25603   3.566   4.366  14.526  1.0146 -0.6257  0.3477
 4714SOL    HW125604   3.560   4.372  14.621  0.8247  1.6771  0.1805
 4714SOL    HW225605   3.569   4.458  14.499 -1.4075  0.5434  4.0077
 4715SOL     OW25606   3.912   4.589   0.661  0.7606 -0.1172 -0.2363
 4715SOL    HW125607   3.964   4.598   0.741  0.0580 -1.5758  0.3817
 4715SOL    HW225608   3.826   4.594   0.702  1.0868 -2.3060  0.7138
 4716SOL     OW25609   3.047   3.335   9.527  0.1180  0.7367  0.2463
 4716SOL    HW125610   3.004   3.377   9.453  0.1102 -1.5715 -1.0488
 4716SOL    HW225611   2.963   3.314   9.569  0.0508 -2.0718 -1.3163
 4717SOL     OW25612   4.249   2.765   6.592  0.1118 -0.1240  0.3479
 4717SOL    HW125613   4.234   2.747   6.685 -1.6327 -1.0552 -0.1106
 4717SOL    HW225614   4.161   2.800   6.579 -0.1413 -1.7261 -2.2205
 4718SOL     OW25615   3.724   0.262  10.070  0.6153 -0.1724 -0.0310
 4718SOL    HW125616   3.815   0.268  10.097  1.3574 -1.7992 -2.2098
 4718SOL    HW225617   3.729   0.200   9.997  0.0037 -1.5426  1.1008
 4719SOL     OW25618   4.224   2.775   4.169 -1.0809 -0.1949 -0.3173
 4719SOL    HW125619   4.167   2.704   4.199  1.2325 -0.5608  3.1276
 4719SOL    HW225620   4.218   2.767   4.074  0.1227  2.0438 -0.5725
 4720SOL     OW25621   3.220   1.874   9.212  0.6215  0.2352 -0.4584
 4720SOL    HW125622   3.239   1.956   9.258  0.7359 -1.0355  1.7437
 4720SOL    HW225623   3.135   1.904   9.180  0.7139 -1.0094 -1.8532
 4721SOL     OW25624   3.656   3.122   0.743 -0.6621  0.1290 -0.1322
 4721SOL    HW125625   3.714   3.053   0.709 -2.6604 -0.6962 -1.8514
 4721SOL    HW225626   3.591   3.121   0.673  0.4453  1.0010 -1.1704
 4722SOL     OW25627   1.490   3.678   3.503  0.0505 -0.7405 -0.3721
 4722SOL    HW125628   1.564   3.685   3.442 -0.4971  1.2399 -0.8056
 4722SOL    HW225629   1.493   3.757   3.556 -0.8457  0.3522 -1.9508
 4723SOL     OW25630   2.636   1.883  14.016  0.1372 -0.0389  0.6080
 4723SOL    HW125631   2.628   1.967  13.971 -3.8771 -0.3517  0.7275
 4723SOL    HW225632   2.553   1.844  13.988 -0.1730 -0.2833  1.8392
 4724SOL     OW25633   4.023   2.498   4.383 -0.4876  0.5534 -0.7852
 4724SOL    HW125634   4.018   2.522   4.290 -1.9185  1.6545 -0.4174
 4724SOL    HW225635   3.984   2.410   4.376  1.5330 -0.4374  0.3066
 4725SOL     OW25636   2.511   4.624   7.093 -0.2919  0.1699 -0.3682
 4725SOL    HW125637   2.568   4.573   7.035  1.2905  0.1646  1.2148
 4725SOL    HW225638   2.511   4.559   7.163 -0.1009  1.4356  0.7916
 4726SOL     OW25639   4.685   0.535  14.077  0.3296  0.2808 -1.3371
 4726SOL    HW125640   4.618   0.565  14.139 -2.4807 -4.7559 -1.9214
 4726SOL    HW225641   4.637   0.527  13.995 -0.6467 -0.9745 -0.6496
 4727SOL     OW25642   1.590   1.572   5.034 -0.4406  0.9355 -0.2282
 4727SOL    HW125643   1.510   1.565   5.085  0.3168 -2.8943  0.4262
 4727SOL    HW225644   1.556   1.525   4.958 -0.4105 -0.6330  0.7367
 4728SOL     OW25645   1.944   1.617   5.472 -0.0968  0.5497  0.1158
 4728SOL    HW125646   1.982   1.668   5.401 -0.8703 -0.5226 -1.0677
 4728SOL    HW225647   1.890   1.691   5.500  0.9790  0.8518  1.3803
 4729SOL     OW25648   1.131   0.100   4.851 -0.3325 -0.4518 -0.3160
 4729SOL    HW125649   1.148   0.050   4.931 -0.3924  1.6228  0.9884
 4729SOL    HW225650   1.095   0.176   4.897 -0.2230 -1.4188  1.3633
 4730SOL     OW25651   0.764   2.374   6.456 -0.1095 -0.1778  0.0492
 4730SOL    HW125652   0.696   2.329   6.505  0.0555 -1.0662 -0.5388
 4730SOL    HW225653   0.829   2.399   6.522 -1.6721  1.7651  0.8455
 4731SOL     OW25654   0.632   1.680   8.529  0.3056  0.2456  0.3431
 4731SOL    HW125655   0.563   1.744   8.550 -0.6976 -0.1933 -1.6937
 4731SOL    HW225656   0.618   1.618   8.600  2.9719  0.8535  1.4003
 4732SOL     OW25657   2.852   0.062   5.189  0.2462 -0.4103  0.3974
 4732SOL    HW125658   2.765   0.030   5.165  0.2013  1.9776 -2.5806
 4732SOL    HW225659   2.892   4.705   5.217  0.9912  0.5323  2.0810
 4733SOL     OW25660   1.168   2.187   6.099 -0.4164 -0.0743  0.4394
 4733SOL    HW125661   1.079   2.170   6.069  0.3420 -1.4656 -1.0584
 4733SOL    HW225662   1.140   2.221   6.183  2.6447  1.0276  1.0057
 4734SOL     OW25663   2.650   4.635  11.068  0.7188  0.5942  0.4210
 4734SOL    HW125664   2.728   4.614  11.120  1.3748  1.3698 -0.2342
 4734SOL    HW225665   2.612   4.703  11.123  0.2511 -0.3689  1.2911
 4735SOL     OW25666   3.820   0.503   3.561 -0.0900  0.3221 -0.3211
 4735SOL    HW125667   3.800   0.594   3.539 -2.2718 -0.6543 -2.3180
 4735SOL    HW225668   3.912   0.500   3.532  0.1616  2.8667  0.2401
 4736SOL     OW25669   4.479   0.851   1.926  0.1142  0.2599  0.5602
 4736SOL    HW125670   4.450   0.842   1.836  0.2768 -2.6007  0.8015
 4736SOL    HW225671   4.418   0.918   1.958 -0.6702  0.7123 -1.9127
 4737SOL     OW25672   0.076   3.179  13.490 -1.1137  0.5782  0.3720
 4737SOL    HW125673   0.170   3.170  13.475 -0.9745  1.5390  0.6943
 4737SOL    HW225674   0.056   3.085  13.488  1.9662 -0.0520 -1.1285
 4738SOL     OW25675   3.924   0.786   5.428  0.5003 -0.6830  0.2300
 4738SOL    HW125676   3.928   0.708   5.373 -0.5384  0.4433 -1.4301
 4738SOL    HW225677   3.910   0.741   5.512 -0.1223 -0.7819  0.0766
 4739SOL     OW25678   1.322   0.179  16.931 -0.3590 -0.1188 -0.1845
 4739SOL    HW125679   1.324   0.149  17.022 -0.7879 -1.2269 -0.5330
 4739SOL    HW225680   1.350   0.270  16.940 -1.3085  0.0370  1.1810
 4740SOL     OW25681   0.544   3.475   7.647 -0.7465  0.1056  0.1078
 4740SOL    HW125682   0.600   3.527   7.705 -1.3803 -2.2594  2.8125
 4740SOL    HW225683   0.605   3.441   7.582  0.5025 -0.1167  1.3960
 4741SOL     OW25684   2.985   0.791   5.360  0.3513 -0.0808 -0.3917
 4741SOL    HW125685   3.001   0.782   5.454  0.8892 -0.1718 -0.4940
 4741SOL    HW225686   3.024   0.877   5.345 -1.3990  0.4875 -1.6933
 4742SOL     OW25687   3.255   1.116   4.385 -0.1207 -0.0668 -0.5544
 4742SOL    HW125688   3.165   1.087   4.399  0.3791 -1.7010 -0.6863
 4742SOL    HW225689   3.294   1.037   4.348  1.5864 -0.2124  1.5045
 4743SOL     OW25690   3.383   1.474   7.881 -0.0156 -0.0786  0.3540
 4743SOL    HW125691   3.333   1.432   7.811  0.6713  1.0040 -0.7918
 4743SOL    HW225692   3.309   1.524   7.916 -1.5761 -1.0132 -1.5672
 4744SOL     OW25693   1.957   3.032   2.488  0.1144  0.1337 -0.4830
 4744SOL    HW125694   2.001   3.045   2.571  0.1045  0.1331 -0.4776
 4744SOL    HW225695   1.863   3.050   2.496  0.5991  1.7324  1.3744
 4745SOL     OW25696   1.573   1.664   4.368  0.0593  0.0849 -0.0537
 4745SOL    HW125697   1.596   1.591   4.426  1.0054 -0.5890 -1.2886
 4745SOL    HW225698   1.509   1.716   4.418  2.0653  1.8826  0.6688
 4746SOL     OW25699   3.383   2.567   7.878  0.3099  0.3112 -0.2721
 4746SOL    HW125700   3.417   2.655   7.862 -0.4364  0.6641  0.1068
 4746SOL    HW225701   3.463   2.521   7.903  0.5802 -0.6448 -2.9587
 4747SOL     OW25702   0.990   4.267   7.887  0.3668 -0.5997 -0.0073
 4747SOL    HW125703   0.933   4.249   7.813  0.2242  1.4144 -0.3943
 4747SOL    HW225704   1.061   4.313   7.841  1.0581  0.9870  2.5810
 4748SOL     OW25705   2.032   2.271   2.358  0.6130  0.2617 -0.8772
 4748SOL    HW125706   1.950   2.306   2.323 -0.6567 -0.9966  0.8357
 4748SOL    HW225707   2.052   2.332   2.430 -1.1522  0.1051 -0.2689
 4749SOL     OW25708   0.455   1.788  14.842  0.4907  0.4815 -0.1939
 4749SOL    HW125709   0.451   1.839  14.761 -4.2521 -0.9606 -0.8652
 4749SOL    HW225710   0.365   1.757  14.855  0.9584 -1.0608 -0.7322
 4750SOL     OW25711   4.599   1.127   4.060  0.0132  0.0920  0.0395
 4750SOL    HW125712   4.645   1.210   4.070  1.7773 -0.9081  0.1298
 4750SOL    HW225713   4.597   1.140   3.966  0.5503 -0.7039 -0.0790
 4751SOL     OW25714   3.032   2.791  16.876  0.1951 -0.0473 -0.0343
 4751SOL    HW125715   3.123   2.818  16.862  0.3762 -0.3267  0.5817
 4751SOL    HW225716   2.998   2.841  16.950  0.1807 -1.2629  0.7770
 4752SOL     OW25717   3.499   2.165  10.472  0.0154 -0.2904  0.0982
 4752SOL    HW125718   3.514   2.146  10.565 -0.2677  2.8215  0.7643
 4752SOL    HW225719   3.542   2.087  10.436  0.3905  0.2784 -0.6906
 4753SOL     OW25720   4.526   3.052   2.641  0.0114  0.1934  0.7704
 4753SOL    HW125721   4.575   2.991   2.586 -2.1374  0.2410 -1.1917
 4753SOL    HW225722   4.461   2.992   2.676  0.7012 -1.0448 -0.0726
 4754SOL     OW25723   2.016   0.962   8.434  0.0634 -0.1352  0.2884
 4754SOL    HW125724   2.084   1.026   8.454 -1.6472  1.6090  0.4681
 4754SOL    HW225725   2.063   0.886   8.399 -0.1232  1.4378 -3.3189
 4755SOL     OW25726   0.339   3.501   8.440  0.9418 -0.1978 -0.3396
 4755SOL    HW125727   0.246   3.486   8.461  0.8070 -0.7673 -1.3545
 4755SOL    HW225728   0.370   3.411   8.445 -0.6390 -0.7279  0.1102
 4756SOL     OW25729   1.171   4.379   2.417 -0.0764 -0.5898  0.0949
 4756SOL    HW125730   1.149   4.357   2.507  1.1149  1.0476  0.7754
 4756SOL    HW225731   1.083   4.404   2.385 -1.1444 -1.0564  2.6988
 4757SOL     OW25732   1.050   1.390   5.057  0.3029  0.0993 -0.3479
 4757SOL    HW125733   0.985   1.340   5.007  0.7979 -2.2831  1.3739
 4757SOL    HW225734   1.029   1.372   5.149 -2.6524 -4.4224 -1.9016
 4758SOL     OW25735   1.114   3.586  15.733  0.3862 -0.1365  0.1065
 4758SOL    HW125736   1.028   3.597  15.774  0.2171  1.2867 -0.6282
 4758SOL    HW225737   1.102   3.503  15.686  0.6466  0.4155 -0.9275
 4759SOL     OW25738   4.602   2.837   5.613  0.3928  0.0419 -0.5190
 4759SOL    HW125739   4.638   2.925   5.613 -1.1705  0.6678 -2.8026
 4759SOL    HW225740   4.610   2.822   5.519  0.5313  0.5509 -0.5865
 4760SOL     OW25741   3.844   0.752   6.051 -0.4967  0.7356  0.6688
 4760SOL    HW125742   3.760   0.780   6.014  0.5200 -0.4557 -2.5454
 4760SOL    HW225743   3.836   0.657   6.052  0.2030  0.6775  0.8489
 4761SOL     OW25744   4.368   0.526   4.638 -0.3609 -0.3079  0.4900
 4761SOL    HW125745   4.346   0.618   4.624  1.1054  0.0241  0.3668
 4761SOL    HW225746   4.285   0.478   4.636 -0.7624  0.3852  0.3615
 4762SOL     OW25747   4.698   3.015  15.352  0.1831 -0.2963 -0.0178
 4762SOL    HW125748   0.052   3.025  15.299  0.1609 -1.2412 -0.2371
 4762SOL    HW225749   0.007   3.040  15.438 -3.2443  0.2983  1.1729
 4763SOL     OW25750   2.765   3.063   3.832 -0.0838  0.2657  0.4817
 4763SOL    HW125751   2.683   3.102   3.799  0.9149  1.9283 -0.0643
 4763SOL    HW225752   2.819   3.140   3.812  0.6157 -0.6765 -1.2039
 4764SOL     OW25753   1.441   0.708   8.589  0.0852  0.1276 -0.1668
 4764SOL    HW125754   1.536   0.702   8.600 -0.1714  0.8710  2.3409
 4764SOL    HW225755   1.411   0.625   8.627 -0.1513  0.1077 -0.3944
 4765SOL     OW25756   0.456   2.382   7.645 -0.0886 -0.5916  0.4122
 4765SOL    HW125757   0.394   2.369   7.717 -0.5781  1.9908  0.4512
 4765SOL    HW225758   0.524   2.437   7.685  0.5502 -2.4061  1.8249
 4766SOL     OW25759   1.374   3.869  15.222  0.1327  0.2559 -0.2560
 4766SOL    HW125760   1.418   3.784  15.226  0.5218  0.5086  0.8310
 4766SOL    HW225761   1.403   3.913  15.302 -1.1431 -0.0519  0.3771
 4767SOL     OW25762   4.713   0.864   6.197  0.7307  0.4208 -0.0548
 4767SOL    HW125763   0.023   0.784   6.159  1.6915  0.6361  0.3979
 4767SOL    HW225764   4.631   0.875   6.150 -0.1588 -0.3346  1.3073
 4768SOL     OW25765   4.388   2.544  12.518  0.2865  0.4937  0.2963
 4768SOL    HW125766   4.463   2.545  12.577  1.7105  0.7253 -1.4934
 4768SOL    HW225767   4.330   2.610  12.556  0.6224  1.2988 -0.5583
 4769SOL     OW25768   2.011   1.516   8.770 -0.5907 -0.3196  0.1773
 4769SOL    HW125769   2.053   1.433   8.748  0.2994  0.5815 -1.6111
 4769SOL    HW225770   2.041   1.524   8.861 -0.3955 -1.2478  0.1917
 4770SOL     OW25771   2.462   2.481   8.026  0.3424  0.2716  0.5579
 4770SOL    HW125772   2.521   2.507   7.956  1.6684  0.4776  1.7550
 4770SOL    HW225773   2.386   2.450   7.977 -2.4801  1.4966  4.1241
 4771SOL     OW25774   4.122   4.262  12.016 -0.4221 -0.6325 -0.5789
 4771SOL    HW125775   4.049   4.206  11.989 -0.9047  0.7132 -2.0985
 4771SOL    HW225776   4.150   4.232  12.102  0.4133  0.2162 -0.5597
 4772SOL     OW25777   2.627   0.419  11.431 -0.8754  0.4050  0.2404
 4772SOL    HW125778   2.631   0.513  11.447  1.3641  0.2602  0.5972
 4772SOL    HW225779   2.536   0.390  11.440 -0.7773  0.4506  1.4481
 4773SOL     OW25780   2.047   1.850  10.512  0.5001  1.0885  0.1413
 4773SOL    HW125781   2.096   1.814  10.587  1.2763  1.9108  0.0209
 4773SOL    HW225782   2.093   1.934  10.515  1.9464  0.3505 -1.0764
 4774SOL     OW25783   2.972   2.788   9.932 -0.1209  0.4287  0.0087
 4774SOL    HW125784   2.912   2.714   9.931 -0.0922  0.4044  0.0837
 4774SOL    HW225785   2.969   2.811   9.839 -2.1278  0.5793  0.1170
 4775SOL     OW25786   1.205   4.041  12.616  0.3621 -0.2373  0.0061
 4775SOL    HW125787   1.224   4.081  12.701  0.3301 -2.7088  1.1742
 4775SOL    HW225788   1.213   4.116  12.557 -0.0287  1.1879  1.7423
 4776SOL     OW25789   0.007   0.911  11.194  0.2584  0.5579 -0.1489
 4776SOL    HW125790   4.660   0.963  11.160 -1.1167 -0.2640  1.5586
 4776SOL    HW225791   0.074   0.979  11.186  0.7788  0.3355  2.3191
 4777SOL     OW25792   2.089   3.058  15.343 -0.0519  0.0652  0.1795
 4777SOL    HW125793   2.117   2.993  15.407 -0.4060  1.5876  1.8560
 4777SOL    HW225794   2.048   3.005  15.274  0.6519 -1.5816  1.0373
 4778SOL     OW25795   1.279   3.594  17.662 -0.3521  0.2594 -0.4802
 4778SOL    HW125796   1.215   3.572  17.595 -1.5433 -0.0965  0.7790
 4778SOL    HW225797   1.334   3.517  17.669  1.1108  1.1268 -2.3189
 4779SOL     OW25798   3.310   2.769  15.670  0.1003 -0.3932  0.5371
 4779SOL    HW125799   3.328   2.862  15.658  1.8039 -1.0450 -1.9144
 4779SOL    HW225800   3.216   2.759  15.684  0.0978  0.5036  1.1408
 4780SOL     OW25801   0.597   0.055   8.175  0.6189 -0.1127  0.2248
 4780SOL    HW125802   0.647   4.703   8.153  1.4686  0.4932 -0.0289
 4780SOL    HW225803   0.541   0.011   8.239 -1.7726  0.2204 -1.6689
 4781SOL     OW25804   1.263   1.321  15.353 -0.2927 -0.2795  0.6854
 4781SOL    HW125805   1.212   1.277  15.286 -1.0209  0.9785  0.4215
 4781SOL    HW225806   1.337   1.339  15.295  0.9115 -1.0876  1.9476
 4782SOL     OW25807   1.034   0.789  10.353 -0.1656  0.2676 -0.3515
 4782SOL    HW125808   1.096   0.767  10.284 -1.5834  0.5125 -1.7144
 4782SOL    HW225809   0.997   0.702  10.368  0.1082 -0.1989 -2.3369
 4783SOL     OW25810   1.059   2.487  13.412 -0.8993  0.2489  0.3645
 4783SOL    HW125811   1.112   2.493  13.491  1.1938 -0.9260 -0.9430
 4783SOL    HW225812   1.074   2.397  13.383  0.3196  0.5085  0.1912
 4784SOL     OW25813   0.421   1.752  17.048 -0.0144  0.2737  0.1303
 4784SOL    HW125814   0.347   1.718  17.099  2.2440 -3.3038  1.0449
 4784SOL    HW225815   0.468   1.798  17.117  0.1856  0.6154 -0.2360
 4785SOL     OW25816   0.729   1.920   8.261 -0.0518 -0.1527 -0.0499
 4785SOL    HW125817   0.731   1.976   8.338 -3.6155  0.0808 -0.1550
 4785SOL    HW225818   0.649   1.870   8.276  0.4573 -0.6296  1.0726
 4786SOL     OW25819   2.136   3.824  15.200  0.2008 -0.5012  0.0265
 4786SOL    HW125820   2.149   3.732  15.224 -0.9763 -0.9265 -0.9531
 4786SOL    HW225821   2.041   3.824  15.190  0.3242  2.2377 -1.1924
 4787SOL     OW25822   1.649   1.101   2.146 -0.3721  0.0121  0.2951
 4787SOL    HW125823   1.633   1.127   2.236 -1.5321 -1.4472  0.4938
 4787SOL    HW225824   1.651   1.006   2.151 -1.1719 -0.0411 -0.3192
 4788SOL     OW25825   3.697   3.154   2.083  0.1615 -0.0936  0.1458
 4788SOL    HW125826   3.605   3.131   2.074  0.4610 -0.6533 -1.3470
 4788SOL    HW225827   3.700   3.244   2.052  0.2628 -0.0832  0.1850
 4789SOL     OW25828   2.355   3.301   6.038  0.0107 -0.1072  0.3645
 4789SOL    HW125829   2.363   3.378   6.095  0.2749 -0.1800  0.4261
 4789SOL    HW225830   2.291   3.332   5.974  0.1056  0.5659  0.5951
 4790SOL     OW25831   3.004   0.740   3.628  0.3605  0.6810 -0.0346
 4790SOL    HW125832   2.913   0.746   3.656  0.1678 -1.1490 -0.2830
 4790SOL    HW225833   3.041   0.697   3.705  2.9299  1.0422 -1.0710
 4791SOL     OW25834   3.815   1.704   3.920 -0.0533 -0.4681  0.3382
 4791SOL    HW125835   3.899   1.679   3.959 -0.2994 -0.1915  1.0460
 4791SOL    HW225836   3.761   1.625   3.926 -2.1154  0.8332 -1.3036
 4792SOL     OW25837   2.032   1.699  16.179  0.1098  0.9431 -0.0838
 4792SOL    HW125838   1.936   1.705  16.170 -0.1621 -2.1603  1.0136
 4792SOL    HW225839   2.039   1.643  16.256 -0.1205  0.5698 -0.3393
 4793SOL     OW25840   4.245   4.546   4.917  0.0066  0.3782  0.4394
 4793SOL    HW125841   4.256   4.508   4.829  2.2937 -0.3792  1.0428
 4793SOL    HW225842   4.283   4.476   4.969 -0.3504  0.7560  1.2024
 4794SOL     OW25843   3.441   0.679  13.341 -0.4039 -0.5402 -0.1202
 4794SOL    HW125844   3.417   0.594  13.305 -0.7081  0.5322 -2.4436
 4794SOL    HW225845   3.509   0.652  13.402 -0.2513  0.5130  0.1888
 4795SOL     OW25846   4.689   4.294   5.740  0.0993 -0.1607 -0.0001
 4795SOL    HW125847   4.703   4.290   5.646  0.0826 -1.7721  0.0664
 4795SOL    HW225848   4.700   4.203   5.770 -1.1152  0.0707  1.1371
 4796SOL     OW25849   2.639   3.421   5.956  0.2889  0.1406  0.4523
 4796SOL    HW125850   2.561   3.369   5.938 -0.6127  2.1386 -1.3175
 4796SOL    HW225851   2.627   3.489   5.890 -1.9761 -1.2202 -0.5374
 4797SOL     OW25852   4.477   2.440  16.138  0.8119  0.3720 -0.4697
 4797SOL    HW125853   4.458   2.449  16.044 -2.0884  1.0388  0.1688
 4797SOL    HW225854   4.548   2.376  16.141  3.8093  3.7610  0.7160
 4798SOL     OW25855   0.842   0.143   4.934 -0.0723  0.5773 -0.1646
 4798SOL    HW125856   0.886   0.068   4.895  0.0204  0.0286  1.0035
 4798SOL    HW225857   0.804   0.179   4.854  1.0191  1.2277 -0.4021
 4799SOL     OW25858   3.744   3.738  13.220  0.4131  0.1868 -0.1785
 4799SOL    HW125859   3.782   3.825  13.227  0.7996  0.1243 -1.4101
 4799SOL    HW225860   3.706   3.722  13.306 -0.9000 -0.3762 -0.8588
 4800SOL     OW25861   3.514   3.158   8.384  0.5522  0.6589  0.4730
 4800SOL    HW125862   3.516   3.184   8.476  2.0165 -1.0953  0.9235
 4800SOL    HW225863   3.431   3.200   8.362  1.5860  1.8566 -1.1699
 4801SOL     OW25864   2.527   1.936  13.039  0.2895 -0.0483  0.3893
 4801SOL    HW125865   2.538   1.911  13.130  4.1238  1.4723  0.3727
 4801SOL    HW225866   2.434   1.914  13.030  0.2986  1.1100 -2.6489
 4802SOL     OW25867   3.937   3.459   9.912 -0.1534  0.4761 -0.5079
 4802SOL    HW125868   3.950   3.376   9.865  1.2185 -0.6591  1.8982
 4802SOL    HW225869   4.027   3.477   9.939 -0.5795 -0.1306  1.3379
 4803SOL     OW25870   2.320   3.912   2.135 -0.4429 -0.1964  0.7212
 4803SOL    HW125871   2.326   3.877   2.046 -2.7509  0.0654  0.4714
 4803SOL    HW225872   2.410   3.935   2.159 -1.2088  0.3915  3.0378
 4804SOL     OW25873   1.442   2.605   2.950  0.1565 -0.1992 -0.1705
 4804SOL    HW125874   1.482   2.670   2.892  1.2331  0.1508  0.9683
 4804SOL    HW225875   1.517   2.560   2.988 -0.3915 -1.1941 -0.2724
 4805SOL     OW25876   1.393   1.137  16.893 -0.3783 -0.7871 -0.4088
 4805SOL    HW125877   1.424   1.219  16.853  1.3168 -1.8958 -1.3441
 4805SOL    HW225878   1.302   1.150  16.864 -0.1415  2.6072  0.3272
 4806SOL     OW25879   0.782   0.343   6.526 -0.3484  0.3611  0.4487
 4806SOL    HW125880   0.747   0.432   6.521  1.9113  1.2975  1.6296
 4806SOL    HW225881   0.857   0.342   6.466 -0.7290  1.3883 -0.0564
 4807SOL     OW25882   0.080   1.968  11.969 -0.9196 -0.2193 -0.3731
 4807SOL    HW125883   0.007   2.017  12.007  0.5511 -0.2636  2.5301
 4807SOL    HW225884   0.134   2.038  11.931 -1.4345  1.1529  1.3797
 4808SOL     OW25885   3.749   4.291   2.218  0.4816  0.2531  0.6868
 4808SOL    HW125886   3.758   4.322   2.308  1.6420  1.1596  0.2611
 4808SOL    HW225887   3.808   4.216   2.216 -0.1018 -0.2795  3.8004
 4809SOL     OW25888   4.221   0.331   5.363  0.2007  0.0838  0.0820
 4809SOL    HW125889   4.224   0.333   5.267 -1.6963  1.6456  0.0634
 4809SOL    HW225890   4.155   0.264   5.377 -0.6772  0.8270 -0.5393
 4810SOL     OW25891   2.167   0.479   1.450 -0.6227 -0.1841 -0.9597
 4810SOL    HW125892   2.207   0.486   1.363  1.6991  2.4673  0.3038
 4810SOL    HW225893   2.085   0.432   1.437 -0.9303 -0.4867  2.0472
 4811SOL     OW25894   3.542   3.701   7.054  0.5442 -0.1592  0.3082
 4811SOL    HW125895   3.632   3.729   7.074  1.1557 -1.0657 -1.1353
 4811SOL    HW225896   3.513   3.791   7.038 -0.8517 -0.9043 -1.3906
 4812SOL     OW25897   2.841   2.217   1.661 -0.1492 -0.3409 -0.1825
 4812SOL    HW125898   2.899   2.253   1.594 -0.6891  1.5024  0.3328
 4812SOL    HW225899   2.803   2.299   1.694  0.8067 -0.4349  1.1219
 4813SOL     OW25900   0.828   0.393   4.520  0.3284 -0.5629  0.4024
 4813SOL    HW125901   0.883   0.459   4.478 -2.0342  1.0618 -0.1632
 4813SOL    HW225902   0.798   0.346   4.442  0.5596 -0.8287  0.4744
 4814SOL     OW25903   1.129   3.815  13.667  0.2474 -0.1035  0.6949
 4814SOL    HW125904   1.171   3.883  13.615  0.4099 -0.4487  0.3808
 4814SOL    HW225905   1.189   3.804  13.740 -1.3134  0.6910  2.1201
 4815SOL     OW25906   1.545   0.939   2.509 -0.3011 -0.0774  0.4202
 4815SOL    HW125907   1.474   0.964   2.568 -0.8796 -0.0115 -0.3015
 4815SOL    HW225908   1.532   0.845   2.521 -3.7545  0.2639 -0.7883
 4816SOL     OW25909   4.341   1.558   4.867  0.6229 -0.3000  0.3223
 4816SOL    HW125910   4.386   1.612   4.932 -0.0888 -0.6209  1.0760
 4816SOL    HW225911   4.415   1.503   4.842  0.0637 -0.0779 -1.7998
 4817SOL     OW25912   3.363   1.691   7.277  0.6517 -0.1487 -1.0104
 4817SOL    HW125913   3.423   1.693   7.203 -0.6795  1.5375 -2.0545
 4817SOL    HW225914   3.341   1.784   7.273 -1.9671 -0.6843  1.1303
 4818SOL     OW25915   2.104   1.276   5.879  0.0607  0.3505  0.3026
 4818SOL    HW125916   2.039   1.331   5.837  1.6385  1.1157 -1.1276
 4818SOL    HW225917   2.182   1.331   5.879 -0.5955  1.2751 -0.3423
 4819SOL     OW25918   0.805   0.179  11.877  0.5442 -0.0945  0.8428
 4819SOL    HW125919   0.787   0.086  11.860  0.2828 -0.1342  1.3061
 4819SOL    HW225920   0.718   0.211  11.901 -0.1992 -1.2106 -0.3445
 4820SOL     OW25921   2.615   0.710   4.322  0.2410 -0.1827  0.1217
 4820SOL    HW125922   2.682   0.748   4.266  0.9937 -0.1691  1.0315
 4820SOL    HW225923   2.656   0.636   4.366 -1.1048  0.0377  1.7723
 4821SOL     OW25924   2.128   2.660   9.005  0.6887  0.3328 -0.1950
 4821SOL    HW125925   2.143   2.566   9.004 -0.0265  0.2183  0.1793
 4821SOL    HW225926   2.219   2.686   9.023  1.0434 -0.9120 -0.1847
 4822SOL     OW25927   2.624   0.779   5.424 -0.2492 -0.2420 -0.2188
 4822SOL    HW125928   2.716   0.768   5.446  0.2430 -0.3675 -2.2733
 4822SOL    HW225929   2.595   0.689   5.408  0.4336 -0.4092 -0.5251
 4823SOL     OW25930   3.876   0.305   5.015 -0.5675  0.6308  0.2610
 4823SOL    HW125931   3.854   0.232   4.957  0.4829 -0.1034  0.7954
 4823SOL    HW225932   3.923   0.364   4.955 -1.0679  0.0069 -0.7472
 4824SOL     OW25933   3.918   4.221   0.584  0.1724 -0.5659  0.1663
 4824SOL    HW125934   3.922   4.304   0.536 -3.6555 -1.3310 -1.5013
 4824SOL    HW225935   4.006   4.223   0.621  0.6710  0.1138 -1.0531
 4825SOL     OW25936   0.699   0.053   1.071 -0.5270  0.4050 -0.4474
 4825SOL    HW125937   0.731   0.094   0.990  1.4487 -0.7170 -0.2439
 4825SOL    HW225938   0.680   4.690   1.044  1.1019  0.0393 -0.4065
 4826SOL     OW25939   1.424   3.162   4.708  0.2522  0.7047  0.0954
 4826SOL    HW125940   1.383   3.103   4.772 -0.1724  1.1402  0.2246
 4826SOL    HW225941   1.391   3.251   4.722 -2.7410 -0.1409 -1.5734
 4827SOL     OW25942   3.801   1.434  11.577 -0.2433  0.3655 -0.2604
 4827SOL    HW125943   3.810   1.408  11.668 -2.1219 -0.7005 -0.3796
 4827SOL    HW225944   3.706   1.444  11.580 -0.2705 -0.7425  2.5214
 4828SOL     OW25945   4.558   0.813   3.312 -0.3285 -0.3072  0.0360
 4828SOL    HW125946   4.617   0.880   3.277 -1.9876  1.0789 -0.0854
 4828SOL    HW225947   4.518   0.771   3.236 -1.3775  1.7650 -0.5517
 4829SOL     OW25948   0.501   0.309   3.621 -0.5718 -0.5161  0.3996
 4829SOL    HW125949   0.435   0.333   3.556  0.0646  2.0220  0.6895
 4829SOL    HW225950   0.478   0.218   3.637 -1.0802 -0.7459 -1.6504
 4830SOL     OW25951   0.474   4.275  12.521  0.4652  0.1170  0.1199
 4830SOL    HW125952   0.567   4.269  12.541  0.1442 -1.7944  1.1231
 4830SOL    HW225953   0.460   4.186  12.487  0.0951  0.0549  0.4257
 4831SOL     OW25954   3.046   4.719   6.061  0.3243  0.0025 -0.1799
 4831SOL    HW125955   3.037   0.078   6.019 -1.4796 -1.0541 -1.9421
 4831SOL    HW225956   2.953   4.708   6.084  0.3281  0.7670  0.1895
 4832SOL     OW25957   2.308   1.271  11.036  0.6477 -0.4286  0.1275
 4832SOL    HW125958   2.246   1.251  11.107 -3.0810  1.1772 -2.6702
 4832SOL    HW225959   2.287   1.222  10.956 -1.0038  2.1529 -0.9981
 4833SOL     OW25960   4.195   4.388  11.330 -0.8637 -0.3912  0.0479
 4833SOL    HW125961   4.100   4.377  11.332 -0.8592 -0.8145 -1.5059
 4833SOL    HW225962   4.209   4.426  11.416 -0.0991 -0.3489 -0.0994
 4834SOL     OW25963   1.015   1.093   1.443 -0.2167  0.4402  0.2784
 4834SOL    HW125964   1.105   1.068   1.466 -1.4364 -2.3751  2.0465
 4834SOL    HW225965   0.986   1.017   1.394 -2.3587  0.8295  0.9463
 4835SOL     OW25966   2.467   1.514  10.993  0.2430  0.6172  0.2669
 4835SOL    HW125967   2.418   1.435  11.017 -1.9209  1.0861 -2.6239
 4835SOL    HW225968   2.396   1.562  10.951  0.9808 -1.5769 -3.4414
 4836SOL     OW25969   2.254   0.327   9.280  0.0761  0.1425  0.8141
 4836SOL    HW125970   2.248   0.411   9.326  0.7609  0.5953  0.0672
 4836SOL    HW225971   2.286   0.268   9.349  1.6539  0.6465  0.5175
 4837SOL     OW25972   0.626   2.567   8.973  0.3340  0.4780  0.6818
 4837SOL    HW125973   0.537   2.592   8.999  0.0165 -1.9748  1.9629
 4837SOL    HW225974   0.656   2.654   8.946 -0.1728  0.8914  1.4389
 4838SOL     OW25975   2.476   4.082  14.391 -0.4609  0.4143 -0.1300
 4838SOL    HW125976   2.444   4.151  14.449  0.9043  1.7372 -0.9650
 4838SOL    HW225977   2.527   4.030  14.454 -0.4023 -1.1372 -1.4763
 4839SOL     OW25978   0.996   3.633   9.675 -0.1228 -0.7435  0.3324
 4839SOL    HW125979   0.964   3.550   9.639 -0.2340 -0.4869 -0.1520
 4839SOL    HW225980   1.067   3.655   9.615  0.3138 -0.1983  1.0562
 4840SOL     OW25981   0.296   4.638   2.231 -0.6606 -0.2292 -0.2609
 4840SOL    HW125982   0.279   4.556   2.184  0.4016  1.0050 -2.8001
 4840SOL    HW225983   0.209   4.654   2.267  0.2829  0.9145  1.5186
 4841SOL     OW25984   0.794   3.464   2.602  0.2142 -0.1996 -0.2271
 4841SOL    HW125985   0.793   3.554   2.570 -1.7214  0.0100  0.4266
 4841SOL    HW225986   0.882   3.438   2.576 -0.0143 -0.0382 -1.1558
 4842SOL     OW25987   0.240   0.369  17.444  0.3441  0.9255  0.3790
 4842SOL    HW125988   0.165   0.411  17.402 -0.0297 -2.2164 -2.1639
 4842SOL    HW225989   0.195   0.287  17.467 -1.5706  2.3321  1.5789
 4843SOL     OW25990   1.918   2.896   9.886 -0.7026  0.0686 -0.0246
 4843SOL    HW125991   1.838   2.873   9.839 -0.2423 -1.0669 -0.2425
 4843SOL    HW225992   1.928   2.989   9.869 -2.8290  0.6185  1.6404
 4844SOL     OW25993   4.677   2.688   3.033 -0.0818 -0.2974 -0.1553
 4844SOL    HW125994   4.596   2.639   3.048  0.1345 -0.7640 -0.5017
 4844SOL    HW225995   4.649   2.707   2.943 -0.7344 -1.0310 -0.1164
 4845SOL     OW25996   1.559   0.946   1.799 -0.0795 -0.7201 -0.3131
 4845SOL    HW125997   1.604   0.873   1.757 -1.6820 -2.0548  0.3019
 4845SOL    HW225998   1.519   0.901   1.874 -2.9070 -3.8178 -3.7261
 4846SOL     OW25999   0.814   3.361  10.715 -0.0919 -0.4863  0.5432
 4846SOL    HW126000   0.797   3.428  10.782  1.5236  1.1812 -0.6931
 4846SOL    HW226001   0.725   3.348  10.683 -1.2725  1.3118  3.0307
 4847SOL     OW26002   1.604   3.489  11.113  0.0983 -0.4308  0.5736
 4847SOL    HW126003   1.513   3.516  11.104  0.0246 -0.7487  0.3604
 4847SOL    HW226004   1.593   3.394  11.112 -0.1458 -0.4036  0.6658
 4848SOL     OW26005   3.598   1.373   6.109  0.4413 -0.1438  0.5256
 4848SOL    HW126006   3.649   1.342   6.184 -0.0860  3.0890  2.2288
 4848SOL    HW226007   3.618   1.301   6.048  1.2245  0.3487  0.1944
 4849SOL     OW26008   3.326   3.715   6.031 -0.0867  0.0692 -0.1859
 4849SOL    HW126009   3.399   3.726   6.091 -1.5495  1.8627  1.2397
 4849SOL    HW226010   3.255   3.699   6.092  0.7496 -1.6236  0.3256
 4850SOL     OW26011   3.787   2.752   3.646 -0.2122 -0.2201 -0.4967
 4850SOL    HW126012   3.731   2.674   3.648 -0.8005  0.1917 -1.0930
 4850SOL    HW226013   3.859   2.725   3.589  0.4182  2.2967 -0.8727
 4851SOL     OW26014   4.035   4.374   2.782  0.1309  0.1725  0.0808
 4851SOL    HW126015   4.108   4.357   2.841 -1.2610 -1.7367  1.2616
 4851SOL    HW226016   4.094   4.372   2.706  1.7636 -3.3613  1.4105
 4852SOL     OW26017   2.191   2.365   5.376 -1.1272 -0.4364  0.0729
 4852SOL    HW126018   2.132   2.327   5.442 -0.2390 -1.9252  0.0148
 4852SOL    HW226019   2.149   2.339   5.294 -1.9737  0.5029  0.2121
 4853SOL     OW26020   1.469   2.304   6.427 -0.1206  0.0369  0.6015
 4853SOL    HW126021   1.564   2.312   6.423 -0.0930 -1.4703 -1.8989
 4853SOL    HW226022   1.451   2.387   6.383 -0.3784  0.4567  1.5029
 4854SOL     OW26023   1.843   0.851   5.492 -0.1092 -0.6445 -0.1229
 4854SOL    HW126024   1.789   0.922   5.526 -0.8919 -1.1089 -0.4188
 4854SOL    HW226025   1.895   0.831   5.570 -2.5005 -2.4891  0.9784
 4855SOL     OW26026   2.952   2.115  14.122 -0.7078 -0.7319  0.2849
 4855SOL    HW126027   2.962   2.149  14.211  2.6849  1.0360 -0.7511
 4855SOL    HW226028   2.930   2.022  14.127  1.3359 -1.3488 -2.4673
 4856SOL     OW26029   0.176   2.637   3.605  0.0448  0.1705 -0.2331
 4856SOL    HW126030   0.241   2.705   3.625 -0.6736  0.3094  1.5746
 4856SOL    HW226031   0.230   2.568   3.566  0.0639 -2.3194  4.1444
 4857SOL     OW26032   3.388   1.794   8.974  0.4147  0.2551  0.4297
 4857SOL    HW126033   3.410   1.858   8.906  1.6934 -1.2640 -0.5889
 4857SOL    HW226034   3.384   1.845   9.055  0.3083  0.7309  0.1202
 4858SOL     OW26035   2.475   3.752   1.641 -0.0761 -0.2118 -0.3017
 4858SOL    HW126036   2.397   3.703   1.618 -0.3014 -1.2889  2.6999
 4858SOL    HW226037   2.448   3.842   1.621 -0.2714 -0.3375 -0.6035
 4859SOL     OW26038   0.930   3.914   2.871 -0.2097 -0.1434 -0.0575
 4859SOL    HW126039   0.967   3.866   2.796 -2.6433  2.0468 -2.6958
 4859SOL    HW226040   0.946   3.844   2.935 -0.0637 -1.8553 -1.9509
 4860SOL     OW26041   2.422   0.577   3.580  0.0883  0.0066 -0.2537
 4860SOL    HW126042   2.330   0.555   3.597 -0.2021  0.5469 -1.1082
 4860SOL    HW226043   2.457   0.568   3.668  0.4977 -1.4474 -0.5746
 4861SOL     OW26044   4.694   3.591   9.215 -0.3021 -0.4155  0.3248
 4861SOL    HW126045   4.696   3.615   9.123  0.5040  0.5655  0.6044
 4861SOL    HW226046   4.706   3.680   9.248 -2.8635  0.0957 -0.0863
 4862SOL     OW26047   0.654   0.962   4.742  0.3272 -0.3643 -0.5464
 4862SOL    HW126048   0.698   1.001   4.666  1.4767  0.9120  0.7650
 4862SOL    HW226049   0.717   0.979   4.812  0.5162  0.9962 -1.0464
 4863SOL     OW26050   4.343   2.021   6.431  0.0811  0.1769  0.2129
 4863SOL    HW126051   4.260   2.067   6.446 -0.4784  0.3052 -3.1950
 4863SOL    HW226052   4.318   1.987   6.345  0.3662 -1.2452  0.6991
 4864SOL     OW26053   3.596   0.050   0.561  0.2762  0.3595 -0.3135
 4864SOL    HW126054   3.503   0.071   0.573 -0.1094 -1.1554 -0.6344
 4864SOL    HW226055   3.632   0.137   0.540 -1.9410  1.8898  2.1890
 4865SOL     OW26056   2.999   3.255  11.391 -0.2562 -0.4317  0.5350
 4865SOL    HW126057   3.070   3.312  11.362  1.1816 -3.3165 -1.6241
 4865SOL    HW226058   3.035   3.251  11.480 -1.4388  0.3257  1.0476
 4866SOL     OW26059   0.482   3.635   5.621 -0.1421 -0.7251  0.4676
 4866SOL    HW126060   0.506   3.544   5.603 -1.6982 -0.9132 -0.7086
 4866SOL    HW226061   0.560   3.678   5.586  0.7703 -3.7490 -1.2406
 4867SOL     OW26062   4.597   0.765   3.021 -0.5615 -0.0267  0.1679
 4867SOL    HW126063   4.684   0.762   2.982 -0.9036  1.0201 -0.6915
 4867SOL    HW226064   4.587   0.674   3.047  0.6059 -0.2296 -0.0705
 4868SOL     OW26065   2.232   0.875  14.908  0.3985 -0.8526  0.1293
 4868SOL    HW126066   2.161   0.933  14.882 -0.3943 -1.8534  0.0722
 4868SOL    HW226067   2.309   0.932  14.911 -1.5944  1.7708  0.5387
 4869SOL     OW26068   3.660   3.754   4.437 -0.1555  0.4647  0.3018
 4869SOL    HW126069   3.657   3.831   4.380 -0.4390  1.3250  1.4693
 4869SOL    HW226070   3.753   3.740   4.453 -0.6188 -0.4543  2.2697
 4870SOL     OW26071   2.709   1.773  15.212 -0.0568 -0.1992 -0.1923
 4870SOL    HW126072   2.693   1.775  15.117  2.2353 -1.2922 -0.6158
 4870SOL    HW226073   2.801   1.748  15.225 -0.0265  1.0300  1.7838
 4871SOL     OW26074   2.040   3.348   2.494  0.5572 -0.7388 -0.1183
 4871SOL    HW126075   1.965   3.344   2.434  1.3920  0.7530 -1.2252
 4871SOL    HW226076   2.085   3.263   2.488 -0.3757 -1.1015 -1.9340
 4872SOL     OW26077   1.590   4.460   2.880 -0.3929 -0.3987 -0.1095
 4872SOL    HW126078   1.605   4.554   2.874  1.7569 -0.5539  2.7733
 4872SOL    HW226079   1.510   4.452   2.829  0.0079 -0.6518 -0.7020
 4873SOL     OW26080   3.946   2.811   7.262  0.6504 -0.3739  0.0920
 4873SOL    HW126081   3.898   2.772   7.189 -1.5703 -3.0256  2.9669
 4873SOL    HW226082   4.025   2.756   7.265  1.5793  1.0435  1.3343
 4874SOL     OW26083   2.384   3.001   6.636  0.2926 -0.3974  0.0076
 4874SOL    HW126084   2.399   3.083   6.589  1.0102 -0.4060  0.2156
 4874SOL    HW226085   2.329   3.048   6.699  1.1578  0.6632 -0.0181
 4875SOL     OW26086   4.686   3.807   7.590 -0.5362 -0.1978  0.5443
 4875SOL    HW126087   0.019   3.826   7.517 -2.2778 -0.3243 -0.8795
 4875SOL    HW226088   4.690   3.890   7.637  0.7520 -0.2877  0.5979
 4876SOL     OW26089   4.279   4.072  15.720  0.0026 -0.4887  0.1141
 4876SOL    HW126090   4.286   4.168  15.721 -0.1379 -0.4723 -0.6065
 4876SOL    HW226091   4.338   4.046  15.649  0.6482  0.3982  0.3244
 4877SOL     OW26092   0.373   4.558   5.248 -0.0171 -0.1358 -0.0498
 4877SOL    HW126093   0.383   4.653   5.250 -0.3525 -0.1075  0.2235
 4877SOL    HW226094   0.466   4.535   5.247 -0.5265 -2.2476  0.1035
 4878SOL     OW26095   0.539   3.126  14.446  0.0798 -0.3296  0.3464
 4878SOL    HW126096   0.506   3.202  14.398  1.8822  0.9761  1.1687
 4878SOL    HW226097   0.611   3.090  14.393 -1.0884  0.3483 -1.7056
 4879SOL     OW26098   1.838   3.272   5.100  0.0548 -0.3569  0.3047
 4879SOL    HW126099   1.893   3.285   5.023 -2.6548  0.3133 -1.5322
 4879SOL    HW226100   1.750   3.286   5.064  0.0670 -0.9369  0.0438
 4880SOL     OW26101   0.464   1.480   6.178  0.2808 -0.7935  0.6521
 4880SOL    HW126102   0.369   1.472   6.175  0.4957 -1.9968 -2.8098
 4880SOL    HW226103   0.481   1.517   6.265 -0.6099  2.1072 -0.4160
 4881SOL     OW26104   4.050   4.163   9.316 -0.2971 -0.3591 -0.7500
 4881SOL    HW126105   4.006   4.078   9.323  1.8637 -1.4858 -0.7670
 4881SOL    HW226106   3.976   4.221   9.296  0.8295  0.9316 -1.1815
 4882SOL     OW26107   3.375   0.586  12.544 -0.3788  0.2270  0.1131
 4882SOL    HW126108   3.342   0.542  12.622 -1.5702  2.5344  0.9078
 4882SOL    HW226109   3.321   0.663  12.529 -0.5484  0.4651  2.0099
 4883SOL     OW26110   0.453   1.625   6.468 -0.2167 -0.4675  0.3925
 4883SOL    HW126111   0.511   1.667   6.532  0.3540  2.5887 -2.1249
 4883SOL    HW226112   0.393   1.603   6.538  0.5035 -0.1867  1.0966
 4884SOL     OW26113   2.615   2.150   2.482  0.0457 -0.2683 -0.2087
 4884SOL    HW126114   2.529   2.193   2.480  0.6216  0.9796  1.6857
 4884SOL    HW226115   2.594   2.060   2.457  1.1733 -0.9356  1.2818
 4885SOL     OW26116   1.639   4.041   7.070  0.5175 -0.2093 -0.0786
 4885SOL    HW126117   1.618   4.115   7.013  0.0250  1.3588  2.1382
 4885SOL    HW226118   1.641   3.970   7.006 -1.6757  1.1062 -1.5982
 4886SOL     OW26119   1.889   3.993   7.182 -0.4118  0.6586  0.2434
 4886SOL    HW126120   1.798   4.006   7.156 -0.8598 -3.0603  0.0556
 4886SOL    HW226121   1.886   3.910   7.229 -1.7481 -0.2083 -1.3648
 4887SOL     OW26122   2.133   0.704   8.281  0.3789 -0.4969  0.2910
 4887SOL    HW126123   2.191   0.676   8.211  0.5437  0.3493  0.0825
 4887SOL    HW226124   2.048   0.701   8.238 -0.1788  2.5635  1.1728
 4888SOL     OW26125   3.222   2.098   3.519  0.1711 -0.2174 -0.2670
 4888SOL    HW126126   3.247   2.131   3.433 -0.1448 -1.6185 -0.8912
 4888SOL    HW226127   3.251   2.173   3.571  0.6779 -0.8710  0.4049
 4889SOL     OW26128   0.403   2.794   7.216 -0.0284  0.0001 -0.3257
 4889SOL    HW126129   0.431   2.841   7.138 -1.4426  0.3170 -0.6436
 4889SOL    HW226130   0.332   2.741   7.181  1.4119 -0.6710 -2.2343
 4890SOL     OW26131   4.706   0.301  14.841  0.4016  0.1394 -0.3041
 4890SOL    HW126132   4.625   0.265  14.806  0.8989  0.0104 -1.3187
 4890SOL    HW226133   4.673   0.285  14.929 -0.8320  0.8706 -0.6316
 4891SOL     OW26134   3.111   3.015  16.110 -0.3251  0.3426  0.1325
 4891SOL    HW126135   3.151   2.956  16.174  2.4896  0.7341 -1.2788
 4891SOL    HW226136   3.169   2.987  16.039  0.2534 -2.0939  1.5400
 4892SOL     OW26137   3.812   3.991   6.891  0.3095  0.4779 -0.1991
 4892SOL    HW126138   3.796   4.078   6.928 -1.0024  0.6451 -1.1751
 4892SOL    HW226139   3.845   4.019   6.806 -0.6331 -1.0277 -1.0627
 4893SOL     OW26140   2.430   3.567   4.360 -0.4540  0.5265 -0.0573
 4893SOL    HW126141   2.525   3.572   4.360 -0.4917  1.1387 -1.2224
 4893SOL    HW226142   2.406   3.474   4.359  1.4727  0.0283  0.0908
 4894SOL     OW26143   3.491   0.220  15.053  0.2924 -0.1020 -0.5151
 4894SOL    HW126144   3.450   0.134  15.060 -0.5639  0.2833 -0.7868
 4894SOL    HW226145   3.484   0.217  14.957  3.6593 -2.9409 -0.6563
 4895SOL     OW26146   1.839   1.306  13.032 -0.3762  0.0796  0.4199
 4895SOL    HW126147   1.847   1.219  13.070 -2.9932  0.4184  1.6907
 4895SOL    HW226148   1.897   1.354  13.091 -0.2636 -0.4218  0.7108
 4896SOL     OW26149   0.805   1.175   2.295 -0.4195 -0.1963 -0.1677
 4896SOL    HW126150   0.864   1.111   2.336 -1.2701 -0.5214  0.5234
 4896SOL    HW226151   0.724   1.153   2.339 -0.7535  1.9796  0.2965
 4897SOL     OW26152   0.767   4.180   4.984 -0.6264  0.3073 -0.3429
 4897SOL    HW126153   0.842   4.205   4.930 -1.8306  1.4522 -1.4899
 4897SOL    HW226154   0.775   4.089   4.955  2.6305  0.4901  0.0000
 4898SOL     OW26155   0.127   1.791   8.933  0.0710  0.0587 -0.2634
 4898SOL    HW126156   0.120   1.787   9.028 -1.0501  1.7997 -0.2732
 4898SOL    HW226157   0.122   1.885   8.914  0.2439 -0.0760 -0.9838
 4899SOL     OW26158   3.692   0.327   8.635 -0.0614 -0.7093 -0.3407
 4899SOL    HW126159   3.717   0.249   8.685 -2.0257 -0.4342  1.0762
 4899SOL    HW226160   3.762   0.391   8.652 -0.4967 -1.0362  2.5387
 4900SOL     OW26161   3.893   0.088   7.557 -0.1997 -0.2331  0.1642
 4900SOL    HW126162   3.906   0.081   7.651  1.4149  3.1646  0.1867
 4900SOL    HW226163   3.969   0.136   7.526  0.4522 -1.0034  0.5697
 4901SOL     OW26164   2.515   2.704   0.510 -0.1099 -0.0191 -0.1201
 4901SOL    HW126165   2.482   2.792   0.494 -2.7529 -1.2929 -1.6553
 4901SOL    HW226166   2.437   2.650   0.496  0.5332 -0.6453 -1.3448
 4902SOL     OW26167   3.034   1.964   7.339 -0.2327 -0.5510 -0.5343
 4902SOL    HW126168   3.073   1.930   7.420 -1.7675  1.4396  1.0495
 4902SOL    HW226169   3.113   2.000   7.299  0.1520 -1.1971 -0.3672
 4903SOL     OW26170   1.377   0.936   5.529 -0.4854  0.5453 -0.2513
 4903SOL    HW126171   1.367   0.857   5.581  0.6344  1.3900  1.2611
 4903SOL    HW226172   1.332   0.905   5.450  1.0119  2.1479 -1.7576
 4904SOL     OW26173   1.278   1.776   9.667 -0.8522 -0.3344 -0.5426
 4904SOL    HW126174   1.311   1.794   9.579  1.2016  3.2640  0.9566
 4904SOL    HW226175   1.333   1.701   9.688  0.0019 -0.1895 -2.3032
 4905SOL     OW26176   1.006   1.477  13.509  0.1037  0.0658 -0.3877
 4905SOL    HW126177   1.057   1.432  13.442  2.8745  0.2726  1.5686
 4905SOL    HW226178   0.915   1.468  13.479  0.4691 -3.8433 -0.3284
 4906SOL     OW26179   4.223   2.525   5.423 -0.3593  0.4383 -0.2247
 4906SOL    HW126180   4.274   2.603   5.400  2.2972 -0.7470  1.6590
 4906SOL    HW226181   4.219   2.520   5.518 -0.6795 -1.3033 -0.3277
 4907SOL     OW26182   0.948   4.176   9.693  0.2363  0.2098  0.8746
 4907SOL    HW126183   1.006   4.252   9.689  0.3923  0.0323 -0.1646
 4907SOL    HW226184   0.976   4.116   9.624  0.3059  1.8604 -0.5527
 4908SOL     OW26185   4.264   2.947  15.068 -0.8411 -0.4028  0.6022
 4908SOL    HW126186   4.337   2.964  15.009 -0.1396 -1.0697  1.2884
 4908SOL    HW226187   4.280   2.854  15.085 -0.0069 -0.0887  1.5159
 4909SOL     OW26188   4.125   3.017   7.166  0.3062 -0.3984 -0.8085
 4909SOL    HW126189   4.205   3.025   7.218  0.4384 -1.3191 -0.8641
 4909SOL    HW226190   4.075   2.960   7.224  0.8953 -0.1253 -0.0217
 4910SOL     OW26191   3.132   2.551   5.442  0.6178 -0.3570  0.0907
 4910SOL    HW126192   3.210   2.538   5.496  1.2279 -1.1194 -0.9624
 4910SOL    HW226193   3.088   2.622   5.488 -1.7223 -2.1103  0.5647
 4911SOL     OW26194   3.561   2.815   1.222 -0.2291  0.3817  0.2290
 4911SOL    HW126195   3.606   2.864   1.292  1.5900  0.0830 -0.7274
 4911SOL    HW226196   3.528   2.735   1.264  1.2002 -0.3024  0.0765
 4912SOL     OW26197   3.681   1.634  11.251  0.2513  0.1766  0.1487
 4912SOL    HW126198   3.748   1.688  11.208 -1.9235  2.3845 -0.4166
 4912SOL    HW226199   3.613   1.694  11.279 -0.8034  0.1452 -2.3527
 4913SOL     OW26200   3.091   0.259  16.591 -0.5498 -0.1278  0.3187
 4913SOL    HW126201   3.046   0.295  16.667 -1.0640 -0.1609  0.0344
 4913SOL    HW226202   3.147   0.190  16.628 -0.4977  0.6048  1.6143
 4914SOL     OW26203   0.608   0.210   0.815 -0.1435  0.1694  0.3798
 4914SOL    HW126204   0.652   0.247   0.738 -0.1669  0.0183  0.2921
 4914SOL    HW226205   0.617   0.119   0.786  0.1823  0.0718  0.7983
 4915SOL     OW26206   3.046   2.697   3.689 -0.1999 -0.2293 -0.2436
 4915SOL    HW126207   3.041   2.612   3.733 -0.1537  0.1603  0.5189
 4915SOL    HW226208   3.008   2.754   3.756 -1.2659 -0.7432 -0.4059
 4916SOL     OW26209   4.283   3.250  17.506  0.2444 -0.6027 -0.0498
 4916SOL    HW126210   4.201   3.205  17.486 -0.9253  1.5818 -0.1809
 4916SOL    HW226211   4.333   3.170  17.496 -0.3069 -0.8523 -0.8492
 4917SOL     OW26212   3.804   3.007   3.584  0.2385  0.5762  0.2342
 4917SOL    HW126213   3.790   2.989   3.491  0.1868 -0.7809  0.5020
 4917SOL    HW226214   3.797   2.916   3.612 -3.8377  0.0262 -2.5612
 4918SOL     OW26215   2.741   4.128   2.956 -0.2968  0.0345  0.4548
 4918SOL    HW126216   2.810   4.135   2.890  1.0217  0.8139  1.9322
 4918SOL    HW226217   2.776   4.203   3.003 -1.3264  0.2030  0.9572
 4919SOL     OW26218   2.410   1.233   4.396 -0.2623 -0.1675 -0.0282
 4919SOL    HW126219   2.476   1.199   4.335  0.9507 -1.1209  1.8018
 4919SOL    HW226220   2.360   1.157   4.425  0.5891 -1.6192 -2.2728
 4920SOL     OW26221   2.317   2.029   5.469 -0.0578  0.1444 -0.1412
 4920SOL    HW126222   2.293   2.110   5.515 -0.6619  0.3546 -0.8231
 4920SOL    HW226223   2.412   2.040   5.462 -0.2067  0.7302 -1.2278
 4921SOL     OW26224   0.417   2.174   6.219  0.1811  0.2265  0.3418
 4921SOL    HW126225   0.326   2.147   6.212  0.3176  0.2794 -1.6424
 4921SOL    HW226226   0.444   2.166   6.128  0.0605  1.1505  0.2293
 4922SOL     OW26227   4.573   2.118   1.921  0.1261 -0.1762  0.3116
 4922SOL    HW126228   4.514   2.191   1.941  2.7235  2.2541 -0.9857
 4922SOL    HW226229   4.634   2.130   1.994  0.9390  3.6042 -1.0103
 4923SOL     OW26230   3.426   0.941   5.277 -0.9170  0.8934  0.2058
 4923SOL    HW126231   3.507   0.890   5.286 -0.1636  2.2359  1.1021
 4923SOL    HW226232   3.447   1.010   5.214 -0.6562 -0.2736 -0.9731
 4924SOL     OW26233   0.193   2.923  12.198  0.1371 -0.2030 -0.2903
 4924SOL    HW126234   0.144   2.950  12.275  0.3459 -1.3277  0.2351
 4924SOL    HW226235   0.124   2.894  12.138  1.0977 -3.8246  0.3871
 4925SOL     OW26236   3.213   3.185   9.275 -0.9244 -0.3562 -0.1080
 4925SOL    HW126237   3.238   3.278   9.278  3.3520 -1.5222  0.8931
 4925SOL    HW226238   3.240   3.160   9.364 -2.7636  1.8184  1.0579
 4926SOL     OW26239   3.837   4.033   6.614  0.2594  0.2622 -0.0379
 4926SOL    HW126240   3.890   3.969   6.566  0.4454 -0.6636  1.3893
 4926SOL    HW226241   3.801   4.083   6.541  2.0263  0.0420 -1.0581
 4927SOL     OW26242   4.396   0.412   7.364 -0.2279 -0.0434  0.1263
 4927SOL    HW126243   4.428   0.500   7.383 -2.7795  0.9500 -0.2281
 4927SOL    HW226244   4.463   0.370   7.311 -1.4252 -1.8061  0.0053
 4928SOL     OW26245   2.344   0.393   8.683  0.2945  0.4200 -0.4483
 4928SOL    HW126246   2.381   0.454   8.747  0.4072  1.7112 -1.7514
 4928SOL    HW226247   2.353   0.447   8.605 -0.1460  2.1264  0.6812
 4929SOL     OW26248   4.311   3.387   5.103 -0.0496 -0.8835  0.2075
 4929SOL    HW126249   4.264   3.448   5.046  1.3898  0.5577  0.5657
 4929SOL    HW226250   4.313   3.311   5.045  1.0519  0.0537 -0.9716
 4930SOL     OW26251   4.099   0.549   1.279 -0.7282 -0.0980 -0.2006
 4930SOL    HW126252   4.075   0.519   1.367 -1.6727 -0.1425 -0.4757
 4930SOL    HW226253   4.108   0.464   1.237 -1.6155 -1.5368  2.5498
 4931SOL     OW26254   2.971   3.350   5.600 -0.0477  0.1381  0.2994
 4931SOL    HW126255   2.938   3.311   5.681  1.2478 -0.0656  0.7212
 4931SOL    HW226256   3.059   3.317   5.616  0.1017 -0.3735 -1.5934
 4932SOL     OW26257   2.250   2.974  14.554 -0.0934 -0.9058 -0.1024
 4932SOL    HW126258   2.195   3.013  14.486 -0.3010  0.3243  0.7730
 4932SOL    HW226259   2.249   2.884  14.522 -3.0385 -0.0407 -2.3888
 4933SOL     OW26260   1.634   1.769   7.655  0.3394  0.2892  0.5426
 4933SOL    HW126261   1.614   1.853   7.613  3.5041  0.8285  0.0991
 4933SOL    HW226262   1.681   1.796   7.734 -1.5122  0.1877  1.6851
 4934SOL     OW26263   1.697   4.625  12.062 -0.0837 -0.5003  0.1616
 4934SOL    HW126264   1.650   4.542  12.068  0.9155 -1.2026 -1.5335
 4934SOL    HW226265   1.777   4.611  12.012  0.3932  0.6208  0.6102
 4935SOL     OW26266   1.409   1.549   9.735  0.1347 -0.2999 -0.2509
 4935SOL    HW126267   1.344   1.502   9.683  0.4600 -1.7612  0.6829
 4935SOL    HW226268   1.387   1.533   9.826  0.9985 -1.4859 -0.2490
 4936SOL     OW26269   3.355   2.920   5.984 -0.1590  0.0154  0.1076
 4936SOL    HW126270   3.441   2.884   5.961 -0.2460  0.2704 -0.6056
 4936SOL    HW226271   3.288   2.854   5.966 -1.0106  0.6089  1.0966
 4937SOL     OW26272   1.699   1.081   8.001  0.2926  0.2091 -0.9163
 4937SOL    HW126273   1.714   1.025   7.925  2.5334  0.5944 -0.7723
 4937SOL    HW226274   1.657   1.017   8.058  2.6301  1.7455  2.5192
 4938SOL     OW26275   0.100   1.456   3.608 -0.3525 -0.3638 -0.2865
 4938SOL    HW126276   0.139   1.384   3.658 -1.0150 -1.8137 -1.8904
 4938SOL    HW226277   0.017   1.459   3.656  1.1992  0.2235  2.3774
 4939SOL     OW26278   4.514   4.662  13.074  0.2787  0.0385 -0.0396
 4939SOL    HW126279   4.491   4.579  13.116  2.9551 -0.5661  0.2049
 4939SOL    HW226280   4.510   4.725  13.146 -0.4905 -1.2839  1.0906
 4940SOL     OW26281   1.987   0.922   2.574 -0.6325 -0.3821  0.2716
 4940SOL    HW126282   1.927   0.924   2.499 -1.0134  0.1290  0.5969
 4940SOL    HW226283   2.063   0.955   2.525 -1.8742 -2.1090 -2.8458
 4941SOL     OW26284   0.678   2.044   4.303 -0.6377  0.2074  0.2493
 4941SOL    HW126285   0.729   1.976   4.258  3.0977  3.0690  0.0985
 4941SOL    HW226286   0.590   2.009   4.290  0.1541 -0.2100 -4.1831
 4942SOL     OW26287   3.170   4.374   6.971 -0.2215 -0.2259  0.0779
 4942SOL    HW126288   3.076   4.370   6.955 -0.7449 -0.1992  3.2887
 4942SOL    HW226289   3.171   4.338   7.059 -0.4233  0.6693  0.4419
 4943SOL     OW26290   0.004   1.006   5.196  0.8366  0.1455  0.4080
 4943SOL    HW126291   0.004   1.101   5.181 -1.7976  0.1408  0.4515
 4943SOL    HW226292   4.643   0.988   5.161 -0.3196 -0.6293  3.6698
 4944SOL     OW26293   0.109   0.734   7.134  0.7121  0.3118 -0.2399
 4944SOL    HW126294   0.195   0.760   7.167 -0.2348  1.2316  1.5001
 4944SOL    HW226295   0.049   0.725   7.208  0.5010 -1.0677 -0.5663
 4945SOL     OW26296   2.679   3.384   6.874  0.7015 -0.3394  0.1178
 4945SOL    HW126297   2.701   3.347   6.960 -0.4881  1.1199  1.0725
 4945SOL    HW226298   2.649   3.303   6.833  0.2017  0.2921 -0.7668
 4946SOL     OW26299   2.569   3.851   6.261  0.0505  0.2763  0.6123
 4946SOL    HW126300   2.534   3.835   6.173 -2.1104 -1.1431  1.7385
 4946SOL    HW226301   2.623   3.927   6.240  2.0202 -1.8737 -2.2206
 4947SOL     OW26302   2.911   1.720   4.861  0.1225 -0.2424  0.0739
 4947SOL    HW126303   2.849   1.792   4.848  1.3075  0.9742  1.1812
 4947SOL    HW226304   2.859   1.649   4.898 -1.4725  0.1757 -1.3967
 4948SOL     OW26305   2.610   0.537   3.891  0.3013 -0.0340 -0.4437
 4948SOL    HW126306   2.679   0.553   3.955 -0.6630 -1.7061  1.0164
 4948SOL    HW226307   2.636   0.455   3.851 -2.0629 -0.9109 -0.1878
 4949SOL     OW26308   2.217   4.591  10.401 -0.3610 -0.6959  0.1216
 4949SOL    HW126309   2.201   4.505  10.362  0.8142 -1.6733  1.8168
 4949SOL    HW226310   2.279   4.563  10.468  1.2067 -1.3696 -1.6153
 4950SOL     OW26311   4.680   3.409   7.412 -0.8562  0.4150  0.2476
 4950SOL    HW126312   0.028   3.390   7.354  0.0314  0.0602  1.5004
 4950SOL    HW226313   4.723   3.407   7.498 -0.1176  1.3165 -0.1054
 4951SOL     OW26314   2.535   0.271   2.247  0.4472  0.1681 -0.3120
 4951SOL    HW126315   2.613   0.326   2.244  1.4095 -1.1724 -0.1301
 4951SOL    HW226316   2.520   0.255   2.340  2.4277  1.3302  0.1992
 4952SOL     OW26317   3.827   0.041   3.718  0.0343  0.6034  0.1208
 4952SOL    HW126318   3.891   0.098   3.761  0.6695  0.1308 -0.1772
 4952SOL    HW226319   3.774   0.106   3.671  1.7161  1.4189 -0.6587
 4953SOL     OW26320   0.375   1.708   8.885  0.6363 -0.1612 -0.7197
 4953SOL    HW126321   0.289   1.728   8.921  0.0083 -2.8413 -0.7184
 4953SOL    HW226322   0.377   1.616   8.911 -1.1768 -0.6315 -2.1753
 4954SOL     OW26323   2.977   4.619   5.658 -1.1185  0.2567 -0.0086
 4954SOL    HW126324   2.893   4.603   5.616 -0.8184 -0.0347 -0.4979
 4954SOL    HW226325   2.989   4.533   5.700 -0.8199  0.1880 -0.2349
 4955SOL     OW26326   0.303   4.356   5.383  0.0570 -0.4006 -0.1678
 4955SOL    HW126327   0.295   4.445   5.349 -0.6046 -0.0759  0.8646
 4955SOL    HW226328   0.350   4.383   5.462 -0.6754  0.4992 -0.0378
 4956SOL     OW26329   4.622   3.834   9.904  0.1059  0.3661 -0.6783
 4956SOL    HW126330   4.603   3.924   9.878 -3.3780  0.1298  0.9695
 4956SOL    HW226331   4.536   3.792   9.899 -0.0158  0.2455  2.4685
 4957SOL     OW26332   2.849   4.317   0.378 -0.2140  0.0475 -0.0551
 4957SOL    HW126333   2.778   4.356   0.429 -2.6430 -2.3808 -1.6070
 4957SOL    HW226334   2.894   4.395   0.345  1.5421 -0.9135  0.0602
 4958SOL     OW26335   3.635   3.618   3.600 -0.3382  0.1377  0.2017
 4958SOL    HW126336   3.551   3.572   3.593 -0.8998  1.2938 -0.7900
 4958SOL    HW226337   3.691   3.550   3.561 -2.0690 -0.9103 -0.4626
 4959SOL     OW26338   3.856   3.600   6.577 -1.0860  0.1654 -0.1938
 4959SOL    HW126339   3.924   3.656   6.614 -1.0833  0.0378 -0.0034
 4959SOL    HW226340   3.791   3.603   6.647  0.0221 -1.3489  0.9088
 4960SOL     OW26341   4.491   4.602   1.767 -0.4196 -0.1198 -0.1842
 4960SOL    HW126342   4.559   4.596   1.834  0.2096  0.3353 -0.7766
 4960SOL    HW226343   4.508   4.689   1.731  0.9065 -1.7042 -3.3740
 4961SOL     OW26344   1.732   4.330   8.860  0.3302  0.4437  0.2013
 4961SOL    HW126345   1.705   4.410   8.906  0.5049  0.5433  0.1332
 4961SOL    HW226346   1.821   4.355   8.832 -0.3174  1.0845 -1.3153
 4962SOL     OW26347   2.566   4.542  13.341  0.0992 -0.3044  0.6509
 4962SOL    HW126348   2.607   4.557  13.426  2.8019  2.3445 -1.1202
 4962SOL    HW226349   2.475   4.535  13.366 -0.3687 -2.4746 -1.6029
 4963SOL     OW26350   1.673   2.385   7.643  0.1700  0.1091  0.4728
 4963SOL    HW126351   1.673   2.291   7.661 -2.3885 -0.2281 -1.3817
 4963SOL    HW226352   1.721   2.384   7.561 -0.2492  0.7981  0.2217
 4964SOL     OW26353   2.308   0.399  16.217 -0.5490 -0.1096 -0.2384
 4964SOL    HW126354   2.273   0.332  16.159 -0.9385  0.8875 -1.1373
 4964SOL    HW226355   2.257   0.373  16.294 -1.1022 -2.5176 -1.3961
 4965SOL     OW26356   3.450   0.648   8.608 -0.4668  0.1387  0.2591
 4965SOL    HW126357   3.461   0.581   8.675 -1.0069 -0.7318 -0.5341
 4965SOL    HW226358   3.486   0.601   8.533  1.1984  0.6173  0.7622
 4966SOL     OW26359   4.643   2.522   0.503  0.0791 -0.3484 -0.0816
 4966SOL    HW126360   4.573   2.477   0.456 -0.7429  2.1527 -1.2376
 4966SOL    HW226361   4.591   2.570   0.568 -0.8338  0.2792 -1.2713
 4967SOL     OW26362   1.377   0.571   5.079  0.0198  0.0556  0.1983
 4967SOL    HW126363   1.463   0.607   5.101  0.3281  0.0680 -1.0293
 4967SOL    HW226364   1.398   0.534   4.993 -0.5973  0.8588 -0.2989
 4968SOL     OW26365   0.601   0.899   7.563  0.8172  0.3449 -0.1359
 4968SOL    HW126366   0.582   0.891   7.469  1.2590  0.2853 -0.2178
 4968SOL    HW226367   0.631   0.990   7.562 -0.5002  0.7835 -0.2625
 4969SOL     OW26368   4.643   2.349   1.693 -0.1038 -0.0959  0.0760
 4969SOL    HW126369   4.631   2.254   1.696 -0.0715 -0.1409 -1.2308
 4969SOL    HW226370   4.550   2.370   1.699 -0.3739 -0.8574 -1.6245
 4970SOL     OW26371   0.832   0.206  12.784 -0.3788  0.5257  0.6208
 4970SOL    HW126372   0.890   0.130  12.791  0.7093  1.3215  0.1373
 4970SOL    HW226373   0.797   0.205  12.873 -0.3622  1.6937  0.6379
 4971SOL     OW26374   1.262   0.433   6.443 -0.0972  0.1209  0.2982
 4971SOL    HW126375   1.321   0.499   6.407 -0.4145  1.0323  1.4341
 4971SOL    HW226376   1.219   0.394   6.367  1.4759  0.5406 -0.8049
 4972SOL     OW26377   1.220   1.238   0.720  0.3929  0.1173  0.3298
 4972SOL    HW126378   1.257   1.230   0.632 -1.6464  2.5562 -0.7414
 4972SOL    HW226379   1.275   1.302   0.764  1.6907 -0.5064 -0.3807
 4973SOL     OW26380   0.972   0.048  13.584  0.1282 -0.1475  0.1157
 4973SOL    HW126381   0.946   4.687  13.615  0.1738 -0.0921  0.3069
 4973SOL    HW226382   1.020   0.032  13.503  0.2779 -1.3301  0.4358
 4974SOL     OW26383   1.784   2.846   8.508  0.3854  0.4044 -0.0674
 4974SOL    HW126384   1.815   2.922   8.459  0.6099  1.1014  1.1386
 4974SOL    HW226385   1.726   2.884   8.575  0.3296  0.5130 -0.1768
 4975SOL     OW26386   3.398   0.569  11.733 -0.2994  0.2167  0.7036
 4975SOL    HW126387   3.323   0.556  11.675 -0.0566  1.1843  0.1695
 4975SOL    HW226388   3.469   0.569  11.668 -2.2024  0.3303 -1.3453
 4976SOL     OW26389   0.721   1.700   1.993 -0.0127  0.0223 -0.2061
 4976SOL    HW126390   0.669   1.757   2.048 -0.2121  1.4066 -1.8394
 4976SOL    HW226391   0.736   1.759   1.919  0.9150  0.5246  0.3870
 4977SOL     OW26392   0.593   1.242   0.322  0.1072  0.4652 -0.0145
 4977SOL    HW126393   0.595   1.151   0.354 -1.6157  0.4556  0.0514
 4977SOL    HW226394   0.513   1.279   0.359 -0.5897 -2.1517  1.1094
 4978SOL     OW26395   1.163   1.386   2.022  0.3003 -0.1469 -0.3417
 4978SOL    HW126396   1.212   1.455   1.978 -3.7201  3.1727  0.4202
 4978SOL    HW226397   1.096   1.436   2.068  0.8823 -0.8332  1.2543
 4979SOL     OW26398   1.482   2.128   1.280  0.2776  0.3145 -0.2682
 4979SOL    HW126399   1.397   2.090   1.304 -0.2975  0.7293 -1.6109
 4979SOL    HW226400   1.453   2.204   1.230 -1.1002 -1.7574 -2.6525
 4980SOL     OW26401   3.746   1.886  17.305  0.3160  0.1193  0.1305
 4980SOL    HW126402   3.825   1.923  17.345 -0.8377  1.3977  1.2019
 4980SOL    HW226403   3.680   1.945  17.342  1.4959  1.7263 -0.3010
 4981SOL     OW26404   1.953   0.941   0.583 -0.4762 -0.2895 -0.0529
 4981SOL    HW126405   2.019   0.876   0.609 -0.1743 -0.7356 -1.9733
 4981SOL    HW226406   1.893   0.945   0.657 -1.0214 -2.1068 -0.3915
 4982SOL     OW26407   1.431   2.362   2.491  0.3281  0.2734 -0.1954
 4982SOL    HW126408   1.505   2.305   2.470 -0.9232 -1.1962 -0.5993
 4982SOL    HW226409   1.362   2.333   2.431 -1.4346  2.9849  0.5381
 4983SOL     OW26410   2.639   0.522  15.909 -0.3901 -0.4490 -0.6742
 4983SOL    HW126411   2.605   0.554  15.993 -0.8837 -0.1763 -0.9771
 4983SOL    HW226412   2.563   0.471  15.881 -1.8193  0.5895  1.3244
 4984SOL     OW26413   2.932   4.571   5.299  0.2861  0.2530 -0.3905
 4984SOL    HW126414   2.981   4.488   5.299  0.1337  0.1603 -0.1183
 4984SOL    HW226415   2.886   4.570   5.383  0.7344  1.6810 -0.1406
 4985SOL     OW26416   1.930   3.852   4.895  0.5553  0.1769  0.1303
 4985SOL    HW126417   1.980   3.856   4.976 -0.6679  1.0285  0.8462
 4985SOL    HW226418   1.868   3.780   4.905  1.2411 -0.5242 -0.6209
 4986SOL     OW26419   1.257   1.667   7.449 -0.2449 -0.3139  0.7311
 4986SOL    HW126420   1.193   1.731   7.479  2.1067  1.7970  1.2567
 4986SOL    HW226421   1.217   1.583   7.470 -2.8689  0.1540 -2.3973
 4987SOL     OW26422   0.473   0.840   8.770 -0.4736  0.5584 -0.6059
 4987SOL    HW126423   0.530   0.770   8.800 -0.3210  0.1824 -1.8116
 4987SOL    HW226424   0.429   0.869   8.851  0.7585  0.9849 -0.0929
 4988SOL     OW26425   0.149   0.773   1.514 -0.2118  0.0559 -0.1916
 4988SOL    HW126426   0.133   0.867   1.518  0.4759  0.2071 -0.9592
 4988SOL    HW226427   0.090   0.736   1.448 -2.4761 -0.9876  2.4307
 4989SOL     OW26428   3.012   2.769  11.299 -0.2813  0.5751  0.3903
 4989SOL    HW126429   2.987   2.860  11.285 -0.9262  0.4057  0.4264
 4989SOL    HW226430   2.991   2.742  11.210  0.1696  0.7426  0.2320
 4990SOL     OW26431   3.004   4.176   3.907 -0.1052 -0.2788 -0.2943
 4990SOL    HW126432   2.947   4.250   3.884  0.7335  0.8555  1.3101
 4990SOL    HW226433   2.996   4.110   3.838  0.7671 -0.8609  0.1596
 4991SOL     OW26434   0.461   1.596   2.897  0.1756 -0.3375  0.4544
 4991SOL    HW126435   0.465   1.691   2.904  0.9763 -0.3165 -0.3452
 4991SOL    HW226436   0.462   1.584   2.992 -0.8432 -0.4461  0.4522
 4992SOL     OW26437   0.094   3.516   3.875 -0.5753  0.5764 -0.3743
 4992SOL    HW126438   0.048   3.488   3.796  1.0274 -1.3515 -0.6216
 4992SOL    HW226439   0.181   3.510   3.836 -1.0449  1.6068 -1.5879
 4993SOL     OW26440   3.329   0.418   4.914 -0.0975  0.1345 -0.1233
 4993SOL    HW126441   3.390   0.358   4.957 -2.4453 -0.9674  1.6920
 4993SOL    HW226442   3.249   0.405   4.966  0.6300  0.0013  0.9562
 4994SOL     OW26443   1.695   4.325   4.062 -0.2077  0.2326 -0.2266
 4994SOL    HW126444   1.774   4.342   4.112 -0.5974 -0.8769  0.7426
 4994SOL    HW226445   1.662   4.415   4.071 -2.2206 -0.4977 -0.2171
 4995SOL     OW26446   1.259   1.232  16.335  0.3194 -0.3891 -0.1419
 4995SOL    HW126447   1.316   1.160  16.307  0.2189  0.2039 -1.8798
 4995SOL    HW226448   1.261   1.237  16.430  3.0846  2.5114 -0.3531
 4996SOL     OW26449   1.799   0.232  16.334 -0.3961 -0.0194  0.7026
 4996SOL    HW126450   1.751   0.293  16.277  0.5809 -0.1409 -0.2670
 4996SOL    HW226451   1.783   0.266  16.422 -1.6639 -3.1582  1.6459
 4997SOL     OW26452   1.689   1.423   6.281  0.6179  0.0865  0.2716
 4997SOL    HW126453   1.772   1.458   6.313  0.0849  2.3189 -0.7519
 4997SOL    HW226454   1.700   1.401   6.189 -0.2101  0.3655  0.1081
 4998SOL     OW26455   4.530   0.984   7.620 -0.3389  0.5215  0.8256
 4998SOL    HW126456   4.565   0.902   7.654 -2.2030 -0.0342  1.3821
 4998SOL    HW226457   4.492   1.026   7.698  0.4535 -0.1596  1.5841
 4999SOL     OW26458   4.404   4.225  12.373 -0.3945  0.3049  0.2481
 4999SOL    HW126459   4.335   4.193  12.315  0.1702  0.5445 -0.5702
 4999SOL    HW226460   4.357   4.223  12.456  1.5945 -0.3938  1.3652
 5000SOL     OW26461   0.517   0.464   6.850 -0.1447  0.1672 -0.1316
 5000SOL    HW126462   0.428   0.433   6.837  0.1203 -0.1083 -1.3073
 5000SOL    HW226463   0.516   0.477   6.945 -0.9232  2.6525 -0.4764
 5001SOL     OW26464   3.080   1.860   2.651 -0.2763  0.3028  0.5228
 5001SOL    HW126465   3.024   1.846   2.576  0.6712  0.3021 -0.1857
 5001SOL    HW226466   3.149   1.796   2.635 -1.8594 -0.7651 -1.9453
 5002SOL     OW26467   3.290   2.479   2.288 -0.4981 -0.3996  0.1274
 5002SOL    HW126468   3.384   2.466   2.305 -0.4662 -0.8721 -0.3920
 5002SOL    HW226469   3.281   2.443   2.200  2.8621 -0.0481 -0.3684
 5003SOL     OW26470   0.054   2.264  15.074  0.1753  0.6322  0.3717
 5003SOL    HW126471   0.116   2.263  15.001  1.4915 -0.3203  1.4910
 5003SOL    HW226472   0.049   2.171  15.097  1.4837  0.5904  0.4893
 5004SOL     OW26473   1.972   0.507   4.552  0.3979  0.4309  0.2708
 5004SOL    HW126474   1.887   0.543   4.576  0.7194  1.9502 -0.8269
 5004SOL    HW226475   2.022   0.501   4.634 -1.9983  0.5876  1.7368
 5005SOL     OW26476   4.526   0.061   2.108  0.2016 -0.2051 -0.3815
 5005SOL    HW126477   4.489   0.098   2.188  1.3712  1.1662 -0.4759
 5005SOL    HW226478   4.448   0.051   2.054 -1.0656 -1.6588  1.7025
 5006SOL     OW26479   1.855   1.980   8.563 -0.1841  0.2291  0.1408
 5006SOL    HW126480   1.946   1.952   8.571 -0.2502 -0.4364 -1.3493
 5006SOL    HW226481   1.808   1.918   8.617 -0.5653  2.1817  2.0543
 5007SOL     OW26482   2.436   2.644   4.283 -0.2918 -0.3709 -0.7934
 5007SOL    HW126483   2.380   2.674   4.212  1.0272  0.0314 -1.6585
 5007SOL    HW226484   2.384   2.580   4.333 -1.7586  2.1131  0.8419
 5008SOL     OW26485   4.348   0.836   9.360 -0.0814  0.1208 -0.0218
 5008SOL    HW126486   4.357   0.766   9.424 -1.0854 -1.8819 -2.0689
 5008SOL    HW226487   4.267   0.823   9.309 -0.6160 -1.4193  1.2306
 5009SOL     OW26488   1.538   1.048   4.347 -0.2063 -0.3482 -0.7520
 5009SOL    HW126489   1.464   1.102   4.320 -0.0293  0.4591  0.3625
 5009SOL    HW226490   1.548   1.066   4.441 -0.4362  0.1975 -0.8292
 5010SOL     OW26491   0.767   0.950   3.448 -0.0946  0.7714  0.1450
 5010SOL    HW126492   0.782   0.971   3.540  1.5110 -3.7251  0.9348
 5010SOL    HW226493   0.674   0.930   3.450 -0.0127  0.4186  0.3616
 5011SOL     OW26494   3.512   3.269   5.133 -0.2001 -0.2547 -0.0821
 5011SOL    HW126495   3.540   3.296   5.221  3.7612 -1.5788 -0.9236
 5011SOL    HW226496   3.457   3.343   5.106  0.9167 -0.5095 -3.0492
 5012SOL     OW26497   3.828   1.249   8.280 -0.2096  0.4830 -0.2082
 5012SOL    HW126498   3.883   1.326   8.270 -1.0708  1.1015 -0.1986
 5012SOL    HW226499   3.739   1.282   8.293 -0.9221 -1.9378  1.0619
 5013SOL     OW26500   3.443   2.561   4.377  0.0681  0.1601  0.1979
 5013SOL    HW126501   3.497   2.499   4.426 -0.3074 -0.0632  0.3279
 5013SOL    HW226502   3.475   2.547   4.288  0.1477  1.9405 -0.0404
 5014SOL     OW26503   0.457   4.255   9.518  0.0649 -0.5833  0.0573
 5014SOL    HW126504   0.368   4.220   9.513 -0.4684  0.4142  2.5961
 5014SOL    HW226505   0.449   4.313   9.593 -5.6863 -0.4477 -0.6451
 5015SOL     OW26506   0.582   0.386   1.028  0.1455  0.2692  0.4448
 5015SOL    HW126507   0.600   0.327   0.955 -1.8134  2.6692 -1.9437
 5015SOL    HW226508   0.541   0.327   1.092 -1.5036  0.3978 -0.5066
 5016SOL     OW26509   4.004   0.456  10.042 -0.1804  0.4629 -0.0955
 5016SOL    HW126510   4.074   0.457  10.107 -2.4783  2.2531  2.3430
 5016SOL    HW226511   3.925   0.479  10.092 -0.8952 -0.2533 -0.8943
 5017SOL     OW26512   2.787   3.024   0.351 -0.3451 -0.2349 -0.5131
 5017SOL    HW126513   2.739   2.943   0.332 -3.3357  1.0590  1.4415
 5017SOL    HW226514   2.741   3.046   0.432  0.1199  0.9063 -0.5545
 5018SOL     OW26515   0.716   1.772   3.017 -0.4374  0.9933  0.3693
 5018SOL    HW126516   0.738   1.737   3.103  0.6349  0.3739 -0.1433
 5018SOL    HW226517   0.806   1.765   2.984 -0.3422  1.0139  0.6284
 5019SOL     OW26518   2.201   1.217   3.825 -0.2834 -0.3743  0.2197
 5019SOL    HW126519   2.163   1.137   3.789 -1.9761  0.0731  0.9920
 5019SOL    HW226520   2.214   1.191   3.917  0.2756 -1.3077 -0.1307
 5020SOL     OW26521   3.335   1.931   6.617 -0.8450 -0.2449 -0.6156
 5020SOL    HW126522   3.247   1.893   6.618  0.3398 -2.9911 -1.7708
 5020SOL    HW226523   3.298   2.020   6.610  0.0954  0.1462 -0.5558
 5021SOL     OW26524   0.019   0.868   5.648 -0.3490  0.6391 -1.1996
 5021SOL    HW126525   4.723   0.775   5.641 -0.4014  0.5855 -0.2551
 5021SOL    HW226526   0.112   0.867   5.627  0.0352  1.7725  0.4843
 5022SOL     OW26527   2.032   4.686   4.238 -0.3143  0.7366 -0.0459
 5022SOL    HW126528   2.100   4.703   4.173  1.5249 -1.2797  1.3479
 5022SOL    HW226529   2.043   0.034   4.298 -1.9501  1.5504 -0.7264
 5023SOL     OW26530   2.399   0.829   6.842  0.6293  0.5969  0.4054
 5023SOL    HW126531   2.461   0.763   6.874 -0.2366 -0.4822 -0.1467
 5023SOL    HW226532   2.459   0.899   6.817 -1.2049  1.7981 -0.5829
 5024SOL     OW26533   0.669   4.123   5.603  0.0657 -0.3873  0.0459
 5024SOL    HW126534   0.714   4.187   5.549  3.7232 -1.9681  1.2068
 5024SOL    HW226535   0.626   4.180   5.667  0.3954  0.6793 -0.6989
 5025SOL     OW26536   0.497   3.271   2.825  0.4215 -0.2235 -0.4198
 5025SOL    HW126537   0.408   3.303   2.815  1.4973  2.2049 -2.4471
 5025SOL    HW226538   0.550   3.313   2.757  0.0972 -0.0384 -0.5548
 5026SOL     OW26539   4.088   3.019   9.291 -0.5352  0.1696  0.3531
 5026SOL    HW126540   4.085   3.079   9.217  1.8397  0.5873  0.5736
 5026SOL    HW226541   4.053   3.084   9.352  0.0747  0.5899  0.2629
 5027SOL     OW26542   2.855   2.067   4.551  0.0805 -0.3363  0.6978
 5027SOL    HW126543   2.824   2.026   4.631  1.2583 -0.5009  1.0712
 5027SOL    HW226544   2.817   2.155   4.553 -0.4360 -0.5292 -0.7989
 5028SOL     OW26545   0.371   3.952   8.051  0.9495  0.0036  0.2128
 5028SOL    HW126546   0.460   3.930   8.078  1.4133 -0.0156 -1.3432
 5028SOL    HW226547   0.394   4.024   7.992 -2.8076  0.7118 -0.3903
 5029SOL     OW26548   1.188   4.012  15.502 -0.2423 -0.1053  0.8068
 5029SOL    HW126549   1.115   4.002  15.442  0.6795  3.0864 -0.8089
 5029SOL    HW226550   1.219   3.921  15.511  1.2590  0.2617 -0.7401
 5030SOL     OW26551   1.669   3.521   9.519 -0.3140 -0.4286  0.0227
 5030SOL    HW126552   1.663   3.543   9.612 -1.2447  0.2224 -0.1914
 5030SOL    HW226553   1.758   3.486   9.519  0.4338  1.4427 -0.2259
 5031SOL     OW26554   2.466   3.866   7.568 -0.1938  0.1479  0.4657
 5031SOL    HW126555   2.536   3.803   7.547  1.4642  2.2093 -0.1873
 5031SOL    HW226556   2.438   3.833   7.653 -4.1322 -1.3470 -1.4135
 5032SOL     OW26557   1.432   0.101   4.452  0.1285 -0.3218  0.7470
 5032SOL    HW126558   1.368   0.115   4.523 -0.3607  2.1607 -0.1787
 5032SOL    HW226559   1.377   0.048   4.394  1.5470 -0.2886 -0.6129
 5033SOL     OW26560   4.009   0.441  17.508  0.2720  0.3656 -0.1174
 5033SOL    HW126561   4.091   0.436  17.459  2.1093 -2.0223  3.1838
 5033SOL    HW226562   4.048   0.408  17.589 -1.5402  0.8480  0.9430
 5034SOL     OW26563   1.771   2.762  10.949 -0.4682  0.4500  0.2655
 5034SOL    HW126564   1.779   2.668  10.935  1.1454  0.6781 -0.3780
 5034SOL    HW226565   1.751   2.768  11.042 -1.5512 -0.5388  0.0905
 5035SOL     OW26566   0.087   3.400   2.491 -0.0728 -0.4388  0.1877
 5035SOL    HW126567   0.054   3.348   2.564 -1.2826  1.0115  0.6795
 5035SOL    HW226568   0.025   3.473   2.490 -0.7728 -1.0378  0.4205
 5036SOL     OW26569   0.278   4.390   4.578 -0.0922  0.2548 -0.8670
 5036SOL    HW126570   0.261   4.444   4.501  1.2769  1.4148 -0.3690
 5036SOL    HW226571   0.286   4.309   4.528 -1.1342  0.1798 -0.9139
 5037SOL     OW26572   4.117   3.957  10.373 -0.2346  0.4433  0.0999
 5037SOL    HW126573   4.198   4.000  10.344 -1.5537  2.2943 -0.8186
 5037SOL    HW226574   4.098   3.903  10.296 -1.6669  0.0839  0.7201
 5038SOL     OW26575   1.853   4.304   7.453  0.1639  0.5164 -0.5800
 5038SOL    HW126576   1.874   4.377   7.395 -1.0654 -0.1556 -1.8591
 5038SOL    HW226577   1.779   4.263   7.408  0.6950  0.9207 -1.8353
 5039SOL     OW26578   0.014   1.018   3.248 -0.5177  0.1410 -0.1136
 5039SOL    HW126579   0.033   1.098   3.297 -1.1795  0.9744 -1.2335
 5039SOL    HW226580   4.709   1.052   3.164 -1.2465  0.7406  0.3939
 5040SOL     OW26581   3.927   3.545   2.167  0.0812  0.2119 -0.0009
 5040SOL    HW126582   3.991   3.547   2.096  0.8313 -1.3979  0.6292
 5040SOL    HW226583   3.911   3.637   2.187 -0.1553  0.3585 -0.8914
 5041SOL     OW26584   2.525   0.529   5.739 -0.2186  0.1303  0.2199
 5041SOL    HW126585   2.582   0.508   5.665 -1.4574 -2.3074 -0.0744
 5041SOL    HW226586   2.585   0.558   5.807 -1.0504  0.8672  0.6467
 5042SOL     OW26587   2.521   1.126   1.550 -0.0251  0.6256 -0.1281
 5042SOL    HW126588   2.447   1.090   1.599 -0.8344 -0.3891 -2.0920
 5042SOL    HW226589   2.481   1.112   1.464 -1.4641 -1.7593  0.9301
 5043SOL     OW26590   3.592   1.157  10.031  0.3375  0.1931  0.6104
 5043SOL    HW126591   3.546   1.191   9.954  0.2210  2.5460  1.7014
 5043SOL    HW226592   3.608   1.239  10.079  2.7879  0.0480  0.0343
 5044SOL     OW26593   0.214   2.979  15.198  0.1693 -0.0558 -0.1635
 5044SOL    HW126594   0.174   3.047  15.144  1.3259 -1.0563 -2.2953
 5044SOL    HW226595   0.257   3.035  15.263 -0.3959  1.1266 -0.8034
 5045SOL     OW26596   4.419   1.373   5.627  0.4468  0.2175  0.1781
 5045SOL    HW126597   4.474   1.420   5.690  0.1363 -1.6532  1.8435
 5045SOL    HW226598   4.436   1.280   5.646 -0.7377 -0.3148 -1.3508
 5046SOL     OW26599   1.679   2.800   3.947 -0.1577  0.2801  0.7899
 5046SOL    HW126600   1.607   2.749   3.910  1.1925 -1.7335  0.9122
 5046SOL    HW226601   1.749   2.736   3.959 -0.1148  0.3464  0.8898
 5047SOL     OW26602   2.161   0.974  15.226  0.1880  0.0214 -0.3426
 5047SOL    HW126603   2.082   0.931  15.259 -0.1706  0.6444 -0.3722
 5047SOL    HW226604   2.218   0.899  15.210 -0.2624  0.0734 -2.1141
 5048SOL     OW26605   3.096   1.546   5.728 -0.2353  0.9882  0.3785
 5048SOL    HW126606   3.176   1.499   5.703 -1.0983  0.0535 -0.6269
 5048SOL    HW226607   3.125   1.633   5.702  0.1189  0.8646  0.3549
 5049SOL     OW26608   1.239   0.531   9.094 -0.5515 -0.3851 -0.4314
 5049SOL    HW126609   1.145   0.515   9.094 -0.5863 -0.0969  2.2281
 5049SOL    HW226610   1.279   0.445   9.083  1.6485  0.4494  1.1703
 5050SOL     OW26611   2.081   2.602   4.527  0.6748 -0.4980  0.2442
 5050SOL    HW126612   2.041   2.573   4.609 -1.0210  1.2353  0.0482
 5050SOL    HW226613   2.171   2.570   4.532  1.1719  0.8372 -0.2512
 5051SOL     OW26614   0.844   1.689   6.787  0.1815  0.2409  0.2161
 5051SOL    HW126615   0.913   1.662   6.726 -0.2353  0.2909 -0.2747
 5051SOL    HW226616   0.887   1.763   6.829 -0.4473  0.1650  0.9935
 5052SOL     OW26617   4.348   4.717   3.481 -0.1861  0.1870  0.3872
 5052SOL    HW126618   4.256   4.696   3.495 -0.8138  0.8657 -2.8586
 5052SOL    HW226619   4.385   4.638   3.443 -0.0335  0.3616  0.1737
 5053SOL     OW26620   4.126   3.989   5.816 -0.3953  0.1939 -0.2360
 5053SOL    HW126621   4.177   4.048   5.761 -0.6644  0.6915  0.0432
 5053SOL    HW226622   4.069   4.054   5.856  0.8801  1.3057 -0.2510
 5054SOL     OW26623   2.008   1.225  16.527 -0.1255  0.3930 -0.1328
 5054SOL    HW126624   1.914   1.236  16.541 -0.4314 -1.4989 -0.6352
 5054SOL    HW226625   2.031   1.156  16.589 -0.4215  0.1658 -0.2692
 5055SOL     OW26626   3.819   1.276   9.698  0.2158  0.7834 -0.2296
 5055SOL    HW126627   3.828   1.187   9.663 -2.4509  0.3381  0.2227
 5055SOL    HW226628   3.727   1.290   9.720 -0.4537 -1.4899 -1.5239
 5056SOL     OW26629   2.319   0.134   8.563  0.1189 -0.0637  0.5984
 5056SOL    HW126630   2.308   0.228   8.576 -1.3445 -0.0889 -0.3925
 5056SOL    HW226631   2.400   0.139   8.513  0.1031  1.6747  0.7483
 5057SOL     OW26632   2.612   2.859   2.725  0.0021  0.1521 -0.5342
 5057SOL    HW126633   2.565   2.943   2.733  0.3451  0.2395  0.6130
 5057SOL    HW226634   2.574   2.807   2.796  1.2510 -0.5280 -0.3769
 5058SOL     OW26635   2.446   0.063  11.240  0.2824 -0.5495  0.4709
 5058SOL    HW126636   2.502   0.139  11.257  0.4321 -0.4828 -0.3450
 5058SOL    HW226637   2.411   0.057  11.329  0.8394  2.5417  0.9077
 5059SOL     OW26638   0.799   4.298   5.425 -0.2678 -0.4634 -0.6896
 5059SOL    HW126639   0.755   4.310   5.341  1.2848  0.7135 -1.3416
 5059SOL    HW226640   0.887   4.331   5.406 -1.5085  2.4416 -1.4313
 5060SOL     OW26641   1.187   0.140  10.153 -0.0111  0.4133 -0.4479
 5060SOL    HW126642   1.187   0.046  10.169 -0.9063 -0.0085 -2.8660
 5060SOL    HW226643   1.207   0.147  10.060  1.6290 -0.2797 -0.1407
 5061SOL     OW26644   2.993   1.024   2.705  0.2747 -0.2964 -0.0840
 5061SOL    HW126645   2.955   0.985   2.784  1.0648  0.4347  0.6669
 5061SOL    HW226646   2.950   1.109   2.715 -2.3234 -1.5492 -0.7944
 5062SOL     OW26647   0.575   0.512  14.552 -0.1995  0.3075 -0.3122
 5062SOL    HW126648   0.655   0.558  14.578 -0.4540 -0.0116  1.0556
 5062SOL    HW226649   0.613   0.431  14.518 -0.5289  0.1201 -0.2352
 5063SOL     OW26650   0.681   2.789   4.070 -0.0787  0.5441 -0.2377
 5063SOL    HW126651   0.727   2.713   4.104 -0.5022  0.2646 -0.2854
 5063SOL    HW226652   0.699   2.851   4.140 -1.3105  0.2716  0.3358
 5064SOL     OW26653   2.498   3.605  15.829  0.1865 -0.1202 -0.3817
 5064SOL    HW126654   2.470   3.545  15.759  1.9397 -0.1810 -1.0384
 5064SOL    HW226655   2.484   3.546  15.903 -2.0488  2.5614  1.3212
 5065SOL     OW26656   2.209   0.127  10.480  0.0899  0.0455 -0.1135
 5065SOL    HW126657   2.195   0.033  10.478  1.1363 -0.1283  0.5106
 5065SOL    HW226658   2.208   0.134  10.575 -1.1389  0.2718 -0.1461
 5066SOL     OW26659   0.801   4.619   8.439  0.2109  0.3545 -0.4247
 5066SOL    HW126660   0.832   4.534   8.469  1.1416  1.2644  1.1974
 5066SOL    HW226661   0.874   4.670   8.476  2.9268 -3.2565 -0.7663
 5067SOL     OW26662   1.374   2.818  11.724  0.2161 -0.1552  0.4109
 5067SOL    HW126663   1.339   2.781  11.805 -1.1788  3.8678  1.6575
 5067SOL    HW226664   1.311   2.778  11.664  0.7507 -0.6894  0.1940
 5068SOL     OW26665   0.811   2.376   1.377 -0.1217  0.2558 -0.0567
 5068SOL    HW126666   0.857   2.317   1.317  1.3000  2.1280 -0.8225
 5068SOL    HW226667   0.765   2.311   1.430 -0.6054 -0.0758 -0.8854
 5069SOL     OW26668   4.117   1.155   4.892 -0.3609  0.6188  0.3152
 5069SOL    HW126669   4.198   1.193   4.928  0.4415 -0.6811 -0.1264
 5069SOL    HW226670   4.106   1.211   4.815  0.7569  0.1883 -0.1540
 5070SOL     OW26671   4.091   2.027   3.250 -0.0922  0.3107 -0.4066
 5070SOL    HW126672   4.028   2.066   3.311  0.3949  0.2786  0.1208
 5070SOL    HW226673   4.134   2.104   3.212  0.6310  0.2480  0.2923
 5071SOL     OW26674   4.663   1.402  13.198  0.1851  0.3467  0.0274
 5071SOL    HW126675   4.662   1.332  13.133 -1.3182  0.0354  0.3814
 5071SOL    HW226676   4.570   1.417  13.214  0.4657  2.4513 -0.3942
 5072SOL     OW26677   4.127   4.147   3.088  0.4522 -0.2468  0.0692
 5072SOL    HW126678   4.118   4.230   3.041 -0.5171 -0.1649  0.3945
 5072SOL    HW226679   4.041   4.112   3.064 -0.7069  2.3097  0.5493
 5073SOL     OW26680   0.364   2.203  12.242 -0.0064 -0.3056  0.1391
 5073SOL    HW126681   0.401   2.157  12.167  0.4585 -0.4030  0.4282
 5073SOL    HW226682   0.405   2.289  12.241 -0.8384  0.1178  1.5332
 5074SOL     OW26683   2.922   4.516   4.114 -0.0769 -0.3977 -0.0399
 5074SOL    HW126684   2.830   4.539   4.124 -0.2632 -1.5303  0.7690
 5074SOL    HW226685   2.918   4.429   4.152  0.0052 -1.7298 -3.0769
 5075SOL     OW26686   4.090   4.218   7.550 -0.0613 -0.2025  0.1155
 5075SOL    HW126687   4.151   4.223   7.477 -1.0481  0.7242 -0.6492
 5075SOL    HW226688   4.021   4.161   7.517  1.9014 -0.4146 -3.6332
 5076SOL     OW26689   3.846   2.013   8.058 -0.3884 -0.1081 -0.0703
 5076SOL    HW126690   3.871   2.089   8.110  2.8442 -1.3329  0.1787
 5076SOL    HW226691   3.906   2.007   7.983  0.0204  0.9776  0.1648
 5077SOL     OW26692   2.946   3.099   4.519 -0.0990 -0.6760  0.3837
 5077SOL    HW126693   2.947   3.084   4.425 -1.1694  0.1553  0.2436
 5077SOL    HW226694   2.957   3.006   4.541  3.2822 -0.1029  1.1392
 5078SOL     OW26695   4.512   3.470   6.638 -0.3403  0.1570 -0.0190
 5078SOL    HW126696   4.417   3.463   6.632 -0.6493  2.8033  1.9869
 5078SOL    HW226697   4.509   3.566   6.635 -0.1758  0.0982 -1.7955
 5079SOL     OW26698   2.602   3.562  17.017  0.1207  0.3135 -0.1346
 5079SOL    HW126699   2.645   3.629  17.069  1.5247 -1.6473  1.2226
 5079SOL    HW226700   2.610   3.592  16.926 -2.2253 -1.6265 -1.0032
 5080SOL     OW26701   2.754   1.613   2.518  0.7188 -0.1635 -0.5384
 5080SOL    HW126702   2.677   1.561   2.498 -0.1729  0.0676  2.3005
 5080SOL    HW226703   2.723   1.679   2.581 -0.5750 -0.6272 -0.6904
 5081SOL     OW26704   4.315   2.725   4.484  0.1987  0.2445  0.2458
 5081SOL    HW126705   4.282   2.737   4.395  0.0605  0.2191  0.2947
 5081SOL    HW226706   4.233   2.727   4.532  1.1368 -0.0825  1.8761
 5082SOL     OW26707   4.526   0.150   7.048  0.1392 -0.0214  0.3268
 5082SOL    HW126708   4.586   0.077   7.031  0.2278  0.0647  0.2725
 5082SOL    HW226709   4.557   0.205   7.120  0.8538 -0.6379  0.4962
 5083SOL     OW26710   2.923   3.073  10.312 -0.0222  0.1127 -0.0414
 5083SOL    HW126711   2.907   3.022  10.391 -0.0738  1.3960  0.7709
 5083SOL    HW226712   2.997   3.125  10.343  0.2870  0.3916 -1.2258
 5084SOL     OW26713   1.179   3.891   1.995 -0.2587 -1.0184  0.0228
 5084SOL    HW126714   1.125   3.817   2.021 -2.2974  0.5822  0.3193
 5084SOL    HW226715   1.268   3.859   2.010  1.3481  3.5092  0.1849
 5085SOL     OW26716   1.354   1.117   8.653  0.9606  0.2865 -0.3566
 5085SOL    HW126717   1.396   1.201   8.673 -2.0816  1.8075 -0.3676
 5085SOL    HW226718   1.328   1.083   8.738  1.9874 -0.5899 -0.4023
 5086SOL     OW26719   3.790   1.972  14.793 -0.2626  0.1744 -0.0128
 5086SOL    HW126720   3.725   1.902  14.797 -0.1711 -0.0860 -3.0038
 5086SOL    HW226721   3.863   1.924  14.755  0.3283  0.1670  1.1109
 5087SOL     OW26722   1.045   0.977   6.746  0.3779 -0.1969  0.2456
 5087SOL    HW126723   0.951   0.997   6.740  0.5587  0.6490  0.2726
 5087SOL    HW226724   1.083   1.018   6.668 -0.2181 -0.6816 -0.3010
 5088SOL     OW26725   0.697   4.074   2.860 -0.2242  0.0899 -0.0654
 5088SOL    HW126726   0.619   4.019   2.873 -0.5215  0.1602 -1.5663
 5088SOL    HW226727   0.768   4.010   2.863  0.4134  0.7472 -1.0083
 5089SOL     OW26728   3.283   1.352   6.400 -0.4009  0.6828  0.2818
 5089SOL    HW126729   3.286   1.348   6.305  0.3683 -0.3099  0.3557
 5089SOL    HW226730   3.262   1.263   6.426  0.0255 -0.2440 -2.5840
 5090SOL     OW26731   4.345   2.004  12.142 -0.3538 -0.0586  0.7009
 5090SOL    HW126732   4.342   1.966  12.054  0.0428  1.6456 -0.0462
 5090SOL    HW226733   4.435   2.033  12.150 -1.2818  2.2248  2.9174
 5091SOL     OW26734   1.612   1.637  12.327  0.0296 -0.2282  0.3964
 5091SOL    HW126735   1.597   1.721  12.283  0.6918  0.8630  2.2224
 5091SOL    HW226736   1.585   1.579  12.256 -1.5125 -0.7043  1.3652
 5092SOL     OW26737   2.413   4.104   8.945 -0.0556 -0.3123 -0.3378
 5092SOL    HW126738   2.452   4.175   8.893 -0.1449  0.4090  0.5643
 5092SOL    HW226739   2.490   4.079   8.997  0.4738  1.2732 -0.3359
 5093SOL     OW26740   1.740   4.543   5.034  0.4642  0.5636 -0.1714
 5093SOL    HW126741   1.669   4.545   4.970 -0.3244 -0.2083  0.6763
 5093SOL    HW226742   1.692   4.564   5.114  1.0847 -0.4472  0.4777
 5094SOL     OW26743   0.987   0.862   7.460 -0.1591  0.4258  0.5372
 5094SOL    HW126744   0.946   0.943   7.490 -2.1392  1.4519 -4.9508
 5094SOL    HW226745   1.060   0.906   7.416  0.9110 -1.1698  0.7200
 5095SOL     OW26746   0.870   0.557   3.172 -0.4268  0.3076 -0.2474
 5095SOL    HW126747   0.859   0.649   3.197  1.8507  0.0909  1.5571
 5095SOL    HW226748   0.799   0.522   3.225 -1.0708  2.1490  0.0844
 5096SOL     OW26749   1.134   1.559  10.924 -0.3957  0.1137  0.1207
 5096SOL    HW126750   1.227   1.577  10.908 -0.2802 -0.8589 -0.2796
 5096SOL    HW226751   1.126   1.572  11.019 -1.1619 -2.1780  0.3715
 5097SOL     OW26752   1.833   3.382  10.847  0.2128 -0.0556  0.2168
 5097SOL    HW126753   1.812   3.289  10.841  1.9667 -0.2682 -2.7585
 5097SOL    HW226754   1.807   3.400  10.757  0.8368 -0.4505 -0.0435
 5098SOL     OW26755   3.286   0.254   9.361 -0.2453 -0.2648  0.0294
 5098SOL    HW126756   3.199   0.232   9.329 -0.6116  0.1473  0.7418
 5098SOL    HW226757   3.274   0.338   9.406  0.6733  0.7343 -1.5713
 5099SOL     OW26758   1.762   2.509   4.833  0.2298 -0.3149  0.3149
 5099SOL    HW126759   1.747   2.501   4.927 -2.7136 -0.9260 -0.2155
 5099SOL    HW226760   1.841   2.563   4.839 -0.8107  1.2607 -0.3810
 5100SOL     OW26761   1.301   4.651   4.266 -0.1335  0.3081  0.0090
 5100SOL    HW126762   1.222   4.637   4.214  0.4066  1.0327 -1.0037
 5100SOL    HW226763   1.330   4.563   4.286 -2.7612 -1.3240 -3.3869
 5101SOL     OW26764   1.645   2.250   4.102 -0.2616  0.6144  0.5931
 5101SOL    HW126765   1.695   2.291   4.172  1.1042 -2.7996  1.6133
 5101SOL    HW226766   1.671   2.158   4.110  2.9034  1.4138 -0.7073
 5102SOL     OW26767   1.070   1.460   0.429 -0.7908  0.5348  0.1896
 5102SOL    HW126768   1.045   1.508   0.349 -1.0115  0.4919  0.2314
 5102SOL    HW226769   1.008   1.500   0.490 -0.1744 -0.9192  1.7529
 5103SOL     OW26770   3.278   1.528  11.200 -0.5077  0.0981  0.2594
 5103SOL    HW126771   3.251   1.495  11.285 -2.1200  1.0835  0.1423
 5103SOL    HW226772   3.365   1.489  11.194 -0.8461 -0.3786 -1.6448
 5104SOL     OW26773   2.239   0.991   4.427 -0.2426  0.4398  0.6233
 5104SOL    HW126774   2.180   0.938   4.373  0.8835  0.2122 -0.3920
 5104SOL    HW226775   2.198   0.983   4.513  3.2839  2.8093  2.5209
 5105SOL     OW26776   1.668   1.675   6.457  0.1075 -0.0201 -0.4702
 5105SOL    HW126777   1.723   1.741   6.414 -1.6095  1.3574 -0.5511
 5105SOL    HW226778   1.724   1.598   6.452 -0.7580 -0.8209  2.3504
 5106SOL     OW26779   0.869   4.042   4.464 -0.3248  0.3496 -0.0421
 5106SOL    HW126780   0.880   3.949   4.484 -2.3120  0.2860  0.7487
 5106SOL    HW226781   0.850   4.027   4.371  2.9951 -1.1534 -0.5039
 5107SOL     OW26782   0.075   2.057   0.969 -0.2892 -0.0465 -0.5537
 5107SOL    HW126783   0.165   2.052   1.001 -1.1400 -2.9400  1.4904
 5107SOL    HW226784   0.065   1.966   0.941 -1.8758  0.7197 -2.4948
 5108SOL     OW26785   1.531   4.660  10.026 -0.4628  0.3063 -0.1544
 5108SOL    HW126786   1.470   4.714   9.975 -0.9729 -0.2842 -0.1763
 5108SOL    HW226787   1.475   4.582  10.039  0.4979 -0.5778 -1.4166
 5109SOL     OW26788   3.065   1.046   5.458 -0.3708 -0.1678 -0.9167
 5109SOL    HW126789   3.143   1.100   5.443 -0.6982  1.1539  2.0398
 5109SOL    HW226790   3.012   1.099   5.517  0.8052 -1.9298  1.7125
 5110SOL     OW26791   1.264   1.482   8.454  0.7657  0.2386  0.2298
 5110SOL    HW126792   1.325   1.414   8.424  0.4501  0.1210 -0.1380
 5110SOL    HW226793   1.205   1.435   8.514  1.3427  1.2490  1.6079
 5111SOL     OW26794   4.559   1.095  14.979  0.3584  0.2482 -0.1724
 5111SOL    HW126795   4.615   1.116  14.904  0.1377  0.1476 -0.3647
 5111SOL    HW226796   4.589   1.007  15.002  1.8259  0.8333  0.1640
 5112SOL     OW26797   3.236   4.157   2.992  0.0509  0.0735  0.0304
 5112SOL    HW126798   3.261   4.065   2.989  0.9940  0.3598 -0.7317
 5112SOL    HW226799   3.166   4.150   3.057  0.6442  2.1642  0.9019
 5113SOL     OW26800   1.312   0.387   1.697 -0.2884 -0.0646 -0.1895
 5113SOL    HW126801   1.354   0.341   1.769 -0.5010 -1.7899 -1.1485
 5113SOL    HW226802   1.274   0.458   1.748  0.7899  0.9929 -0.8468
 5114SOL     OW26803   1.306   4.447  11.439 -0.5228  0.0697 -0.2545
 5114SOL    HW126804   1.303   4.482  11.350 -0.5633  0.3778 -0.1331
 5114SOL    HW226805   1.217   4.457  11.472 -1.3432  0.8467 -2.7779
 5115SOL     OW26806   1.118   3.731  10.895  0.0545  0.0054  0.1656
 5115SOL    HW126807   1.110   3.635  10.887 -1.9610  0.1421  0.4334
 5115SOL    HW226808   1.201   3.759  10.932 -1.5981  4.0293  0.7293
 5116SOL     OW26809   0.563   0.194  10.225  0.1272  0.0200 -0.0926
 5116SOL    HW126810   0.570   0.288  10.245  1.4848  0.4256 -2.4620
 5116SOL    HW226811   0.643   0.157  10.260  0.1393  0.5428  0.4365
 5117SOL     OW26812   0.444   1.703   1.176  0.2414 -0.1683  0.5702
 5117SOL    HW126813   0.453   1.615   1.140  4.0018 -1.0571  3.6540
 5117SOL    HW226814   0.452   1.696   1.272 -2.2046 -0.0562  0.7897
 5118SOL     OW26815   3.081   1.607  10.505 -0.0037  0.3622  0.5157
 5118SOL    HW126816   3.006   1.632  10.558  0.1418 -2.0661  1.8640
 5118SOL    HW226817   3.118   1.539  10.561  2.5604  1.1880 -0.1530
 5119SOL     OW26818   1.539   3.196  15.230  0.5136  0.1511  0.3889
 5119SOL    HW126819   1.589   3.204  15.149 -0.2480 -2.6691 -0.3412
 5119SOL    HW226820   1.512   3.287  15.245 -0.4775  0.7033 -4.8426
 5120SOL     OW26821   0.908   1.101   7.514  0.2055 -0.0190 -0.0629
 5120SOL    HW126822   0.907   1.184   7.467 -0.1015  1.1158  1.9060
 5120SOL    HW226823   0.937   1.137   7.598 -0.4794  3.9622 -1.5041
 5121SOL     OW26824   0.393   2.235   5.460  0.2465 -0.5155 -1.0519
 5121SOL    HW126825   0.341   2.272   5.389  0.6976  0.5873 -0.8145
 5121SOL    HW226826   0.402   2.147   5.424  0.0799 -1.1501  0.4394
 5122SOL     OW26827   3.358   1.734  10.616 -0.0517  0.5060 -0.3521
 5122SOL    HW126828   3.358   1.647  10.656 -0.3035 -0.6420 -2.7938
 5122SOL    HW226829   3.305   1.729  10.536  1.9185  4.0350 -1.8824
 5123SOL     OW26830   2.188   4.269   9.088  0.1406 -0.3233  0.0491
 5123SOL    HW126831   2.185   4.324   9.009 -2.5609 -1.3028 -0.5325
 5123SOL    HW226832   2.211   4.183   9.053  0.1045 -1.0946  1.9131
 5124SOL     OW26833   3.279   0.370  11.908  0.0863  0.6074  0.2233
 5124SOL    HW126834   3.350   0.413  11.861 -0.9997  1.2494 -0.8133
 5124SOL    HW226835   3.330   0.341  11.984 -1.1122 -0.4997  0.6075
 5125SOL     OW26836   3.909   0.497   8.625  0.2286 -0.5447  0.1661
 5125SOL    HW126837   3.872   0.573   8.580 -0.4255 -0.4023  0.9565
 5125SOL    HW226838   4.000   0.522   8.643 -0.8465  1.2227  3.0564
 5126SOL     OW26839   0.988   0.522  10.295  0.3752  0.1779  0.3200
 5126SOL    HW126840   0.967   0.429  10.286 -0.2969  0.3419  0.1979
 5126SOL    HW226841   0.998   0.543  10.202 -2.3100  1.2184  0.2517
 5127SOL     OW26842   3.843   0.940   3.033  0.2929 -0.3658  0.4377
 5127SOL    HW126843   3.832   0.886   3.111 -1.1539 -0.9400 -0.1787
 5127SOL    HW226844   3.773   0.912   2.974 -0.9703  0.0687  1.7397
 5128SOL     OW26845   3.094   1.867  15.421  0.0072  0.4983 -0.3051
 5128SOL    HW126846   3.014   1.912  15.451 -0.8795 -1.1416 -0.2031
 5128SOL    HW226847   3.164   1.920  15.459 -2.0976  2.5221  0.8459
 5129SOL     OW26848   0.436   3.939   3.419 -0.1879  0.4948  0.1220
 5129SOL    HW126849   0.514   3.976   3.377  1.5314 -2.4337  0.7493
 5129SOL    HW226850   0.461   3.846   3.416  1.3497  0.8955  0.3610
 5130SOL     OW26851   2.648   2.106  10.695  0.8619  0.3112  0.3623
 5130SOL    HW126852   2.702   2.087  10.772  2.5596 -0.4912 -1.0159
 5130SOL    HW226853   2.560   2.084  10.728  1.8126 -3.2368  0.5870
 5131SOL     OW26854   1.849   0.377   2.871  0.2648 -0.3095 -0.4847
 5131SOL    HW126855   1.859   0.313   2.801  0.4871  0.2037 -0.9213
 5131SOL    HW226856   1.878   0.334   2.951 -0.6569 -1.2119 -0.6374
 5132SOL     OW26857   3.096   2.065   5.075  0.2197  0.0898  0.0070
 5132SOL    HW126858   3.161   2.129   5.044 -0.2146  0.4544 -0.1526
 5132SOL    HW226859   3.148   1.986   5.062 -0.7939 -0.5254 -0.3165
 5133SOL     OW26860   4.062   3.386  16.483  0.0097 -0.3481 -0.0870
 5133SOL    HW126861   4.089   3.475  16.507 -0.3270 -1.1410  3.1193
 5133SOL    HW226862   4.089   3.373  16.392 -1.4493 -2.4867 -0.2033
 5134SOL     OW26863   0.210   2.284  13.033 -0.0646 -0.3353  0.1016
 5134SOL    HW126864   0.224   2.327  12.949  0.9956 -0.6904  0.1018
 5134SOL    HW226865   0.199   2.357  13.094  2.0379  0.6601 -0.7047
 5135SOL     OW26866   1.126   2.235   8.539 -0.3529 -0.1832 -0.4687
 5135SOL    HW126867   1.180   2.159   8.562  1.4854  0.8500 -1.4461
 5135SOL    HW226868   1.063   2.238   8.612 -0.0923 -2.2800 -0.1329
 5136SOL     OW26869   1.435   1.099  15.207 -0.5965  0.3613 -0.7178
 5136SOL    HW126870   1.493   1.167  15.242 -0.8292 -0.2173  0.8182
 5136SOL    HW226871   1.420   1.125  15.116  2.1439  2.1220 -0.6871
 5137SOL     OW26872   0.657   4.105  15.038  0.0649 -0.6547  0.3165
 5137SOL    HW126873   0.729   4.121  14.977  0.0392 -4.3409 -0.6655
 5137SOL    HW226874   0.705   4.056  15.105 -0.3162  0.3570  1.3383
 5138SOL     OW26875   1.449   2.834   4.636  0.0518 -0.3386  0.0784
 5138SOL    HW126876   1.535   2.871   4.617 -1.5887  2.3346 -2.1084
 5138SOL    HW226877   1.421   2.836   4.545  1.2504  0.5935 -0.2735
 5139SOL     OW26878   4.574   4.702   4.738  0.2001  0.2022 -0.3422
 5139SOL    HW126879   4.484   4.702   4.706 -0.5812  0.6018  1.8188
 5139SOL    HW226880   4.595   0.070   4.742 -0.1660  0.2746 -0.0823
 5140SOL     OW26881   1.035   2.574   1.804  0.4189  0.2063 -0.3395
 5140SOL    HW126882   0.940   2.565   1.812  0.3489  0.9015 -0.4031
 5140SOL    HW226883   1.062   2.553   1.894  2.0761  0.8308 -0.6924
 5141SOL     OW26884   3.940   4.437   8.752  0.7103 -0.0067  0.1289
 5141SOL    HW126885   3.900   4.380   8.818  0.4878  1.4154  1.2223
 5141SOL    HW226886   3.939   4.371   8.682  2.3994  1.2491 -1.0838
 5142SOL     OW26887   3.548   1.822   1.473  0.4476  0.3758 -0.9587
 5142SOL    HW126888   3.632   1.776   1.479 -1.5997 -3.3053 -0.1468
 5142SOL    HW226889   3.491   1.750   1.501 -1.4297  3.0610  2.0765
 5143SOL     OW26890   1.579   0.334   3.154  0.2381  0.4379 -1.0422
 5143SOL    HW126891   1.654   0.375   3.196  0.1862  1.3754 -1.8609
 5143SOL    HW226892   1.583   0.379   3.069  3.0396  1.3646 -0.4134
 5144SOL     OW26893   1.180   1.603   6.278  0.0850 -0.1266  0.0443
 5144SOL    HW126894   1.203   1.690   6.312 -1.6784  0.5028 -0.3834
 5144SOL    HW226895   1.093   1.624   6.244 -1.0486 -1.0147  2.4381
 5145SOL     OW26896   1.992   1.696   3.637 -0.1494  0.1732 -0.9163
 5145SOL    HW126897   2.047   1.629   3.677  0.5589  1.0122 -0.4847
 5145SOL    HW226898   2.061   1.761   3.624  0.5603 -0.2578  0.6775
 5146SOL     OW26899   2.572   0.369  12.893 -0.4662  0.0383 -0.2865
 5146SOL    HW126900   2.609   0.285  12.917  1.8577  1.3297  0.6371
 5146SOL    HW226901   2.494   0.371  12.949  0.2957  0.6521  0.7575
 5147SOL     OW26902   3.697   4.339   7.552 -0.5353  0.3012 -0.1172
 5147SOL    HW126903   3.618   4.392   7.565 -0.0900  0.5553  1.4986
 5147SOL    HW226904   3.655   4.254   7.562 -1.0573  0.7204  1.3397
 5148SOL     OW26905   1.418   1.205   1.787  0.8528 -0.5383  0.4564
 5148SOL    HW126906   1.349   1.184   1.724  2.1695 -0.7996 -0.9137
 5148SOL    HW226907   1.463   1.121   1.792  2.6419  0.4304  0.8955
 5149SOL     OW26908   2.791   0.661  16.499  0.0940 -0.1340 -0.5890
 5149SOL    HW126909   2.734   0.587  16.521  1.5295 -1.1786 -0.4216
 5149SOL    HW226910   2.872   0.626  16.534  0.3468  0.0742 -0.9647
 5150SOL     OW26911   4.459   1.352   7.777  0.3151 -0.1334 -0.0279
 5150SOL    HW126912   4.492   1.262   7.789 -0.3183 -0.6474 -2.2608
 5150SOL    HW226913   4.365   1.341   7.786  0.3247  1.5260  2.3644
 5151SOL     OW26914   2.297   3.712   7.101  0.3993  0.0329 -0.7618
 5151SOL    HW126915   2.300   3.797   7.143 -2.2174 -0.0930 -0.2949
 5151SOL    HW226916   2.207   3.695   7.072  0.8965  1.0078 -2.8914
 5152SOL     OW26917   2.258   3.172   4.633  0.0398  0.9369 -0.1452
 5152SOL    HW126918   2.281   3.219   4.712  1.7732  0.2047 -0.2061
 5152SOL    HW226919   2.169   3.203   4.615 -0.9643 -0.6416  2.1523
 5153SOL     OW26920   2.417   1.063   0.648  0.5790 -0.0158 -0.3066
 5153SOL    HW126921   2.336   1.088   0.603 -0.3928 -1.0311  0.8754
 5153SOL    HW226922   2.407   0.969   0.631 -1.6788  0.1943 -0.0664
 5154SOL     OW26923   1.524   4.601  11.557 -0.0650 -0.0288  0.2136
 5154SOL    HW126924   1.446   4.547  11.540  0.8063 -1.0444 -0.5842
 5154SOL    HW226925   1.496   4.644  11.637  0.5517  0.5845  0.1019
 5155SOL     OW26926   0.443   3.426  10.171  0.2358 -0.5712  0.1171
 5155SOL    HW126927   0.428   3.484  10.096  0.5977 -1.4716 -0.6488
 5155SOL    HW226928   0.411   3.489  10.236  0.4810  0.9826 -1.2536
 5156SOL     OW26929   1.734   0.353  17.230  0.1812 -0.1110 -0.2348
 5156SOL    HW126930   1.692   0.291  17.171  0.0108  0.5275 -0.7835
 5156SOL    HW226931   1.827   0.347  17.211 -0.6241  0.2311 -4.3515
 5157SOL     OW26932   0.007   4.689   3.408 -0.0375  0.2434 -0.6257
 5157SOL    HW126933   4.689   4.663   3.328 -0.4644 -2.7612  0.6082
 5157SOL    HW226934   4.662   4.714   3.467  0.6598 -1.2337  0.8282
 5158SOL     OW26935   4.178   2.355   6.072  0.4284  0.0742  0.5985
 5158SOL    HW126936   4.199   2.281   6.014  0.5903  0.1309  0.5856
 5158SOL    HW226937   4.096   2.322   6.108 -0.3238  0.6556 -0.5773
 5159SOL     OW26938   2.375   0.519   2.562 -0.2248  0.4943  0.0284
 5159SOL    HW126939   2.334   0.445   2.517  1.5046 -0.5277  0.1269
 5159SOL    HW226940   2.298   0.547   2.610 -0.2971 -0.0738  0.2378
 5160SOL     OW26941   3.522   1.091   7.061  0.3900 -0.3869  0.2873
 5160SOL    HW126942   3.525   1.098   6.966 -1.3260 -1.1140  0.1878
 5160SOL    HW226943   3.617   1.098   7.072  0.4123 -0.3208  0.0552
 5161SOL     OW26944   4.218   4.062  13.829  0.2024 -0.0570 -0.2140
 5161SOL    HW126945   4.252   3.973  13.823  0.3275  0.0153 -0.5853
 5161SOL    HW226946   4.239   4.085  13.919  0.1923 -1.3334  0.1186
 5162SOL     OW26947   1.710   0.485  16.431 -0.1847 -0.8335  0.3667
 5162SOL    HW126948   1.747   0.557  16.482 -0.0942  0.6675 -1.7786
 5162SOL    HW226949   1.618   0.503  16.451  0.0363 -1.9443  2.3718
 5163SOL     OW26950   0.393   1.018   8.354  0.2499  0.0637 -0.5327
 5163SOL    HW126951   0.446   1.076   8.299 -2.1926  1.7715 -1.0499
 5163SOL    HW226952   0.460   0.951   8.371  1.8878  1.6495 -0.6488
 5164SOL     OW26953   0.338   4.494   4.305  0.0525 -0.1683  0.2421
 5164SOL    HW126954   0.405   4.553   4.269 -0.4231  0.1800 -0.0627
 5164SOL    HW226955   0.381   4.408   4.306 -0.4554 -0.4382 -0.9413
 5165SOL     OW26956   0.297   4.228   3.120 -0.0872  0.3777 -0.4806
 5165SOL    HW126957   0.332   4.230   3.209  0.5801 -0.6634 -0.7220
 5165SOL    HW226958   0.259   4.316   3.110 -0.7233  0.1075 -0.4164
 5166SOL     OW26959   2.043   0.997  11.002  0.0071 -0.6786 -0.2508
 5166SOL    HW126960   2.057   1.074  10.946  1.3792  1.4375  2.9790
 5166SOL    HW226961   2.131   0.979  11.035 -0.7709 -1.6452  1.2986
 5167SOL     OW26962   1.313   0.053   9.900  0.2034 -0.0375 -0.1504
 5167SOL    HW126963   1.228   0.052   9.857 -0.5578 -1.4178  1.4115
 5167SOL    HW226964   1.374   0.103   9.846  1.3415 -0.7555  0.4521
 5168SOL     OW26965   1.851   2.425   9.355 -0.1711 -0.3738  0.1674
 5168SOL    HW126966   1.882   2.338   9.330 -2.2680 -1.2628  0.6991
 5168SOL    HW226967   1.925   2.464   9.402  0.9988 -0.7026 -1.3765
 5169SOL     OW26968   1.872   3.727   2.252  0.1799  0.0871 -0.2493
 5169SOL    HW126969   1.923   3.781   2.192  0.1382 -0.9230 -1.1919
 5169SOL    HW226970   1.933   3.659   2.281 -2.0234 -0.8996  2.1066
 5170SOL     OW26971   0.706   2.094   1.927  0.9290  0.1567 -0.4073
 5170SOL    HW126972   0.720   2.177   1.882  0.9015  0.3963  0.0267
 5170SOL    HW226973   0.793   2.066   1.956  0.9050 -0.9799 -1.4551
 5171SOL     OW26974   0.181   0.007   8.522 -0.1462 -0.1485  0.6005
 5171SOL    HW126975   0.179   4.722   8.617  0.9061 -1.3047  0.4922
 5171SOL    HW226976   0.088   0.016   8.504  0.4787  1.3221 -1.8118
 5172SOL     OW26977   1.335   2.344   4.634 -0.2283  0.5373 -0.1919
 5172SOL    HW126978   1.348   2.410   4.567  2.2213  0.3295  0.1073
 5172SOL    HW226979   1.384   2.383   4.707 -1.4901  0.2455  0.8290
 5173SOL     OW26980   3.212   2.361   3.280 -0.3241  0.1537 -0.0803
 5173SOL    HW126981   3.255   2.283   3.244 -1.3690 -0.1343 -0.6877
 5173SOL    HW226982   3.204   2.404   3.195 -0.5988 -0.2513 -0.2533
 5174SOL     OW26983   4.064   1.183  15.172 -0.0258 -0.5893  0.4441
 5174SOL    HW126984   4.097   1.187  15.262  0.4555 -1.1857  0.2953
 5174SOL    HW226985   4.119   1.242  15.119 -1.8914  0.4458 -0.3428
 5175SOL     OW26986   1.031   1.138   0.028 -0.1164  0.4441 -0.2234
 5175SOL    HW126987   0.970   1.069   0.001  0.8052 -0.1036 -0.8854
 5175SOL    HW226988   0.995   1.163   0.113 -0.0055  1.4792 -0.4769
 5176SOL     OW26989   2.829   0.254   0.894  0.0819  0.0178 -0.1280
 5176SOL    HW126990   2.858   0.296   0.813 -0.6649  0.2066 -0.2877
 5176SOL    HW226991   2.736   0.273   0.904  0.6147  2.1067  0.7960
 5177SOL     OW26992   1.752   1.169  16.669 -0.0723  0.2108  0.2512
 5177SOL    HW126993   1.737   1.151  16.762 -0.5759 -1.5763 -0.1807
 5177SOL    HW226994   1.724   1.260  16.659 -2.2303 -0.7448 -2.0656
 5178SOL     OW26995   3.814   3.858   3.949 -0.2779  0.5231 -0.4788
 5178SOL    HW126996   3.847   3.816   3.869 -1.2510  0.2826 -0.7653
 5178SOL    HW226997   3.864   3.934   3.976 -1.3787  1.5266 -1.2293
 5179SOL     OW26998   0.632   3.211   4.850  0.0828  0.2967  0.4691
 5179SOL    HW126999   0.619   3.124   4.890  1.2807 -0.0867  0.0095
 5179SOL    HW227000   0.562   3.210   4.785  0.1578 -0.5488  0.3981
 5180SOL     OW27001   0.034   0.320  13.459  0.0779  0.5827 -0.3286
 5180SOL    HW127002   0.020   0.351  13.548  1.2065  0.2221 -0.0194
 5180SOL    HW227003   0.099   0.379  13.420  0.8106  1.3246  2.0441
 5181SOL     OW27004   4.343   1.170   3.264  0.5819  0.2272 -0.5019
 5181SOL    HW127005   4.434   1.140   3.264  1.0149  1.4576  1.7905
 5181SOL    HW227006   4.340   1.219   3.346  2.1318 -0.0700 -0.2699
 5182SOL     OW27007   3.113   1.500   6.195 -0.3196 -0.4512 -0.4268
 5182SOL    HW127008   3.192   1.447   6.180 -0.1890 -0.8400  1.6206
 5182SOL    HW227009   3.070   1.496   6.110  0.1053 -0.8059 -0.6252
 5183SOL     OW27010   2.633   3.037   7.672 -0.2133  0.5173 -0.4893
 5183SOL    HW127011   2.558   3.094   7.658 -2.1044 -1.6671  0.7986
 5183SOL    HW227012   2.639   3.051   7.767  0.8112 -4.2699  0.1632
 5184SOL     OW27013   1.584   4.454  10.796 -0.4573  0.1658 -0.0918
 5184SOL    HW127014   1.614   4.376  10.750 -1.2662  0.8515 -1.8189
 5184SOL    HW227015   1.613   4.432  10.884 -0.8862 -2.7303 -0.6900
 5185SOL     OW27016   0.665   3.127   8.388  0.2776  0.2072 -0.2869
 5185SOL    HW127017   0.701   3.125   8.299  3.0533  0.1993  0.8311
 5185SOL    HW227018   0.738   3.098   8.443  1.4854  1.6862 -1.1195
 5186SOL     OW27019   1.717   2.388  10.102  0.1785 -0.1876  0.1016
 5186SOL    HW127020   1.749   2.462  10.153 -1.2819 -0.3438  1.2613
 5186SOL    HW227021   1.766   2.393  10.020  1.0545 -2.3748  0.4942
 5187SOL     OW27022   2.388   0.919   8.060 -0.2182  0.6195  0.3704
 5187SOL    HW127023   2.320   0.856   8.039  0.6948  0.0282 -0.7828
 5187SOL    HW227024   2.463   0.862   8.047  1.3206  2.7086  0.0842
 5188SOL     OW27025   1.351   0.042   3.715  0.1883 -0.6298  0.3116
 5188SOL    HW127026   1.360   4.718   3.635  1.7162  0.9740 -0.5045
 5188SOL    HW227027   1.420   0.107   3.703  0.1683 -0.7137 -0.2536
 5189SOL     OW27028   0.711   0.714   2.718  0.1655 -0.7066 -0.0595
 5189SOL    HW127029   0.701   0.643   2.782 -1.0401 -1.0894 -0.6686
 5189SOL    HW227030   0.802   0.735   2.737 -0.8485  2.4572  1.1806
 5190SOL     OW27031   3.216   4.262   2.077  0.2034 -0.6384 -0.3303
 5190SOL    HW127032   3.292   4.245   2.132  0.4708 -0.9878 -0.7985
 5190SOL    HW227033   3.240   4.350   2.049  1.1225 -1.0926 -0.9662
 5191SOL     OW27034   0.274   1.917   4.818  0.1592  0.1272  0.1155
 5191SOL    HW127035   0.204   1.892   4.758 -0.6466  2.0421  0.2665
 5191SOL    HW227036   0.227   1.991   4.856  0.6471 -0.5776  2.0977
 5192SOL     OW27037   2.529   2.606   6.088 -0.3574  0.5884 -0.4616
 5192SOL    HW127038   2.529   2.583   5.995  1.7239  1.8530 -0.7569
 5192SOL    HW227039   2.447   2.655   6.091 -0.5745  0.2267 -0.4289
 5193SOL     OW27040   1.676   1.218  10.218  0.4116 -0.4114  0.1049
 5193SOL    HW127041   1.636   1.134  10.193 -1.2361  0.0333  1.2220
 5193SOL    HW227042   1.762   1.190  10.249  1.2311  1.1320 -0.8029
 5194SOL     OW27043   0.702   4.030  13.401  0.6655  0.1409 -0.7651
 5194SOL    HW127044   0.607   4.039  13.393  0.6335  1.8253  1.5058
 5194SOL    HW227045   0.723   3.988  13.317 -1.4498 -0.7294 -0.8598
 5195SOL     OW27046   3.101   4.069   7.005  0.5107 -0.0290  0.3764
 5195SOL    HW127047   3.049   4.010   7.059 -0.4332  0.7176  0.2826
 5195SOL    HW227048   3.160   4.118   7.063 -0.4610  0.9857  0.4978
 5196SOL     OW27049   0.872   2.432   7.175 -0.6972  0.6218  0.3022
 5196SOL    HW127050   0.852   2.478   7.094 -2.5156 -1.8784 -0.6500
 5196SOL    HW227051   0.812   2.359   7.162 -0.6155  0.1591  2.5010
 5197SOL     OW27052   0.411   3.491   5.023  0.0246  0.3940  0.0758
 5197SOL    HW127053   0.469   3.440   5.079  0.9979  0.5532 -0.7837
 5197SOL    HW227054   0.474   3.561   5.003  0.1406 -0.0994 -1.2889
 5198SOL     OW27055   0.852   2.334   2.838 -0.3821 -0.7139  0.5591
 5198SOL    HW127056   0.770   2.361   2.797 -0.9996 -0.1895  2.1312
 5198SOL    HW227057   0.908   2.370   2.769  0.5096 -1.7506  0.7470
 5199SOL     OW27058   2.782   3.577   9.927  0.2117 -0.1350  0.3614
 5199SOL    HW127059   2.811   3.488   9.946  1.6316  0.2177 -0.1516
 5199SOL    HW227060   2.833   3.621   9.995 -1.1562  2.0303  0.0244
 5200SOL     OW27061   2.057   3.383   6.959 -0.3044  0.6235  0.5750
 5200SOL    HW127062   2.129   3.362   7.019  0.3172 -2.2325 -1.1975
 5200SOL    HW227063   2.105   3.418   6.885  2.6955 -1.2256  1.6725
 5201SOL     OW27064   0.633   2.414   4.562  0.1753  0.5305 -0.2784
 5201SOL    HW127065   0.682   2.335   4.541 -2.0154 -0.5439 -1.2858
 5201SOL    HW227066   0.630   2.437   4.469 -0.3602 -2.5783 -1.0373
 5202SOL     OW27067   0.646   0.631   8.528 -0.1995 -1.0625  0.3710
 5202SOL    HW127068   0.716   0.663   8.585 -0.4673 -0.5491  0.4106
 5202SOL    HW227069   0.671   0.539   8.512  0.2001 -0.9308  0.2312
 5203SOL     OW27070   0.805   1.619   7.455 -0.2237  0.3701  0.1618
 5203SOL    HW127071   0.860   1.695   7.434 -0.1571  0.1951 -0.3195
 5203SOL    HW227072   0.845   1.593   7.538  1.3445  1.4239 -0.2569
 5204SOL     OW27073   1.715   4.063   4.782  0.1273 -0.1048  0.3751
 5204SOL    HW127074   1.759   4.143   4.754 -0.5147 -0.1642 -0.7824
 5204SOL    HW227075   1.788   4.001   4.780 -0.5067 -0.8694  0.6938
 5205SOL     OW27076   1.885   1.908  11.685  0.6953 -0.4115  0.2273
 5205SOL    HW127077   1.852   1.997  11.695  1.4886 -0.1798  0.8507
 5205SOL    HW227078   1.813   1.848  11.705  0.0728  0.1506 -0.3527
 5206SOL     OW27079   2.564   0.278   9.027 -0.1684 -0.2506  0.2782
 5206SOL    HW127080   2.617   0.300   9.103 -2.5290  0.8153  1.6058
 5206SOL    HW227081   2.577   0.183   9.033 -1.6244 -0.4462  0.4490
 5207SOL     OW27082   1.475   4.622  12.335  0.7175 -0.2946  0.1569
 5207SOL    HW127083   1.545   4.604  12.398 -0.9332 -1.2644  1.7179
 5207SOL    HW227084   1.499   4.708  12.301  1.4121 -0.0753  1.2222
 5208SOL     OW27085   1.012   1.195   8.256 -0.9209  0.0272  0.7729
 5208SOL    HW127086   0.985   1.104   8.252 -0.7457 -0.0919  2.1618
 5208SOL    HW227087   1.095   1.192   8.303 -0.0671  1.1543 -0.6983
 5209SOL     OW27088   0.089   2.164  12.321 -0.3489 -0.5604  0.3364
 5209SOL    HW127089   0.148   2.218  12.268 -0.0798 -2.4674 -1.3399
 5209SOL    HW227090   0.153   2.100  12.353 -0.4718 -0.5866  0.5321
 5210SOL     OW27091   0.304   1.079  10.752 -0.2500 -0.5060 -0.5289
 5210SOL    HW127092   0.370   1.068  10.820 -1.8967  1.6905  1.4293
 5210SOL    HW227093   0.342   1.104  10.668  0.1040  0.0038 -0.2178
 5211SOL     OW27094   4.678   0.777   2.082 -0.1199  0.0342 -0.3030
 5211SOL    HW127095   4.630   0.734   2.011  0.1426 -0.0050 -0.4549
 5211SOL    HW227096   4.651   0.869   2.075 -0.0190  0.0799 -0.0893
 5212SOL     OW27097   0.176   1.564   6.411  0.2858  0.0812  0.2288
 5212SOL    HW127098   0.122   1.533   6.483  2.3114 -2.6666  0.5841
 5212SOL    HW227099   0.247   1.500   6.418  1.3063  1.1589 -0.2385
 5213SOL     OW27100   4.139   1.014   2.237  0.3001  0.2999  0.9270
 5213SOL    HW127101   4.112   1.074   2.306 -0.2614 -0.8272  1.6885
 5213SOL    HW227102   4.148   0.936   2.292  0.5347  0.0338  0.5154
 5214SOL     OW27103   0.501   2.622   6.023 -0.4395 -1.0275 -0.0036
 5214SOL    HW127104   0.512   2.574   6.105 -2.4519 -1.9414 -0.2654
 5214SOL    HW227105   0.458   2.553   5.972 -0.9495 -0.6784 -0.0418
 5215SOL     OW27106   1.174   1.722   7.025  0.4637  0.0367  0.4789
 5215SOL    HW127107   1.184   1.699   6.933 -1.1234  1.1198  0.0413
 5215SOL    HW227108   1.148   1.812   7.008 -2.0644 -0.3342  2.4372
 5216SOL     OW27109   3.535   0.127   0.855 -0.1603  0.6739 -0.2705
 5216SOL    HW127110   3.496   0.157   0.773 -1.0753 -1.7685 -0.7321
 5216SOL    HW227111   3.597   0.197   0.872  0.7508  0.0960 -1.2476
 5217SOL     OW27112   0.958   4.396   3.995  0.0387 -0.1350 -0.7716
 5217SOL    HW127113   0.870   4.359   4.003  0.0396  0.5748  2.3522
 5217SOL    HW227114   0.973   4.396   3.900  4.3607 -3.3518 -0.0650
 5218SOL     OW27115   1.235   4.468   7.135  0.0400 -0.3440 -0.0175
 5218SOL    HW127116   1.326   4.469   7.164  0.7579 -0.2546 -2.2466
 5218SOL    HW227117   1.204   4.432   7.218  1.3847 -1.1407  0.1286
 5219SOL     OW27118   2.775   0.682  15.671  0.1591 -0.0545 -0.1765
 5219SOL    HW127119   2.832   0.713  15.600 -2.9417  1.4913 -2.0307
 5219SOL    HW227120   2.719   0.760  15.671 -0.1789 -0.2971  0.8566
 5220SOL     OW27121   1.164   0.680   5.148 -0.8322 -0.2825  0.6086
 5220SOL    HW127122   1.196   0.761   5.186 -0.0760 -0.5653  0.5763
 5220SOL    HW227123   1.242   0.633   5.119 -0.1808  0.3481  1.3463
 5221SOL     OW27124   0.393   0.431   9.786 -0.7233 -0.4356  0.0582
 5221SOL    HW127125   0.414   0.347   9.828 -3.6949 -1.4113 -0.4185
 5221SOL    HW227126   0.344   0.392   9.714  0.4233  0.7197 -1.3553
 5222SOL     OW27127   4.094   2.078   7.424 -0.1955 -0.5685  0.2931
 5222SOL    HW127128   4.180   2.038   7.408  0.0890  0.3250 -0.4321
 5222SOL    HW227129   4.046   2.040   7.351 -3.0160  0.0879  1.8364
 5223SOL     OW27130   4.202   1.222   7.765  0.1068  0.1911 -0.1890
 5223SOL    HW127131   4.170   1.149   7.711 -1.7646  0.5949  0.3672
 5223SOL    HW227132   4.119   1.254   7.800 -0.9141 -0.5270 -1.9279
 5224SOL     OW27133   2.388   0.386  13.069  0.2356 -0.0419  0.3434
 5224SOL    HW127134   2.303   0.344  13.054  0.4970 -0.5133  0.1620
 5224SOL    HW227135   2.361   0.472  13.101 -1.4382 -0.3807 -0.1411
 5225SOL     OW27136   1.418   0.748   3.239 -0.9113  0.5956  0.1589
 5225SOL    HW127137   1.470   0.827   3.256  0.2416 -0.4718  1.6234
 5225SOL    HW227138   1.463   0.684   3.295 -2.5510 -0.4820  0.2382
 5226SOL     OW27139   0.185   0.039   8.205  0.2126  0.6549 -0.1225
 5226SOL    HW127140   0.244   0.026   8.279  2.0653  0.6943 -1.6097
 5226SOL    HW227141   0.112   4.709   8.232  0.2088 -0.6128 -2.7506
 5227SOL     OW27142   3.251   4.486  15.395  0.5420  0.0350 -0.0345
 5227SOL    HW127143   3.338   4.464  15.361 -0.1933  0.8411 -2.4442
 5227SOL    HW227144   3.256   4.500  15.490 -1.2097  0.0600  0.0508
 5228SOL     OW27145   1.051   4.043   8.615 -0.5093 -0.5948 -0.5611
 5228SOL    HW127146   1.006   4.028   8.698 -0.0959 -0.6476 -0.3473
 5228SOL    HW227147   0.999   3.992   8.552 -1.7172  0.7485 -0.6502
 5229SOL     OW27148   0.715   4.678  15.546 -0.0716 -0.4750  0.0248
 5229SOL    HW127149   0.667   4.615  15.600 -1.3630  0.0779 -0.4835
 5229SOL    HW227150   0.640   4.722  15.506  1.2493  2.8845  1.1806
 5230SOL     OW27151   0.186   3.638  13.071  0.3991  0.5104  0.2502
 5230SOL    HW127152   0.184   3.576  12.998 -1.9498 -0.1222  0.8632
 5230SOL    HW227153   0.270   3.607  13.106 -0.7292  0.2994  2.7985
 5231SOL     OW27154   0.752   0.329   6.798  0.0905 -0.0131  0.1787
 5231SOL    HW127155   0.757   0.345   6.703  0.2303 -0.1861  0.1561
 5231SOL    HW227156   0.677   0.387   6.815 -1.2375 -0.2692 -4.5060
 5232SOL     OW27157   3.164   1.099   6.416  0.0414 -0.0454 -0.0896
 5232SOL    HW127158   3.069   1.092   6.428 -0.0118  0.0075 -0.5118
 5232SOL    HW227159   3.192   1.052   6.338 -0.9188  0.7638 -0.9064
 5233SOL     OW27160   0.423   4.002   3.046 -0.1071  0.0029 -0.2675
 5233SOL    HW127161   0.472   3.961   3.118 -0.5298  0.4402  0.2669
 5233SOL    HW227162   0.402   4.089   3.078 -2.3738 -0.4653 -0.4409
 5234SOL     OW27163   3.583   4.457   7.264 -0.1965 -0.3920  0.2836
 5234SOL    HW127164   3.565   4.448   7.358 -0.7645 -0.0810  0.2042
 5234SOL    HW227165   3.676   4.475   7.252 -0.3350 -0.3278 -0.6508
 5235SOL     OW27166   3.708   1.530   8.186  0.4938 -0.2821  0.0057
 5235SOL    HW127167   3.669   1.575   8.110 -0.5843 -1.8712 -0.3853
 5235SOL    HW227168   3.774   1.588   8.222  0.4673 -0.8569  0.9853
 5236SOL     OW27169   2.919   1.126   0.590 -0.3034 -0.1205 -0.2863
 5236SOL    HW127170   2.908   1.141   0.684  2.2642  0.0770 -0.0183
 5236SOL    HW227171   2.947   1.035   0.593  1.0719  0.3422  0.6667
 5237SOL     OW27172   0.743   4.063   4.222 -0.3718 -0.5367 -0.0215
 5237SOL    HW127173   0.662   4.112   4.231  0.1228  0.1705  0.5754
 5237SOL    HW227174   0.735   4.072   4.127 -1.1596 -1.5139 -0.0425
 5238SOL     OW27175   1.975   4.235  11.217  0.1611 -0.4487  0.0390
 5238SOL    HW127176   2.067   4.254  11.200  0.9660 -0.3859  4.5587
 5238SOL    HW227177   1.942   4.218  11.129 -0.5675 -0.9537  0.4039
 5239SOL     OW27178   0.144   3.216  10.304  0.7968 -0.7421  0.4435
 5239SOL    HW127179   0.081   3.286  10.285  0.2319 -0.9930  1.3858
 5239SOL    HW227180   0.199   3.232  10.228  2.1792 -0.9106  1.4200
 5240SOL     OW27181   4.542   4.147   7.433  0.0171 -0.1406  0.8149
 5240SOL    HW127182   4.550   4.131   7.527 -1.0479  0.8834  1.0841
 5240SOL    HW227183   4.621   4.195   7.410  1.8373 -3.1843  0.6857
 5241SOL     OW27184   3.921   3.007   8.380  0.5490  0.3927 -1.2129
 5241SOL    HW127185   3.952   2.992   8.470  0.6471  0.0362 -1.3079
 5241SOL    HW227186   3.996   3.024   8.322  0.7918  0.7150 -0.8087
 5242SOL     OW27187   0.846   1.406   5.343  0.5126 -0.0274 -0.0408
 5242SOL    HW127188   0.851   1.487   5.395  1.5384 -0.8907  1.2152
 5242SOL    HW227189   0.882   1.342   5.404 -0.7915 -1.8668 -1.2321
 5243SOL     OW27190   0.270   3.067  10.834 -0.1161 -0.4425  0.3854
 5243SOL    HW127191   0.345   3.127  10.834  1.4927 -2.4322 -2.2019
 5243SOL    HW227192   0.266   3.045  10.927  0.1326  2.0831  0.9921
 5244SOL     OW27193   4.028   2.992   8.638  0.3736 -0.0279  0.2477
 5244SOL    HW127194   4.102   2.969   8.694  0.7364  2.8636  0.9494
 5244SOL    HW227195   3.960   2.956   8.695  2.3041 -1.6033  1.5180
 5245SOL     OW27196   3.374   3.540   6.896  0.9582  0.3569  0.0075
 5245SOL    HW127197   3.344   3.576   6.812 -0.6811 -1.4081 -0.1734
 5245SOL    HW227198   3.435   3.604   6.933 -1.2348  2.0587  0.7208
 5246SOL     OW27199   0.652   2.512  17.441  0.0527 -0.5956 -0.2574
 5246SOL    HW127200   0.658   2.558  17.356  0.6797 -1.9146 -0.9215
 5246SOL    HW227201   0.587   2.573  17.475  0.2864 -1.0003  0.9027
 5247SOL     OW27202   0.707   3.836  13.594  0.0715  0.7204 -0.5249
 5247SOL    HW127203   0.710   3.915  13.540  1.1011  2.4672  2.0367
 5247SOL    HW227204   0.776   3.792  13.545  1.2725 -0.0601  1.8738
 5248SOL     OW27205   0.274   1.235   1.650 -0.2038  0.0320 -0.0675
 5248SOL    HW127206   0.200   1.293   1.632  0.1897  1.1337  1.8317
 5248SOL    HW227207   0.313   1.265   1.732  0.1101  0.0326 -0.2152
 5249SOL     OW27208   2.697   0.396  12.643 -0.2120  0.3149 -0.2682
 5249SOL    HW127209   2.648   0.398  12.725  2.5018 -1.1159  1.3569
 5249SOL    HW227210   2.769   0.339  12.670  0.5831  0.9035 -1.1373
 5250SOL     OW27211   1.491   2.630   2.381 -0.4936  0.2970 -0.2087
 5250SOL    HW127212   1.495   2.551   2.435  0.5067  0.6100  0.1774
 5250SOL    HW227213   1.561   2.684   2.418  0.8854 -0.3396 -1.8536
 5251SOL     OW27214   2.756   2.228   4.765 -0.6200 -0.4014  0.5653
 5251SOL    HW127215   2.805   2.309   4.754 -0.6935 -0.8198 -2.8342
 5251SOL    HW227216   2.691   2.272   4.820  0.1565  0.5099  0.7503
 5252SOL     OW27217   4.376   0.576   8.517 -0.3140  0.1378  0.5995
 5252SOL    HW127218   4.332   0.491   8.507 -1.1164  0.3961  1.8937
 5252SOL    HW227219   4.404   0.585   8.426  2.1030 -2.9442  1.0402
 5253SOL     OW27220   2.539   2.072   5.813  0.3792  0.0465  0.4641
 5253SOL    HW127221   2.569   2.033   5.730 -0.8252  2.0598 -0.9117
 5253SOL    HW227222   2.624   2.101   5.846  0.2994  1.3457 -0.4682
 5254SOL     OW27223   1.686   3.866   8.646 -0.6616  0.2257 -0.1675
 5254SOL    HW127224   1.644   3.951   8.635 -0.6960  0.2578  0.1952
 5254SOL    HW227225   1.609   3.809   8.643 -0.4160 -0.1968  1.2602
 5255SOL     OW27226   2.936   0.486   9.368 -0.6373 -0.0513 -0.5347
 5255SOL    HW127227   2.986   0.546   9.312 -0.7806  1.3425  0.8318
 5255SOL    HW227228   2.959   0.399   9.336 -0.2112 -0.5552  1.1131
 5256SOL     OW27229   3.436   2.377   5.787  0.2047  0.3194  0.4035
 5256SOL    HW127230   3.393   2.440   5.729  2.4361  1.8940  0.4725
 5256SOL    HW227231   3.509   2.428   5.822 -0.6916  1.8758  0.0212
 5257SOL     OW27232   0.904   3.965   1.923 -0.1879  0.2589  0.1790
 5257SOL    HW127233   0.836   3.991   1.985  0.6053 -1.2020  1.6627
 5257SOL    HW227234   0.981   4.001   1.966 -1.3139  0.6065  1.9002
 5258SOL     OW27235   0.361   1.371  13.281  0.1518  0.1992 -0.1843
 5258SOL    HW127236   0.284   1.414  13.319  0.1450 -0.0594  0.0920
 5258SOL    HW227237   0.429   1.403  13.341  1.3274 -0.2664 -1.2582
 5259SOL     OW27238   0.910   1.131   3.251 -0.0291  0.0757 -0.7318
 5259SOL    HW127239   0.853   1.071   3.300  2.3815 -2.1622 -0.7061
 5259SOL    HW227240   0.969   1.070   3.207 -1.0093 -2.4093  1.4004
 5260SOL     OW27241   0.711   3.368   9.093  0.5593 -0.4386 -0.0222
 5260SOL    HW127242   0.659   3.319   9.029  0.9521 -1.9198  0.7775
 5260SOL    HW227243   0.661   3.448   9.107  0.1655 -0.0857 -3.4610
 5261SOL     OW27244   2.169   1.036   7.063  0.7162  0.6078  0.2581
 5261SOL    HW127245   2.097   1.086   7.100  0.1120  0.5156 -0.7868
 5261SOL    HW227246   2.239   1.023   7.127  0.9901  0.8435  0.0018
 5262SOL     OW27247   1.765   1.095  15.089  0.2131 -0.0410 -0.1097
 5262SOL    HW127248   1.747   1.142  15.171 -0.2353  0.5662 -0.5533
 5262SOL    HW227249   1.746   1.005  15.115  0.6629  0.1838  1.0106
 5263SOL     OW27250   2.509   1.531   3.481  0.3956  0.7365 -0.6799
 5263SOL    HW127251   2.578   1.553   3.544  0.4482  0.1065 -0.5162
 5263SOL    HW227252   2.455   1.609   3.478 -2.4035 -1.2209 -0.6328
 5264SOL     OW27253   0.778   2.023  13.479 -0.0996 -0.2464  0.4015
 5264SOL    HW127254   0.753   2.111  13.506 -1.7102 -0.3364 -0.7517
 5264SOL    HW227255   0.709   2.010  13.414 -0.6077 -1.2536  1.1414
 5265SOL     OW27256   3.517   4.713   3.771  0.1857  0.3028  0.7188
 5265SOL    HW127257   3.430   4.681   3.748 -0.8578  1.7907  2.5891
 5265SOL    HW227258   3.511   0.078   3.743  2.0075 -0.3004 -1.5857
 5266SOL     OW27259   1.833   1.256   9.465  0.0389 -0.1221 -0.3499
 5266SOL    HW127260   1.789   1.241   9.549 -2.3418 -1.2336 -1.7960
 5266SOL    HW227261   1.881   1.334   9.494  1.0665 -0.7423 -0.3686
 5267SOL     OW27262   4.533   0.291   8.399 -0.0983 -0.0064 -0.2532
 5267SOL    HW127263   4.440   0.303   8.418  0.2936  2.6795 -0.0481
 5267SOL    HW227264   4.565   0.317   8.485  0.6033 -1.4181 -0.0887
 5268SOL     OW27265   0.431   1.875  14.573  0.3763  0.3381  0.4472
 5268SOL    HW127266   0.364   1.808  14.561  2.4217 -1.9511  1.8470
 5268SOL    HW227267   0.469   1.885  14.485 -1.1637  1.1444 -0.1312
 5269SOL     OW27268   1.920   2.632   5.234 -0.0948  0.4577  0.2586
 5269SOL    HW127269   1.909   2.607   5.326 -1.2214 -0.8059 -0.2221
 5269SOL    HW227270   1.886   2.722   5.236  0.7679  0.7734  1.0641
 5270SOL     OW27271   2.450   4.450  17.436  0.2718  0.1094 -0.2585
 5270SOL    HW127272   2.407   4.424  17.517  0.5144  0.5978  0.0274
 5270SOL    HW227273   2.530   4.400  17.450 -1.0903 -1.9270  0.1837
 5271SOL     OW27274   1.543   1.974   9.147  0.2486  0.2682  1.0236
 5271SOL    HW127275   1.583   2.003   9.066 -1.5370 -0.1311 -0.0061
 5271SOL    HW227276   1.584   1.888   9.160  0.2969  0.0696 -0.4486
 5272SOL     OW27277   3.056   2.376   6.055  0.4493 -0.5366 -0.3113
 5272SOL    HW127278   3.108   2.302   6.023  0.7320 -1.0808  1.4331
 5272SOL    HW227279   3.023   2.332   6.133 -0.4266  0.5702 -0.0694
 5273SOL     OW27280   0.896   4.347   8.141 -0.1232  0.2373  0.4565
 5273SOL    HW127281   0.967   4.320   8.199  0.6604 -2.4554 -1.7615
 5273SOL    HW227282   0.936   4.329   8.056 -1.6699  1.2853 -0.4931
 5274SOL     OW27283   0.591   3.638   3.203  0.2685  0.8372  0.3260
 5274SOL    HW127284   0.529   3.605   3.138 -0.1211 -1.5770  1.9436
 5274SOL    HW227285   0.670   3.585   3.193  0.7039  1.4368  0.5691
 5275SOL     OW27286   2.053   1.630   0.417  0.6748 -1.3680 -0.0537
 5275SOL    HW127287   2.059   1.546   0.463 -0.7930 -1.2018  0.4323
 5275SOL    HW227288   2.025   1.595   0.332 -1.0997  2.5284 -1.0859
 5276SOL     OW27289   2.834   4.370  17.184  0.2042 -0.4823  0.1145
 5276SOL    HW127290   2.776   4.435  17.225  1.0410  1.4559 -1.7479
 5276SOL    HW227291   2.900   4.425  17.142 -1.2166  1.5093  0.4739
 5277SOL     OW27292   2.452   1.636   3.785  0.4638  0.5345 -0.3518
 5277SOL    HW127293   2.545   1.628   3.768  0.9027  1.1746  1.7077
 5277SOL    HW227294   2.448   1.675   3.873  2.9796  1.1256 -0.5262
 5278SOL     OW27295   4.543   1.848   5.722 -0.2461 -0.4735  0.1249
 5278SOL    HW127296   4.626   1.888   5.694 -0.4619  0.8195  1.3688
 5278SOL    HW227297   4.571   1.763   5.756  0.1477  0.3240  1.7514
 5279SOL     OW27298   2.968   4.322  16.544 -0.4209  0.9420  0.3306
 5279SOL    HW127299   3.010   4.315  16.458 -3.4585  2.5170 -1.3077
 5279SOL    HW227300   3.002   4.246  16.589 -3.0045  0.6660  1.8601
 5280SOL     OW27301   1.030   3.677   5.824 -0.0469  0.0858  0.4862
 5280SOL    HW127302   1.035   3.617   5.898 -1.6620 -1.0125 -0.2983
 5280SOL    HW227303   0.984   3.620   5.763  0.4992  0.7218 -0.5191
 5281SOL     OW27304   0.467   0.680   0.505  0.2118  0.0796 -0.0482
 5281SOL    HW127305   0.553   0.665   0.544  1.1652 -2.5850 -3.2668
 5281SOL    HW227306   0.415   0.613   0.549  0.2586  0.6357  0.8656
 5282SOL     OW27307   3.174   4.709   8.725  0.0472  0.1186  0.3164
 5282SOL    HW127308   3.097   4.653   8.717  0.0895  0.0157  0.6429
 5282SOL    HW227309   3.244   4.646   8.745 -0.5542 -0.2332  1.2960
 5283SOL     OW27310   2.563   3.641  13.370  0.1388  0.3894  0.0209
 5283SOL    HW127311   2.591   3.726  13.404  1.4932  0.8717 -2.3177
 5283SOL    HW227312   2.589   3.655  13.279  1.6375  0.0758  0.4019
 5284SOL     OW27313   2.219   3.955  12.140 -0.0121  0.5338 -0.4746
 5284SOL    HW127314   2.299   3.910  12.113  0.3413  0.5934  0.4544
 5284SOL    HW227315   2.225   4.041  12.099  1.9707  0.6637  0.0942
 5285SOL     OW27316   3.119   2.185   6.838 -0.3855 -0.1402  0.2301
 5285SOL    HW127317   3.180   2.252   6.809 -0.1766 -0.9130 -1.1812
 5285SOL    HW227318   3.077   2.161   6.755 -0.5523 -1.8291  0.7899
 5286SOL     OW27319   0.263   2.037   7.113  0.7721  0.0058  0.2533
 5286SOL    HW127320   0.312   2.109   7.073  0.4723 -0.2313 -0.5558
 5286SOL    HW227321   0.330   1.998   7.169  0.3768 -0.7482  0.2119
 5287SOL     OW27322   2.283   1.573   2.690 -0.4390 -0.1205 -0.2628
 5287SOL    HW127323   2.251   1.661   2.712  0.5409  0.5598 -1.5594
 5287SOL    HW227324   2.375   1.598   2.681 -0.0556 -1.3342  0.4064
 5288SOL     OW27325   0.769   3.976   3.153 -0.2661 -0.2797 -0.0368
 5288SOL    HW127326   0.811   3.931   3.226  0.8710  0.1970 -0.4078
 5288SOL    HW227327   0.823   3.947   3.079  0.9080 -1.7456  1.3912
 5289SOL     OW27328   0.303   2.057   3.355  0.1093 -0.1291  0.4480
 5289SOL    HW127329   0.317   1.991   3.423  0.7752 -0.0441  0.3874
 5289SOL    HW227330   0.290   2.001   3.278  3.1686  0.2585 -0.3399
 5290SOL     OW27331   0.060   3.696   8.315  0.2265 -0.1555  0.2154
 5290SOL    HW127332   0.052   3.757   8.388 -2.4109  0.2317 -0.3936
 5290SOL    HW227333   4.723   3.630   8.342 -0.6879  0.5234 -0.2593
 5291SOL     OW27334   0.570   2.297  16.497 -0.2116 -0.7913  0.5025
 5291SOL    HW127335   0.589   2.256  16.582  0.2307 -0.4526  0.5704
 5291SOL    HW227336   0.580   2.222  16.439 -0.4232  0.7186 -1.4804
 5292SOL     OW27337   0.373   0.059   4.495  0.1355  0.1761  0.1215
 5292SOL    HW127338   0.436   0.130   4.497 -0.7379  0.9749 -1.1383
 5292SOL    HW227339   0.334   0.075   4.409  1.2308  0.4974 -0.3075
 5293SOL     OW27340   3.219   2.399   3.560 -0.1638 -0.5015  0.5267
 5293SOL    HW127341   3.188   2.378   3.471 -0.5684 -0.8427  0.7480
 5293SOL    HW227342   3.259   2.481   3.531  0.8114 -1.0122  0.4475
 5294SOL     OW27343   3.802   3.376   8.492 -0.2841  0.3431 -0.2299
 5294SOL    HW127344   3.871   3.377   8.558  1.1501 -0.6318 -1.7145
 5294SOL    HW227345   3.847   3.355   8.411  0.6392 -3.4403  1.3014
 5295SOL     OW27346   3.827   4.403   2.515 -0.5090 -0.0251  0.3711
 5295SOL    HW127347   3.779   4.476   2.555 -1.6220 -0.2544 -0.5394
 5295SOL    HW227348   3.868   4.367   2.593 -1.1438 -1.5385  0.0073
 5296SOL     OW27349   3.322   3.838   9.303  0.2744  0.1991  0.8044
 5296SOL    HW127350   3.328   3.933   9.299  1.0515  0.1141  0.0985
 5296SOL    HW227351   3.414   3.813   9.299 -0.4690 -2.8040  2.1607
 5297SOL     OW27352   2.248   1.859   7.998  0.7783 -0.8040 -0.4822
 5297SOL    HW127353   2.224   1.767   8.011  0.6117 -0.8059 -0.7887
 5297SOL    HW227354   2.164   1.899   8.018  0.6096 -0.1951 -2.4453
 5298SOL     OW27355   0.917   3.835  15.545  0.0878  0.9081 -0.1988
 5298SOL    HW127356   0.863   3.765  15.582  1.3166  0.1289  0.0973
 5298SOL    HW227357   0.954   3.869  15.627 -1.0718  1.4974  0.0987
 5299SOL     OW27358   0.608   0.604  14.871  0.1482 -0.1760 -0.4645
 5299SOL    HW127359   0.528   0.572  14.828 -0.9737 -0.6613  1.9645
 5299SOL    HW227360   0.672   0.568  14.809  0.9490  0.2773  0.1045
 5300SOL     OW27361   3.791   3.773  16.639 -0.7467  0.4716 -0.1052
 5300SOL    HW127362   3.756   3.739  16.722  1.6585  0.7733  1.0126
 5300SOL    HW227363   3.765   3.707  16.574 -1.6998 -0.1222  0.8883
 5301SOL     OW27364   4.598   2.905   2.389 -0.3757  0.7474  0.1752
 5301SOL    HW127365   4.550   2.914   2.306 -0.9396  1.5076  0.5874
 5301SOL    HW227366   4.670   2.959   2.357 -0.7712  0.8858 -0.4803
 5302SOL     OW27367   2.057   2.232   5.179  0.3147 -0.0385  0.2211
 5302SOL    HW127368   1.967   2.219   5.208 -0.9601  0.9472 -3.1973
 5302SOL    HW227369   2.098   2.150   5.153 -0.1602 -0.1787 -0.0870
 5303SOL     OW27370   3.710   2.849   4.181  0.1742 -0.3416  0.0355
 5303SOL    HW127371   3.752   2.919   4.130 -0.8581 -2.2151 -3.3619
 5303SOL    HW227372   3.685   2.887   4.265  0.5537  2.4172 -1.0859
 5304SOL     OW27373   0.703   4.490   3.659  0.2041  0.0417  0.0586
 5304SOL    HW127374   0.670   4.558   3.718  0.8271  0.9884 -0.6758
 5304SOL    HW227375   0.793   4.474   3.686  0.4230 -0.8253 -1.1904
 5305SOL     OW27376   2.638   0.952   6.526  0.2203  0.0672 -0.4610
 5305SOL    HW127377   2.722   0.974   6.486 -0.2909  1.5807 -0.7242
 5305SOL    HW227378   2.595   1.037   6.538 -1.6271 -1.0424  0.9192
 5306SOL     OW27379   0.350   4.182   1.499  0.3267  0.6233  0.3715
 5306SOL    HW127380   0.418   4.244   1.475 -0.9586  3.0281  2.8452
 5306SOL    HW227381   0.360   4.122   1.425  0.3166 -0.1357  0.9844
 5307SOL     OW27382   0.680   3.716   7.009 -0.1632 -0.2369 -0.0274
 5307SOL    HW127383   0.706   3.682   7.095  2.5606  2.0403  0.0773
 5307SOL    HW227384   0.594   3.675   6.998 -1.1331  1.7405  0.1989
 5308SOL     OW27385   3.681   0.161   2.542 -0.5952  0.2558  0.2405
 5308SOL    HW127386   3.724   0.239   2.508  2.0381 -1.0664  0.5402
 5308SOL    HW227387   3.724   0.149   2.627 -0.8406 -1.8849  0.0808
 5309SOL     OW27388   0.016   0.162  10.033  0.0384  0.1196  0.8607
 5309SOL    HW127389   4.701   0.087  10.077 -1.7198 -0.0550 -1.0765
 5309SOL    HW227390   0.100   0.127  10.003 -0.5504 -0.2460 -0.3603
 5310SOL     OW27391   0.227   0.568   8.338 -0.3564 -0.3857 -0.1235
 5310SOL    HW127392   0.278   0.621   8.399  2.0622 -1.0218 -1.5840
 5310SOL    HW227393   0.187   0.647   8.302  0.6701 -0.3193 -1.1114
 5311SOL     OW27394   0.908   0.698   8.663  0.2118 -0.0354  0.2212
 5311SOL    HW127395   0.881   0.759   8.732  1.3352  1.2407 -0.4685
 5311SOL    HW227396   0.986   0.651   8.692  1.0916  0.1826 -1.8243
 5312SOL     OW27397   1.567   4.183  17.103 -0.1588  0.0335 -0.4111
 5312SOL    HW127398   1.604   4.119  17.163 -1.5297  0.7321  1.1799
 5312SOL    HW227399   1.565   4.132  17.022 -0.5774  1.4753 -1.3234
 5313SOL     OW27400   3.356   3.991   1.139  0.4391  0.1454 -0.6006
 5313SOL    HW127401   3.289   3.928   1.167  0.2233  1.0541  0.8980
 5313SOL    HW227402   3.355   4.056   1.209 -0.5905  1.5996 -1.9491
 5314SOL     OW27403   0.627   0.514  11.458  0.3978  0.1039 -0.0671
 5314SOL    HW127404   0.630   0.552  11.370  1.4541 -0.1753 -0.1450
 5314SOL    HW227405   0.690   0.443  11.446  2.0856  1.5517  0.2741
 5315SOL     OW27406   2.111   1.309   2.288  0.5047 -0.1675  0.2126
 5315SOL    HW127407   2.069   1.223   2.291 -1.8046  1.0354  1.6560
 5315SOL    HW227408   2.038   1.355   2.329  0.2120 -1.7308  1.4295
 5316SOL     OW27409   0.745   0.782  17.703  0.1288  0.2261 -0.7490
 5316SOL    HW127410   0.727   0.870  17.670  0.5148  1.5978  2.6994
 5316SOL    HW227411   0.676   0.729  17.663  0.4010 -0.1806 -0.6805
 5317SOL     OW27412   0.062   0.220   2.966  0.0771 -0.0387 -0.1292
 5317SOL    HW127413   0.023   0.299   2.929 -0.1635 -0.3435 -0.5143
 5317SOL    HW227414   0.062   0.161   2.891  0.6772  0.5896 -0.6295
 5318SOL     OW27415   2.371   1.205   2.528  0.3372  0.2241  0.0282
 5318SOL    HW127416   2.344   1.113   2.531 -1.0486  0.6012 -0.7473
 5318SOL    HW227417   2.304   1.246   2.582 -1.5197 -1.3903 -1.0556
 5319SOL     OW27418   1.739   0.258  12.934  0.0346  0.4237  0.1711
 5319SOL    HW127419   1.789   0.340  12.932  0.7874  0.0048  1.8527
 5319SOL    HW227420   1.802   0.205  12.982  1.2623  0.1478 -1.7656
 5320SOL     OW27421   4.470   4.610  17.483 -0.3156  0.2134 -0.5087
 5320SOL    HW127422   4.550   4.654  17.454 -0.6079  1.0369 -0.0457
 5320SOL    HW227423   4.429   4.612  17.397 -0.3374  1.5063 -0.4675
 5321SOL     OW27424   2.435   3.118   5.137 -0.4951  0.0802  0.0155
 5321SOL    HW127425   2.417   3.208   5.109 -0.7076  0.8995  2.7892
 5321SOL    HW227426   2.411   3.060   5.065  1.0702 -0.6878  0.1157
 5322SOL     OW27427   4.597   3.548   8.423 -0.7526 -0.4344  0.3270
 5322SOL    HW127428   4.595   3.461   8.463 -1.7171  0.2096  1.6948
 5322SOL    HW227429   4.536   3.547   8.349 -0.2573  0.7660 -0.0909
 5323SOL     OW27430   2.503   1.210   6.299 -0.0356  0.0330  0.0200
 5323SOL    HW127431   2.594   1.204   6.271  0.1601 -1.3819  0.9899
 5323SOL    HW227432   2.515   1.250   6.385  2.0151  0.0276 -0.2606
 5324SOL     OW27433   2.684   2.810   3.738  0.3239 -0.4594  0.4032
 5324SOL    HW127434   2.658   2.792   3.647  3.0800 -4.4263  0.3968
 5324SOL    HW227435   2.706   2.903   3.741 -1.0540  0.0334 -4.8484
 5325SOL     OW27436   2.341   3.312  17.418 -0.4544 -0.2237 -0.9481
 5325SOL    HW127437   2.350   3.230  17.370 -0.1780 -0.4654 -0.4840
 5325SOL    HW227438   2.430   3.347  17.410 -1.2530  2.2344  0.9381
 5326SOL     OW27439   0.232   1.290   0.272  0.3320  0.4179  0.2830
 5326SOL    HW127440   0.226   1.223   0.341 -0.7031  0.6793  0.4478
 5326SOL    HW227441   0.203   1.371   0.315 -0.5285  1.6161 -2.5828
 5327SOL     OW27442   2.338   0.879  17.317 -0.0029  0.3530 -0.1693
 5327SOL    HW127443   2.354   0.845  17.405  1.0171  0.1784 -0.4341
 5327SOL    HW227444   2.340   0.803  17.259  3.0381  1.5972 -1.6956
 5328SOL     OW27445   0.782   1.403   3.763 -0.3910  0.5040  0.5837
 5328SOL    HW127446   0.839   1.394   3.840 -0.4603  2.1918  0.8329
 5328SOL    HW227447   0.705   1.359   3.799  1.2400 -1.3102  1.8343
 5329SOL     OW27448   2.737   2.672   0.655 -0.5784 -0.3402  0.2272
 5329SOL    HW127449   2.667   2.670   0.590 -1.2841 -2.1071  1.0532
 5329SOL    HW227450   2.731   2.765   0.676  2.2193 -0.1215  0.0673
 5330SOL     OW27451   3.584   3.287   8.896  0.3740 -0.1409 -1.1940
 5330SOL    HW127452   3.499   3.255   8.927  0.7174  1.7499  1.6387
 5330SOL    HW227453   3.583   3.375   8.935 -0.5015 -1.1222  1.0123
 5331SOL     OW27454   2.185   3.349   1.293  0.2325 -0.3074 -0.3021
 5331SOL    HW127455   2.229   3.428   1.322 -0.1125  0.4736 -1.8785
 5331SOL    HW227456   2.154   3.303   1.371 -0.5704  2.3206  0.9372
 5332SOL     OW27457   2.970   2.226   7.068 -0.8257  0.2583  0.1118
 5332SOL    HW127458   3.019   2.215   6.987  0.3868  0.3700  0.8321
 5332SOL    HW227459   2.908   2.153   7.072  0.8682 -1.2364 -1.1525
 5333SOL     OW27460   0.723   2.081  14.336  0.3380 -0.2462  0.0201
 5333SOL    HW127461   0.710   1.988  14.352 -0.1722 -0.2950 -0.6818
 5333SOL    HW227462   0.649   2.087  14.276 -0.2719  1.0793  0.8912
 5334SOL     OW27463   3.555   2.983   2.329  0.3842  0.4618  1.0497
 5334SOL    HW127464   3.543   2.902   2.379 -0.4698  0.1541  0.3405
 5334SOL    HW227465   3.477   2.981   2.273  1.2650 -3.3232 -0.0659
 5335SOL     OW27466   0.193   3.550  16.638 -0.1660  0.8971  0.0986
 5335SOL    HW127467   0.122   3.485  16.642 -0.8531  1.6666  0.3958
 5335SOL    HW227468   0.215   3.562  16.730 -1.0133  0.4925  0.3583
 5336SOL     OW27469   1.770   3.867   5.666 -0.0679 -0.9355  0.2210
 5336SOL    HW127470   1.781   3.829   5.579  1.4490  1.2413 -0.5336
 5336SOL    HW227471   1.676   3.885   5.663  0.4503  2.0837  2.1954
 5337SOL     OW27472   0.270   0.019   1.010  0.2411 -0.3228  0.6632
 5337SOL    HW127473   0.238   4.658   1.035 -0.6770 -0.1157  0.2037
 5337SOL    HW227474   0.305   0.001   0.923 -0.9065  0.2679  0.0843
 5338SOL     OW27475   3.883   3.469   7.253 -0.0976  0.7208  0.0503
 5338SOL    HW127476   3.811   3.413   7.281 -0.4165 -0.6854 -3.5035
 5338SOL    HW227477   3.852   3.555   7.281  0.5066  0.8402  0.3566
 5339SOL     OW27478   4.121   2.020   4.786 -0.2201  0.4338 -0.1038
 5339SOL    HW127479   4.150   2.003   4.696  0.7746  4.6559 -0.5551
 5339SOL    HW227480   4.185   2.079   4.824 -0.0690 -0.4670  1.0511
 5340SOL     OW27481   4.501   3.447  13.325  0.0621  0.2125 -0.0662
 5340SOL    HW127482   4.486   3.357  13.354  0.2093  0.0714 -0.4370
 5340SOL    HW227483   4.595   3.455  13.313  0.4146  0.3085  2.7490
 5341SOL     OW27484   4.020   4.221  12.518 -0.2410 -0.0500  0.3935
 5341SOL    HW127485   4.113   4.216  12.539 -0.4129  2.1755  1.6944
 5341SOL    HW227486   4.004   4.308  12.481  2.8212  0.4816  0.3068
 5342SOL     OW27487   1.041   0.049   6.537  0.0123 -0.0887  0.1585
 5342SOL    HW127488   0.957   0.034   6.494 -0.0386 -0.6200  0.4481
 5342SOL    HW227489   1.076   4.686   6.539  0.0776 -0.1003 -1.5800
 5343SOL     OW27490   1.735   3.503  15.191 -0.4117  0.1947  0.0575
 5343SOL    HW127491   1.724   3.459  15.106 -1.5310  2.1826 -0.8262
 5343SOL    HW227492   1.805   3.454  15.233 -0.7012  1.6515  2.1884
 5344SOL     OW27493   2.024   1.265   0.734 -0.1497 -0.4345  0.0098
 5344SOL    HW127494   2.059   1.182   0.768 -1.1337 -1.6486 -1.9505
 5344SOL    HW227495   2.087   1.284   0.665 -0.1760  0.9317  0.3717
 5345SOL     OW27496   2.070   0.631   4.248  0.0759 -0.6168 -0.0903
 5345SOL    HW127497   1.992   0.615   4.301 -0.6269 -0.7001 -1.1360
 5345SOL    HW227498   2.062   0.564   4.179 -0.5199  0.5098 -1.1283
 5346SOL     OW27499   0.018   4.273   9.758 -0.8388  0.2617  0.1866
 5346SOL    HW127500   0.086   4.257   9.823  0.0287 -2.8504 -1.4920
 5346SOL    HW227501   4.679   4.213   9.793 -0.0373 -1.0912 -0.6401
 5347SOL     OW27502   1.210   0.447  13.775 -0.7052  0.0744  0.4903
 5347SOL    HW127503   1.191   0.357  13.801 -0.6201 -0.2114 -0.4422
 5347SOL    HW227504   1.295   0.458  13.818  0.1825  2.9007 -2.0238
 5348SOL     OW27505   4.327   1.357   1.821  0.5903  0.2659  0.7541
 5348SOL    HW127506   4.372   1.309   1.752 -1.8014 -0.6875 -0.1392
 5348SOL    HW227507   4.303   1.430   1.763 -1.2375 -0.5290  0.5128
 5349SOL     OW27508   0.145   1.434   5.134  0.1748  0.3322 -0.3205
 5349SOL    HW127509   0.097   1.512   5.163  1.7678  1.1069  0.2130
 5349SOL    HW227510   0.090   1.364   5.169  0.5552  1.4540  2.5410
 5350SOL     OW27511   1.138   2.784  11.594 -0.7768 -0.3972  0.0644
 5350SOL    HW127512   1.084   2.706  11.588 -0.5953 -0.4473 -1.0702
 5350SOL    HW227513   1.077   2.847  11.554 -0.4843 -1.8196 -2.6426
 5351SOL     OW27514   1.690   3.980  17.205 -0.1909 -0.1392  0.1399
 5351SOL    HW127515   1.785   3.974  17.191 -0.1227 -1.3667  1.1434
 5351SOL    HW227516   1.668   3.899  17.251  2.8773 -2.3313 -2.2410
 5352SOL     OW27517   0.990   4.635   7.977  0.3842 -0.2607  0.1954
 5352SOL    HW127518   0.970   4.725   7.951 -0.9308 -0.9229 -1.1379
 5352SOL    HW227519   0.906   4.597   7.952 -0.7090  0.7082  2.4017
 5353SOL     OW27520   2.484   1.270   9.488  0.6869  0.5093  0.7190
 5353SOL    HW127521   2.576   1.292   9.477  0.7439  0.3685  0.9134
 5353SOL    HW227522   2.444   1.327   9.422 -0.7046 -1.4081 -0.0893
 5354SOL     OW27523   1.289   0.502   4.111 -0.9481  0.0184 -0.5437
 5354SOL    HW127524   1.382   0.513   4.129 -0.5189  0.3856 -3.0700
 5354SOL    HW227525   1.284   0.464   4.024 -1.7557  1.0478 -0.9543
 5355SOL     OW27526   3.535   2.014  12.930 -0.1452 -0.7933 -0.2261
 5355SOL    HW127527   3.452   2.049  12.962 -1.8534 -2.3015 -2.9624
 5355SOL    HW227528   3.527   1.924  12.963 -3.5200  0.1753  1.5686
 5356SOL     OW27529   1.632   2.109   0.577 -0.1160  0.3517 -0.0616
 5356SOL    HW127530   1.655   2.021   0.548 -1.3850 -0.0810  0.2167
 5356SOL    HW227531   1.704   2.160   0.540 -0.2163  2.0409  2.0906
 5357SOL     OW27532   0.090   4.634   3.919  0.0336 -0.5075 -0.0509
 5357SOL    HW127533   0.162   4.588   3.876  1.1799  0.5198  0.7573
 5357SOL    HW227534   0.106   4.615   4.011 -2.4659  1.8434  0.8805
 5358SOL     OW27535   3.548   2.022   6.985 -0.4827  0.3787 -0.8464
 5358SOL    HW127536   3.468   2.060   6.949 -1.7364 -1.4860 -0.0391
 5358SOL    HW227537   3.513   1.933   6.985 -0.6502  0.4456 -1.4527
 5359SOL     OW27538   2.403   0.275   3.612 -0.0003  0.1288 -0.3667
 5359SOL    HW127539   2.473   0.330   3.648 -0.0912  1.2635 -1.9169
 5359SOL    HW227540   2.373   0.317   3.531 -0.6350  2.1925  0.9390
 5360SOL     OW27541   1.249   1.241   9.138  0.2276  0.2167 -0.4804
 5360SOL    HW127542   1.285   1.330   9.131 -1.5452  0.8192 -1.8287
 5360SOL    HW227543   1.259   1.209   9.049  0.8298 -0.4488 -0.1730
 5361SOL     OW27544   2.515   3.497   6.388 -0.7671 -0.1549 -0.6284
 5361SOL    HW127545   2.449   3.509   6.320  0.7403  1.1562 -1.8451
 5361SOL    HW227546   2.595   3.485   6.337  0.1039  1.4560  0.3408
 5362SOL     OW27547   3.284   1.592  16.784  0.4557 -0.0625  0.9781
 5362SOL    HW127548   3.230   1.552  16.853 -0.2257  0.0505  0.5078
 5362SOL    HW227549   3.217   1.622  16.724 -0.5661 -0.8955  1.6897
 5363SOL     OW27550   1.089   1.683  11.457  0.2042  0.4511 -0.2314
 5363SOL    HW127551   1.029   1.753  11.484 -2.7138 -2.8228  1.6560
 5363SOL    HW227552   1.049   1.635  11.385 -0.0032  0.7381 -0.3054
 5364SOL     OW27553   0.147   1.335  12.723 -0.2466  0.4533 -0.5453
 5364SOL    HW127554   0.168   1.262  12.664  0.6129  2.3706 -2.6051
 5364SOL    HW227555   0.082   1.281  12.768  1.1908 -0.8388 -0.0232
 5365SOL     OW27556   3.701   4.660  17.593  0.4441  0.1601 -0.1070
 5365SOL    HW127557   3.711   4.595  17.524  0.3027 -0.3257  0.3333
 5365SOL    HW227558   3.768   4.722  17.564  1.2926 -0.6634  0.0982
 5366SOL     OW27559   2.615   3.311   8.496  0.0284 -0.2007 -0.2085
 5366SOL    HW127560   2.540   3.264   8.532  0.3787 -1.7448 -1.5121
 5366SOL    HW227561   2.685   3.305   8.561 -0.2443 -0.8784  0.0197
 5367SOL     OW27562   0.374   3.887   5.189 -0.0455 -0.7253 -0.2243
 5367SOL    HW127563   0.396   3.976   5.163  3.3210 -1.0956  1.3480
 5367SOL    HW227564   0.450   3.854   5.237 -0.7723 -2.1130 -0.0234
 5368SOL     OW27565   2.095   2.871   6.461  0.0773 -0.1384 -0.1069
 5368SOL    HW127566   2.111   2.946   6.519  1.6649  0.6972 -1.6230
 5368SOL    HW227567   2.088   2.806   6.531  0.3450  1.7470  1.6512
 5369SOL     OW27568   2.185   4.231  12.382 -0.2238  0.6121 -0.1285
 5369SOL    HW127569   2.207   4.246  12.291 -2.1863  2.8097 -0.2310
 5369SOL    HW227570   2.233   4.151  12.404 -1.4805  0.2333  1.2977
 5370SOL     OW27571   1.170   3.660   1.706  0.2615 -0.4936  0.0497
 5370SOL    HW127572   1.149   3.715   1.631  0.3390  1.0999  1.2076
 5370SOL    HW227573   1.089   3.667   1.756  0.4439  0.6481  0.1832
 5371SOL     OW27574   1.445   4.272   1.848 -0.1010  0.2482 -0.0842
 5371SOL    HW127575   1.366   4.326   1.854  0.3499  1.0289 -1.2123
 5371SOL    HW227576   1.421   4.204   1.911  0.2722  1.5747  1.4768
 5372SOL     OW27577   1.006   2.568   8.327  0.2537  0.4808 -0.7737
 5372SOL    HW127578   1.084   2.515   8.314 -0.6894 -1.5371  1.9508
 5372SOL    HW227579   1.019   2.593   8.418 -1.1910 -0.4019 -0.3218
 5373SOL     OW27580   3.430   3.041   9.142  0.7723 -0.3039  0.0241
 5373SOL    HW127581   3.366   3.102   9.178  1.7667 -0.3205  1.8369
 5373SOL    HW227582   3.371   2.971   9.114  1.8666 -0.9248 -0.7496
 5374SOL     OW27583   0.938   2.381  11.920  0.1293  0.2693 -0.6575
 5374SOL    HW127584   0.890   2.405  11.999  2.1000  2.8270 -0.2384
 5374SOL    HW227585   1.015   2.437  11.911 -0.7231  1.7081  0.9025
 5375SOL     OW27586   0.467   2.037  13.579  0.1837 -0.2685  0.1448
 5375SOL    HW127587   0.511   2.122  13.582 -0.4922 -0.0253  2.9280
 5375SOL    HW227588   0.497   2.008  13.493  1.0372  1.4681 -0.1450
 5376SOL     OW27589   4.595   3.225   6.604  0.5481 -0.0021  0.3193
 5376SOL    HW127590   4.510   3.185   6.584  0.1899  2.0631 -2.3548
 5376SOL    HW227591   4.566   3.311   6.636 -1.2218 -1.4837  2.6880
 5377SOL     OW27592   4.557   4.235   6.918 -0.4298  0.5708  0.3237
 5377SOL    HW127593   4.578   4.150   6.956 -0.5006  0.6426  0.5214
 5377SOL    HW227594   4.471   4.225   6.879  0.3978 -0.4931 -1.2391
 5378SOL     OW27595   1.694   1.675   2.889  0.1784 -0.1582 -0.2096
 5378SOL    HW127596   1.691   1.705   2.979  1.7023 -0.9637  0.0939
 5378SOL    HW227597   1.622   1.611   2.891 -0.1241  0.2266  1.2214
 5379SOL     OW27598   2.420   0.515  15.180  0.1051 -0.7527 -0.3818
 5379SOL    HW127599   2.451   0.431  15.211 -1.6223 -1.2556 -0.0025
 5379SOL    HW227600   2.377   0.494  15.097 -3.5587  0.6832  1.1611
 5380SOL     OW27601   3.001   0.829   0.607 -0.8555  0.1600  0.5032
 5380SOL    HW127602   2.988   0.739   0.636  2.7194 -0.6018 -0.2471
 5380SOL    HW227603   2.975   0.857   0.695  2.7674 -1.6266  2.1459
 5381SOL     OW27604   2.533   3.533  12.732  0.5115  0.6511 -0.7765
 5381SOL    HW127605   2.613   3.573  12.697  0.5650  0.9789 -0.2869
 5381SOL    HW227606   2.511   3.462  12.673 -0.1904  0.0785  0.1725
 5382SOL     OW27607   0.703   1.885   3.697 -0.3968  0.0698  0.7111
 5382SOL    HW127608   0.783   1.895   3.749  1.4850  2.2100 -2.5845
 5382SOL    HW227609   0.634   1.918   3.754 -1.0110 -1.6034  0.9283
 5383SOL     OW27610   1.321   2.803   7.498  0.4647 -0.0412  0.2421
 5383SOL    HW127611   1.238   2.763   7.471  0.6225 -0.5333  0.4864
 5383SOL    HW227612   1.330   2.732   7.562  1.4754  1.8107  2.1220
 5384SOL     OW27613   1.482   4.151   9.402 -0.2851 -0.5738  0.3793
 5384SOL    HW127614   1.510   4.060   9.408  1.1013  0.0534  3.0074
 5384SOL    HW227615   1.563   4.201   9.402 -0.7122  0.1205  1.8947
 5385SOL     OW27616   3.793   1.542   2.262  0.4456  0.0735  0.4422
 5385SOL    HW127617   3.748   1.575   2.340  0.7480  4.5167 -1.2945
 5385SOL    HW227618   3.757   1.454   2.253  0.2399  0.0845  1.1581
 5386SOL     OW27619   3.990   0.713  14.582 -0.5797  0.0649  0.0486
 5386SOL    HW127620   3.940   0.774  14.527 -0.2956  1.2218  1.0764
 5386SOL    HW227621   3.925   0.681  14.644  1.0746 -0.0574  1.7091
 5387SOL     OW27622   0.020   3.460  10.253 -0.3887 -0.2894 -0.6026
 5387SOL    HW127623   0.027   3.538  10.198 -1.9657  0.9701  0.9770
 5387SOL    HW227624   0.024   3.496  10.341  0.7996  0.0973 -0.8130
 5388SOL     OW27625   4.119   0.958  10.255  0.5529  0.6666  0.2231
 5388SOL    HW127626   4.122   0.971  10.160 -2.5148  1.1049  0.1913
 5388SOL    HW227627   4.117   0.863  10.258  2.4854  0.5949 -0.4713
 5389SOL     OW27628   2.118   2.260   3.154 -0.6687 -0.5126 -0.1880
 5389SOL    HW127629   2.038   2.279   3.104  0.2053  1.2529 -0.9205
 5389SOL    HW227630   2.076   2.246   3.239  0.9228  0.6282  0.7844
 5390SOL     OW27631   3.703   0.741  15.977  0.1151 -0.3590 -0.7184
 5390SOL    HW127632   3.705   0.832  16.008 -1.7028 -1.2941  2.2245
 5390SOL    HW227633   3.671   0.750  15.888 -1.0130 -3.3932 -0.6095
 5391SOL     OW27634   2.015   2.616   4.246 -0.3369  0.2622  0.1656
 5391SOL    HW127635   2.040   2.605   4.338 -2.9240 -1.3241  0.6798
 5391SOL    HW227636   2.075   2.688   4.224 -0.1287  0.2325  0.6180
 5392SOL     OW27637   4.250   2.206   5.650 -0.5988 -0.0881  0.2603
 5392SOL    HW127638   4.172   2.241   5.608 -1.6271 -1.0388  1.3879
 5392SOL    HW227639   4.306   2.197   5.572  0.1443  2.6420  0.4991
 5393SOL     OW27640   3.991   1.495  16.936 -0.2540  0.1635 -0.2383
 5393SOL    HW127641   3.940   1.559  16.887 -2.5596 -1.5924 -0.1151
 5393SOL    HW227642   4.049   1.544  16.995  1.6566 -2.5043  0.1026
 5394SOL     OW27643   2.636   1.597  17.297 -0.2399 -0.1603  0.2211
 5394SOL    HW127644   2.635   1.501  17.306  2.0504 -0.3775 -1.7236
 5394SOL    HW227645   2.730   1.612  17.287  0.1876 -3.8038 -1.3458
 5395SOL     OW27646   1.872   0.067   7.951 -0.0957  0.1601 -0.2369
 5395SOL    HW127647   1.864   4.701   7.927  0.9276  0.1167 -0.4201
 5395SOL    HW227648   1.887   0.060   8.045 -0.2959  0.6389 -0.1688
 5396SOL     OW27649   4.532   0.643   7.969 -0.1321 -0.1395 -0.2546
 5396SOL    HW127650   4.537   0.694   7.888  2.7232  1.4266  0.9173
 5396SOL    HW227651   4.544   0.714   8.032  0.3721  2.3042 -3.1070
 5397SOL     OW27652   3.220   2.573   4.656  0.6568 -0.2904  0.3796
 5397SOL    HW127653   3.272   2.532   4.725  0.9665 -0.9902 -0.2670
 5397SOL    HW227654   3.203   2.495   4.604  0.8148  1.2646 -1.9968
 5398SOL     OW27655   2.214   4.488   5.326 -0.5082 -0.1738 -0.5366
 5398SOL    HW127656   2.260   4.470   5.244 -0.7081  1.9931 -1.1308
 5398SOL    HW227657   2.257   4.424   5.382 -0.6441 -0.5206 -0.8272
 5399SOL     OW27658   4.348   1.577  13.995  0.0746 -0.0260 -0.3697
 5399SOL    HW127659   4.358   1.669  14.017  0.5472 -0.4440  1.1686
 5399SOL    HW227660   4.254   1.562  13.990  0.3550 -1.3721 -1.8515
 5400SOL     OW27661   1.665   1.020  12.270  0.2071 -0.3368 -0.3746
 5400SOL    HW127662   1.707   1.051  12.350  1.9379 -3.6480 -0.0093
 5400SOL    HW227663   1.670   0.926  12.286  1.8378  0.0431  1.4034
 5401SOL     OW27664   2.762   1.967   3.973  0.0008  0.3723  0.0996
 5401SOL    HW127665   2.779   1.897   4.034  0.9582 -0.4170 -1.0745
 5401SOL    HW227666   2.681   1.945   3.926 -0.0090  1.6039 -0.4854
 5402SOL     OW27667   3.079   4.187   9.015 -0.7054  0.4010  0.0953
 5402SOL    HW127668   3.076   4.124   8.943  1.3814 -0.5545  0.8510
 5402SOL    HW227669   3.017   4.255   8.986 -0.3191  1.2103  1.1777
 5403SOL     OW27670   2.506   0.604   9.250 -0.5021  0.6533  0.4446
 5403SOL    HW127671   2.495   0.699   9.248 -0.3260  0.6931  1.3518
 5403SOL    HW227672   2.426   0.585   9.298  0.4706 -2.1540  0.9380
 5404SOL     OW27673   0.515   0.804   2.986 -0.8610 -0.1341  0.0029
 5404SOL    HW127674   0.465   0.813   3.067  1.9780 -0.8236  1.8444
 5404SOL    HW227675   0.442   0.784   2.927 -0.8926  2.7471 -0.9415
 5405SOL     OW27676   4.407   2.918   8.096  0.5891 -0.5603 -0.4798
 5405SOL    HW127677   4.487   2.866   8.106  1.5938  0.3102 -4.3646
 5405SOL    HW227678   4.368   2.864   8.166  0.6562  1.0086  0.7647
 5406SOL     OW27679   3.636   4.437   7.898  0.6256 -0.2578  0.4752
 5406SOL    HW127680   3.581   4.504   7.856  1.2023 -0.2409 -0.2571
 5406SOL    HW227681   3.663   4.479   7.979 -0.2526  0.2784  0.4972
 5407SOL     OW27682   1.519   1.942  13.283  0.6589  0.0971 -0.0028
 5407SOL    HW127683   1.537   1.849  13.268 -0.3852 -0.2104  0.6015
 5407SOL    HW227684   1.428   1.947  13.256  1.2578 -0.1689 -2.0571
 5408SOL     OW27685   4.220   3.130   3.529 -0.1287  0.9041  0.1052
 5408SOL    HW127686   4.194   3.050   3.575  1.7357 -0.4445 -1.2038
 5408SOL    HW227687   4.307   3.107   3.496 -0.1088  1.1980 -0.0497
 5409SOL     OW27688   0.935   2.250   6.847 -0.3932 -0.0023 -0.7184
 5409SOL    HW127689   1.016   2.281   6.888  0.3116 -2.6037 -0.1836
 5409SOL    HW227690   0.896   2.207   6.923  1.1716  0.6059  0.4164
 5410SOL     OW27691   2.437   2.948   7.431 -0.3486  0.3883  0.7025
 5410SOL    HW127692   2.389   2.953   7.348  0.3974  2.0370  0.3741
 5410SOL    HW227693   2.444   2.853   7.438 -1.1122  0.4047  1.6777
 5411SOL     OW27694   4.332   0.859  11.414 -0.2404 -0.0350 -0.1086
 5411SOL    HW127695   4.237   0.862  11.425 -0.4141 -1.0834 -1.3159
 5411SOL    HW227696   4.339   0.912  11.335 -0.0144  0.1055  0.0062
 5412SOL     OW27697   2.741   0.947   9.024  0.2490  0.5061  0.6985
 5412SOL    HW127698   2.682   0.874   9.006  0.8609  0.4697 -1.1563
 5412SOL    HW227699   2.688   0.998   9.085 -2.8935  0.1344 -1.7695
 5413SOL     OW27700   3.461   2.951  10.751 -0.1955  0.1333  0.2770
 5413SOL    HW127701   3.548   2.986  10.769  0.4835 -0.7946 -1.2203
 5413SOL    HW227702   3.471   2.888  10.680  3.9141  2.3267 -1.0900
 5414SOL     OW27703   0.016   4.150   9.315 -0.0306  0.2409 -0.1270
 5414SOL    HW127704   0.089   4.173   9.373 -2.2235  0.9073  2.3183
 5414SOL    HW227705   4.690   4.229   9.304  0.9019  0.8994  0.1207
 5415SOL     OW27706   1.975   0.660  16.633 -0.2372  0.3152 -0.2220
 5415SOL    HW127707   2.016   0.581  16.598  1.5703  2.7428 -3.5994
 5415SOL    HW227708   2.015   0.661  16.720  0.7364  0.0639 -0.6595
 5416SOL     OW27709   1.559   0.898   7.229  0.0238 -0.2987  0.2216
 5416SOL    HW127710   1.562   0.814   7.182  0.5304 -0.4645  0.5521
 5416SOL    HW227711   1.487   0.940   7.181 -1.4578 -1.9452  0.9971
 5417SOL     OW27712   1.112   1.247   7.267  0.4683 -0.7459  0.6818
 5417SOL    HW127713   1.140   1.272   7.355  1.4222  1.6066 -0.3011
 5417SOL    HW227714   1.099   1.335   7.233 -0.7383 -0.5536  1.6300
 5418SOL     OW27715   2.026   3.252   4.514  0.1536  0.2890 -0.1357
 5418SOL    HW127716   2.043   3.201   4.435 -0.1846 -1.9976  1.2455
 5418SOL    HW227717   1.949   3.304   4.490  1.0915  0.9211 -1.7517
 5419SOL     OW27718   2.360   1.265   8.953 -0.1376  0.5773 -0.0250
 5419SOL    HW127719   2.450   1.293   8.937 -0.2464 -0.0367 -1.7897
 5419SOL    HW227720   2.334   1.320   9.027  1.0644 -1.7635  2.1337
 5420SOL     OW27721   4.408   4.640  12.315  0.7473 -0.4780 -0.3950
 5420SOL    HW127722   4.419   4.658  12.409 -0.8704 -0.2312 -0.2535
 5420SOL    HW227723   4.407   0.006  12.288  4.4272 -0.7694 -1.5669
 5421SOL     OW27724   1.667   2.217   4.761 -0.1972 -0.0465 -0.1969
 5421SOL    HW127725   1.682   2.308   4.786  0.6976 -0.0377 -0.7566
 5421SOL    HW227726   1.676   2.236   4.668  1.4784 -1.7736 -0.3949
 5422SOL     OW27727   3.831   3.363  13.386  0.4968  0.2825 -0.0800
 5422SOL    HW127728   3.855   3.288  13.441 -0.4215 -1.0557 -1.4735
 5422SOL    HW227729   3.897   3.427  13.411  0.4406  0.3159 -0.0175
 5423SOL     OW27730   2.687   3.571  13.108 -0.4590 -0.1293  0.6195
 5423SOL    HW127731   2.755   3.601  13.048 -2.0199  1.0980 -0.5291
 5423SOL    HW227732   2.607   3.577  13.056 -0.2074  0.0655  0.2605
 5424SOL     OW27733   0.032   1.887  10.808 -0.3110  0.6099  0.5821
 5424SOL    HW127734   0.076   1.810  10.845 -3.1251 -1.0332  0.5502
 5424SOL    HW227735   0.107   1.946  10.797 -0.4795  0.6560 -0.3170
 5425SOL     OW27736   2.475   2.029   6.923  0.0602  0.0531 -0.1877
 5425SOL    HW127737   2.385   2.062   6.925  0.2898  0.5934  1.4876
 5425SOL    HW227738   2.474   1.971   6.999 -2.4562  0.5104  0.1256
 5426SOL     OW27739   1.764   0.275   4.209 -0.4740 -0.0534  0.2132
 5426SOL    HW127740   1.779   0.334   4.135 -3.6431  2.0594  1.2782
 5426SOL    HW227741   1.669   0.268   4.213 -0.5892  0.0116 -2.3750
 5427SOL     OW27742   4.308   3.830   7.531  0.2425 -0.1486  0.5755
 5427SOL    HW127743   4.326   3.887   7.606  1.2254 -2.5152  2.1193
 5427SOL    HW227744   4.317   3.743   7.569 -1.6763 -0.1157  1.1578
 5428SOL     OW27745   4.679   0.296   3.933  0.2552 -0.1626 -0.4031
 5428SOL    HW127746   4.636   0.212   3.918  0.1144 -0.0289 -0.7626
 5428SOL    HW227747   4.604   0.355   3.945  0.1441 -0.6654  1.2762
 5429SOL     OW27748   1.590   4.546   0.734  0.0556 -0.0486  0.5265
 5429SOL    HW127749   1.579   4.457   0.701 -0.6010  0.7544 -1.4300
 5429SOL    HW227750   1.571   4.589   0.650 -1.4018  1.7561  1.7877
 5430SOL     OW27751   0.960   2.556  17.703  0.2450  0.0857  0.2886
 5430SOL    HW127752   0.865   2.563   0.005  0.8080  5.1980  2.9279
 5430SOL    HW227753   0.983   2.644   0.028  0.9143 -0.2491  0.7457
 5431SOL     OW27754   0.568   0.884  15.899 -0.1009 -0.0207 -0.5989
 5431SOL    HW127755   0.615   0.853  15.821  1.4078 -0.4492  0.4746
 5431SOL    HW227756   0.531   0.802  15.933  0.0758  0.1468 -0.0029
 5432SOL     OW27757   1.047   4.404   5.331 -0.5925 -0.4682  0.4272
 5432SOL    HW127758   1.101   4.337   5.287  0.2427  0.3963  0.1442
 5432SOL    HW227759   1.105   4.401   5.408  1.6710 -1.3484 -1.2895
 5433SOL     OW27760   1.462   1.510   6.966  0.0993  0.2118 -0.2619
 5433SOL    HW127761   1.385   1.528   6.912 -0.4822  1.9675  1.1698
 5433SOL    HW227762   1.517   1.588   6.963  2.0653 -1.0983  1.6873
 5434SOL     OW27763   4.229   4.500   1.874  0.2254 -0.7530 -0.2812
 5434SOL    HW127764   4.314   4.531   1.842  0.1587 -0.9103 -0.6185
 5434SOL    HW227765   4.250   4.407   1.883  2.9901  0.1959  3.0676
 5435SOL     OW27766   2.540   0.250  13.260 -0.1467 -0.3823  0.7761
 5435SOL    HW127767   2.579   0.319  13.313 -1.9705 -0.3828  2.0920
 5435SOL    HW227768   2.494   0.309  13.201  0.8494 -0.5469 -0.1596
 5436SOL     OW27769   3.925   0.837   7.490 -0.4939 -0.5340 -0.5042
 5436SOL    HW127770   3.849   0.884   7.456 -1.0428 -2.1037 -1.4461
 5436SOL    HW227771   3.989   0.828   7.419 -0.1779 -1.0156 -0.1578
 5437SOL     OW27772   0.688   3.067   7.151  0.1134 -0.2418 -0.0214
 5437SOL    HW127773   0.621   3.097   7.090  1.1929  1.9673 -0.1268
 5437SOL    HW227774   0.660   3.122   7.225 -0.6151  1.4283 -1.5366
 5438SOL     OW27775   4.536   0.152   0.278  0.2926 -0.4595  0.7001
 5438SOL    HW127776   4.519   0.137   0.185  1.6470  1.8296  0.0949
 5438SOL    HW227777   4.475   0.219   0.307 -1.3015 -1.6140  0.0051
 5439SOL     OW27778   2.235   1.191  12.618  0.0572 -0.3964  0.2272
 5439SOL    HW127779   2.191   1.112  12.587  0.7580 -0.8536  0.3960
 5439SOL    HW227780   2.186   1.262  12.578  3.0664  1.2353 -0.6095
 5440SOL     OW27781   2.477   2.547  13.732 -0.1701  0.1396  0.0250
 5440SOL    HW127782   2.556   2.591  13.761  1.4100 -1.5244 -1.8106
 5440SOL    HW227783   2.459   2.601  13.656 -1.2817  1.5935  1.3111
 5441SOL     OW27784   4.125   1.131  13.501  0.2412  0.5971  0.6505
 5441SOL    HW127785   4.044   1.163  13.541  0.0713  1.0598 -0.0509
 5441SOL    HW227786   4.163   1.103  13.584 -0.4611  1.0615  1.1306
 5442SOL     OW27787   1.795   2.285   6.728  0.7668  0.2747 -0.7228
 5442SOL    HW127788   1.786   2.304   6.635  0.6887 -0.2848 -0.8327
 5442SOL    HW227789   1.736   2.350   6.766  0.5472 -0.2155 -0.2295
 5443SOL     OW27790   2.413   2.605   5.825 -0.5671 -0.5702 -0.0653
 5443SOL    HW127791   2.444   2.526   5.781  0.0417  1.1084 -2.6191
 5443SOL    HW227792   2.343   2.632   5.765 -1.5590 -1.3977  0.7088
 5444SOL     OW27793   3.108   4.513   3.088  0.1738 -0.2486 -0.0087
 5444SOL    HW127794   3.184   4.533   3.033 -2.5736  1.8514 -3.0484
 5444SOL    HW227795   3.056   4.594   3.082  0.2844 -0.2705 -1.3358
 5445SOL     OW27796   1.726   0.839   7.850  0.0228 -0.5666 -0.1889
 5445SOL    HW127797   1.815   0.825   7.818 -0.0539 -1.7892  0.1615
 5445SOL    HW227798   1.671   0.785   7.794 -0.4253 -0.5493  0.2367
 5446SOL     OW27799   0.739   0.329   5.766 -0.3014 -0.1815  0.6161
 5446SOL    HW127800   0.687   0.321   5.686 -2.0014  0.1126  1.6813
 5446SOL    HW227801   0.736   0.424   5.782 -1.8945 -0.0314 -0.4868
 5447SOL     OW27802   1.765   3.037  13.536  0.5664  0.1205 -0.0095
 5447SOL    HW127803   1.817   3.115  13.554 -0.9426  0.8447  1.2302
 5447SOL    HW227804   1.685   3.055  13.585  0.3866 -0.3942 -0.1059
 5448SOL     OW27805   3.476   4.580   1.371  0.0292  0.2192  0.4048
 5448SOL    HW127806   3.483   4.666   1.330  2.2818 -0.7878 -1.3394
 5448SOL    HW227807   3.436   4.603   1.454  0.2890 -0.5642  0.7501
 5449SOL     OW27808   3.069   0.936   0.880 -0.3548  0.2884  0.3605
 5449SOL    HW127809   3.122   0.862   0.910  1.4470  0.2648 -2.8055
 5449SOL    HW227810   3.134   1.003   0.857  0.4880 -0.1920  1.3339
 5450SOL     OW27811   3.517   3.911  16.621  0.1366  0.2735 -0.1190
 5450SOL    HW127812   3.531   3.816  16.612  1.5795  0.6058 -1.4683
 5450SOL    HW227813   3.471   3.916  16.704 -1.7569 -1.0491 -1.0862
 5451SOL     OW27814   0.720   1.033   4.489  0.1596 -0.3732  0.3400
 5451SOL    HW127815   0.757   0.987   4.414  1.2129 -1.3666  1.4894
 5451SOL    HW227816   0.636   1.051   4.445  0.0475  0.7962  1.0113
 5452SOL     OW27817   0.668   2.606   0.510  0.2254  0.1488  0.2372
 5452SOL    HW127818   0.644   2.698   0.499  0.2925  0.4819  2.8125
 5452SOL    HW227819   0.757   2.613   0.474  0.1431 -1.6223 -0.2978
 5453SOL     OW27820   3.470   0.131   1.320 -0.0048 -0.5320 -0.2869
 5453SOL    HW127821   3.542   0.184   1.287 -0.9490  0.4083 -0.8269
 5453SOL    HW227822   3.390   0.152   1.271  2.3648  4.3055 -2.0805
 5454SOL     OW27823   3.380   3.472   5.579  0.6207 -0.4080  0.5796
 5454SOL    HW127824   3.451   3.411   5.557  0.2778 -1.1428  1.4877
 5454SOL    HW227825   3.437   3.546   5.598 -2.4131  1.1078  3.6509
 5455SOL     OW27826   4.126   3.202   6.963  0.1216 -0.0063  0.6593
 5455SOL    HW127827   4.115   3.269   7.030  1.2744  0.4406  0.4058
 5455SOL    HW227828   4.102   3.120   7.006 -0.8518 -0.9536 -1.6497
 5456SOL     OW27829   2.429   3.243   6.513 -0.1108  0.6316  0.2119
 5456SOL    HW127830   2.517   3.230   6.478 -0.5240  1.2462 -1.0588
 5456SOL    HW227831   2.433   3.336   6.537  1.6951  0.3138  1.1889
 5457SOL     OW27832   2.847   3.537   3.435  0.1183  0.1301  0.3647
 5457SOL    HW127833   2.771   3.499   3.478  0.5506  0.2219  1.2255
 5457SOL    HW227834   2.812   3.608   3.382 -0.1172  0.8258  1.4468
 5458SOL     OW27835   0.582   1.884   6.050  0.2309 -0.4228  0.2812
 5458SOL    HW127836   0.537   1.840   5.978  0.9335 -0.3441 -0.2071
 5458SOL    HW227837   0.534   1.847   6.125 -2.0064 -0.7773 -1.3550
 5459SOL     OW27838   1.470   2.534   4.784  0.2096 -0.1409 -0.4783
 5459SOL    HW127839   1.565   2.545   4.787  0.1850  0.3315 -1.3696
 5459SOL    HW227840   1.440   2.616   4.744  0.9747 -0.1082 -0.9937
 5460SOL     OW27841   3.951   2.591   4.126  0.2584 -1.0825 -0.1346
 5460SOL    HW127842   3.915   2.503   4.129  0.6542 -1.1690  2.2063
 5460SOL    HW227843   3.893   2.635   4.064  0.3340 -1.2193 -0.3027
 5461SOL     OW27844   3.166   0.103   5.678 -0.3588 -0.5262  0.0987
 5461SOL    HW127845   3.194   0.141   5.594 -0.8757  2.3973  1.2591
 5461SOL    HW227846   3.097   0.040   5.655 -2.5883  1.6367  0.8751
 5462SOL     OW27847   1.899   0.382   1.297 -0.0048  0.5251 -0.1991
 5462SOL    HW127848   1.846   0.318   1.250  0.3662  0.4608 -0.5338
 5462SOL    HW227849   1.920   0.328   1.373  2.1989  0.4187 -0.8979
 5463SOL     OW27850   4.469   3.205   0.278  0.0497 -0.0711  0.0213
 5463SOL    HW127851   4.417   3.124   0.282  2.2033 -1.3773  1.8225
 5463SOL    HW227852   4.523   3.176   0.204 -0.0572  1.1991 -0.5506
 5464SOL     OW27853   2.328   0.534   7.407 -0.2893  0.2413 -0.1439
 5464SOL    HW127854   2.381   0.608   7.380  1.4597 -1.5111 -1.5265
 5464SOL    HW227855   2.248   0.565   7.364  0.7487 -0.7752 -2.7746
 5465SOL     OW27856   2.169   3.896   4.020 -0.1450 -0.1806 -0.3430
 5465SOL    HW127857   2.172   3.809   3.979 -0.8236 -0.5233  0.3343
 5465SOL    HW227858   2.166   3.947   3.939  1.0956 -0.2727 -0.4408
 5466SOL     OW27859   1.472   4.118   3.322  0.3987  0.1769 -0.3671
 5466SOL    HW127860   1.471   4.159   3.236 -0.5209  0.6057 -0.1440
 5466SOL    HW227861   1.510   4.190   3.373  1.9622  0.2904 -1.6954
 5467SOL     OW27862   2.250   2.099   3.678  0.2761 -0.1371  0.4168
 5467SOL    HW127863   2.333   2.145   3.688  0.3003  0.4793 -2.6434
 5467SOL    HW227864   2.194   2.146   3.741  0.7295 -0.1578  0.8314
 5468SOL     OW27865   3.760   4.282   1.949  0.6588  0.6358 -0.3275
 5468SOL    HW127866   3.745   4.278   2.043  0.4940 -1.2765 -0.4362
 5468SOL    HW227867   3.765   4.375   1.930  2.0459  0.4899 -0.6816
 5469SOL     OW27868   2.170   1.970   6.079 -0.2300 -0.2401 -0.1460
 5469SOL    HW127869   2.162   1.958   5.984 -2.6750  0.0394  0.0428
 5469SOL    HW227870   2.170   1.878   6.107  2.5652 -0.2893 -0.2973
 5470SOL     OW27871   0.824   2.126   7.090 -0.0766  0.1782 -0.4853
 5470SOL    HW127872   0.814   2.056   7.154  2.6012 -0.9752 -1.3393
 5470SOL    HW227873   0.731   2.150   7.081  0.0694  0.1000 -2.2233
 5471SOL     OW27874   3.740   3.284   1.118  0.8393  0.1382 -0.0795
 5471SOL    HW127875   3.793   3.304   1.041  0.3467  0.6600 -0.2833
 5471SOL    HW227876   3.798   3.254   1.188  1.1034  0.2482 -0.2510
 5472SOL     OW27877   4.542   4.278   8.290 -0.4572  0.1082  0.0501
 5472SOL    HW127878   4.591   4.197   8.278 -0.9798 -0.3322  0.8881
 5472SOL    HW227879   4.450   4.253   8.282 -0.1726 -0.2522 -1.9974
 5473SOL     OW27880   1.968   4.582  11.940  0.4490 -0.2434  0.4768
 5473SOL    HW127881   2.061   4.593  11.922  0.2113  1.0255  0.0090
 5473SOL    HW227882   1.943   4.515  11.876 -1.0677  0.4996  0.2822
 5474SOL     OW27883   1.984   1.843  17.066  0.3422  0.0459 -0.3015
 5474SOL    HW127884   2.050   1.778  17.092  1.0783  1.0082  0.2109
 5474SOL    HW227885   1.995   1.900  17.142 -3.2942  1.2514 -0.7073
 5475SOL     OW27886   3.900   4.655   1.381 -0.2273 -0.5251  0.0772
 5475SOL    HW127887   3.860   4.704   1.452 -0.5680  1.9264 -1.7968
 5475SOL    HW227888   3.841   4.580   1.376 -1.5736  0.5151  0.2273
 5476SOL     OW27889   1.321   3.420   4.742  0.7119  0.3690 -0.3148
 5476SOL    HW127890   1.298   3.441   4.833 -0.6066  0.7314 -0.7326
 5476SOL    HW227891   1.373   3.497   4.722  1.5023 -0.4666 -1.4782
 5477SOL     OW27892   1.859   2.422   5.461 -0.0175 -0.5037 -0.2427
 5477SOL    HW127893   1.796   2.373   5.514 -0.9178  1.9176  0.9238
 5477SOL    HW227894   1.869   2.362   5.387 -0.9008  0.3208 -1.0418
 5478SOL     OW27895   4.157   2.287   3.162 -0.0390  0.1631 -0.3989
 5478SOL    HW127896   4.193   2.325   3.242  1.2038 -1.9600  0.0426
 5478SOL    HW227897   4.198   2.333   3.088 -2.3713 -0.1218 -1.8614
 5479SOL     OW27898   4.104   3.508  12.664  0.2760 -0.5099  0.5627
 5479SOL    HW127899   4.024   3.464  12.635  0.0486 -0.5214  1.2150
 5479SOL    HW227900   4.156   3.441  12.707  0.0853  0.3746  2.1528
 5480SOL     OW27901   0.996   1.486   9.082  0.3298 -0.1753 -0.4629
 5480SOL    HW127902   1.041   1.505   9.164 -1.2564  0.7861  0.1835
 5480SOL    HW227903   1.051   1.538   9.023  0.4706  2.8048  2.2958
 5481SOL     OW27904   3.527   1.118   5.630  0.0990 -0.1987  0.0993
 5481SOL    HW127905   3.532   1.165   5.547  0.4547 -0.5819 -0.0926
 5481SOL    HW227906   3.609   1.074   5.611  0.0293 -1.5622  2.9421
 5482SOL     OW27907   0.728   0.598   5.810 -0.4665  0.3139  0.0530
 5482SOL    HW127908   0.719   0.633   5.899 -2.0695 -2.0991  0.8233
 5482SOL    HW227909   0.643   0.626   5.776 -0.6636  0.5047  0.6892
 5483SOL     OW27910   2.119   1.370   7.840 -0.7323  0.0994  0.1718
 5483SOL    HW127911   2.051   1.360   7.773 -0.6153 -1.7651  0.3427
 5483SOL    HW227912   2.122   1.283   7.879 -1.6760 -0.0866 -0.1882
 5484SOL     OW27913   4.301   3.856   6.010  0.2264  0.7991  0.2791
 5484SOL    HW127914   4.255   3.864   6.094  0.7684  4.3101  0.2132
 5484SOL    HW227915   4.254   3.926   5.966  0.4609  0.7177 -0.1023
 5485SOL     OW27916   2.123   1.793   4.252  0.2573  0.3226 -0.3072
 5485SOL    HW127917   2.078   1.790   4.168 -0.3084 -0.4651  0.0249
 5485SOL    HW227918   2.151   1.702   4.268 -2.6241 -0.4982  0.1005
 5486SOL     OW27919   3.891   3.190   1.806 -0.8435  0.1568 -0.0123
 5486SOL    HW127920   3.849   3.244   1.873 -0.2699  0.1505  0.3527
 5486SOL    HW227921   3.837   3.203   1.728  1.1720  3.6193 -0.8163
 5487SOL     OW27922   2.966   1.231   5.837  0.3905 -0.0636 -0.1784
 5487SOL    HW127923   2.935   1.322   5.843  1.3251  0.2913 -0.7718
 5487SOL    HW227924   2.920   1.219   5.753  0.2058  1.9269 -0.3788
 5488SOL     OW27925   3.830   1.347  10.306 -0.0723  0.1773 -0.2234
 5488SOL    HW127926   3.856   1.359  10.398 -1.4817  2.9124 -0.1907
 5488SOL    HW227927   3.917   1.321  10.275  0.3818  0.6159  0.6670
 5489SOL     OW27928   1.218   2.238  14.025  0.2223  1.1268 -0.4942
 5489SOL    HW127929   1.242   2.176  13.956 -1.3617  1.1708 -1.0819
 5489SOL    HW227930   1.188   2.320  13.986  3.0052  1.4559 -1.9180
 5490SOL     OW27931   3.125   3.992   8.061  0.2716 -0.0588  0.2188
 5490SOL    HW127932   3.083   3.925   8.008  1.5253 -2.0341  1.6850
 5490SOL    HW227933   3.179   4.029   7.992  1.2279  1.1421  1.5973
 5491SOL     OW27934   3.965   2.419   2.694 -0.1569 -0.0628  0.1659
 5491SOL    HW127935   3.971   2.342   2.638  1.3685 -0.5701  1.0451
 5491SOL    HW227936   3.994   2.383   2.778  0.4680 -0.1936 -0.1064
 5492SOL     OW27937   0.009   0.413  10.036  0.1109 -0.4749 -0.0465
 5492SOL    HW127938   4.718   0.322  10.010 -3.8799 -0.0736  1.1400
 5492SOL    HW227939   4.645   0.445  10.033 -0.6485 -2.4222  2.2908
 5493SOL     OW27940   3.541   4.245   7.042  0.0113 -0.4166 -0.0653
 5493SOL    HW127941   3.565   4.315   7.103  0.2192  1.2420 -2.0325
 5493SOL    HW227942   3.557   4.290   6.959  0.1295 -0.5711 -0.1245
 5494SOL     OW27943   2.959   2.574   0.815  0.4545  0.3050 -0.1589
 5494SOL    HW127944   2.875   2.606   0.783  0.8920  0.1441 -1.4825
 5494SOL    HW227945   2.928   2.513   0.883 -0.1275  0.3360 -0.3916
 5495SOL     OW27946   2.096   3.060  14.325 -0.4388  0.1303  0.1546
 5495SOL    HW127947   2.035   3.078  14.254  1.0412  2.3945 -0.5663
 5495SOL    HW227948   2.081   3.143  14.372 -0.2726  0.1345  0.2017
 5496SOL     OW27949   1.062   2.358   4.579 -0.0729  0.2755 -0.0285
 5496SOL    HW127950   1.036   2.345   4.487  0.3968  2.1265 -0.4176
 5496SOL    HW227951   1.157   2.356   4.568 -0.3421 -1.3037 -2.0649
 5497SOL     OW27952   2.742   0.686   6.665 -0.1043  0.0671  0.1825
 5497SOL    HW127953   2.835   0.698   6.644 -0.3739  1.5091 -0.1545
 5497SOL    HW227954   2.698   0.752   6.612 -0.2702  0.1545  0.4255
 5498SOL     OW27955   3.701   4.052   0.320 -0.2954  0.3489  0.1359
 5498SOL    HW127956   3.749   4.018   0.396 -1.4635  0.4914  0.9421
 5498SOL    HW227957   3.724   4.145   0.316 -1.4277  0.6704  1.1662
 5499SOL     OW27958   2.589   0.904  15.649  0.2249  0.4960 -0.9737
 5499SOL    HW127959   2.520   0.839  15.667  0.1423  1.3160  1.6677
 5499SOL    HW227960   2.550   0.960  15.582 -1.3365 -1.0819 -1.4073
 5500SOL     OW27961   1.601   1.085  12.558  0.5309 -0.2044 -0.6604
 5500SOL    HW127962   1.662   1.057  12.626 -0.8870 -0.7311  0.4125
 5500SOL    HW227963   1.516   1.064  12.597 -0.3098  1.5706 -1.5336
 5501SOL     OW27964   2.218   0.637  17.124  0.6509 -0.0400  0.0150
 5501SOL    HW127965   2.247   0.574  17.190 -0.4682 -0.5539  0.0163
 5501SOL    HW227966   2.293   0.653  17.067  1.5883 -1.8757  0.7153
 5502SOL     OW27967   1.229   2.276  13.229  0.3437  0.0322 -0.2701
 5502SOL    HW127968   1.321   2.254  13.211 -0.0074 -2.5149  1.1019
 5502SOL    HW227969   1.246   2.370  13.230 -0.1095  0.0901  1.1244
 5503SOL     OW27970   0.590   2.416   2.808 -0.1769 -0.3067 -0.2657
 5503SOL    HW127971   0.529   2.416   2.883 -0.8209  1.9029 -0.7670
 5503SOL    HW227972   0.550   2.344   2.760  1.2952 -0.6571 -0.9471
 5504SOL     OW27973   0.888   3.371   8.753 -0.0920  0.5025 -0.2393
 5504SOL    HW127974   0.912   3.423   8.830 -0.8718 -0.8187  0.9036
 5504SOL    HW227975   0.792   3.376   8.753 -0.0612  1.0041 -1.1607
 5505SOL     OW27976   0.995   2.810   5.257 -0.0765 -0.6018 -0.0653
 5505SOL    HW127977   1.062   2.803   5.325  0.0043  0.1478 -0.0638
 5505SOL    HW227978   0.937   2.884   5.277  1.9827  0.5730  1.5614
 5506SOL     OW27979   2.842   3.536   7.196 -0.2827 -0.0061  0.0014
 5506SOL    HW127980   2.874   3.555   7.285 -1.3814  1.5091  0.0686
 5506SOL    HW227981   2.881   3.604   7.142  0.7798  0.4179  1.3110
 5507SOL     OW27982   0.776   3.624  12.446 -0.3460 -0.6185 -0.1165
 5507SOL    HW127983   0.826   3.658  12.372 -1.0127  0.5385 -0.0365
 5507SOL    HW227984   0.848   3.591  12.499  0.0869  2.6923  1.3826
 5508SOL     OW27985   4.076   1.290   7.456 -0.3838 -0.0931 -0.1730
 5508SOL    HW127986   4.069   1.223   7.523 -1.0349  1.2564  1.1213
 5508SOL    HW227987   4.133   1.245   7.394 -0.1735 -0.0787  0.0099
 5509SOL     OW27988   4.438   0.480   9.986  0.5611 -0.2521 -0.2540
 5509SOL    HW127989   4.390   0.412   9.938  0.9671 -0.9371  0.3077
 5509SOL    HW227990   4.435   0.443  10.074  0.4709  2.6483  0.9391
 5510SOL     OW27991   4.438   2.377   8.532 -0.3790 -0.3342 -0.8322
 5510SOL    HW127992   4.393   2.301   8.569 -0.5947  0.5793  0.7920
 5510SOL    HW227993   4.397   2.446   8.583  1.6820  0.6255 -0.4719
 5511SOL     OW27994   4.015   4.373   3.463  0.1416 -0.2117 -0.1195
 5511SOL    HW127995   3.934   4.324   3.481  0.4638 -1.4162 -1.9559
 5511SOL    HW227996   4.086   4.318   3.496 -0.4542  0.7369  2.7123
 5512SOL     OW27997   4.594   2.170   0.440  0.1155  0.3384 -0.0582
 5512SOL    HW127998   4.513   2.221   0.449  0.4610  1.2961 -2.3128
 5512SOL    HW227999   4.656   2.237   0.410 -1.5665  1.1604 -1.6519
 5513SOL     OW28000   1.671   3.738  11.261  0.4777 -0.1583  0.1918
 5513SOL    HW128001   1.674   3.675  11.188 -1.4892  0.3749 -0.3355
 5513SOL    HW228002   1.587   3.726  11.304 -1.3711  0.3291 -3.3016
 5514SOL     OW28003   0.467   2.684   6.685 -0.2999 -0.5627  0.3425
 5514SOL    HW128004   0.416   2.762   6.668 -0.0383 -0.2221  1.1235
 5514SOL    HW228005   0.521   2.674   6.606  2.4701  2.4745  1.8264
 5515SOL     OW28006   1.634   4.514   6.909 -0.1497 -0.2865 -0.6983
 5515SOL    HW128007   1.594   4.600   6.902  1.0125  0.3072  0.1026
 5515SOL    HW228008   1.719   4.531   6.868 -0.1791  0.2451 -0.5342
 5516SOL     OW28009   0.937   1.749   2.606 -0.2764 -0.1184  0.1408
 5516SOL    HW128010   0.926   1.679   2.542  1.1049  0.0742 -0.2804
 5516SOL    HW228011   0.845   1.764   2.630 -0.1517  1.2962 -0.2818
 5517SOL     OW28012   1.821   1.646   2.408  0.3899  0.1223 -0.2934
 5517SOL    HW128013   1.765   1.662   2.484  0.7484  0.1819 -0.0372
 5517SOL    HW228014   1.872   1.728   2.409 -0.3083  0.5467  1.0179
 5518SOL     OW28015   2.789   0.304   7.023  0.3089 -0.0735 -0.1069
 5518SOL    HW128016   2.838   0.225   6.999  1.1391  0.4324 -0.0818
 5518SOL    HW228017   2.810   0.351   6.942 -0.4803 -0.7572 -0.7137
 5519SOL     OW28018   0.975   3.484  10.294  0.5279 -0.0046  0.7008
 5519SOL    HW128019   0.906   3.440  10.245 -0.4333 -0.5047  2.5222
 5519SOL    HW228020   0.925   3.541  10.353 -0.0110 -1.2954  1.4920
 5520SOL     OW28021   0.675   2.874   3.118 -0.3384  0.1944  0.0125
 5520SOL    HW128022   0.658   2.787   3.083  1.4674 -1.5422  3.3955
 5520SOL    HW228023   0.622   2.867   3.197  2.0805 -0.3874  1.5910
 5521SOL     OW28024   4.137   0.052   2.709  0.1670 -0.1196 -0.0792
 5521SOL    HW128025   4.058   4.725   2.704  0.1377  0.0332 -1.2198
 5521SOL    HW228026   4.198   0.005   2.653 -0.1390  1.4849 -1.7512
 5522SOL     OW28027   3.216   1.471   6.658  0.6211 -0.0862  0.6584
 5522SOL    HW128028   3.238   1.380   6.676  0.4120  0.1554  2.1387
 5522SOL    HW228029   3.233   1.476   6.564 -2.0487 -1.1360  0.1516
 5523SOL     OW28030   1.262   3.883   1.106 -0.5482 -0.2361 -0.2338
 5523SOL    HW128031   1.310   3.947   1.158  0.1433 -0.2556 -0.8450
 5523SOL    HW228032   1.293   3.901   1.017 -0.0698  3.5034  0.6740
 5524SOL     OW28033   3.291   4.039   6.790  0.4010 -0.1220  0.9600
 5524SOL    HW128034   3.237   4.082   6.724 -1.2485  0.6964  2.8594
 5524SOL    HW228035   3.219   4.027   6.852 -0.3708 -1.1755 -0.1436
 5525SOL     OW28036   3.292   0.079  16.692  0.0536 -0.1719  0.5159
 5525SOL    HW128037   3.320   4.724  16.737 -1.0340  0.3181  2.0675
 5525SOL    HW228038   3.351   0.147  16.725 -0.2825  0.1140  0.5256
 5526SOL     OW28039   4.550   3.185  14.128  0.2635 -0.4685 -0.5998
 5526SOL    HW128040   4.587   3.268  14.101  1.0038 -0.7056 -0.2957
 5526SOL    HW228041   4.532   3.207  14.219  1.4555  0.8058 -0.6907
 5527SOL     OW28042   4.371   0.588   8.249 -0.3736  0.3575 -0.3400
 5527SOL    HW128043   4.356   0.647   8.175 -2.7620  0.0145 -0.1299
 5527SOL    HW228044   4.406   0.516   8.197  2.3202  0.8247  0.8516
 5528SOL     OW28045   0.313   2.885   6.611  0.1347  0.3016  0.2036
 5528SOL    HW128046   0.247   2.833   6.566 -0.6648  1.2103  0.3240
 5528SOL    HW228047   0.290   2.974   6.585 -1.9977 -0.6237 -1.0136
 5529SOL     OW28048   0.228   0.295  15.883 -0.1770  0.7013  0.3435
 5529SOL    HW128049   0.189   0.215  15.919  3.3642  0.0658  2.7812
 5529SOL    HW228050   0.187   0.306  15.798  0.0980 -1.0974 -0.0212
 5530SOL     OW28051   3.257   4.215   5.873  0.2089 -0.5156 -0.5373
 5530SOL    HW128052   3.243   4.122   5.884  0.5915 -0.2661  2.0332
 5530SOL    HW228053   3.213   4.229   5.789  0.3683  0.8455 -0.3996
 5531SOL     OW28054   3.162   4.283   6.640  0.4041 -0.7525  0.3343
 5531SOL    HW128055   3.085   4.241   6.679  0.7728 -0.7393  1.0849
 5531SOL    HW228056   3.202   4.330   6.714 -0.7020 -1.3330  1.3034
 5532SOL     OW28057   3.331   1.438   9.273 -0.2108  0.8664 -0.3902
 5532SOL    HW128058   3.323   1.384   9.194  1.1324  1.0418 -0.6412
 5532SOL    HW228059   3.389   1.395   9.336 -0.3176  1.8338  0.3612
 5533SOL     OW28060   2.563   2.155   5.219  0.5512 -0.0183 -0.2460
 5533SOL    HW128061   2.639   2.141   5.162  2.8843  2.0056  2.3507
 5533SOL    HW228062   2.600   2.129   5.303 -0.3669  2.0880  0.7969
 5534SOL     OW28063   3.464   0.291   1.571  0.5211 -0.0069  0.4021
 5534SOL    HW128064   3.482   0.225   1.504 -0.6596 -0.2270  0.2992
 5534SOL    HW228065   3.400   0.250   1.630  1.7745 -0.1635  1.6638
 5535SOL     OW28066   2.407   2.608   2.816  0.1407 -0.3125 -0.3525
 5535SOL    HW128067   2.386   2.524   2.776  1.5071 -0.0575 -1.6045
 5535SOL    HW228068   2.498   2.585   2.837  0.0281 -0.1024  0.3630
 5536SOL     OW28069   3.467   0.910  14.448  0.3193  0.0346 -0.5220
 5536SOL    HW128070   3.439   0.998  14.421 -1.3157 -0.8718 -1.8024
 5536SOL    HW228071   3.411   0.864  14.385 -0.0728 -3.5421  2.4384
 5537SOL     OW28072   4.605   3.568   3.067  0.4825 -0.3380 -0.3356
 5537SOL    HW128073   4.656   3.649   3.070 -2.2290  1.3016  1.5829
 5537SOL    HW228074   4.659   3.497   3.103 -2.0762 -1.9323  0.4034
 5538SOL     OW28075   0.330   2.508   9.592 -1.0514 -0.0008  0.0292
 5538SOL    HW128076   0.331   2.552   9.677 -2.0476 -0.7410  0.4241
 5538SOL    HW228077   0.398   2.547   9.538 -1.3782 -1.7129 -1.6082
 5539SOL     OW28078   2.131   3.794   1.640  0.2933  0.2919  0.4443
 5539SOL    HW128079   2.041   3.764   1.638  1.1326 -2.1596 -0.3378
 5539SOL    HW228080   2.179   3.722   1.598 -0.0007  0.1540  0.3437
 5540SOL     OW28081   3.658   1.842   2.021 -0.0833  0.0636  0.6450
 5540SOL    HW128082   3.702   1.758   2.010  0.7569  0.4106  1.3482
 5540SOL    HW228083   3.701   1.899   1.956 -0.3829 -2.5662 -1.8617
 5541SOL     OW28084   3.786   2.679   2.609  0.1130 -0.1161 -0.7068
 5541SOL    HW128085   3.803   2.606   2.668  1.4492  0.7589  0.0002
 5541SOL    HW228086   3.868   2.702   2.566 -0.0902 -0.0731 -1.0695
 5542SOL     OW28087   2.377   1.360   9.194  0.0504 -0.1174  0.5606
 5542SOL    HW128088   2.300   1.369   9.250  0.4663 -1.2435  1.3234
 5542SOL    HW228089   2.410   1.449   9.181 -1.1615  0.5407  2.0286
 5543SOL     OW28090   4.596   0.932  17.332  0.1487 -0.0395  0.3088
 5543SOL    HW128091   4.638   0.903  17.251  0.6464 -3.2728  1.7128
 5543SOL    HW228092   4.553   0.848  17.348 -0.0256 -0.2819 -1.4348
 5544SOL     OW28093   1.628   3.452  17.443  0.2872 -0.0355  0.2046
 5544SOL    HW128094   1.551   3.506  17.462  0.8121  0.4470  0.9655
 5544SOL    HW228095   1.596   3.394  17.374 -0.9876  0.8528  0.0439
 5545SOL     OW28096   1.380   1.281  15.581 -0.3197  0.1665  0.5499
 5545SOL    HW128097   1.427   1.363  15.565 -2.1943  1.2588  0.6617
 5545SOL    HW228098   1.318   1.276  15.507  0.9334 -0.2535 -0.4773
 5546SOL     OW28099   3.360   2.283  17.373  0.3857  0.0737 -0.2313
 5546SOL    HW128100   3.428   2.253  17.432 -0.1729 -2.1374 -0.7043
 5546SOL    HW228101   3.401   2.272  17.287 -1.1812  0.4495 -1.0289
 5547SOL     OW28102   2.141   0.434   7.115 -0.2540  0.0156  0.1981
 5547SOL    HW128103   2.076   0.386   7.063  0.3923 -1.6096  0.9006
 5547SOL    HW228104   2.168   0.504   7.055  0.2793 -1.4159 -1.2305
 5548SOL     OW28105   1.374   0.409  17.167  0.1736  0.2408 -0.3583
 5548SOL    HW128106   1.359   0.323  17.205  0.5731  0.2326 -0.2185
 5548SOL    HW228107   1.428   0.448  17.236 -0.1480 -0.0072  0.0318
 5549SOL     OW28108   4.612   0.433   2.255  0.2593 -0.1117  0.2123
 5549SOL    HW128109   4.660   0.510   2.287  1.4335  0.2809 -2.4466
 5549SOL    HW228110   4.678   0.399   2.195  0.1263  2.1509 -1.2351
 5550SOL     OW28111   4.289   4.307   5.028  0.2336  0.0768  0.0033
 5550SOL    HW128112   4.380   4.284   5.047  0.1775 -1.2666 -1.3344
 5550SOL    HW228113   4.247   4.227   5.059  0.0059 -0.2536 -1.1446
 5551SOL     OW28114   0.301   1.121   5.020 -0.2685  0.1217  0.0434
 5551SOL    HW128115   0.265   1.034   5.037 -0.1244  0.1887  0.6918
 5551SOL    HW228116   0.379   1.102   4.968 -0.0289  0.9185  0.1039
 5552SOL     OW28117   4.254   2.410   3.833 -0.2721  0.0292  0.0100
 5552SOL    HW128118   4.172   2.396   3.881  0.0614 -0.8564  0.3331
 5552SOL    HW228119   4.244   2.342   3.766  0.3851 -2.6874  2.6545
 5553SOL     OW28120   0.702   1.724  11.845  0.2801  0.1994 -0.4906
 5553SOL    HW128121   0.615   1.753  11.875  0.7347 -0.5740  1.6282
 5553SOL    HW228122   0.695   1.629  11.854  1.1222  0.1979  0.1923
 5554SOL     OW28123   0.287   4.556  10.717 -0.3700  0.1671  0.6167
 5554SOL    HW128124   0.381   4.547  10.734 -0.0869  0.0260 -1.0472
 5554SOL    HW228125   0.287   4.649  10.696  0.8721 -0.4645 -2.1192
 5555SOL     OW28126   1.846   3.553   7.723  0.8637 -0.5207  0.3793
 5555SOL    HW128127   1.932   3.561   7.683  0.2199 -2.3593 -1.3776
 5555SOL    HW228128   1.791   3.579   7.648 -0.6564 -0.7257  1.4114
 5556SOL     OW28129   3.325   1.941   1.614  0.0692  0.0108 -0.1050
 5556SOL    HW128130   3.398   1.888   1.583 -0.5569 -0.1950 -1.2005
 5556SOL    HW228131   3.255   1.919   1.553 -0.2009  1.7842 -0.4334
 5557SOL     OW28132   1.789   1.854   6.304 -0.3591 -0.2619  0.1341
 5557SOL    HW128133   1.729   1.872   6.232 -0.9471 -1.9817  0.1793
 5557SOL    HW228134   1.843   1.932   6.297  0.1035 -0.7200 -1.4293
 5558SOL     OW28135   1.948   1.210   5.519  0.1407 -0.2365 -0.0445
 5558SOL    HW128136   1.897   1.290   5.505  1.6220  0.7591  0.1750
 5558SOL    HW228137   1.891   1.145   5.559 -0.1869 -0.7247 -1.3180
 5559SOL     OW28138   3.079   3.551   3.585 -0.1750  0.2368  0.1345
 5559SOL    HW128139   2.996   3.526   3.545  0.1390  2.8410 -2.1854
 5559SOL    HW228140   3.106   3.618   3.522 -0.7741 -0.9809 -1.4153
 5560SOL     OW28141   0.508   1.701   4.401  0.0875  0.7399  0.0406
 5560SOL    HW128142   0.476   1.771   4.345  3.1382  0.3676 -2.1768
 5560SOL    HW228143   0.437   1.653   4.443 -0.3235  1.1111 -0.2395
 5561SOL     OW28144   3.071   0.524   6.650  0.3570 -0.2752  0.3057
 5561SOL    HW128145   3.004   0.470   6.607  1.6860 -1.9053  0.2899
 5561SOL    HW228146   3.045   0.511   6.741  1.6978  1.1463  0.8767
 5562SOL     OW28147   3.279   3.486   1.922 -0.4611  0.0157  0.5815
 5562SOL    HW128148   3.280   3.406   1.871  1.2636  0.5476 -0.1969
 5562SOL    HW228149   3.336   3.474   1.998  0.7562  1.8946 -0.0259
 5563SOL     OW28150   1.025   1.597   4.852  0.4543 -0.8745  0.3370
 5563SOL    HW128151   1.029   1.523   4.912 -0.9218 -2.4761 -1.5575
 5563SOL    HW228152   0.934   1.623   4.867 -0.1449 -2.0286 -1.3609
 5564SOL     OW28153   3.220   3.454   9.235 -0.1313  0.0647  0.5461
 5564SOL    HW128154   3.132   3.489   9.219 -0.1592 -1.3121 -2.2931
 5564SOL    HW228155   3.238   3.504   9.315 -2.9390  1.3729  0.3510
 5565SOL     OW28156   0.348   4.306   8.245  0.1192 -0.4022  0.3523
 5565SOL    HW128157   0.277   4.253   8.210 -0.2669 -0.1500  0.7499
 5565SOL    HW228158   0.382   4.356   8.171  1.9728 -0.4056  1.1912
 5566SOL     OW28159   1.600   1.187   3.948 -0.2192 -0.1260 -0.3765
 5566SOL    HW128160   1.557   1.254   4.001  0.1911 -1.3469  1.5040
 5566SOL    HW228161   1.549   1.185   3.867  0.7469 -1.0556 -0.9661
 5567SOL     OW28162   0.595   4.314   8.430 -0.1452 -0.2796 -0.1240
 5567SOL    HW128163   0.634   4.236   8.389  1.4152  1.4495 -1.9353
 5567SOL    HW228164   0.501   4.303   8.418  0.1666 -0.4731 -2.3179
 5568SOL     OW28165   0.074   2.524  12.376 -0.4534  0.0555 -0.3717
 5568SOL    HW128166   0.047   2.611  12.406 -2.9599  0.4483 -3.8072
 5568SOL    HW228167   0.169   2.527  12.372 -0.5153 -0.5275 -2.0952
 5569SOL     OW28168   2.394   0.736   9.809  0.7829 -0.7391  0.2062
 5569SOL    HW128169   2.308   0.713   9.845 -0.6790 -0.2691 -3.0186
 5569SOL    HW228170   2.424   0.657   9.764  1.3784 -0.2517 -0.2496
 5570SOL     OW28171   0.635   2.290  11.944 -0.5763 -0.1914 -0.3067
 5570SOL    HW128172   0.706   2.261  11.887  0.1207 -0.8734  0.9138
 5570SOL    HW228173   0.668   2.379  11.950  0.2605 -0.6992  2.8713
 5571SOL     OW28174   4.722   1.521   6.197  0.2465  0.0400  0.9381
 5571SOL    HW128175   4.665   1.447   6.178  0.6147  0.7667 -2.8737
 5571SOL    HW228176   4.703   1.523   6.291 -0.8131 -2.3251  0.7624
 5572SOL     OW28177   0.753   4.457   4.248 -0.5159 -0.3424  0.3177
 5572SOL    HW128178   0.846   4.436   4.243 -0.7496 -0.9600 -1.4306
 5572SOL    HW228179   0.764   4.552   4.248 -1.0288 -0.2815  0.5769
 5573SOL     OW28180   1.827   3.505   8.841 -0.1088 -0.5056  0.4323
 5573SOL    HW128181   1.738   3.538   8.850 -0.2448 -0.7680  0.0598
 5573SOL    HW228182   1.873   3.579   8.801 -0.8427 -0.0338  0.4699
 5574SOL     OW28183   0.647   1.161   7.472  0.2679  0.5669  0.1299
 5574SOL    HW128184   0.634   1.212   7.392 -2.5275 -1.9335 -1.0280
 5574SOL    HW228185   0.742   1.152   7.472  0.1225 -0.9756  0.1787
 5575SOL     OW28186   1.628   3.999   2.220 -0.3937 -0.3225  0.3940
 5575SOL    HW128187   1.680   3.940   2.276  0.0147  0.5275  0.9138
 5575SOL    HW228188   1.681   3.994   2.140 -0.3811  1.2234  0.3187
 5576SOL     OW28189   4.361   0.867   5.497 -0.0287 -0.0804 -0.1426
 5576SOL    HW128190   4.372   0.805   5.569 -0.5452 -0.0992 -0.0843
 5576SOL    HW228191   4.417   0.824   5.432 -0.0892 -2.1014  1.1679
 5577SOL     OW28192   3.301   2.347   6.726 -0.5862 -0.4486 -0.0620
 5577SOL    HW128193   3.374   2.350   6.664 -1.5226  1.6147 -1.0549
 5577SOL    HW228194   3.283   2.441   6.733 -0.3682 -0.4979  1.1092
 5578SOL     OW28195   3.119   0.927   4.719 -0.1980  0.1291 -0.5885
 5578SOL    HW128196   3.140   0.945   4.628  2.3255 -0.3541 -0.0959
 5578SOL    HW228197   3.209   0.925   4.751 -0.2638  1.6498 -0.3092
 5579SOL     OW28198   1.430   4.700   9.042  0.1002  0.3955 -0.3354
 5579SOL    HW128199   1.518   4.677   9.069 -0.8925 -1.5214  1.2708
 5579SOL    HW228200   1.389   4.614   9.048  0.7517 -0.0347 -2.3151
 5580SOL     OW28201   3.159   2.341  15.493  0.8077 -0.3137 -0.2361
 5580SOL    HW128202   3.145   2.430  15.460 -0.6409  0.4654  2.4543
 5580SOL    HW228203   3.153   2.361  15.586  1.0442 -1.8932  0.1125
 5581SOL     OW28204   4.551   0.572  15.108  0.3634 -0.1175 -0.3400
 5581SOL    HW128205   4.586   0.604  15.191 -1.2923  1.8337 -0.3966
 5581SOL    HW228206   4.495   0.502  15.142 -1.5205  1.4344 -0.2508
 5582SOL     OW28207   4.549   2.398   3.148  0.2498 -0.3109  0.0788
 5582SOL    HW128208   4.632   2.370   3.108 -0.3479 -0.6923 -0.8966
 5582SOL    HW228209   4.589   2.416   3.233 -0.6536 -1.2204  0.6922
 5583SOL     OW28210   3.218   1.443   2.297 -0.1393  0.7016 -0.6080
 5583SOL    HW128211   3.219   1.392   2.378 -0.0262  0.9418 -0.4582
 5583SOL    HW228212   3.156   1.401   2.237 -1.4343  0.1952  1.0584
 5584SOL     OW28213   0.524   4.179   6.511 -0.2210 -0.7850  0.0431
 5584SOL    HW128214   0.572   4.115   6.564 -0.2192 -1.0109 -0.2300
 5584SOL    HW228215   0.465   4.117   6.467 -0.5769 -0.4022 -0.0100
 5585SOL     OW28216   0.542   2.662   9.476 -0.4539 -0.3645  0.2918
 5585SOL    HW128217   0.587   2.660   9.392  0.7206  0.1530  0.9169
 5585SOL    HW228218   0.529   2.756   9.482  2.3626  0.0388 -0.3978
 5586SOL     OW28219   1.698   4.028   8.133 -0.1635 -0.2767 -0.0449
 5586SOL    HW128220   1.679   4.120   8.152  0.4552 -0.6536  2.3616
 5586SOL    HW228221   1.661   3.980   8.207 -0.8778 -3.0635 -2.1724
 5587SOL     OW28222   1.303   2.157   3.374  0.1297 -0.2986  0.5067
 5587SOL    HW128223   1.314   2.252   3.381 -1.6443 -0.0650  0.0324
 5587SOL    HW228224   1.347   2.150   3.289  1.1363  0.6771  0.9396
 5588SOL     OW28225   1.744   1.344   3.731 -0.4849  0.0810  0.0995
 5588SOL    HW128226   1.711   1.434   3.732 -2.2073 -0.5444 -0.1347
 5588SOL    HW228227   1.832   1.352   3.695  0.9046  0.2681  3.5866
 5589SOL     OW28228   0.141   1.479  12.145 -0.1212  0.1366  0.0251
 5589SOL    HW128229   0.130   1.513  12.057 -1.0884  1.1391  0.5346
 5589SOL    HW228230   0.161   1.560  12.191  0.8179 -0.5831  0.8898
 5590SOL     OW28231   4.078   3.512   1.941 -0.3471  0.8647 -0.3093
 5590SOL    HW128232   4.030   3.499   1.860 -0.0293  0.8017 -0.4893
 5590SOL    HW228233   4.131   3.432   1.939  0.7690  1.5361  1.9197
 5591SOL     OW28234   2.323   3.980   3.464  0.0123 -0.5593 -1.2515
 5591SOL    HW128235   2.383   4.031   3.409  0.0675 -0.5881 -1.2186
 5591SOL    HW228236   2.235   3.995   3.430 -0.3835 -0.0893 -0.0046
 5592SOL     OW28237   0.761   2.494   3.798  0.9996 -0.1535  0.3695
 5592SOL    HW128238   0.743   2.405   3.827  1.0555 -0.5901 -0.8998
 5592SOL    HW228239   0.690   2.490   3.733 -0.6103  2.2721  1.9845
 5593SOL     OW28240   3.116   4.169  12.920  0.2880 -0.4375  0.1687
 5593SOL    HW128241   3.172   4.239  12.954  0.5374  0.7009 -2.6307
 5593SOL    HW228242   3.031   4.201  12.949 -0.0761 -0.4628 -0.8666
 5594SOL     OW28243   4.511   3.665   7.360 -0.7649  0.5314 -0.2815
 5594SOL    HW128244   4.511   3.729   7.431 -0.8727 -0.0151  0.2080
 5594SOL    HW228245   4.600   3.669   7.326 -0.7018  1.2131 -0.0195
 5595SOL     OW28246   0.361   1.153   3.470 -0.1424 -0.2952 -0.2408
 5595SOL    HW128247   0.389   1.231   3.517 -0.0298  0.3551 -1.3954
 5595SOL    HW228248   0.271   1.181   3.455 -1.0998 -3.7253 -0.8146
 5596SOL     OW28249   2.657   3.696   3.316  0.2175 -0.7148 -0.2658
 5596SOL    HW128250   2.645   3.623   3.256 -2.3232  0.4271 -1.1450
 5596SOL    HW228251   2.641   3.777   3.266 -0.2754 -0.0455  0.9731
 5597SOL     OW28252   2.503   3.589   5.351 -0.2701 -0.0082 -0.1763
 5597SOL    HW128253   2.488   3.671   5.398 -2.1399  0.2946 -1.3120
 5597SOL    HW228254   2.561   3.550   5.416 -1.6115 -2.1424 -0.2606
 5598SOL     OW28255   0.755   2.639   5.242  0.0135  0.0652 -0.2572
 5598SOL    HW128256   0.843   2.674   5.229  0.5465 -0.5993  1.5313
 5598SOL    HW228257   0.772   2.569   5.304 -1.3477 -1.5273 -1.6838
 5599SOL     OW28258   3.645   3.380   5.348  0.5322 -0.2898  0.1574
 5599SOL    HW128259   3.685   3.465   5.333  0.3892 -0.0526  1.1592
 5599SOL    HW228260   3.689   3.364   5.431  1.6947  1.4815 -0.1226
 5600SOL     OW28261   2.368   2.005   2.750 -0.3157  0.4956  0.0862
 5600SOL    HW128262   2.294   1.954   2.718  1.1399 -2.5002  1.5164
 5600SOL    HW228263   2.324   2.090   2.756 -0.1857  0.6876 -1.5832
 5601SOL     OW28264   2.819   1.781   3.637  0.4789  0.3899 -0.0148
 5601SOL    HW128265   2.903   1.801   3.595  0.6345  0.5312  0.3693
 5601SOL    HW228266   2.753   1.817   3.577 -1.0648  1.1680  2.1717
 5602SOL     OW28267   3.457   1.423  13.453 -0.0161 -0.4776 -0.6584
 5602SOL    HW128268   3.529   1.443  13.394  0.6775 -1.8260 -0.2543
 5602SOL    HW228269   3.422   1.355  13.396 -0.2450 -0.8083 -0.1261
 5603SOL     OW28270   0.853   2.778  11.826  0.1728 -0.7085  0.2541
 5603SOL    HW128271   0.842   2.860  11.779  0.0348 -1.2543 -0.6672
 5603SOL    HW228272   0.928   2.737  11.782  0.0194 -0.2649 -0.4136
 5604SOL     OW28273   0.618   1.944   5.038 -0.3547  0.1763  0.5632
 5604SOL    HW128274   0.619   1.977   4.948 -0.5641  0.6675  0.7438
 5604SOL    HW228275   0.678   2.006   5.079 -0.0184  0.1582  0.0875
 5605SOL     OW28276   1.445   1.804   0.601  0.4249 -0.2178  0.2174
 5605SOL    HW128277   1.426   1.830   0.691  0.2334 -1.1002  0.4298
 5605SOL    HW228278   1.541   1.814   0.605  0.4684 -0.3968 -0.3538
 5606SOL     OW28279   0.085   2.911   8.326  0.7380  0.4094 -0.6446
 5606SOL    HW128280   4.725   2.872   8.308 -0.5290  1.4023  3.1787
 5606SOL    HW228281   0.121   2.868   8.248 -1.1751 -1.1112 -0.6939
 5607SOL     OW28282   2.175   1.045  13.403  0.0942  0.6650  0.5037
 5607SOL    HW128283   2.111   1.079  13.465  0.7920  0.1055  1.5376
 5607SOL    HW228284   2.224   1.127  13.397  2.9149 -1.1112 -0.8223
 5608SOL     OW28285   1.138   2.718   6.123  0.4032 -0.0520 -0.2763
 5608SOL    HW128286   1.078   2.749   6.192  0.1031 -0.2311 -0.4595
 5608SOL    HW228287   1.083   2.737   6.048  0.6985 -1.5722 -0.8768
 5609SOL     OW28288   3.736   2.593   6.218  0.5932 -0.1890  0.7621
 5609SOL    HW128289   3.811   2.635   6.176 -0.9907  1.7982 -0.1034
 5609SOL    HW228290   3.747   2.505   6.181 -4.3244 -1.0106  1.1679
 5610SOL     OW28291   1.139   2.746   7.149  0.5059 -0.3085 -0.1216
 5610SOL    HW128292   1.139   2.775   7.057 -2.8083  0.9207  0.2825
 5610SOL    HW228293   1.051   2.710   7.156  0.1523  1.1217  2.6790
 5611SOL     OW28294   2.397   1.717   1.218 -0.5070 -0.2238 -0.6230
 5611SOL    HW128295   2.327   1.778   1.242 -1.8941 -1.4706 -1.5445
 5611SOL    HW228296   2.395   1.727   1.122  0.1886 -0.5846 -0.6766
 5612SOL     OW28297   0.673   1.535   8.286  0.1202 -0.2338  0.3937
 5612SOL    HW128298   0.712   1.457   8.326 -0.5255 -1.0787 -0.6389
 5612SOL    HW228299   0.675   1.593   8.362  0.5317 -1.1927  1.1140
 5613SOL     OW28300   2.966   2.933   7.853  0.2996 -0.5242  0.0852
 5613SOL    HW128301   2.896   2.930   7.788  2.6209 -1.2969 -2.4248
 5613SOL    HW228302   2.960   2.845   7.891  1.8035 -0.0090  1.5154
 5614SOL     OW28303   3.075   0.593   0.436 -0.2902 -0.2207  0.0978
 5614SOL    HW128304   3.045   0.578   0.526 -0.1987  0.9703  0.3310
 5614SOL    HW228305   3.060   0.688   0.438  0.8479 -0.0095 -1.8436
 5615SOL     OW28306   2.782   2.415  13.758 -0.2734  0.6621 -0.3606
 5615SOL    HW128307   2.851   2.455  13.810 -1.4732  0.4595  1.4143
 5615SOL    HW228308   2.746   2.494  13.719 -2.4032 -0.2210 -0.2048
 5616SOL     OW28309   3.835   3.450  15.669 -0.5357  0.1979 -0.3748
 5616SOL    HW128310   3.770   3.520  15.664 -1.8799 -1.0652 -0.3507
 5616SOL    HW228311   3.908   3.511  15.678  2.2797 -2.9262 -1.8053
 5617SOL     OW28312   2.244   2.029  12.801 -0.0789 -0.4802 -0.0818
 5617SOL    HW128313   2.165   1.987  12.766  0.4568 -0.4248 -1.3220
 5617SOL    HW228314   2.236   1.981  12.884 -0.7478  0.1629  0.2324
 5618SOL     OW28315   2.581   4.097  12.542 -0.1103 -0.5809  0.2194
 5618SOL    HW128316   2.564   4.178  12.495 -0.2819 -0.1990  0.9448
 5618SOL    HW228317   2.652   4.124  12.599 -0.1738  0.7043 -0.3181
 5619SOL     OW28318   2.268   1.644   9.196  0.1956 -0.6081 -0.3653
 5619SOL    HW128319   2.265   1.623   9.290 -1.0767  1.4162  0.0604
 5619SOL    HW228320   2.350   1.692   9.181 -0.6513  0.6574 -0.8959
 5620SOL     OW28321   0.862   1.662  17.306 -0.0882  0.6285 -0.2548
 5620SOL    HW128322   0.803   1.737  17.314 -1.3271 -0.6935  3.1625
 5620SOL    HW228323   0.950   1.699  17.301  0.0148  0.6618  2.0193
 5621SOL     OW28324   4.510   0.546  14.832  0.4753 -0.3104 -0.0724
 5621SOL    HW128325   4.529   0.531  14.925 -1.6210  0.8068  0.5380
 5621SOL    HW228326   4.510   0.457  14.797 -0.6330  0.2993 -1.6380
 5622SOL     OW28327   4.105   0.459   2.940  0.5507  0.6586  0.0314
 5622SOL    HW128328   4.114   0.369   2.972  1.2954  0.4669 -0.7152
 5622SOL    HW228329   4.040   0.450   2.870  0.0219  0.7959  0.5056
 5623SOL     OW28330   0.823   2.298  17.339 -0.0749  0.4263  0.1803
 5623SOL    HW128331   0.744   2.351  17.352  0.0887  1.0170 -1.2986
 5623SOL    HW228332   0.791   2.211  17.364  1.0985 -0.2407 -0.6431
 5624SOL     OW28333   3.379   2.908   9.788 -0.9690  0.1706  0.3372
 5624SOL    HW128334   3.473   2.916   9.777 -0.5210 -3.3592  1.5110
 5624SOL    HW228335   3.349   2.986   9.741  1.1935  1.6080  1.3367
 5625SOL     OW28336   4.205   3.001  11.351 -0.2766  0.3385 -0.3408
 5625SOL    HW128337   4.176   3.037  11.267 -1.0287 -1.4865 -0.8549
 5625SOL    HW228338   4.133   3.030  11.407  0.4488  1.0702  0.1960
 5626SOL     OW28339   1.736   2.671  12.714  0.0894 -0.8580  0.6818
 5626SOL    HW128340   1.680   2.743  12.743  2.3432  1.9925 -2.0478
 5626SOL    HW228341   1.695   2.592  12.749  0.4742 -0.8273  1.1853
 5627SOL     OW28342   2.992   3.058   2.760 -0.5876  0.0438 -0.0233
 5627SOL    HW128343   2.926   3.106   2.710 -0.3330 -1.7349 -2.0452
 5627SOL    HW228344   2.972   2.973   2.720  1.1998  0.2638 -1.3748
 5628SOL     OW28345   0.133   4.044   2.628  0.0773 -0.1105  0.2232
 5628SOL    HW128346   0.143   4.100   2.706  1.1482  1.5106 -1.0877
 5628SOL    HW228347   0.197   4.083   2.568  1.7707  1.1102  2.8029
 5629SOL     OW28348   1.831   2.217  16.352  0.2581 -0.1702 -0.3195
 5629SOL    HW128349   1.754   2.239  16.299  0.3960  0.5406 -0.2351
 5629SOL    HW228350   1.797   2.143  16.402 -1.8285  1.0096  0.0410
 5630SOL     OW28351   4.226   4.198   3.532 -1.0734 -0.3655  0.1245
 5630SOL    HW128352   4.309   4.152   3.548 -0.5444  1.5647  2.8909
 5630SOL    HW228353   4.172   4.183   3.609  1.7946 -1.3940  1.9661
 5631SOL     OW28354   0.534   4.313   4.252  0.0606 -0.0340  0.0168
 5631SOL    HW128355   0.628   4.331   4.257  0.2753 -0.6065 -1.8293
 5631SOL    HW228356   0.527   4.319   4.157 -0.9050  0.3316  0.1077
 5632SOL     OW28357   1.151   4.438   9.919 -0.0429  0.1559  0.0545
 5632SOL    HW128358   1.105   4.501   9.863 -0.7641  0.7266  1.2784
 5632SOL    HW228359   1.208   4.395   9.855  0.1960 -0.8890  0.9652
 5633SOL     OW28360   2.131   1.833   2.687  0.3420 -0.0287  0.4922
 5633SOL    HW128361   2.078   1.904   2.650 -0.4577  0.7272  3.0072
 5633SOL    HW228362   2.060   1.771   2.707  2.9851 -2.5138  2.1681
 5634SOL     OW28363   4.317   0.943   6.597 -0.4140 -1.1219 -0.2598
 5634SOL    HW128364   4.388   0.912   6.540  2.4895 -0.0681  2.8123
 5634SOL    HW228365   4.362   1.001   6.657 -1.0295  0.5438 -1.3944
 5635SOL     OW28366   3.361   3.601   3.417  0.3339  0.4097 -0.5307
 5635SOL    HW128367   3.379   3.688   3.450  1.3033  0.0015  0.0113
 5635SOL    HW228368   3.411   3.599   3.335  0.3379  0.2446 -0.5252
 5636SOL     OW28369   4.106   0.647  11.127  0.3795  0.2385 -0.8516
 5636SOL    HW128370   4.167   0.708  11.086  2.0487 -1.3870 -0.7925
 5636SOL    HW228371   4.156   0.607  11.198 -0.3194  1.2334  0.1908
 5637SOL     OW28372   2.517   1.005   5.830 -0.1493  0.4490 -0.3166
 5637SOL    HW128373   2.593   0.959   5.794  1.0549  3.0679 -1.1145
 5637SOL    HW228374   2.476   0.932   5.876  0.5883  0.7342  0.7929
 5638SOL     OW28375   3.314   4.153  10.802  0.2505  0.5219  0.0442
 5638SOL    HW128376   3.222   4.174  10.821  0.8121  0.9379  2.2393
 5638SOL    HW228377   3.319   4.073  10.855  1.2920  1.0844  0.7759
 5639SOL     OW28378   0.563   3.188   6.942 -0.1430  0.2680  0.4555
 5639SOL    HW128379   0.635   3.238   6.903  1.0407 -0.2229  2.0396
 5639SOL    HW228380   0.490   3.226   6.894 -0.7358 -1.0779  0.2913
 5640SOL     OW28381   1.233   2.974  15.136  0.2106  0.0480 -0.1660
 5640SOL    HW128382   1.178   3.052  15.134 -0.3405 -0.3433 -0.1307
 5640SOL    HW228383   1.268   2.981  15.225 -2.9885 -0.2989  1.1284
 5641SOL     OW28384   4.221   4.348   0.113  0.7069  0.0776 -0.4211
 5641SOL    HW128385   4.171   4.330   0.192 -0.6655  0.2952 -1.2319
 5641SOL    HW228386   4.228   4.259   0.079  0.8605 -0.7068  1.6831
 5642SOL     OW28387   2.548   4.088   2.268 -0.2508 -0.4658  0.1576
 5642SOL    HW128388   2.488   4.057   2.336  0.1732 -1.0258  0.2762
 5642SOL    HW228389   2.521   4.178   2.250 -0.8791 -1.3157 -3.0255
 5643SOL     OW28390   2.157   4.562   3.575 -0.2642 -0.2628  0.4838
 5643SOL    HW128391   2.069   4.568   3.539  0.2783 -0.2062 -0.8505
 5643SOL    HW228392   2.207   4.516   3.507  0.2084 -2.1120  2.0820
 5644SOL     OW28393   3.331   0.450   6.618  0.6496  0.1146 -0.0903
 5644SOL    HW128394   3.248   0.494   6.640  0.3405 -1.1702  1.3238
 5644SOL    HW228395   3.301   0.397   6.544 -0.4462 -0.3047  0.6496
 5645SOL     OW28396   0.350   0.961   1.638  0.1054  0.2375 -0.1379
 5645SOL    HW128397   0.330   1.049   1.607 -0.1008  0.4996  0.7151
 5645SOL    HW228398   0.383   0.979   1.726  2.4481 -0.9413 -0.7939
 5646SOL     OW28399   1.694   0.615   1.152  0.4435  0.3812  0.0942
 5646SOL    HW128400   1.721   0.591   1.241  0.1653 -0.6280 -0.0937
 5646SOL    HW228401   1.600   0.632   1.163  0.2043 -1.0376  0.3281
 5647SOL     OW28402   2.313   4.715   8.931  0.4545  0.0181  0.5533
 5647SOL    HW128403   2.406   0.009   8.946  0.8432 -2.3240  1.3589
 5647SOL    HW228404   2.307   4.633   8.980  0.9033 -0.4409 -0.1657
 5648SOL     OW28405   4.433   4.144   3.037 -0.0476 -0.3798  0.0305
 5648SOL    HW128406   4.435   4.218   3.097 -1.0259 -0.0636 -0.3229
 5648SOL    HW228407   4.399   4.188   2.959  0.7625  0.8691  0.3897
 5649SOL     OW28408   0.824   3.919  15.952 -0.4087 -0.6987  0.1465
 5649SOL    HW128409   0.859   3.883  16.034 -1.2161 -0.6778  0.5027
 5649SOL    HW228410   0.733   3.930  15.980 -0.7923  1.7529 -2.0659
 5650SOL     OW28411   2.265   3.023   7.856  0.3255  0.2247  0.1020
 5650SOL    HW128412   2.213   2.951   7.892  1.4018 -1.5170 -1.8024
 5650SOL    HW228413   2.305   3.053   7.937 -1.7568 -0.4466  1.4037
 5651SOL     OW28414   4.233   0.836   5.119 -0.2931  0.0093  0.0714
 5651SOL    HW128415   4.155   0.891   5.130 -0.1387  0.0532  1.0087
 5651SOL    HW228416   4.235   0.766   5.185 -0.2521 -0.5528 -0.5284
 5652SOL     OW28417   1.399   3.389   4.996 -0.5949 -0.3366  0.1002
 5652SOL    HW128418   1.479   3.341   4.976 -0.7364 -1.4336  2.2260
 5652SOL    HW228419   1.432   3.476   5.020 -1.0615 -0.5913  1.6693
 5653SOL     OW28420   0.286   3.597   6.744 -0.1985  0.2160 -0.1835
 5653SOL    HW128421   0.208   3.649   6.724 -1.3825  0.2993  4.4884
 5653SOL    HW228422   0.328   3.589   6.658  0.0012  3.0764 -0.3477
 5654SOL     OW28423   0.215   3.758   7.909  0.4790 -0.3499 -0.2523
 5654SOL    HW128424   0.274   3.827   7.940  0.2729  0.4665 -1.6935
 5654SOL    HW228425   0.233   3.760   7.815  1.6643 -2.8141 -0.0862
 5655SOL     OW28426   0.363   4.361   4.945 -0.4225  0.2366 -0.3747
 5655SOL    HW128427   0.343   4.280   4.899 -2.4622  0.1431  0.6887
 5655SOL    HW228428   0.449   4.376   4.905 -0.6708  1.6737 -0.3754
 5656SOL     OW28429   4.631   4.601   4.391 -0.4331 -0.3984  0.1212
 5656SOL    HW128430   4.627   4.695   4.372 -0.0525 -0.4180 -0.0609
 5656SOL    HW228431   4.695   4.608   4.462 -0.1397 -0.4424 -0.1400
 5657SOL     OW28432   2.571   4.322   8.572  0.0362 -0.3352 -0.6479
 5657SOL    HW128433   2.581   4.396   8.631  0.9506 -0.4326 -0.6758
 5657SOL    HW228434   2.624   4.351   8.498  1.5366  1.7574  1.2285
 5658SOL     OW28435   4.323   3.668   6.370 -0.5698  0.0853  0.2664
 5658SOL    HW128436   4.353   3.723   6.442  0.8109 -2.8070  1.9266
 5658SOL    HW228437   4.305   3.585   6.414 -2.0059  0.2320 -0.0362
 5659SOL     OW28438   3.387   0.502   6.988 -0.0053  0.0118 -0.3639
 5659SOL    HW128439   3.472   0.524   6.951  0.4493  0.6269  1.0667
 5659SOL    HW228440   3.348   0.581   7.026 -0.8156 -0.5225 -0.0840
 5660SOL     OW28441   1.938   0.829   7.697  0.3689 -0.2654 -0.1419
 5660SOL    HW128442   1.995   0.758   7.725  1.8833  0.3444 -1.6920
 5660SOL    HW228443   1.971   0.851   7.610  1.8237  0.7947  0.6917
 5661SOL     OW28444   1.195   1.037   4.251 -0.0471  0.8551  0.1593
 5661SOL    HW128445   1.188   0.947   4.283 -1.2504 -0.2706 -3.2551
 5661SOL    HW228446   1.155   1.096   4.315  0.1553  0.0499  1.0205
 5662SOL     OW28447   0.283   1.862   0.568 -0.3468  0.7716  0.0075
 5662SOL    HW128448   0.353   1.798   0.552 -0.2237  1.0546 -0.5699
 5662SOL    HW228449   0.305   1.939   0.516  1.0585  0.3966  0.0480
 5663SOL     OW28450   2.664   2.213  14.740 -0.5039  0.1087 -0.1022
 5663SOL    HW128451   2.616   2.219  14.658 -0.0573  1.2397 -0.2827
 5663SOL    HW228452   2.754   2.214  14.709 -0.2493 -3.1354  0.5427
 5664SOL     OW28453   3.375   4.615  15.608 -0.4525 -0.1677  0.9066
 5664SOL    HW128454   3.347   4.701  15.579 -1.5822 -0.9684 -0.4074
 5664SOL    HW228455   3.341   4.601  15.697 -1.9017  4.0309  0.9838
 5665SOL     OW28456   3.907   2.814   2.874  0.3167  0.0091 -0.2435
 5665SOL    HW128457   3.955   2.746   2.921  0.6232  0.6570  0.3880
 5665SOL    HW228458   3.973   2.884   2.872  1.1812 -0.7274  2.2373
 5666SOL     OW28459   2.046   1.002  16.648 -0.0392 -0.4605 -0.6192
 5666SOL    HW128460   2.046   1.059  16.726  2.4264 -0.3013 -0.7579
 5666SOL    HW228461   2.140   0.991  16.643 -0.1906 -1.5387 -1.0073
 5667SOL     OW28462   2.414   1.726  17.658 -0.3801 -0.0972 -0.6804
 5667SOL    HW128463   2.344   1.702  17.598 -0.3933 -0.7077 -0.4214
 5667SOL    HW228464   2.361   1.721   0.033  1.6382 -1.3096  0.5869
 5668SOL     OW28465   3.571   2.777  10.469  0.9931 -0.3612 -0.0238
 5668SOL    HW128466   3.478   2.770  10.493  0.3663  1.1111 -2.0147
 5668SOL    HW228467   3.577   2.722  10.391 -2.1967  0.1751 -0.6656
 5669SOL     OW28468   3.193   4.585   4.090 -0.2698  0.2030  0.2190
 5669SOL    HW128469   3.207   4.525   4.017 -1.2554 -0.2645  0.4250
 5669SOL    HW228470   3.108   4.552   4.119 -1.1686  1.5647 -0.8400
 5670SOL     OW28471   2.518   4.245  12.915  0.1808 -0.2696  0.3963
 5670SOL    HW128472   2.558   4.291  12.841 -0.7710  0.2046  0.1733
 5670SOL    HW228473   2.577   4.262  12.989 -0.1645  0.9482  0.3924
 5671SOL     OW28474   0.236   2.550   7.455  0.6130  0.3688  0.9199
 5671SOL    HW128475   0.273   2.610   7.519  0.8154 -2.6909  3.6418
 5671SOL    HW228476   0.142   2.557   7.473  0.2869  0.1439 -0.7156
 5672SOL     OW28477   2.548   4.137   2.618  0.1620  0.0512  0.4913
 5672SOL    HW128478   2.524   4.066   2.559  0.0829 -0.0645  0.6619
 5672SOL    HW228479   2.464   4.182   2.622 -0.5291 -1.1994 -0.1687
 5673SOL     OW28480   0.523   3.264   8.093  0.1568 -0.0632 -0.4772
 5673SOL    HW128481   0.591   3.306   8.146 -2.1593 -1.0278  3.2139
 5673SOL    HW228482   0.441   3.275   8.141  1.0247 -1.0829  1.2235
 5674SOL     OW28483   4.668   2.423  11.073  0.4961  0.6969 -0.0899
 5674SOL    HW128484   4.691   2.334  11.102  0.7761  0.3382 -1.4007
 5674SOL    HW228485   4.626   2.452  11.154 -0.5252 -3.2396  0.8222
 5675SOL     OW28486   2.665   0.184  11.137  0.0090  0.1218  0.0948
 5675SOL    HW128487   2.646   0.211  11.047  1.1739  0.5099 -0.0318
 5675SOL    HW228488   2.714   0.262  11.164 -0.0366 -0.2518  1.2180
 5676SOL     OW28489   1.116   3.401   1.257  0.3017  0.1205 -0.0039
 5676SOL    HW128490   1.041   3.364   1.304  1.6284 -0.0671  1.9809
 5676SOL    HW228491   1.112   3.487   1.299 -1.2362  0.5795 -1.1072
 5677SOL     OW28492   0.123   1.408  16.394  0.4385  0.2994  0.5378
 5677SOL    HW128493   0.123   1.503  16.388 -1.2727  0.4271  2.3356
 5677SOL    HW228494   0.201   1.392  16.341  1.9118  0.9472  2.5412
 5678SOL     OW28495   0.262   4.116   8.784  0.0656  0.0447  0.3180
 5678SOL    HW128496   0.219   4.183   8.731 -0.4802  0.4417  1.2714
 5678SOL    HW228497   0.349   4.105   8.745 -0.7155 -0.8098 -1.2009
 5679SOL     OW28498   2.944   4.367   7.347  0.5535 -0.1773 -0.3282
 5679SOL    HW128499   2.975   4.280   7.323 -0.4422 -0.4012 -0.8188
 5679SOL    HW228500   2.972   4.374   7.438 -0.7829  1.1516 -0.0142
 5680SOL     OW28501   1.190   0.278  11.709  0.2680 -0.0633  0.5386
 5680SOL    HW128502   1.116   0.323  11.668 -1.2093 -2.0443  1.0020
 5680SOL    HW228503   1.259   0.336  11.678 -1.3399  1.8282  0.5311
 5681SOL     OW28504   0.352   3.102  13.097  0.0534  0.1205 -0.0649
 5681SOL    HW128505   0.438   3.065  13.075  0.0256 -0.7401  1.2885
 5681SOL    HW228506   0.325   3.123  13.008 -0.1483 -0.5393 -0.1538
 5682SOL     OW28507   2.803   0.259  11.583 -0.0533  0.0704  0.1486
 5682SOL    HW128508   2.755   0.326  11.534 -0.7343 -3.1263 -3.5505
 5682SOL    HW228509   2.735   0.194  11.562 -0.1048 -0.8584  3.2350
 5683SOL     OW28510   3.614   1.167   2.850 -0.2126  0.2271 -0.1569
 5683SOL    HW128511   3.705   1.197   2.860 -1.0616  2.6002  0.5749
 5683SOL    HW228512   3.632   1.074   2.837 -1.2486 -0.2544  1.8381
 5684SOL     OW28513   1.408   0.996   5.925 -0.0684 -0.3914  0.0023
 5684SOL    HW128514   1.411   1.038   6.011  2.3291 -1.2984  0.3432
 5684SOL    HW228515   1.318   0.966   5.938 -0.4715 -1.1060 -4.3609
 5685SOL     OW28516   3.549   1.581   5.675 -0.0231 -0.3401 -0.9289
 5685SOL    HW128517   3.597   1.662   5.692 -2.0737  0.6000  0.4242
 5685SOL    HW228518   3.488   1.593   5.748  0.8311 -0.7270 -0.1402
 5686SOL     OW28519   3.468   3.804   4.621  0.0232  0.2194  0.4211
 5686SOL    HW128520   3.439   3.716   4.648 -0.0521 -0.0523 -0.5404
 5686SOL    HW228521   3.544   3.780   4.568 -0.8566 -2.0362  0.1904
 5687SOL     OW28522   4.010   0.834   1.932  0.1207 -0.1667  0.0471
 5687SOL    HW128523   4.058   0.840   1.849  1.5771 -0.5955  0.8500
 5687SOL    HW228524   4.015   0.926   1.958 -0.0318 -0.0069 -0.4923
 5688SOL     OW28525   4.175   2.501   7.322  0.0735  0.1171  0.0190
 5688SOL    HW128526   4.113   2.443   7.365  0.3264 -1.4516 -1.7616
 5688SOL    HW228527   4.206   2.455   7.245 -0.6700  0.2526 -0.3577
 5689SOL     OW28528   3.649   3.579   6.745 -0.1535  0.5815  0.2077
 5689SOL    HW128529   3.581   3.517   6.721  0.2740  0.1389  0.1386
 5689SOL    HW228530   3.679   3.536   6.825 -2.1940 -0.2931  0.5016
 5690SOL     OW28531   1.329   3.105   9.031  0.4437 -0.4369 -0.2876
 5690SOL    HW128532   1.326   3.013   9.057  0.7023 -0.5792 -0.7550
 5690SOL    HW228533   1.235   3.121   9.043  0.7068  1.5629 -0.7870
 5691SOL     OW28534   0.915   0.871   1.326 -0.1957 -0.2818 -0.2627
 5691SOL    HW128535   0.875   0.952   1.297 -1.8245 -0.6509  0.9150
 5691SOL    HW228536   0.872   0.800   1.278 -0.9112 -1.9422  2.7844
 5692SOL     OW28537   2.414   2.708   7.012  0.1781 -0.1431  0.0096
 5692SOL    HW128538   2.419   2.683   6.920  2.9755  0.7379 -0.0987
 5692SOL    HW228539   2.333   2.664   7.037  0.7623 -1.6975 -0.8391
 5693SOL     OW28540   2.340   3.096   9.927  0.2131  0.1154  0.1854
 5693SOL    HW128541   2.280   3.031   9.965 -0.2639  1.1829  1.2295
 5693SOL    HW228542   2.412   3.042   9.894  1.5408 -0.7196  4.5014
 5694SOL     OW28543   3.489   2.717   6.112 -0.4226 -0.3170 -0.4797
 5694SOL    HW128544   3.494   2.645   6.049 -0.4167  0.2617 -1.1345
 5694SOL    HW228545   3.564   2.690   6.165  0.1145  0.9791 -0.5918
 5695SOL     OW28546   2.264   2.663   3.078  0.1292 -0.3525 -0.0074
 5695SOL    HW128547   2.346   2.662   3.029  1.2347  0.3149  1.8398
 5695SOL    HW228548   2.281   2.592   3.139 -0.3093  0.1192  0.6709
 5696SOL     OW28549   3.557   0.966   3.363  0.5536 -0.4881 -1.2537
 5696SOL    HW128550   3.618   1.025   3.321  2.0573 -0.2516  1.2460
 5696SOL    HW228551   3.535   0.914   3.286 -2.3433  0.3149 -0.9651
 5697SOL     OW28552   0.423   1.593   2.048 -0.2359 -0.1187  0.2926
 5697SOL    HW128553   0.440   1.688   2.046 -1.6785  0.2078  3.2334
 5697SOL    HW228554   0.493   1.565   2.107 -0.5947  0.0452  0.8027
 5698SOL     OW28555   1.267   2.257  12.072 -0.3631  0.2707  0.4585
 5698SOL    HW128556   1.244   2.343  12.039  3.6446  1.7040  1.3210
 5698SOL    HW228557   1.204   2.203  12.025  0.0324  2.3316 -2.3933
 5699SOL     OW28558   3.021   0.872  16.451  0.5268  0.1846  0.4801
 5699SOL    HW128559   3.050   0.797  16.398  0.0569  1.0930 -1.0730
 5699SOL    HW228560   3.105   0.905  16.483  1.1476 -0.4309 -0.4737
 5700SOL     OW28561   0.292   3.005   2.435  0.0593  0.2418  0.0460
 5700SOL    HW128562   0.221   2.945   2.457  0.9216 -0.2634  1.4179
 5700SOL    HW228563   0.239   3.079   2.403 -0.8533 -0.8249 -0.9164
 5701SOL     OW28564   1.005   0.547   7.981 -0.0338 -0.0210  0.7813
 5701SOL    HW128565   0.928   0.571   8.031 -1.7101 -2.6493 -0.5606
 5701SOL    HW228566   1.066   0.620   7.993  2.4392 -1.7776 -0.8748
 5702SOL     OW28567   1.211   0.915  16.420 -1.0884 -0.1828 -0.2709
 5702SOL    HW128568   1.119   0.906  16.394 -0.5859 -4.3244 -0.5048
 5702SOL    HW228569   1.235   0.838  16.471  0.0937 -0.9016 -1.9127
 5703SOL     OW28570   1.302   4.639   6.917 -0.4738  0.3674 -0.0129
 5703SOL    HW128571   1.309   4.571   6.984 -1.9396 -0.2192 -0.4450
 5703SOL    HW228572   1.232   4.599   6.865  0.5553 -3.0003  1.1843
 5704SOL     OW28573   1.142   1.067  15.506  0.3242  0.3230  0.4592
 5704SOL    HW128574   1.095   1.135  15.554  0.0512  0.0783  0.5387
 5704SOL    HW228575   1.187   1.022  15.577  3.0691  1.2316 -0.7200
 5705SOL     OW28576   1.261   3.055   8.311  0.5486  0.3500 -0.4602
 5705SOL    HW128577   1.229   3.098   8.232  1.1199  0.7408 -0.4782
 5705SOL    HW228578   1.354   3.080   8.314  1.1976 -2.3639  2.4424
 5706SOL     OW28579   4.557   3.112   3.392 -0.0590 -0.2315 -0.5770
 5706SOL    HW128580   4.627   3.095   3.329  0.0462 -0.3363 -0.4329
 5706SOL    HW228581   4.478   3.102   3.340 -1.1692 -1.0068  1.2636
 5707SOL     OW28582   3.856   1.588  14.061  0.0372  0.3433 -0.0401
 5707SOL    HW128583   3.826   1.664  14.011  3.5528  1.2554 -0.7373
 5707SOL    HW228584   3.773   1.540  14.067  1.1759 -1.3502  2.3954
 5708SOL     OW28585   3.742   2.611   5.057  0.4430 -0.0353 -0.6311
 5708SOL    HW128586   3.700   2.696   5.052  4.0537  1.8838  1.2532
 5708SOL    HW228587   3.672   2.551   5.086 -0.9768  1.5960 -0.7111
 5709SOL     OW28588   3.540   3.679   2.135 -0.1773  0.0421 -0.0865
 5709SOL    HW128589   3.529   3.584   2.146  0.8316 -0.3570 -2.4907
 5709SOL    HW228590   3.457   3.716   2.164  0.3058 -1.5431  3.4240
 5710SOL     OW28591   0.782   3.941   5.391  0.2673  0.5404  0.1274
 5710SOL    HW128592   0.730   4.001   5.445  1.8510  2.8426 -0.8768
 5710SOL    HW228593   0.855   4.001   5.373  1.0727 -0.2015  0.9317
 5711SOL     OW28594   0.712   1.016   6.073  0.3206 -0.1196  0.3015
 5711SOL    HW128595   0.745   1.103   6.097  2.3331 -1.0542  1.0097
 5711SOL    HW228596   0.692   1.014   5.980  1.0398 -1.1525  0.1716
 5712SOL     OW28597   1.295   4.439   5.101  0.0951 -0.1298 -0.4452
 5712SOL    HW128598   1.303   4.345   5.087  1.0144 -0.1163  0.0060
 5712SOL    HW228599   1.361   4.460   5.167 -0.0506 -0.1903 -0.2809
 5713SOL     OW28600   3.095   2.406   1.818  0.0959 -0.0141 -0.3411
 5713SOL    HW128601   3.127   2.406   1.728 -2.3111  0.2821 -1.1986
 5713SOL    HW228602   3.001   2.411   1.797  0.2781  1.9658 -0.7036
 5714SOL     OW28603   4.632   3.879  12.206 -0.0345  0.0283  0.1675
 5714SOL    HW128604   4.583   3.920  12.134  1.8197  1.4455 -0.2918
 5714SOL    HW228605   4.661   3.958  12.251 -3.3360  2.2062 -1.5009
 5715SOL     OW28606   2.873   3.383   5.339  1.1821  0.5085  0.5155
 5715SOL    HW128607   2.918   3.467   5.327  2.9391 -0.4169  0.5954
 5715SOL    HW228608   2.918   3.351   5.418  0.1798 -1.6657  0.1806
 5716SOL     OW28609   0.720   2.321   2.168  0.4757 -0.1447  0.4659
 5716SOL    HW128610   0.800   2.279   2.139  0.8573  0.1275  1.1351
 5716SOL    HW228611   0.744   2.412   2.151 -1.4377  0.3748  0.5418
 5717SOL     OW28612   2.405   4.096   5.268 -0.0848 -0.2227 -0.0551
 5717SOL    HW128613   2.490   4.061   5.296 -0.3613 -0.8916 -0.0586
 5717SOL    HW228614   2.426   4.140   5.186  0.5934 -0.9542 -0.2712
 5718SOL     OW28615   0.913   0.052  17.652 -0.1817 -0.4616  0.1318
 5718SOL    HW128616   0.884   4.688  17.637  0.4380 -1.2429  3.6020
 5718SOL    HW228617   0.916   0.067   0.041  0.2789  0.9803 -0.1150
 5719SOL     OW28618   2.174   0.847   6.684  0.3125  0.0682  0.7427
 5719SOL    HW128619   2.241   0.852   6.752  0.6227  2.7946  0.2477
 5719SOL    HW228620   2.216   0.885   6.606 -0.0672 -1.7356 -0.3271
 5720SOL     OW28621   3.345   0.883   8.594  0.2616  0.1957 -0.1597
 5720SOL    HW128622   3.385   0.796   8.601  1.4970  0.9078  1.4732
 5720SOL    HW228623   3.416   0.925   8.545 -0.1736  0.1860 -0.8104
 5721SOL     OW28624   0.492   1.063  13.392  0.1994 -0.2616  0.1339
 5721SOL    HW128625   0.429   1.118  13.347 -1.9006 -2.7187  0.0913
 5721SOL    HW228626   0.434   1.031  13.461  0.4402 -2.2549 -0.5848
 5722SOL     OW28627   0.610   4.376   4.837  0.4084  0.3045 -0.2069
 5722SOL    HW128628   0.671   4.317   4.881 -1.0760 -0.2441  1.0940
 5722SOL    HW228629   0.637   4.364   4.746 -0.3790  1.3569 -0.5894
 5723SOL     OW28630   3.394   1.624  13.629 -0.4276 -0.2203  0.8130
 5723SOL    HW128631   3.419   1.566  13.558  1.5485  1.6883 -0.0611
 5723SOL    HW228632   3.305   1.642  13.599 -0.2703  0.8035  0.9510
 5724SOL     OW28633   1.189   3.617  10.171 -0.0704  0.0468 -0.1890
 5724SOL    HW128634   1.119   3.555  10.195  2.3148 -2.1397  1.2153
 5724SOL    HW228635   1.148   3.680  10.112 -0.9704 -1.4508 -1.1607
 5725SOL     OW28636   3.903   1.252   3.853 -0.2658 -0.4806 -0.1826
 5725SOL    HW128637   3.954   1.322   3.814 -1.1786 -0.0669 -0.6454
 5725SOL    HW228638   3.844   1.232   3.779 -0.2074 -1.0854 -0.0697
 5726SOL     OW28639   4.314   2.934   0.984  0.4320 -0.4441 -0.4863
 5726SOL    HW128640   4.350   2.991   0.917  2.3764  0.0397  0.9689
 5726SOL    HW228641   4.222   2.962   0.976 -0.0815 -1.5988  1.2382
 5727SOL     OW28642   1.626   3.524   8.561 -0.0152  0.0924  0.0174
 5727SOL    HW128643   1.545   3.472   8.565 -1.8031  2.8543 -0.2978
 5727SOL    HW228644   1.585   3.609   8.547 -0.3783 -0.1735 -0.5380
 5728SOL     OW28645   2.043   0.124   5.687  0.0108  0.0551 -0.0478
 5728SOL    HW128646   2.133   0.096   5.670  0.5227  0.6307  1.7115
 5728SOL    HW228647   2.014   0.044   5.730  2.1966 -1.6392 -1.6993
 5729SOL     OW28648   2.627   0.397  16.341 -0.4856 -0.2049 -0.3747
 5729SOL    HW128649   2.554   0.386  16.402  1.3100 -0.5185  1.6932
 5729SOL    HW228650   2.590   0.465  16.285  2.3856  1.6962  0.0670
 5730SOL     OW28651   1.733   4.614   8.140 -0.1052 -0.3305  0.4123
 5730SOL    HW128652   1.755   4.593   8.050 -0.2390  0.2501  0.2444
 5730SOL    HW228653   1.750   4.529   8.180  1.7287 -0.4905 -0.7006
 5731SOL     OW28654   1.051   4.520  11.533  0.2193  0.0273 -0.4021
 5731SOL    HW128655   1.049   4.601  11.584  3.3037 -0.0956 -0.0690
 5731SOL    HW228656   1.012   4.468  11.604  0.2535  0.3113 -0.1739
 5732SOL     OW28657   1.433   1.067  15.974 -0.2664  0.1779  0.0717
 5732SOL    HW128658   1.478   1.096  16.053 -1.6356 -1.9653  1.6490
 5732SOL    HW228659   1.368   1.008  16.013 -0.1866 -1.0774 -1.6689
 5733SOL     OW28660   4.404   2.165   4.881 -0.3950 -0.0229  0.3284
 5733SOL    HW128661   4.467   2.230   4.910 -0.1178  0.4384 -1.3047
 5733SOL    HW228662   4.437   2.145   4.793 -3.3951  0.9316 -1.0175
 5734SOL     OW28663   2.692   1.374  16.221 -0.2702 -0.7800 -0.2704
 5734SOL    HW128664   2.692   1.278  16.229  1.4372 -0.7018  0.8687
 5734SOL    HW228665   2.610   1.398  16.264  0.7947  0.6253  0.9485
 5735SOL     OW28666   2.400   4.157   7.535  0.0816  0.1444 -0.8793
 5735SOL    HW128667   2.426   4.065   7.539 -1.4675 -0.3611 -2.1735
 5735SOL    HW228668   2.485   4.192   7.508  0.4644  0.1525  0.3488
 5736SOL     OW28669   3.018   0.336   8.563 -0.6166  0.0830 -0.4002
 5736SOL    HW128670   2.956   0.377   8.502 -1.2216 -0.8657 -0.4214
 5736SOL    HW228671   2.963   0.350   8.640 -0.8557  1.0980 -0.7525
 5737SOL     OW28672   1.475   2.757  16.699 -0.4322 -0.4717 -0.3657
 5737SOL    HW128673   1.565   2.784  16.679 -0.1804 -1.2946 -0.3358
 5737SOL    HW228674   1.425   2.823  16.652  0.4707 -0.8865 -1.9212
 5738SOL     OW28675   4.636   0.052   7.378  0.0259  0.0707 -0.0890
 5738SOL    HW128676   4.692   0.114   7.331  0.7001  0.4367  1.2214
 5738SOL    HW228677   4.619   0.102   7.458 -2.0209  1.1753 -1.1975
 5739SOL     OW28678   0.077   3.969   8.914 -0.2015 -0.0530  0.2199
 5739SOL    HW128679   0.010   3.987   8.848  2.0229  1.2039 -1.6794
 5739SOL    HW228680   0.146   4.015   8.866 -0.2569  0.8260  0.9761
 5740SOL     OW28681   3.933   2.784   9.052 -0.5021  0.6544 -0.6236
 5740SOL    HW128682   3.850   2.791   9.004  0.6136  1.2628 -2.4776
 5740SOL    HW228683   3.910   2.804   9.142 -0.1275  1.9284 -0.8142
 5741SOL     OW28684   0.067   1.418   1.627 -0.0599 -0.0714  0.0114
 5741SOL    HW128685   0.141   1.460   1.670 -0.6863  1.0156  0.0132
 5741SOL    HW228686   4.721   1.432   1.690  0.9754  0.3269  1.0986
 5742SOL     OW28687   3.305   3.984   5.354  0.7604  0.1463  0.2605
 5742SOL    HW128688   3.370   3.930   5.399  1.9573  0.4783 -1.0909
 5742SOL    HW228689   3.292   3.927   5.278  0.6915  0.7140 -0.1524
 5743SOL     OW28690   3.702   0.956   7.394 -0.0342  0.3799 -0.6774
 5743SOL    HW128691   3.740   1.041   7.375  0.1875  0.6740  1.0844
 5743SOL    HW228692   3.618   0.982   7.431 -0.0841  0.8887 -1.1428
 5744SOL     OW28693   0.271   2.979   6.983 -0.2414  0.2680  0.0994
 5744SOL    HW128694   0.216   3.024   6.918  0.1988 -0.2926 -0.6608
 5744SOL    HW228695   0.217   2.983   7.062  0.0475 -2.9879  0.4717
 5745SOL     OW28696   0.854   4.119   6.783  0.5261  1.4050  0.3094
 5745SOL    HW128697   0.831   4.212   6.777 -0.6123  0.9090 -2.9959
 5745SOL    HW228698   0.816   4.099   6.869 -2.4690  2.1598 -0.8120
 5746SOL     OW28699   3.412   1.995  11.938  0.5547  0.2924 -0.0914
 5746SOL    HW128700   3.412   2.040  11.854 -0.0631 -0.0255 -0.2682
 5746SOL    HW228701   3.416   2.058  12.009  2.5877 -1.2101  1.1306
 5747SOL     OW28702   2.351   2.754   9.122 -0.0291 -0.1988  0.2448
 5747SOL    HW128703   2.375   2.845   9.138 -3.1117  0.6616 -0.1079
 5747SOL    HW228704   2.435   2.720   9.089 -0.0063 -0.7086  0.8210
 5748SOL     OW28705   4.173   4.159  13.417 -0.1318 -0.4269 -0.0341
 5748SOL    HW128706   4.125   4.100  13.476 -0.9437 -1.1433 -1.4278
 5748SOL    HW228707   4.148   4.121  13.333 -2.6613  0.6177  0.2507
 5749SOL     OW28708   0.998   0.862   6.197 -0.0310 -0.5810  0.0459
 5749SOL    HW128709   1.061   0.790   6.202 -0.3176 -0.8990 -0.9640
 5749SOL    HW228710   0.965   0.879   6.286  1.2651 -0.0180  0.4171
 5750SOL     OW28711   2.004   1.011   3.710  0.0469 -0.4019 -0.2916
 5750SOL    HW128712   2.018   0.987   3.618  0.0025  1.4399 -0.7966
 5750SOL    HW228713   1.908   1.017   3.712 -0.1315 -3.6561 -0.0594
 5751SOL     OW28714   1.266   0.947   7.588 -0.7148  0.1888 -0.3240
 5751SOL    HW128715   1.257   0.937   7.494 -1.2605  2.4334 -0.5103
 5751SOL    HW228716   1.264   0.853   7.606 -2.5349 -0.0841 -2.0192
 5752SOL     OW28717   3.438   3.503   8.150  0.6418 -0.2446  0.0061
 5752SOL    HW128718   3.490   3.436   8.107 -0.5879 -2.3855  1.8297
 5752SOL    HW228719   3.498   3.553   8.205 -0.1253  1.3870 -0.6185
 5753SOL     OW28720   4.291   0.319   8.497 -0.1584  0.2283  0.1157
 5753SOL    HW128721   4.242   0.300   8.417 -0.8894  0.5974  0.4787
 5753SOL    HW228722   4.239   0.281   8.568 -0.1963  1.3251  0.6778
 5754SOL     OW28723   4.121   0.492   1.556  0.5429  0.1408 -0.4214
 5754SOL    HW128724   4.177   0.439   1.613 -0.1699 -1.7054 -1.4346
 5754SOL    HW228725   4.090   0.564   1.610  0.4541  1.2329 -1.9336
 5755SOL     OW28726   2.160   3.422   8.707  0.7031 -0.1166  0.5707
 5755SOL    HW128727   2.146   3.415   8.613 -0.7347 -0.3520  0.8073
 5755SOL    HW228728   2.249   3.388   8.713 -0.1819 -1.9180  3.4115
 5756SOL     OW28729   2.714   2.428   9.197 -0.0521 -0.3773  0.3707
 5756SOL    HW128730   2.809   2.437   9.204 -0.1804 -0.4598  2.1429
 5756SOL    HW228731   2.709   2.333   9.203  1.6338 -0.5274 -0.3972
 5757SOL     OW28732   2.251   2.741   2.292  0.5893  0.4680 -0.5231
 5757SOL    HW128733   2.337   2.767   2.325 -0.0258  2.1988 -0.3120
 5757SOL    HW228734   2.267   2.659   2.244  0.2228  0.9530 -1.4556
 5758SOL     OW28735   3.192   1.813   8.283 -0.0377 -0.6311 -0.8350
 5758SOL    HW128736   3.216   1.886   8.340  0.6688 -0.1476 -1.7588
 5758SOL    HW228737   3.254   1.827   8.211  2.0967 -2.8104  0.5739
 5759SOL     OW28738   4.428   0.260   6.196  0.7190 -0.2014  0.2271
 5759SOL    HW128739   4.477   0.309   6.262 -0.7855  1.4969  0.0976
 5759SOL    HW228740   4.338   0.273   6.227 -0.2636  0.9095 -3.0171
 5760SOL     OW28741   3.775   0.881   6.299  0.5604  0.0763  0.4003
 5760SOL    HW128742   3.750   0.958   6.248  1.2216  0.3866  0.5551
 5760SOL    HW228743   3.826   0.835   6.231  0.1885  1.2764 -0.6984
 5761SOL     OW28744   0.700   2.301   2.489 -0.2306 -0.7545  0.2796
 5761SOL    HW128745   0.770   2.278   2.428 -1.3957 -0.2203 -1.2841
 5761SOL    HW228746   0.624   2.304   2.431  0.0296  0.8076  0.0332
 5762SOL     OW28747   4.443   3.544   8.139 -0.2126 -0.4287 -0.0576
 5762SOL    HW128748   4.363   3.529   8.089 -0.5241  1.1788 -0.0543
 5762SOL    HW228749   4.488   3.460   8.132  0.6042 -0.0753  0.9542
 5763SOL     OW28750   1.740   4.283   7.712  0.1844  0.1669 -0.1487
 5763SOL    HW128751   1.808   4.294   7.779  0.5608 -0.8362 -0.3660
 5763SOL    HW228752   1.781   4.334   7.642 -1.8209  1.6177 -0.2491
 5764SOL     OW28753   1.811   4.047   8.878  0.2655 -0.0523 -0.4634
 5764SOL    HW128754   1.780   4.137   8.891  1.0549  0.1371  0.0986
 5764SOL    HW228755   1.757   4.020   8.803 -2.2112  0.7547  1.0317
 5765SOL     OW28756   2.998   4.024  13.925 -0.1897  0.4082 -0.1959
 5765SOL    HW128757   2.924   4.085  13.920 -0.4205  0.1555  0.1683
 5765SOL    HW228758   2.968   3.986  14.008 -0.0532  0.3697 -0.1645
 5766SOL     OW28759   0.380   1.775   9.456  0.0667  0.4445 -0.1124
 5766SOL    HW128760   0.374   1.717   9.532 -0.6956 -0.3320 -0.7550
 5766SOL    HW228761   0.331   1.855   9.477  0.7431  1.0361 -0.8296
 5767SOL     OW28762   4.605   0.610   3.949  0.1932  0.3943  0.1117
 5767SOL    HW128763   4.618   0.617   4.044 -0.7005  0.2787  0.2420
 5767SOL    HW228764   4.687   0.648   3.917  0.3121 -0.1440 -0.2087
 5768SOL     OW28765   0.840   3.040   7.725  0.5977 -1.2180  0.2226
 5768SOL    HW128766   0.834   2.975   7.795  1.1555 -0.3960  1.0321
 5768SOL    HW228767   0.782   3.110   7.754 -0.3891 -1.5300 -1.0210
 5769SOL     OW28768   0.379   0.690   8.562  0.5139  0.1756 -0.0191
 5769SOL    HW128769   0.398   0.753   8.632 -0.7093  1.5606 -0.9296
 5769SOL    HW228770   0.461   0.643   8.547  0.7147 -0.2728  2.4750
 5770SOL     OW28771   1.350   3.855  14.801 -0.0791 -0.3866  0.1805
 5770SOL    HW128772   1.398   3.803  14.865  1.1442  0.2190 -0.2263
 5770SOL    HW228773   1.310   3.784  14.751 -0.3981 -0.7906  1.0102
 5771SOL     OW28774   4.002   0.022  15.356 -0.2542 -0.2976 -0.3653
 5771SOL    HW128775   4.048   4.676  15.400 -0.7959 -0.5447 -0.2068
 5771SOL    HW228776   4.016   0.094  15.416  0.3735  1.0591 -2.1303
 5772SOL     OW28777   1.172   1.826   4.828  0.4400  0.4015 -0.1734
 5772SOL    HW128778   1.112   1.753   4.845  0.0042  0.5868 -0.9183
 5772SOL    HW228779   1.118   1.894   4.787 -0.5823 -0.4206 -0.1844
 5773SOL     OW28780   0.038   2.531  14.713  0.0123 -0.8880 -0.2847
 5773SOL    HW128781   0.099   2.461  14.687 -0.5093 -1.5506  0.2946
 5773SOL    HW228782   4.726   2.491  14.791  0.7575 -0.7135  0.1733
 5774SOL     OW28783   0.397   1.552   7.128  0.2030  0.4017 -0.3931
 5774SOL    HW128784   0.423   1.559   7.036 -0.6754  2.6906 -0.4681
 5774SOL    HW228785   0.486   1.537   7.161 -0.1004  1.2863  0.8234
 5775SOL     OW28786   2.108   1.497  11.222  0.0251 -0.0086  0.4509
 5775SOL    HW128787   2.176   1.528  11.281  0.4534 -2.0092  1.0232
 5775SOL    HW228788   2.117   1.402  11.229 -0.7189 -0.0065  1.4551
 5776SOL     OW28789   3.845   0.376   2.484 -0.0093  0.4806 -0.0509
 5776SOL    HW128790   3.846   0.459   2.435  3.5206  0.0019 -0.7953
 5776SOL    HW228791   3.928   0.338   2.455  0.7426 -0.3806  3.2583
 5777SOL     OW28792   4.054   3.928   3.398  0.3993  0.2470  0.2802
 5777SOL    HW128793   4.092   4.015   3.394  1.4113 -0.3120 -2.0885
 5777SOL    HW228794   4.049   3.913   3.493  2.9800  0.0412  0.3965
 5778SOL     OW28795   1.292   3.176   8.766 -0.0483 -0.0506 -0.4988
 5778SOL    HW128796   1.196   3.171   8.762 -0.1485  0.8889  0.6768
 5778SOL    HW228797   1.307   3.149   8.856  0.2946 -0.5385 -0.7075
 5779SOL     OW28798   0.312   4.194   2.467  0.1246 -0.2135  0.7877
 5779SOL    HW128799   0.306   4.261   2.535  0.9045 -0.0722  0.7072
 5779SOL    HW228800   0.263   4.232   2.394  0.0489 -1.1710  0.3430
 5780SOL     OW28801   0.357   0.299   8.955  0.2100 -0.0969 -0.4055
 5780SOL    HW128802   0.288   0.363   8.972  2.0333  1.7893  0.0230
 5780SOL    HW228803   0.407   0.353   8.894 -1.9231  0.4100 -1.6761
 5781SOL     OW28804   4.021   3.203   2.065  0.0790  0.6039  0.2284
 5781SOL    HW128805   3.939   3.251   2.053  1.4952  3.1916  0.9895
 5781SOL    HW228806   4.012   3.174   2.156  0.6234 -0.8966 -0.1901
 5782SOL     OW28807   2.873   0.572   8.938 -0.5902 -0.1053 -0.4686
 5782SOL    HW128808   2.781   0.576   8.909 -1.1343  2.4087  1.6452
 5782SOL    HW228809   2.907   0.488   8.907  0.6221 -0.2706  1.3093
 5783SOL     OW28810   2.211   0.225  16.007 -0.5005 -0.4287 -0.3194
 5783SOL    HW128811   2.134   0.196  16.056  0.1327 -1.0522  0.3000
 5783SOL    HW228812   2.227   0.142  15.962  0.6696 -1.8629  2.7636
 5784SOL     OW28813   4.535   3.912   7.911 -0.0230 -0.1068  0.1923
 5784SOL    HW128814   4.538   3.908   8.006 -2.1612 -2.6617  0.1682
 5784SOL    HW228815   4.613   3.863   7.884  1.3200  1.8518  0.5385
 5785SOL     OW28816   4.502   1.123   7.095 -0.5135  0.7065 -0.3278
 5785SOL    HW128817   4.557   1.189   7.138 -0.6628  1.3537 -1.1347
 5785SOL    HW228818   4.419   1.119   7.143  0.2245 -0.9441  0.7980
 5786SOL     OW28819   3.826   1.868   0.271 -0.5004 -0.2742  0.0691
 5786SOL    HW128820   3.765   1.815   0.321  0.6695 -0.0700  1.7113
 5786SOL    HW228821   3.803   1.829   0.187  1.8289 -1.0815 -0.1862
 5787SOL     OW28822   3.020   0.988   4.463 -0.1415 -0.2855 -0.0831
 5787SOL    HW128823   2.959   1.033   4.404  0.1364  2.7872  1.9943
 5787SOL    HW228824   2.952   0.946   4.517  0.1834 -2.2281 -1.1707
 5788SOL     OW28825   2.476   0.118   6.900 -0.2763  0.1335  0.0259
 5788SOL    HW128826   2.474   0.194   6.959  0.5389  0.7733 -0.7626
 5788SOL    HW228827   2.494   0.052   6.967  0.2387 -0.2187 -0.4566
 5789SOL     OW28828   3.747   1.405   6.384  0.4071 -0.1229 -0.1459
 5789SOL    HW128829   3.731   1.454   6.465 -0.4331  0.7953 -0.8730
 5789SOL    HW228830   3.686   1.453   6.329 -1.2696  0.0824  1.8830
 5790SOL     OW28831   0.927   1.133  17.016  0.6290  0.6458  0.5519
 5790SOL    HW128832   0.909   1.218  17.056 -0.3225  1.4497 -1.5750
 5790SOL    HW228833   0.958   1.086  17.093  1.3479  0.0440 -0.1087
 5791SOL     OW28834   0.025   3.376   1.839 -0.3057  0.1277  0.2662
 5791SOL    HW128835   4.700   3.450   1.806  0.2118 -0.4734 -1.9110
 5791SOL    HW228836   0.110   3.419   1.831  0.3954 -0.8525  2.2904
 5792SOL     OW28837   3.015   3.578   8.687 -0.0541 -0.0298  0.6064
 5792SOL    HW128838   3.105   3.594   8.718 -0.2538  0.9492  0.6630
 5792SOL    HW228839   2.980   3.531   8.763 -1.6293  1.1025  0.5811
 5793SOL     OW28840   1.240   0.923  16.133  0.1980  0.3733 -0.2041
 5793SOL    HW128841   1.227   0.958  16.221  1.8865 -0.3790  0.3343
 5793SOL    HW228842   1.257   0.829  16.138  1.3594  0.5861 -0.2459
 5794SOL     OW28843   3.505   2.111  12.386  0.4423  0.4530  0.3404
 5794SOL    HW128844   3.525   2.107  12.480  0.3425  0.1024  0.3466
 5794SOL    HW228845   3.563   2.174  12.344  0.2440  0.7276  0.4776
 5795SOL     OW28846   0.825   2.515   3.314 -0.4799  0.3659 -0.1470
 5795SOL    HW128847   0.888   2.445   3.328  0.2597  1.0100 -0.2602
 5795SOL    HW228848   0.866   2.556   3.238  0.3862  0.9934  0.6638
 5796SOL     OW28849   1.970   1.419  13.765  0.5111  0.1387 -0.1973
 5796SOL    HW128850   1.971   1.325  13.781  0.4707  0.1689 -0.0202
 5796SOL    HW228851   1.890   1.430  13.712 -0.0277 -0.5778  0.4746
 5797SOL     OW28852   4.009   4.230   3.749 -0.9039 -0.4401  0.0299
 5797SOL    HW128853   3.942   4.280   3.703  0.1630 -0.0329 -1.0883
 5797SOL    HW228854   4.044   4.303   3.801  0.3809  0.1370 -1.6156
 5798SOL     OW28855   4.100   1.338   2.265 -0.4858 -0.5047 -0.0326
 5798SOL    HW128856   4.066   1.367   2.180  1.0767 -0.6425 -0.7089
 5798SOL    HW228857   4.191   1.321   2.241 -0.6505 -1.1859 -0.1719
 5799SOL     OW28858   2.900   0.979   3.467 -0.8303  0.2214  0.6473
 5799SOL    HW128859   2.887   1.009   3.557  1.2186 -3.5007  2.1460
 5799SOL    HW228860   2.922   0.887   3.481  0.2477  0.3605 -0.0947
 5800SOL     OW28861   1.274   4.696   0.535 -0.0152  0.0208 -0.2389
 5800SOL    HW128862   1.286   4.690   0.630 -2.0466 -1.2322 -0.0668
 5800SOL    HW228863   1.352   4.653   0.500 -0.7586  0.1295 -2.0521
 5801SOL     OW28864   1.267   0.656  16.195  0.2685  0.6876  0.1158
 5801SOL    HW128865   1.307   0.578  16.234 -3.3121 -2.1707 -1.8789
 5801SOL    HW228866   1.174   0.634  16.206  0.5746 -1.3924 -1.3881
 5802SOL     OW28867   3.698   0.708   9.803  0.7095 -0.2325 -0.1727
 5802SOL    HW128868   3.701   0.637   9.868  2.3887 -1.5955 -1.7371
 5802SOL    HW228869   3.638   0.686   9.733 -1.0054 -0.0541  1.2447
 5803SOL     OW28870   1.176   2.884   9.137  0.4400  0.3955 -0.0314
 5803SOL    HW128871   1.102   2.824   9.130  2.1874 -1.5889 -1.4836
 5803SOL    HW228872   1.188   2.911   9.228 -1.5111  3.1266 -0.5748
 5804SOL     OW28873   2.493   3.006   6.234  0.1747 -0.5348  0.2491
 5804SOL    HW128874   2.536   3.085   6.267  1.4591  0.3752 -3.6250
 5804SOL    HW228875   2.566   2.950   6.206 -0.1341 -0.7498 -0.1383
 5805SOL     OW28876   2.413   3.187   7.683  0.0232  0.9038  0.2104
 5805SOL    HW128877   2.424   3.276   7.717  0.5103  0.7043  0.5800
 5805SOL    HW228878   2.370   3.143   7.757 -1.6019  0.5065 -0.9791
 5806SOL     OW28879   1.970   2.259   9.093  0.4922 -0.0319  0.4785
 5806SOL    HW128880   1.940   2.251   9.002 -0.6475 -0.4423  0.8882
 5806SOL    HW228881   2.048   2.313   9.078 -0.1257  0.6819 -0.1868
 5807SOL     OW28882   1.307   1.992   9.329  0.2002 -0.1203  0.4434
 5807SOL    HW128883   1.262   2.040   9.260 -1.9638  0.3040  2.1287
 5807SOL    HW228884   1.388   1.971   9.284 -0.7800  0.3823 -1.5561
 5808SOL     OW28885   1.071   1.361   8.604  0.0597  0.0129 -0.1269
 5808SOL    HW128886   1.016   1.388   8.677 -0.9314  2.2659 -1.7356
 5808SOL    HW228887   1.036   1.276   8.575  1.8132 -1.2177  1.3738
 5809SOL     OW28888   3.300   1.429  14.044  0.1142  0.2270 -0.2877
 5809SOL    HW128889   3.233   1.497  14.034  1.1141  0.9524 -2.0823
 5809SOL    HW228890   3.376   1.471  14.004  0.7650 -1.4100 -0.7944
 5810SOL     OW28891   0.436   2.494  11.698 -0.4487  0.7866 -0.6518
 5810SOL    HW128892   0.419   2.588  11.691  0.4727  0.9828 -0.2307
 5810SOL    HW228893   0.505   2.488  11.763 -2.3419  0.4738  1.3355
 5811SOL     OW28894   1.908   4.508   3.454 -0.6516 -0.2669  0.2628
 5811SOL    HW128895   1.852   4.431   3.443  0.5265 -1.2204  1.0777
 5811SOL    HW228896   1.849   4.580   3.429 -0.2235 -0.0303 -0.0639
 5812SOL     OW28897   2.181   2.798   9.504  0.1470  0.2028  0.0130
 5812SOL    HW128898   2.166   2.734   9.435  1.4775 -1.5912  1.3790
 5812SOL    HW228899   2.110   2.861   9.500 -1.0094 -1.0865  0.0184
 5813SOL     OW28900   4.413   3.038   6.451 -0.1500  0.2027  0.0295
 5813SOL    HW128901   4.347   3.076   6.509  0.9846  2.5084 -0.1672
 5813SOL    HW228902   4.465   2.977   6.503  0.1051  0.5090  0.1365
 5814SOL     OW28903   1.272   3.520   7.047 -0.3263 -0.1211 -0.5049
 5814SOL    HW128904   1.235   3.585   6.988  1.8802  0.5636 -1.1335
 5814SOL    HW228905   1.196   3.461   7.052 -0.5772  0.3885  1.7013
 5815SOL     OW28906   0.473   2.081   4.009  0.3813 -0.3932  0.1663
 5815SOL    HW128907   0.387   2.094   4.050  0.6022  2.1200 -0.2099
 5815SOL    HW228908   0.448   2.006   3.955  1.4351  0.2494 -1.2248
 5816SOL     OW28909   2.455   1.905   6.615  0.5140 -0.5644  0.6098
 5816SOL    HW128910   2.505   1.866   6.543 -1.5288 -0.4130 -0.9180
 5816SOL    HW228911   2.448   1.998   6.597 -1.9756 -0.8309  0.1516
 5817SOL     OW28912   0.766   1.072  15.558  0.5029 -0.5508 -0.3588
 5817SOL    HW128913   0.831   1.061  15.627  0.0845  0.7500  0.2375
 5817SOL    HW228914   0.730   0.985  15.541 -2.5279  0.3329  1.6486
 5818SOL     OW28915   1.856   1.958   3.043 -0.0584 -0.1268  0.7998
 5818SOL    HW128916   1.898   1.893   3.099  0.2474 -0.0590  0.6479
 5818SOL    HW228917   1.763   1.960   3.067 -0.1360 -3.9682  0.8224
 5819SOL     OW28918   3.347   3.732   6.664 -0.3727  0.1800  0.5003
 5819SOL    HW128919   3.442   3.742   6.668 -0.3100  0.2284 -1.0433
 5819SOL    HW228920   3.318   3.821   6.685 -0.1472  0.4461 -0.3013
 5820SOL     OW28921   1.525   1.618   6.133  0.0513 -0.3394  0.4205
 5820SOL    HW128922   1.600   1.586   6.183  1.6719  1.6028 -0.7737
 5820SOL    HW228923   1.568   1.693   6.092 -0.5246  0.1545  0.7418
 5821SOL     OW28924   4.308   3.645   7.139  0.1761  0.0717 -0.3306
 5821SOL    HW128925   4.361   3.615   7.213 -0.8874 -2.1133 -0.4634
 5821SOL    HW228926   4.359   3.716   7.100 -0.3111 -0.3309 -1.7019
 5822SOL     OW28927   2.709   4.096   6.144  0.0518 -0.4452 -0.4532
 5822SOL    HW128928   2.790   4.119   6.189 -1.9944  0.6342  2.6828
 5822SOL    HW228929   2.660   4.175   6.170  0.2509 -0.6066  0.4255
 5823SOL     OW28930   1.143   0.949  10.596  0.5267 -0.2921  0.3001
 5823SOL    HW128931   1.101   0.888  10.535 -2.3223  2.6403 -0.6844
 5823SOL    HW228932   1.075   0.969  10.661  0.1272  1.5957 -0.7216
 5824SOL     OW28933   0.179   2.196   4.961 -0.1144  0.2845  0.3012
 5824SOL    HW128934   0.274   2.188   4.950 -0.2159 -0.4594  0.0110
 5824SOL    HW228935   0.173   2.279   4.913  2.7508  0.7535  0.7448
 5825SOL     OW28936   0.874   0.865   3.957 -0.3452 -0.1470  0.2833
 5825SOL    HW128937   0.858   0.793   4.019 -0.6973  1.1496  1.7033
 5825SOL    HW228938   0.958   0.832   3.924 -0.5131  1.2313 -1.4847
 5826SOL     OW28939   0.645   3.746   5.243 -0.1847  0.6658 -0.1597
 5826SOL    HW128940   0.638   3.667   5.297 -0.9171 -2.2264 -4.4101
 5826SOL    HW228941   0.688   3.802   5.307  0.2758 -0.8836  0.8946
 5827SOL     OW28942   2.346   1.369   1.658  0.3719 -0.2630 -0.1615
 5827SOL    HW128943   2.276   1.407   1.604 -0.4704  0.0563  1.1486
 5827SOL    HW228944   2.303   1.346   1.740  1.0736 -1.7637 -0.2034
 5828SOL     OW28945   3.037   3.180   7.989 -1.1084  0.2657  0.4475
 5828SOL    HW128946   2.993   3.095   7.984 -0.6829 -0.0640  2.2655
 5828SOL    HW228947   3.108   3.160   8.050 -0.3100 -0.8304 -0.8239
 5829SOL     OW28948   0.370   0.087   2.776 -0.0657 -0.6740 -0.0142
 5829SOL    HW128949   0.387   0.140   2.854  0.8501  1.1199 -1.4406
 5829SOL    HW228950   0.424   0.010   2.798 -0.0582 -0.6953 -0.1043
 5830SOL     OW28951   3.990   4.199   8.312 -0.5798  0.0827 -0.2285
 5830SOL    HW128952   4.085   4.209   8.304 -0.5502 -1.1703 -1.4022
 5830SOL    HW228953   3.953   4.245   8.236  0.5769  0.8907 -0.3004
 5831SOL     OW28954   0.795   3.141   5.434 -0.3176  0.1140 -0.5082
 5831SOL    HW128955   0.776   3.227   5.395  0.5077  0.0365 -1.0723
 5831SOL    HW228956   0.704   3.118   5.454 -0.6146  1.6976 -0.0177
 5832SOL     OW28957   0.373   0.953  12.948 -0.1561  0.0170  0.1183
 5832SOL    HW128958   0.423   1.017  12.999  0.3175 -0.2473 -0.0216
 5832SOL    HW228959   0.342   0.893  13.016 -2.8094  2.6922  1.2751
 5833SOL     OW28960   1.877   2.176  11.718 -0.5456  0.2757  0.5229
 5833SOL    HW128961   1.930   2.253  11.696 -2.1799  1.1041 -0.4756
 5833SOL    HW228962   1.933   2.151  11.792  0.7508  1.1852 -0.1413
 5834SOL     OW28963   0.763   4.369   3.340 -0.3918  0.2972 -0.3810
 5834SOL    HW128964   0.832   4.351   3.404 -0.5726  1.6485  0.1803
 5834SOL    HW228965   0.808   4.427   3.279 -0.3072  0.1064 -0.5015
 5835SOL     OW28966   1.300   1.430   1.587  1.0529  0.9417  0.1294
 5835SOL    HW128967   1.235   1.396   1.649 -0.7952 -1.0128 -2.8458
 5835SOL    HW228968   1.248   1.461   1.512  1.6700  1.1472 -0.2111
 5836SOL     OW28969   1.709   3.813  14.860  0.0330 -0.7748 -0.1703
 5836SOL    HW128970   1.718   3.851  14.773  1.8329 -0.8677 -0.0406
 5836SOL    HW228971   1.631   3.761  14.843 -0.4489 -0.4102  0.9289
 5837SOL     OW28972   2.606   2.947   4.628  0.6350  0.0721 -0.1922
 5837SOL    HW128973   2.625   3.035   4.596  0.4414 -0.1116 -0.8096
 5837SOL    HW228974   2.681   2.942   4.688  1.9654 -0.8128 -1.9189
 5838SOL     OW28975   1.639   0.046   3.595  0.7102  0.1994  0.4242
 5838SOL    HW128976   1.678   0.030   3.509  0.7768 -2.5076  0.9582
 5838SOL    HW228977   1.642   0.141   3.607 -0.6470  0.5030 -1.6383
 5839SOL     OW28978   3.479   3.072   3.092 -0.0869 -0.1536  0.1662
 5839SOL    HW128979   3.458   2.979   3.103 -0.3434  0.1191  2.0407
 5839SOL    HW228980   3.539   3.086   3.166 -0.8487 -1.7200  1.1001
 5840SOL     OW28981   1.875   0.049  16.680  0.4618  0.3284  0.2706
 5840SOL    HW128982   1.951   0.070  16.625  0.4396 -3.5626 -1.2335
 5840SOL    HW228983   1.884   4.681  16.696 -3.1968 -0.2990 -1.4489
 5841SOL     OW28984   3.497   1.414  11.648 -0.2080  0.6126 -0.0518
 5841SOL    HW128985   3.531   1.375  11.729  1.6841  0.8604 -0.7183
 5841SOL    HW228986   3.493   1.341  11.587 -3.2804  0.5046  0.2867
 5842SOL     OW28987   1.365   3.664   3.211  0.0506  0.1764 -0.0217
 5842SOL    HW128988   1.296   3.652   3.277 -2.3016  0.8929 -2.3355
 5842SOL    HW228989   1.425   3.721   3.259  0.7177  1.2363 -2.1298
 5843SOL     OW28990   1.820   4.191   3.252  1.0150 -0.4254  0.3426
 5843SOL    HW128991   1.835   4.265   3.192  0.7131 -0.1279  0.6345
 5843SOL    HW228992   1.775   4.234   3.325  1.0270 -1.3469  0.8839
 5844SOL     OW28993   3.215   0.536   5.586  0.1458 -0.1607  0.1898
 5844SOL    HW128994   3.242   0.615   5.539  2.5868 -1.2819 -0.2790
 5844SOL    HW228995   3.139   0.561   5.639 -0.0433  0.6780 -0.4754
 5845SOL     OW28996   3.892   1.038  12.466 -0.6326  0.3796 -0.5762
 5845SOL    HW128997   3.855   1.127  12.463  1.0098  1.1129  0.4638
 5845SOL    HW228998   3.971   1.057  12.518  0.4011 -1.7602 -1.3706
 5846SOL     OW28999   3.973   2.472   6.745 -0.7142  0.7911  0.0733
 5846SOL    HW129000   4.009   2.387   6.769 -0.2144  1.5453  2.0501
 5846SOL    HW229001   3.890   2.439   6.709 -1.0843  1.0873  0.6378
 5847SOL     OW29002   3.282   0.641   8.917  0.0124 -0.0446  0.3433
 5847SOL    HW129003   3.246   0.650   9.006  2.3760 -2.4913  1.5578
 5847SOL    HW229004   3.359   0.586   8.933 -0.3487 -1.2301 -2.0707
 5848SOL     OW29005   2.301   2.965   3.699  0.3641  0.2852 -0.2121
 5848SOL    HW129006   2.291   2.897   3.632  2.6908  0.6196 -0.9254
 5848SOL    HW229007   2.213   3.003   3.697  0.7968  1.2008 -2.8136
 5849SOL     OW29008   0.594   0.200   2.019 -0.6395 -0.4155  0.1125
 5849SOL    HW129009   0.605   0.241   2.105 -0.0532 -0.8804  0.2628
 5849SOL    HW229010   0.666   0.242   1.972 -0.0584 -0.3812  1.0318
 5850SOL     OW29011   2.382   2.951  17.519 -0.3874  0.1705 -0.3930
 5850SOL    HW129012   2.426   2.948  17.604  2.0305 -0.3387 -1.6538
 5850SOL    HW229013   2.292   2.977  17.541 -0.7715 -2.2500  0.9681
 5851SOL     OW29014   2.996   3.834   0.724  0.4785  0.1566  0.2170
 5851SOL    HW129015   2.972   3.750   0.685  0.2484 -0.1580  1.0506
 5851SOL    HW229016   3.090   3.818   0.729  0.8243  1.4328 -1.8143
 5852SOL     OW29017   0.066   0.569   7.647  0.0836  0.0570 -0.2591
 5852SOL    HW129018   0.136   0.506   7.663 -0.7539 -0.6158  0.7542
 5852SOL    HW229019   0.106   0.629   7.584  1.1315  0.6757  0.9795
 5853SOL     OW29020   4.319   3.961   1.211 -0.5762  0.1837 -0.6260
 5853SOL    HW129021   4.300   3.982   1.120 -2.6262  2.1911  0.2461
 5853SOL    HW229022   4.412   3.940   1.209 -0.0387  2.7317 -2.1734
 5854SOL     OW29023   4.154   4.445   3.883  0.5100 -0.0711 -0.4477
 5854SOL    HW129024   4.087   4.498   3.925  0.3188 -0.4024 -0.3328
 5854SOL    HW229025   4.209   4.516   3.849 -3.3972  1.0673 -4.3574
 5855SOL     OW29026   2.649   3.373   2.297 -0.1991  0.1469  0.0047
 5855SOL    HW129027   2.672   3.466   2.299 -1.8844  0.6029 -1.4951
 5855SOL    HW229028   2.557   3.367   2.324  0.8007 -0.3293  3.2097
 5856SOL     OW29029   2.307   4.270   5.459 -0.6235  0.0425 -0.0121
 5856SOL    HW129030   2.339   4.209   5.392 -0.0540  1.7357 -1.2844
 5856SOL    HW229031   2.272   4.207   5.521 -1.6796 -1.2550 -1.9154
 5857SOL     OW29032   4.658   3.178  13.104  0.3039 -0.4367 -0.1866
 5857SOL    HW129033   4.668   3.238  13.179 -0.3037  1.3171 -1.5247
 5857SOL    HW229034   4.570   3.203  13.075 -0.8078 -1.5873  2.1471
 5858SOL     OW29035   1.156   4.371   7.688 -0.2668 -0.0759 -0.7797
 5858SOL    HW129036   1.249   4.396   7.689 -0.4432  0.4781  0.9294
 5858SOL    HW229037   1.160   4.312   7.613 -1.5414 -0.6225 -0.4080
 5859SOL     OW29038   2.109   0.677  12.589  0.1638 -0.3313 -0.0324
 5859SOL    HW129039   2.203   0.697  12.592  0.4840 -1.7521 -0.4733
 5859SOL    HW229040   2.108   0.597  12.537  2.5387  0.7049 -1.6873
 5860SOL     OW29041   1.564   0.621   2.234 -0.6492 -0.6846 -0.3193
 5860SOL    HW129042   1.635   0.603   2.173 -0.5878 -1.7856  0.0741
 5860SOL    HW229043   1.534   0.535   2.263 -1.0583 -0.7466 -0.9300
 5861SOL     OW29044   2.635   0.129   3.222 -0.4437 -0.0909  0.5581
 5861SOL    HW129045   2.559   0.106   3.168 -0.6362 -0.0348  0.8089
 5861SOL    HW229046   2.587   0.187   3.281 -1.4576 -1.0841  0.6908
 5862SOL     OW29047   3.424   1.966   6.290  0.4324  0.0832  0.3505
 5862SOL    HW129048   3.495   1.926   6.340  0.2051 -0.1228  0.5031
 5862SOL    HW229049   3.350   1.919   6.328 -0.3909  1.7193  0.7754
 5863SOL     OW29050   0.312   1.374  13.630  0.0354  0.2047 -0.2737
 5863SOL    HW129051   0.257   1.390  13.553 -0.2576  0.7124  0.0462
 5863SOL    HW229052   0.392   1.382  13.578 -0.4840 -1.0182 -1.2947
 5864SOL     OW29053   4.565   4.725   2.870 -1.0635  0.4909  0.2530
 5864SOL    HW129054   4.634   0.000   2.803 -1.6029  1.9104 -0.2795
 5864SOL    HW229055   4.617   0.031   2.944 -0.1285  0.0421 -0.2034
 5865SOL     OW29056   4.616   3.796   4.623  0.1012  0.0828 -0.1840
 5865SOL    HW129057   4.667   3.771   4.700 -2.3527  2.8402  2.3361
 5865SOL    HW229058   4.677   3.775   4.551  0.2226 -1.8277  0.4867
 5866SOL     OW29059   4.250   3.478   6.571  0.0477 -0.1173  0.4068
 5866SOL    HW129060   4.175   3.477   6.630  1.5285 -1.3953  2.2492
 5866SOL    HW229061   4.240   3.391   6.533  0.3509 -0.0547  0.1841
 5867SOL     OW29062   0.961   0.869  17.554 -0.0487  0.0284 -0.5647
 5867SOL    HW129063   0.961   0.801  17.487 -0.6724 -1.0467  0.5173
 5867SOL    HW229064   0.877   0.850  17.596  0.9177  0.5194  1.6215
 5868SOL     OW29065   1.071   0.519   5.995  0.6838 -0.6977  0.1679
 5868SOL    HW129066   1.135   0.573   5.947  0.7188  0.0856  1.1066
 5868SOL    HW229067   1.010   0.487   5.929  0.5371 -1.9902  0.9306
 5869SOL     OW29068   0.682   3.482  13.864 -0.5232 -0.1155  0.7462
 5869SOL    HW129069   0.764   3.457  13.821 -0.9755  1.1633 -0.8792
 5869SOL    HW229070   0.721   3.564  13.893  0.8678  0.3540 -2.3916
 5870SOL     OW29071   2.738   4.464   4.567  0.4033 -0.9363 -0.0175
 5870SOL    HW129072   2.777   4.419   4.641 -1.1716 -0.0994  1.3205
 5870SOL    HW229073   2.661   4.506   4.606 -0.0749 -2.9108  1.1684
 5871SOL     OW29074   3.252   1.898   5.275 -0.1077 -0.0610  0.4754
 5871SOL    HW129075   3.179   1.957   5.256  1.1025  0.8674 -1.3163
 5871SOL    HW229076   3.283   1.932   5.359 -0.7991 -1.1857  1.1826
 5872SOL     OW29077   0.132   4.538   4.819  0.2442  0.1796  0.5120
 5872SOL    HW129078   0.161   4.517   4.731  1.8115 -2.9298  1.7719
 5872SOL    HW229079   0.209   4.502   4.861  1.1857 -1.5162 -2.6885
 5873SOL     OW29080   2.461   0.795   7.274 -0.3407  0.0985 -0.0572
 5873SOL    HW129081   2.554   0.808   7.292 -0.4588  0.6570  0.1593
 5873SOL    HW229082   2.423   0.883   7.281  0.6490  0.2563  3.2850
 5874SOL     OW29083   2.578   0.744   8.013 -0.1779 -0.2050 -0.0423
 5874SOL    HW129084   2.651   0.761   7.953 -1.0698 -0.0374 -1.0700
 5874SOL    HW229085   2.542   0.661   7.982  0.7495 -0.4355 -0.5122
 5875SOL     OW29086   1.309   3.142   2.997 -0.1448 -0.0557 -0.1117
 5875SOL    HW129087   1.392   3.165   3.039  0.5854 -3.3205  0.2002
 5875SOL    HW229088   1.321   3.209   2.929 -0.1153 -1.2931 -1.3265
 5876SOL     OW29089   4.501   4.062   5.978 -0.0261 -0.1016 -0.1175
 5876SOL    HW129090   4.486   4.122   6.052 -1.2899 -1.3755  0.6726
 5876SOL    HW229091   4.473   3.977   6.012 -1.2842 -0.2537 -1.5463
 5877SOL     OW29092   1.654   2.690  11.465 -0.1630  0.1587  0.2278
 5877SOL    HW129093   1.603   2.757  11.511 -0.7888  0.2312 -0.5670
 5877SOL    HW229094   1.590   2.627  11.432  0.7459  0.7286 -2.6303
 5878SOL     OW29095   0.847   3.669   6.058 -0.0401 -0.1741  0.0453
 5878SOL    HW129096   0.895   3.588   6.043  2.7938  1.1527  2.1250
 5878SOL    HW229097   0.766   3.637   6.017 -0.1071  2.0859 -1.5753
 5879SOL     OW29098   0.063   1.468  15.681  0.1236  0.5327  0.0557
 5879SOL    HW129099   4.696   1.446  15.684 -0.4099  2.9850  1.5884
 5879SOL    HW229100   0.103   1.432  15.760 -1.6930 -1.2574  0.1491
 5880SOL     OW29101   4.386   3.048   5.389 -0.3065  0.3974  0.0807
 5880SOL    HW129102   4.391   3.056   5.294  0.1828 -0.2677  0.0444
 5880SOL    HW229103   4.478   3.063   5.414  0.1641  1.5287 -2.2893
 5881SOL     OW29104   4.725   1.595   8.785  0.0887 -0.3674 -0.2595
 5881SOL    HW129105   0.037   1.611   8.699 -0.7610  1.3070 -0.3283
 5881SOL    HW229106   0.037   1.671   8.831  0.1480 -0.9529  0.6639
 5882SOL     OW29107   0.923   1.446  10.798 -0.5050 -0.0553  0.5625
 5882SOL    HW129108   0.986   1.458  10.869  1.5580 -0.2429 -1.2557
 5882SOL    HW229109   0.989   1.472  10.734 -0.2560  0.4542  1.0168
 5883SOL     OW29110   3.817   0.357   8.354 -0.1762 -0.2316  0.0744
 5883SOL    HW129111   3.848   0.448   8.362  1.0689 -0.5113 -1.7593
 5883SOL    HW229112   3.790   0.343   8.445  1.0036  0.8647  0.5925
 5884SOL     OW29113   2.628   1.334   7.351 -0.0692 -0.9046  0.0482
 5884SOL    HW129114   2.714   1.359   7.385  0.7212 -2.6423 -0.6630
 5884SOL    HW229115   2.592   1.300   7.433 -0.6881 -1.6835 -0.5457
 5885SOL     OW29116   4.723   3.686  14.903  0.0156  0.2906 -0.5314
 5885SOL    HW129117   4.649   3.641  14.945  0.1247 -0.7731 -1.4574
 5885SOL    HW229118   0.014   3.639  14.821 -0.6134  0.4542 -0.7568
 5886SOL     OW29119   2.698   2.420   5.189  0.0476  0.3485 -0.3051
 5886SOL    HW129120   2.748   2.385   5.262  1.5628  1.0961 -0.9710
 5886SOL    HW229121   2.616   2.409   5.235 -0.1911 -0.2642 -0.8863
 5887SOL     OW29122   0.177   1.221  16.630  0.3481  0.4480 -0.1272
 5887SOL    HW129123   0.243   1.254  16.569 -0.4488 -1.7257 -2.1560
 5887SOL    HW229124   0.106   1.272  16.591 -0.8072 -0.9717  0.1348
 5888SOL     OW29125   1.233   3.519   2.609 -0.3425  0.1342 -0.4228
 5888SOL    HW129126   1.172   3.452   2.581  0.6692 -0.5176 -1.0694
 5888SOL    HW229127   1.280   3.527   2.526 -0.2158  1.8967 -0.1850
 5889SOL     OW29128   0.347   1.232   2.498 -0.1279  0.0081 -0.0940
 5889SOL    HW129129   0.262   1.198   2.472 -0.3640  1.7912 -1.6257
 5889SOL    HW229130   0.322   1.302   2.559 -2.8353 -2.0015  1.1119
 5890SOL     OW29131   2.804   2.556  15.795  0.1743  0.3223 -0.1357
 5890SOL    HW129132   2.728   2.506  15.766  0.4314  0.3631 -0.8807
 5890SOL    HW229133   2.772   2.612  15.866  0.8971  1.3166 -0.5900
 5891SOL     OW29134   1.551   0.956   4.096 -0.2459 -0.1126 -0.1338
 5891SOL    HW129135   1.544   0.976   4.189 -1.1811 -2.0545  0.2189
 5891SOL    HW229136   1.574   1.041   4.058  0.3476 -1.0985 -1.9986
 5892SOL     OW29137   2.147   0.546   3.678  0.3035  0.0710  0.4927
 5892SOL    HW129138   2.072   0.504   3.719  1.3204 -0.1045  2.1823
 5892SOL    HW229139   2.152   0.616   3.743  1.1865  0.7637 -0.3130
 5893SOL     OW29140   0.013   2.183   3.567 -0.0074  0.1454 -0.1189
 5893SOL    HW129141   4.682   2.167   3.642 -0.6149  3.2254  0.0790
 5893SOL    HW229142   0.091   2.151   3.612  0.5669 -0.5619 -1.6119
 5894SOL     OW29143   0.664   1.840   5.326 -0.0735  0.3386  0.1412
 5894SOL    HW129144   0.680   1.746   5.337  0.6112  0.7296  2.5301
 5894SOL    HW229145   0.692   1.855   5.236 -0.5471 -0.2005 -0.0979
 5895SOL     OW29146   4.468   0.259  14.766  0.1860  0.4903  0.6003
 5895SOL    HW129147   4.403   0.243  14.835  0.7127  1.3788  1.3165
 5895SOL    HW229148   4.446   0.187  14.708  0.1697  0.6359  0.4239
 5896SOL     OW29149   1.283   0.398   8.031 -0.3039  0.2667 -0.1092
 5896SOL    HW129150   1.192   0.372   8.014 -0.6927  0.3726  1.7238
 5896SOL    HW229151   1.325   0.382   7.947 -0.9421 -1.2790 -0.1373
 5897SOL     OW29152   4.348   2.695   1.593 -0.1939  0.4793 -0.0966
 5897SOL    HW129153   4.399   2.686   1.512 -0.2398 -0.0174 -0.0681
 5897SOL    HW229154   4.284   2.762   1.570  0.5724  1.2716  0.0772
 5898SOL     OW29155   4.036   0.307   6.190  0.5373  0.2116 -0.2336
 5898SOL    HW129156   4.037   0.377   6.124  3.4508  0.1380 -0.2819
 5898SOL    HW229157   3.963   0.255   6.158  0.4720  0.2012 -0.0626
 5899SOL     OW29158   0.240   0.662   9.772 -0.0607  0.2042  0.0140
 5899SOL    HW129159   0.298   0.587   9.784  0.0652  0.3197  0.1254
 5899SOL    HW229160   0.197   0.656   9.857 -2.8023 -0.1426 -1.4058
 5900SOL     OW29161   4.429   4.413   7.775 -0.1345 -0.0802  0.2546
 5900SOL    HW129162   4.467   4.492   7.736  1.1593 -0.7301  0.2024
 5900SOL    HW229163   4.336   4.422   7.758 -0.1748 -1.2354 -0.1505
 5901SOL     OW29164   3.037   2.006   7.802  0.2333 -0.0191  0.2577
 5901SOL    HW129165   3.027   2.016   7.897 -0.5222 -0.1971  0.2028
 5901SOL    HW229166   2.948   2.033   7.779  0.5427  0.8572  0.0615
 5902SOL     OW29167   0.307   0.825   0.766  0.0577  0.3323  0.4318
 5902SOL    HW129168   0.263   0.895   0.812 -0.4536 -0.2379  0.8065
 5902SOL    HW229169   0.376   0.873   0.720 -0.7925  1.0319 -0.0879
 5903SOL     OW29170   2.904   0.539  14.606 -0.4081 -0.6837  0.3321
 5903SOL    HW129171   2.935   0.463  14.557  2.3537 -0.0143  1.0605
 5903SOL    HW229172   2.968   0.540  14.677  0.3281 -2.9136 -0.3042
 5904SOL     OW29173   2.853   0.083   9.166  0.1734 -0.3772  0.4997
 5904SOL    HW129174   2.868   4.718   9.190 -4.6797 -1.1402  0.7658
 5904SOL    HW229175   2.821   0.081   9.075  0.8604 -1.6290  0.2844
 5905SOL     OW29176   3.659   4.553   3.389 -0.1305  0.7387  0.0406
 5905SOL    HW129177   3.645   4.511   3.474 -1.3144  2.3343  0.6349
 5905SOL    HW229178   3.625   4.487   3.329 -1.0576  1.0140  0.2593
 5906SOL     OW29179   4.419   1.868   5.356 -0.2660  0.0412 -0.2185
 5906SOL    HW129180   4.512   1.857   5.338  0.2360  1.7875  1.3864
 5906SOL    HW229181   4.380   1.798   5.304  0.4719  0.2248 -1.0117
 5907SOL     OW29182   0.411   1.019   1.909  0.2871 -0.4559 -0.1276
 5907SOL    HW129183   0.354   1.012   1.986  2.3587 -3.5476  1.1183
 5907SOL    HW229184   0.481   1.067   1.952 -0.5251  1.0033 -0.4297
 5908SOL     OW29185   2.069   2.784   3.934 -0.0399 -0.6463 -0.7302
 5908SOL    HW129186   2.064   2.791   3.839 -2.1470  0.9533 -0.4927
 5908SOL    HW229187   2.017   2.703   3.936 -0.5233 -0.2764  1.1950
 5909SOL     OW29188   1.263   0.879   8.491  0.2851 -0.2574 -0.5517
 5909SOL    HW129189   1.293   0.952   8.546  0.7552 -1.1958  0.4169
 5909SOL    HW229190   1.333   0.820   8.518 -0.0988 -0.5970 -0.3151
 5910SOL     OW29191   1.077   0.437   2.904  0.1420  0.0232  0.2220
 5910SOL    HW129192   1.130   0.470   2.976  0.6782 -0.0740 -0.1284
 5910SOL    HW229193   1.150   0.389   2.864 -0.1272 -0.6025  0.4733
 5911SOL     OW29194   3.872   4.150   7.922 -0.4581  0.3381  0.3178
 5911SOL    HW129195   3.849   4.180   7.834  0.7310  0.7643  0.1523
 5911SOL    HW229196   3.840   4.060   7.922  1.2813 -0.2718  1.5573
 5912SOL     OW29197   1.108   3.275   6.925  0.4434  0.1534 -0.0189
 5912SOL    HW129198   1.120   3.326   6.845 -1.6081  1.2052  0.3415
 5912SOL    HW229199   1.045   3.212   6.890  0.6600 -0.0935  0.0372
 5913SOL     OW29200   4.651   1.046   2.176 -0.2441  0.0066 -0.0484
 5913SOL    HW129201   0.005   1.065   2.224  0.2837  1.6189 -1.5782
 5913SOL    HW229202   4.684   1.056   2.087 -1.4182  1.5019 -0.3224
 5914SOL     OW29203   0.420   4.374   3.337 -0.6977  0.1309 -0.3882
 5914SOL    HW129204   0.466   4.394   3.418 -0.0688  0.7826 -0.9141
 5914SOL    HW229205   0.481   4.303   3.316 -0.2200  0.4729 -0.1473
 5915SOL     OW29206   2.590   4.139   6.525  0.2225 -0.1241  0.0647
 5915SOL    HW129207   2.636   4.099   6.598  1.2807 -0.9657 -1.0507
 5915SOL    HW229208   2.520   4.073   6.520 -0.8942  0.8635  2.9476
 5916SOL     OW29209   0.582   0.331   0.330  0.0567  0.1429  0.0696
 5916SOL    HW129210   0.577   0.369   0.242  1.2839 -2.0664 -0.9552
 5916SOL    HW229211   0.497   0.352   0.368 -0.5989  0.7417 -1.7184
 5917SOL     OW29212   3.598   1.315   2.629 -0.3959 -0.4692 -0.1284
 5917SOL    HW129213   3.504   1.311   2.614 -0.7395  1.1467  1.5142
 5917SOL    HW229214   3.596   1.282   2.719  1.2710  1.9162  0.7743
 5918SOL     OW29215   2.951   2.296  13.167  0.3676 -0.5943 -0.1624
 5918SOL    HW129216   2.871   2.341  13.193  1.0874  1.7387 -1.9362
 5918SOL    HW229217   2.932   2.283  13.074 -1.0672 -0.0436  0.0519
 5919SOL     OW29218   3.328   3.346  15.562  0.0107 -0.4006 -0.3867
 5919SOL    HW129219   3.362   3.398  15.489  0.1428 -0.3748 -0.3057
 5919SOL    HW229220   3.328   3.256  15.530  0.2279 -1.5023  2.7181
 5920SOL     OW29221   4.583   0.108   5.234  0.1783  0.4330  0.2878
 5920SOL    HW129222   4.525   0.072   5.301 -0.1705  0.6517  0.1042
 5920SOL    HW229223   4.546   0.066   5.155  2.7607  0.2022 -0.7832
 5921SOL     OW29224   1.790   4.438   6.273  0.2839  0.8333 -0.1526
 5921SOL    HW129225   1.751   4.521   6.248 -1.2209  0.2270  0.1795
 5921SOL    HW229226   1.829   4.456   6.358  0.6133 -2.3173  0.3589
 5922SOL     OW29227   2.942   4.153   6.783 -0.3975 -0.7611  0.3561
 5922SOL    HW129228   2.972   4.138   6.872  1.9758 -0.4006 -0.3899
 5922SOL    HW229229   2.884   4.078   6.766  1.3264 -1.7026 -1.4703
 5923SOL     OW29230   2.832   4.414   6.022  0.1171 -0.1566 -0.5063
 5923SOL    HW129231   2.755   4.423   5.966  0.4801  0.0693 -0.9656
 5923SOL    HW229232   2.825   4.495   6.072 -0.7753  0.3229 -1.4178
 5924SOL     OW29233   2.596   3.837   3.532  0.1997 -0.1927 -0.3586
 5924SOL    HW129234   2.502   3.820   3.529  0.1824 -0.1178 -0.2580
 5924SOL    HW229235   2.625   3.780   3.461 -0.9792  1.0668 -1.8688
 5925SOL     OW29236   3.965   0.736   4.242  0.8279  0.2937  0.0520
 5925SOL    HW129237   3.917   0.662   4.204 -0.1793  0.8238  0.2887
 5925SOL    HW229238   3.889   0.776   4.284 -0.4831 -1.4280 -0.6644
 5926SOL     OW29239   1.331   0.271   9.141 -0.1492 -0.3962 -0.0639
 5926SOL    HW129240   1.343   0.195   9.083 -1.8146 -0.3030 -0.5536
 5926SOL    HW229241   1.419   0.269   9.176  0.4022  0.1592 -1.4109
 5927SOL     OW29242   2.207   3.213   5.589  0.0492  0.2192 -0.3065
 5927SOL    HW129243   2.228   3.280   5.524  0.2817 -0.2278 -0.6875
 5927SOL    HW229244   2.117   3.195   5.560 -0.6537  1.6274  0.9660
 5928SOL     OW29245   2.506   1.978   8.475  0.5042 -0.8565 -0.4236
 5928SOL    HW129246   2.459   2.005   8.396 -0.6601 -3.4840 -0.6176
 5928SOL    HW229247   2.583   1.938   8.436  0.3823 -1.5223  0.0194
 5929SOL     OW29248   1.227   3.692   8.298 -0.6953  0.2337 -0.4633
 5929SOL    HW129249   1.244   3.599   8.303  1.2425  0.5757 -0.6944
 5929SOL    HW229250   1.133   3.691   8.315 -0.8140  0.0571 -1.1324
 5930SOL     OW29251   3.035   4.495   8.135 -0.4406 -0.2051 -0.6633
 5930SOL    HW129252   3.051   4.474   8.227 -2.1812  0.6767 -0.1557
 5930SOL    HW229253   3.098   4.442   8.087  0.6872  0.3918  0.1510
 5931SOL     OW29254   0.157   2.916  13.395  0.0524 -0.2093 -0.2746
 5931SOL    HW129255   0.088   2.851  13.395 -1.7475  1.6988  0.5325
 5931SOL    HW229256   0.160   2.944  13.303 -2.0715  1.4931  0.1817
 5932SOL     OW29257   0.348   0.819   5.475 -0.1045  0.6040 -0.2132
 5932SOL    HW129258   0.366   0.839   5.383  2.2536 -1.8529 -0.2754
 5932SOL    HW229259   0.378   0.891   5.530 -3.0234  1.4834  0.2427
 5933SOL     OW29260   2.281   1.135  12.079  0.1589 -0.7784 -0.4706
 5933SOL    HW129261   2.369   1.136  12.041  0.4870  2.1816  0.3064
 5933SOL    HW229262   2.234   1.207  12.036  0.3588  0.6937  1.7648
 5934SOL     OW29263   1.979   3.515   7.443  0.0896  0.0748  0.1614
 5934SOL    HW129264   1.894   3.472   7.444 -0.3991  1.0594  0.6648
 5934SOL    HW229265   2.035   3.437   7.442 -0.7682 -0.5430  0.5518
 5935SOL     OW29266   2.240   1.310   4.709  0.6270 -0.6085  0.0844
 5935SOL    HW129267   2.154   1.270   4.719  0.6073 -0.7477 -0.6409
 5935SOL    HW229268   2.269   1.322   4.800 -0.4583  2.7735 -0.0200
 5936SOL     OW29269   4.654   2.184   4.641  0.4558 -0.0712 -0.3046
 5936SOL    HW129270   4.636   2.154   4.551 -1.2213 -1.6345  0.5515
 5936SOL    HW229271   4.627   2.275   4.632  1.1787  0.0935 -0.8235
 5937SOL     OW29272   1.888   0.407   5.888 -0.0715 -0.2584 -0.0836
 5937SOL    HW129273   1.814   0.364   5.931  0.5536 -1.5845 -0.3394
 5937SOL    HW229274   1.837   0.484   5.861 -2.8659 -1.9232  0.3987
 5938SOL     OW29275   0.681   1.081   1.353 -0.3559  0.1192  0.2238
 5938SOL    HW129276   0.627   1.017   1.401  2.0003 -0.8956  1.5226
 5938SOL    HW229277   0.650   1.080   1.263 -1.3315 -0.8630  0.5600
 5939SOL     OW29278   3.603   1.478  15.464 -0.0486 -0.2087  0.0087
 5939SOL    HW129279   3.573   1.542  15.528  1.4072  0.2619  0.2187
 5939SOL    HW229280   3.656   1.536  15.408 -1.6836  1.5965  0.3280
 5940SOL     OW29281   2.592   0.006   1.729  0.0725 -0.1983 -0.7845
 5940SOL    HW129282   2.516   0.058   1.753  0.1718  0.3401 -1.6467
 5940SOL    HW229283   2.567   4.647   1.765  2.3133 -0.3468  0.4599
 5941SOL     OW29284   4.551   0.870   2.663 -0.3421 -0.4459  0.1034
 5941SOL    HW129285   4.483   0.903   2.603  0.4287  0.6228 -0.1875
 5941SOL    HW229286   4.506   0.855   2.746  0.2014 -1.4218  0.2142
 5942SOL     OW29287   4.382   1.985  14.355  0.9735  0.1686 -0.4240
 5942SOL    HW129288   4.328   1.908  14.375  0.1111  1.3789  1.9579
 5942SOL    HW229289   4.335   2.056  14.400  0.1366 -1.5753  1.4616
 5943SOL     OW29290   2.805   0.584  16.224  0.3348 -0.2819 -0.1873
 5943SOL    HW129291   2.718   0.625  16.223  0.9461  0.9990 -1.2857
 5943SOL    HW229292   2.784   0.500  16.265 -1.5529 -0.7276 -2.0508
 5944SOL     OW29293   0.791   4.265   2.699 -0.2016 -0.4907  0.8441
 5944SOL    HW129294   0.747   4.195   2.747  2.4588 -2.6904  0.0493
 5944SOL    HW229295   0.774   4.340   2.757 -0.6087  0.2420 -0.2155
 5945SOL     OW29296   0.549   4.395   6.682  0.3004  0.2720 -0.2546
 5945SOL    HW129297   0.499   4.356   6.753  0.8436  0.0626  0.0165
 5945SOL    HW229298   0.538   4.334   6.609  0.1402 -2.2072  1.8368
 5946SOL     OW29299   2.591   3.728   2.184 -0.1173 -0.3417 -0.0601
 5946SOL    HW129300   2.652   3.788   2.140  1.0208 -2.0988 -0.8551
 5946SOL    HW229301   2.534   3.702   2.112 -0.1272  1.0143 -0.5409
 5947SOL     OW29302   2.022   1.664   4.851  0.4285  0.2596  0.0578
 5947SOL    HW129303   2.084   1.625   4.788  0.8770  0.9511  0.0733
 5947SOL    HW229304   1.940   1.625   4.822  1.3128 -2.5234  1.2514
 5948SOL     OW29305   1.299   4.573  15.084 -0.2593 -0.8857  0.3196
 5948SOL    HW129306   1.273   4.505  15.145  0.6720 -0.7697  0.8571
 5948SOL    HW229307   1.218   4.623  15.092 -0.1854 -0.7846  0.4296
 5949SOL     OW29308   0.502   0.360  15.883 -0.4410  0.1052  0.1026
 5949SOL    HW129309   0.409   0.335  15.882 -0.0937 -1.1793  0.2255
 5949SOL    HW229310   0.533   0.302  15.814  1.3951  0.2506  0.7954
 5950SOL     OW29311   1.874   3.827   5.951 -0.5434  0.2208  0.1275
 5950SOL    HW129312   1.804   3.844   6.014 -0.3384 -0.5144  0.5538
 5950SOL    HW229313   1.823   3.847   5.872  1.9751  0.3083 -1.4661
 5951SOL     OW29314   3.607   4.385  14.797  0.3000 -0.1842 -0.3535
 5951SOL    HW129315   3.663   4.460  14.820  0.4090 -0.4969  0.3981
 5951SOL    HW229316   3.537   4.398  14.861  3.7723  1.1743  3.1660
 5952SOL     OW29317   2.201   1.179  15.414  0.6871 -0.1595  0.7296
 5952SOL    HW129318   2.148   1.130  15.352 -0.1240  2.4678 -0.6324
 5952SOL    HW229319   2.127   1.228  15.449 -0.3410 -0.7747 -0.6164
 5953SOL     OW29320   1.174   4.670   8.154  0.9015 -0.2499  0.3028
 5953SOL    HW129321   1.106   4.635   8.211  1.4010  1.3822  1.8838
 5953SOL    HW229322   1.135   4.658   8.067  2.8565  0.4801 -0.6738
 5954SOL     OW29323   1.272   2.733  11.959 -0.2751  0.1576  0.0612
 5954SOL    HW129324   1.203   2.697  12.015 -0.6278 -1.9016 -1.7100
 5954SOL    HW229325   1.292   2.810  12.011  2.9941 -0.5689 -0.1405
 5955SOL     OW29326   4.133   0.614   7.132 -0.1876  0.0115  0.1981
 5955SOL    HW129327   4.132   0.524   7.163  2.1513  0.6735  2.1774
 5955SOL    HW229328   4.039   0.625   7.115 -0.5726 -1.1678  1.5701
 5956SOL     OW29329   0.923   1.071  15.825  0.0204  0.4923 -0.0995
 5956SOL    HW129330   0.926   1.120  15.907 -3.0440  0.0855  0.2751
 5956SOL    HW229331   0.959   0.989  15.860 -1.9447  0.2548  1.3771
 5957SOL     OW29332   3.681   2.916   3.328 -0.1054 -0.3828  0.1645
 5957SOL    HW129333   3.607   2.867   3.293  0.0114 -0.3205 -0.1651
 5957SOL    HW229334   3.650   3.006   3.337 -0.3018 -0.4978  0.6443
 5958SOL     OW29335   0.040   3.719   6.277  0.8647  1.0588  1.0493
 5958SOL    HW129336   4.692   3.661   6.255  0.1801  1.0120  3.4851
 5958SOL    HW229337   0.018   3.788   6.214 -2.2971  0.8007  1.8481
 5959SOL     OW29338   0.583   3.346   9.377 -0.0797  0.2130  0.6155
 5959SOL    HW129339   0.565   3.421   9.320 -1.9243 -2.0567 -1.7878
 5959SOL    HW229340   0.544   3.272   9.331 -1.3425  0.9682  0.4486
 5960SOL     OW29341   2.799   3.886  10.458  0.0092 -0.5145  0.0946
 5960SOL    HW129342   2.783   3.848  10.372 -1.6591 -2.2771  1.1939
 5960SOL    HW229343   2.894   3.879  10.471 -0.0680 -0.2488  0.7923
 5961SOL     OW29344   0.047   2.652  14.330 -0.3905  0.5285  0.0179
 5961SOL    HW129345   0.078   2.618  14.246 -0.3018  2.3110 -0.6672
 5961SOL    HW229346   4.679   2.631  14.334 -0.5097  0.9387 -0.7550
 5962SOL     OW29347   2.544   3.787   6.538  0.8711  0.3923 -0.2220
 5962SOL    HW129348   2.455   3.753   6.534  0.5816  1.0834  0.3064
 5962SOL    HW229349   2.564   3.801   6.445  0.6461  1.4833 -0.1150
 5963SOL     OW29350   0.780   0.140   1.621 -0.3325 -0.6674 -0.1257
 5963SOL    HW129351   0.843   0.203   1.656  0.0811 -1.4800  0.5638
 5963SOL    HW229352   0.718   0.189   1.567  0.1833  1.5018  1.2609
 5964SOL     OW29353   1.369   4.462  10.095 -0.1553  0.0709  0.3632
 5964SOL    HW129354   1.296   4.461  10.032  0.4762 -0.7403 -0.3549
 5964SOL    HW229355   1.335   4.412  10.169 -0.7108 -0.7471 -0.4461
 5965SOL     OW29356   3.605   4.680   4.436  0.0638  0.2119 -0.3336
 5965SOL    HW129357   3.537   4.683   4.368 -1.4178 -0.4835  1.1063
 5965SOL    HW229358   3.613   4.587   4.456 -0.0117  0.8783  2.7384
 5966SOL     OW29359   3.107   4.552   4.992 -0.3217 -0.4901 -0.0602
 5966SOL    HW129360   3.097   4.543   5.087 -1.7173 -0.4818 -0.2122
 5966SOL    HW229361   3.111   4.458   4.977 -1.3363 -0.2686 -1.8025
 5967SOL     OW29362   3.043   2.297   4.803 -0.1815 -0.4456 -0.3786
 5967SOL    HW129363   3.070   2.372   4.856 -0.4161 -0.6278 -0.0010
 5967SOL    HW229364   2.968   2.266   4.853 -0.6659 -1.6284 -1.8597
 5968SOL     OW29365   2.425   3.814   5.500  0.2497  0.3022  0.0675
 5968SOL    HW129366   2.392   3.777   5.582 -1.6841  0.0538 -0.8169
 5968SOL    HW229367   2.478   3.889   5.528  1.2184 -0.3093 -0.1385
 5969SOL     OW29368   2.469   0.992   5.467 -0.2809  0.6531 -0.2101
 5969SOL    HW129369   2.522   0.913   5.457  0.0607  0.5479  2.3902
 5969SOL    HW229370   2.522   1.046   5.408  0.5551  1.4730  1.2885
 5970SOL     OW29371   0.967   3.336  17.661  0.0456 -0.4233 -0.1400
 5970SOL    HW129372   1.030   3.266  17.646 -1.9382 -2.0791 -0.6945
 5970SOL    HW229373   1.012   3.404  17.611  3.0040 -0.1121  2.9430
 5971SOL     OW29374   4.394   0.458   3.955  0.0442  0.2576  0.3192
 5971SOL    HW129375   4.474   0.511   3.954  0.9897 -1.1762 -1.6745
 5971SOL    HW229376   4.340   0.528   3.919 -1.2050 -0.6570  0.4439
 5972SOL     OW29377   0.654   3.895  12.177  0.0101 -0.3375 -0.7072
 5972SOL    HW129378   0.697   3.952  12.242  0.3863  1.2441 -2.3452
 5972SOL    HW229379   0.562   3.900  12.202 -0.4343  1.8496 -2.7716
 5973SOL     OW29380   0.246   2.186   4.145  0.1756 -0.2703  0.3206
 5973SOL    HW129381   0.219   2.113   4.200 -0.3574 -0.9641 -0.8747
 5973SOL    HW229382   0.187   2.262   4.152  0.9328  0.2113  1.6227
 5974SOL     OW29383   2.074   0.690   9.059 -0.3085  0.2932 -1.0995
 5974SOL    HW129384   2.096   0.747   9.133  0.0300 -0.6970 -0.4303
 5974SOL    HW229385   2.007   0.744   9.016 -0.4053  0.1589 -1.1163
 5975SOL     OW29386   1.725   0.079   4.012  0.6666  0.1886 -0.0317
 5975SOL    HW129387   1.637   0.097   4.043  0.7616  0.1266  0.2754
 5975SOL    HW229388   1.778   0.121   4.080  0.7681 -0.0314  0.0266
 5976SOL     OW29389   0.639   0.753  11.589 -0.2661  0.1534 -0.0125
 5976SOL    HW129390   0.688   0.696  11.529  0.3316  0.2457  0.3836
 5976SOL    HW229391   0.593   0.681  11.631 -0.4115  0.9838  1.2369
 5977SOL     OW29392   4.345   2.941   1.268  0.0597 -0.9701  0.1008
 5977SOL    HW129393   4.364   2.849   1.291  1.3294 -1.0444 -1.2521
 5977SOL    HW229394   4.361   2.942   1.174  1.8359  0.6827  0.4153
 5978SOL     OW29395   2.941   2.025   0.316 -0.4101 -0.5813  0.2755
 5978SOL    HW129396   2.934   1.952   0.377 -3.2523  0.6959  1.4557
 5978SOL    HW229397   3.033   2.052   0.318 -0.6677  0.3796 -0.9198
 5979SOL     OW29398   4.518   2.171   7.296  0.5896 -0.7084 -0.6067
 5979SOL    HW129399   4.477   2.185   7.211 -1.9547 -1.3463  0.4971
 5979SOL    HW229400   4.601   2.131   7.272 -0.1208 -1.5396 -1.7156
 5980SOL     OW29401   4.337   2.690  15.073  0.1099  0.7997  0.9555
 5980SOL    HW129402   4.377   2.616  15.029  0.6141 -0.5504  3.6501
 5980SOL    HW229403   4.348   2.662  15.164  2.1983 -0.2903  0.3491
 5981SOL     OW29404   1.061   1.489  11.226 -0.3501 -0.6145 -0.0939
 5981SOL    HW129405   1.010   1.408  11.227 -1.6434  0.2114  1.2329
 5981SOL    HW229406   1.133   1.462  11.283 -1.7932 -1.3799  1.3768
 5982SOL     OW29407   3.792   2.207  11.272 -0.5620  0.0530 -1.0551
 5982SOL    HW129408   3.728   2.209  11.343  0.6072 -0.0788  0.0031
 5982SOL    HW229409   3.761   2.129  11.225 -0.3213 -2.2827  2.6517
 5983SOL     OW29410   3.987   1.314   7.928 -0.6294 -0.0290 -0.4995
 5983SOL    HW129411   3.926   1.295   7.856 -0.7214  0.2375 -0.4928
 5983SOL    HW229412   3.973   1.409   7.934  1.4787  0.2385  0.1339
 5984SOL     OW29413   1.229   2.335   2.312  0.8963  0.4082  0.2383
 5984SOL    HW129414   1.137   2.314   2.301  0.7753  0.8794  0.3852
 5984SOL    HW229415   1.250   2.369   2.225  0.1094  2.0041  0.6756
 5985SOL     OW29416   2.169   1.445   8.438 -0.8759  0.3449  0.6847
 5985SOL    HW129417   2.210   1.470   8.521  2.3902 -1.7673 -0.3361
 5985SOL    HW229418   2.111   1.521   8.434 -0.4212  0.6750  0.4201
 5986SOL     OW29419   1.094   4.235   8.300 -0.1387  0.1007  0.2377
 5986SOL    HW129420   1.157   4.286   8.350 -0.7026  1.3694 -0.3554
 5986SOL    HW229421   1.130   4.147   8.288  1.0897  0.9983 -2.6424
 5987SOL     OW29422   3.056   3.635   5.350 -0.0678  0.0639 -0.0937
 5987SOL    HW129423   3.146   3.668   5.352  0.0941 -0.3868  0.0637
 5987SOL    HW229424   3.002   3.687   5.291  1.9106  0.3689 -1.6565
 5988SOL     OW29425   3.988   3.095  11.533 -0.0635 -0.1266  0.0235
 5988SOL    HW129426   4.005   3.114  11.626  0.1235  1.7602 -0.4055
 5988SOL    HW229427   3.922   3.025  11.524 -1.5418  0.8800  2.9692
 5989SOL     OW29428   2.295   4.706   1.978  0.8299  0.0204 -0.3933
 5989SOL    HW129429   2.377   4.658   1.969  1.6837  1.7256 -1.7383
 5989SOL    HW229430   2.296   0.012   1.888  0.5930  0.8102 -0.1118
 5990SOL     OW29431   0.221   3.634   7.202 -0.4715  0.0760 -0.0479
 5990SOL    HW129432   0.307   3.676   7.200 -0.2501 -0.2948  1.6285
 5990SOL    HW229433   0.241   3.556   7.254  1.2878  0.5075 -0.0660
 5991SOL     OW29434   1.368   4.369   2.223 -0.3906  0.4196 -0.0480
 5991SOL    HW129435   1.345   4.294   2.169  0.4865 -2.0719  3.0449
 5991SOL    HW229436   1.298   4.360   2.288  0.1902  2.6772  0.8894
 5992SOL     OW29437   1.866   3.287  13.576 -0.3487 -0.5244 -0.7547
 5992SOL    HW129438   1.849   3.373  13.537 -3.0475 -0.4432  0.6157
 5992SOL    HW229439   1.958   3.297  13.599 -0.2908 -0.4196 -1.0311
 5993SOL     OW29440   0.129   1.937   2.510 -0.3613 -0.1243 -0.5662
 5993SOL    HW129441   0.180   1.903   2.583 -0.2375  1.5035  0.1082
 5993SOL    HW229442   0.042   1.903   2.532 -0.2617  1.1663  1.7999
 5994SOL     OW29443   2.266   0.443   6.310 -0.3592 -0.1178 -0.1616
 5994SOL    HW129444   2.253   0.487   6.394 -0.3052  0.8239 -0.6487
 5994SOL    HW229445   2.285   0.507   6.242 -0.7448  0.8348  0.6196
 5995SOL     OW29446   4.197   2.421   7.732  0.0365  0.2721 -0.4417
 5995SOL    HW129447   4.243   2.425   7.648  1.2272  1.2597  0.2399
 5995SOL    HW229448   4.192   2.516   7.743  1.8884  0.3849 -0.4319
 5996SOL     OW29449   1.264   2.245   2.837 -0.2391  0.2211 -0.2435
 5996SOL    HW129450   1.191   2.274   2.892 -0.0245  1.9516 -0.8697
 5996SOL    HW229451   1.235   2.268   2.749  0.1314 -0.4540 -0.5366
 5997SOL     OW29452   3.254   0.648   5.904 -0.0596 -0.1962 -0.0299
 5997SOL    HW129453   3.279   0.715   5.968 -2.7666 -0.3899  1.2064
 5997SOL    HW229454   3.278   0.693   5.823 -1.1936  1.2179  0.4454
 5998SOL     OW29455   0.123   0.075  13.989 -0.1038  0.5740 -0.2453
 5998SOL    HW129456   0.163   0.125  14.059 -0.6063  0.7546 -0.0854
 5998SOL    HW229457   0.140   0.124  13.908 -1.9163  0.1842 -0.8730
 5999SOL     OW29458   0.749   0.236  13.525  0.4916 -0.0654 -0.4712
 5999SOL    HW129459   0.822   0.182  13.556  0.2035  0.6683  1.4594
 5999SOL    HW229460   0.683   0.170  13.504  0.4110  0.1699 -0.9621
 6000SOL     OW29461   1.327   1.197   9.805  0.8927 -0.0184 -0.6498
 6000SOL    HW129462   1.242   1.174   9.843  1.2940 -0.8076 -0.2188
 6000SOL    HW229463   1.318   1.285   9.768  1.6253  0.5142  0.4860
 6001SOL     OW29464   1.298   4.380  11.910  0.0327 -0.1282 -0.2013
 6001SOL    HW129465   1.323   4.404  11.999  0.3217  1.1442 -0.6319
 6001SOL    HW229466   1.207   4.353  11.922 -0.1600  1.8485  2.6005
 6002SOL     OW29467   0.699   2.142  14.797  0.7374 -0.0121 -0.0572
 6002SOL    HW129468   0.698   2.183  14.710  1.4785  2.6053  1.1760
 6002SOL    HW229469   0.619   2.180  14.833  0.3958  2.5687 -3.5484
 6003SOL     OW29470   1.763   0.435  12.049 -0.4902  0.2228 -0.2713
 6003SOL    HW129471   1.793   0.370  12.113  0.0279 -0.8800 -1.6428
 6003SOL    HW229472   1.693   0.383  12.010 -1.9121  0.1893  2.2713
 6004SOL     OW29473   3.179   2.641  15.985  0.1757 -0.3971 -0.4697
 6004SOL    HW129474   3.256   2.594  15.954 -0.3925 -0.8714 -1.1631
 6004SOL    HW229475   3.167   2.608  16.074  0.2150  1.2029  0.1445
 6005SOL     OW29476   1.630   2.376  14.347 -0.2588  0.3045  0.1399
 6005SOL    HW129477   1.567   2.399  14.415  0.0485 -0.0764  0.5487
 6005SOL    HW229478   1.571   2.359  14.274  1.5868 -2.5601 -0.6743
 6006SOL     OW29479   4.314   1.706   1.415  0.6019  0.0442 -0.6553
 6006SOL    HW129480   4.260   1.785   1.413 -1.5270 -1.2657  3.9418
 6006SOL    HW229481   4.255   1.632   1.423 -0.0085  0.7969  1.9838
 6007SOL     OW29482   2.339   1.797   0.682 -0.5245  0.3656 -0.4071
 6007SOL    HW129483   2.298   1.711   0.671  0.1690  0.0257 -0.3456
 6007SOL    HW229484   2.274   1.851   0.637  0.3243  1.4442 -0.3227
 6008SOL     OW29485   2.410   1.293   3.199  0.2233  0.5703  0.1737
 6008SOL    HW129486   2.365   1.339   3.128 -3.5140 -0.8686  1.6222
 6008SOL    HW229487   2.494   1.271   3.159  0.0761 -1.7464  1.1325
 6009SOL     OW29488   0.856   4.643   1.305 -0.5130 -0.1972  0.1967
 6009SOL    HW129489   0.781   4.698   1.282  0.9571  1.8484  0.3251
 6009SOL    HW229490   0.890   4.622   1.218  0.1923 -1.6556  0.8296
 6010SOL     OW29491   0.367   3.516   2.462  0.0866 -0.9146 -0.6825
 6010SOL    HW129492   0.344   3.609   2.450 -1.2066 -1.0748  0.5712
 6010SOL    HW229493   0.283   3.477   2.438  0.2286 -1.8250  0.3412
 6011SOL     OW29494   3.664   1.761  12.741 -0.4405 -0.4777  0.4077
 6011SOL    HW129495   3.753   1.727  12.728 -0.9032 -1.4039 -0.2705
 6011SOL    HW229496   3.626   1.693  12.796 -2.1728  1.5365  1.7137
 6012SOL     OW29497   0.628   1.875  10.477  0.2584  0.1325 -0.3502
 6012SOL    HW129498   0.678   1.950  10.509  2.9997 -0.3697 -3.4899
 6012SOL    HW229499   0.579   1.927  10.413 -1.7667 -0.3082  0.8591
 6013SOL     OW29500   1.102   0.723   3.036  0.4779  0.1691  0.0915
 6013SOL    HW129501   1.159   0.646   3.034 -1.2628 -1.1035 -0.9008
 6013SOL    HW229502   1.023   0.682   3.070  0.0079 -0.0724 -1.2751
 6014SOL     OW29503   0.944   1.895   2.316  0.2330  1.0000  0.0345
 6014SOL    HW129504   0.864   1.842   2.321  0.7216  0.2938  0.1537
 6014SOL    HW229505   1.018   1.839   2.294  0.3293  0.7882  0.9045
 6015SOL     OW29506   0.010   2.491   3.367 -0.4174  0.1542 -0.2871
 6015SOL    HW129507   0.067   2.560   3.400  0.9778 -1.2278  0.1788
 6015SOL    HW229508   0.048   2.465   3.284 -0.1494  0.8690 -0.3885
 6016SOL     OW29509   1.906   1.392   2.409  0.1089  0.0643 -0.1835
 6016SOL    HW129510   1.841   1.457   2.383 -2.3522 -2.2412  0.2878
 6016SOL    HW229511   1.861   1.367   2.489  1.4362  0.7718  0.8034
 6017SOL     OW29512   0.623   3.275   5.893  1.0067  0.4765  0.1552
 6017SOL    HW129513   0.596   3.194   5.935  0.0735  0.4612 -0.4913
 6017SOL    HW229514   0.587   3.261   5.806  0.9482  2.1407 -0.0934
 6018SOL     OW29515   2.347   1.571  17.305  0.0816  0.4375 -0.2333
 6018SOL    HW129516   2.357   1.508  17.376 -0.0780 -0.7042 -1.2240
 6018SOL    HW229517   2.438   1.599  17.298  0.8896 -2.6602 -2.5406
 6019SOL     OW29518   4.387   3.001   4.187 -0.0819 -0.2119 -0.0803
 6019SOL    HW129519   4.330   3.071   4.157  0.7909 -0.2110 -1.7048
 6019SOL    HW229520   4.335   2.922   4.169 -0.1257 -0.6064  1.7616
 6020SOL     OW29521   3.204   3.296   3.804  0.2050  0.2212 -0.1613
 6020SOL    HW129522   3.150   3.346   3.743 -1.4509 -0.2044  0.9549
 6020SOL    HW229523   3.149   3.219   3.822  0.6845  0.3222  1.7300
 6021SOL     OW29524   0.566   3.111   5.556  0.4909  0.3025  0.0258
 6021SOL    HW129525   0.483   3.086   5.597  0.8240 -1.1103 -0.1508
 6021SOL    HW229526   0.620   3.042   5.595 -1.7425 -1.2571  0.3119
 6022SOL     OW29527   0.721   4.165   8.076 -0.7700  0.1632  0.4244
 6022SOL    HW129528   0.651   4.218   8.038 -0.7189  0.1286  0.2811
 6022SOL    HW229529   0.764   4.240   8.117 -0.4466  0.0428  0.3048
 6023SOL     OW29530   0.019   2.363   4.240 -0.2651  0.4123 -0.5370
 6023SOL    HW129531   0.054   2.391   4.325  0.0136 -0.0845 -0.4867
 6023SOL    HW229532   4.658   2.403   4.234 -0.0508  0.9395 -0.1666
 6024SOL     OW29533   1.049   2.232  13.551 -0.4596 -0.1175 -0.1229
 6024SOL    HW129534   1.094   2.208  13.632 -0.1298 -3.1210 -1.1841
 6024SOL    HW229535   0.961   2.253  13.583 -0.8778  0.4806 -1.6661
 6025SOL     OW29536   1.556   4.676   6.594 -0.7897  0.0574  0.4683
 6025SOL    HW129537   1.552   4.704   6.685  0.6221  0.5690  0.3776
 6025SOL    HW229538   1.570   0.034   6.549  0.7721 -1.0804 -1.1946
 6026SOL     OW29539   2.891   0.028  11.765 -0.2161  0.4139  0.5346
 6026SOL    HW129540   2.854   0.099  11.712 -0.8097 -0.9788 -0.8841
 6026SOL    HW229541   2.965   0.080  11.796 -1.8439  2.6442  0.6787
 6027SOL     OW29542   3.921   2.712   8.222  0.0928  0.6353 -0.1002
 6027SOL    HW129543   3.839   2.683   8.262 -0.9537  1.6833 -1.5018
 6027SOL    HW229544   3.963   2.761   8.293 -2.3365 -1.4218  2.7436
 6028SOL     OW29545   2.724   1.111   8.231  0.4081  0.6384 -0.3051
 6028SOL    HW129546   2.679   1.081   8.310 -1.3277 -0.3544 -1.7000
 6028SOL    HW229547   2.657   1.146   8.172  0.6614 -1.7342 -1.9923
 6029SOL     OW29548   1.138   0.800   6.941  0.1249  0.0506  0.5164
 6029SOL    HW129549   1.061   0.775   6.993  0.5347  0.5465  1.3560
 6029SOL    HW229550   1.091   0.839   6.867  0.0275 -1.9424 -0.4758
 6030SOL     OW29551   2.326   0.876   4.157  0.3428  0.1944  0.6067
 6030SOL    HW129552   2.354   0.785   4.163  1.4714  0.3528 -2.0945
 6030SOL    HW229553   2.238   0.872   4.194 -0.6321  0.5235 -1.6679
 6031SOL     OW29554   1.035   2.787   1.622 -0.4778  0.6016  0.0462
 6031SOL    HW129555   1.020   2.828   1.707 -0.4770 -0.2305  0.4438
 6031SOL    HW229556   0.947   2.755   1.603  0.1806 -1.2151  0.0856
 6032SOL     OW29557   1.025   2.221  11.109  0.6995  0.2983 -0.4166
 6032SOL    HW129558   1.003   2.129  11.097 -1.9512  0.7854  0.6042
 6032SOL    HW229559   1.110   2.224  11.066 -0.8772  0.9420 -3.4945
 6033SOL     OW29560   2.298   0.233   8.278  0.1609  0.0415 -0.3115
 6033SOL    HW129561   2.244   0.279   8.215  1.8280 -0.5075 -2.1341
 6033SOL    HW229562   2.363   0.298   8.307 -0.8413  1.3454 -1.0107
 6034SOL     OW29563   3.454   4.325   8.223  0.2917 -0.2917  0.4925
 6034SOL    HW129564   3.458   4.231   8.205 -1.0770  0.0655 -1.6654
 6034SOL    HW229565   3.534   4.362   8.187 -0.2878 -0.6829 -1.2285
 6035SOL     OW29566   2.054   1.328  16.849  0.1938  0.2178  0.7107
 6035SOL    HW129567   2.140   1.362  16.874 -0.3693  1.6458  0.7273
 6035SOL    HW229568   2.029   1.264  16.916 -0.8566 -0.4486 -0.3261
 6036SOL     OW29569   1.069   3.481   6.004  0.3659 -0.0218 -0.1893
 6036SOL    HW129570   1.026   3.396   6.018  1.1175 -0.3810 -0.0346
 6036SOL    HW229571   1.131   3.488   6.077 -1.6437  0.6510  1.4662
 6037SOL     OW29572   3.620   3.445   7.816 -0.3019  0.3218  0.4725
 6037SOL    HW129573   3.565   3.381   7.771 -1.0493  0.3187  1.3945
 6037SOL    HW229574   3.688   3.378   7.828 -4.2218 -3.1278  3.3702
 6038SOL     OW29575   3.013   2.758   1.693  0.3573 -0.6559 -0.5981
 6038SOL    HW129576   3.028   2.726   1.605 -1.5500 -0.5683 -0.9443
 6038SOL    HW229577   3.011   2.851   1.669  1.1916 -0.6755 -0.7537
 6039SOL     OW29578   1.867   1.448   4.040  0.0340 -0.1273  0.0189
 6039SOL    HW129579   1.809   1.518   4.073 -0.5386  0.2127 -1.7241
 6039SOL    HW229580   1.869   1.482   3.951 -0.9475 -2.0580 -0.7292
 6040SOL     OW29581   0.153   2.774  12.492  0.3257 -0.3468 -0.4062
 6040SOL    HW129582   0.152   2.759  12.587  1.4545  0.6243 -0.2524
 6040SOL    HW229583   0.144   2.866  12.470  2.3894 -0.2742 -0.8685
 6041SOL     OW29584   0.021   1.584   0.641 -0.2288 -0.7008 -0.5666
 6041SOL    HW129585   0.094   1.554   0.696 -1.3045 -0.6462  0.9042
 6041SOL    HW229586   4.692   1.623   0.709  0.9055 -1.8720  1.0323
 6042SOL     OW29587   1.691   1.004   6.327  0.0788  0.7101 -0.2621
 6042SOL    HW129588   1.718   1.038   6.412  1.2123 -2.0536  0.4838
 6042SOL    HW229589   1.752   1.053   6.272  0.1399  0.1429 -0.7048
 6043SOL     OW29590   0.285   1.296  12.955 -0.0757 -0.2387 -0.2490
 6043SOL    HW129591   0.346   1.270  12.886 -1.0672  0.5645 -1.4131
 6043SOL    HW229592   0.211   1.323  12.901  1.1366  2.0201 -0.7628
 6044SOL     OW29593   2.618   1.243   3.020 -0.1889  0.0557  0.1553
 6044SOL    HW129594   2.678   1.314   2.997  2.2179 -1.9252  0.3390
 6044SOL    HW229595   2.618   1.183   2.946 -2.7172 -0.3421  0.4640
 6045SOL     OW29596   1.700   3.051  15.725 -0.4439  0.1834  0.7238
 6045SOL    HW129597   1.685   3.061  15.631  0.0704 -0.6296  0.5570
 6045SOL    HW229598   1.613   3.032  15.761 -0.6457  1.2638  0.8274
 6046SOL     OW29599   3.934   4.535   2.242 -0.1676  0.1572  0.0178
 6046SOL    HW129600   4.023   4.524   2.207 -0.1665  0.5177 -0.0887
 6046SOL    HW229601   3.932   4.470   2.312  2.4493 -0.5578 -0.5868
 6047SOL     OW29602   0.890   0.177   7.366  0.4724 -0.0335  0.2559
 6047SOL    HW129603   0.883   0.264   7.406  1.1715  0.6271 -1.0631
 6047SOL    HW229604   0.888   0.207   7.275  2.5389 -0.7097 -0.0037
 6048SOL     OW29605   3.595   3.096   7.813  0.0678 -0.0005  0.6460
 6048SOL    HW129606   3.668   3.137   7.767 -0.0373 -0.6654 -0.1163
 6048SOL    HW229607   3.538   3.083   7.737 -0.7660  0.3610  1.1990
 6049SOL     OW29608   4.481   0.967   5.134  0.1470 -1.0686 -0.6507
 6049SOL    HW129609   4.503   0.966   5.041  1.1770 -0.1640 -0.4151
 6049SOL    HW229610   4.397   0.923   5.146 -0.0269 -1.3582 -3.0763
 6050SOL     OW29611   1.516   0.367   1.525 -0.0930 -0.7223  0.0157
 6050SOL    HW129612   1.439   0.371   1.582  0.4169 -0.9577  0.7191
 6050SOL    HW229613   1.558   0.283   1.546  1.1768 -0.5224 -1.6939
 6051SOL     OW29614   2.001   0.148   1.895 -0.0076 -0.2113  0.3505
 6051SOL    HW129615   2.030   0.120   1.808  0.5947  1.2410  0.0817
 6051SOL    HW229616   1.988   0.061   1.932 -0.4594 -0.1315  0.3776
 6052SOL     OW29617   4.423   0.351   2.956 -0.5661  0.3156  0.0930
 6052SOL    HW129618   4.367   0.282   2.993 -0.8014 -0.7299 -2.2254
 6052SOL    HW229619   4.396   0.338   2.865 -0.8512 -0.6561  0.3154
 6053SOL     OW29620   0.410   1.387  12.495 -0.4092 -0.2259  0.5110
 6053SOL    HW129621   0.426   1.321  12.427  0.6109  0.5714 -0.0217
 6053SOL    HW229622   0.361   1.336  12.559 -0.6747  0.8081  1.1207
 6054SOL     OW29623   0.960   1.253  14.956 -0.0309  0.3843 -0.1658
 6054SOL    HW129624   0.977   1.163  14.926 -1.1765 -0.0057  0.3255
 6054SOL    HW229625   0.924   1.297  14.879 -0.2430  0.9561  0.2611
 6055SOL     OW29626   4.538   1.859  13.715 -0.3804  0.2951 -0.2649
 6055SOL    HW129627   4.567   1.914  13.788  0.8214 -0.6299 -0.0331
 6055SOL    HW229628   4.626   1.824  13.698 -0.6502 -1.2745  1.4731
 6056SOL     OW29629   0.863   3.654   3.637  0.5155 -0.3345  0.1781
 6056SOL    HW129630   0.899   3.569   3.613  2.8012 -0.0395  2.4917
 6056SOL    HW229631   0.916   3.721   3.594  0.7497 -0.5246  0.1693
 6057SOL     OW29632   3.856   1.148  12.804 -0.7166 -0.0321  0.1536
 6057SOL    HW129633   3.882   1.207  12.733 -1.7019  0.0915 -0.0984
 6057SOL    HW229634   3.766   1.179  12.809 -0.3768  0.6138  2.4161
 6058SOL     OW29635   2.596   1.547  17.594  0.4547 -0.5179  0.1169
 6058SOL    HW129636   2.534   1.614  17.624  0.2215 -2.1046  3.1928
 6058SOL    HW229637   2.634   1.587  17.516 -1.5370 -1.6193 -1.4508
 6059SOL     OW29638   1.451   2.041   6.559 -0.0055  0.3293  0.2659
 6059SOL    HW129639   1.435   2.129   6.527 -0.5960  0.4302  0.8436
 6059SOL    HW229640   1.546   2.046   6.545 -0.3049  1.1379 -1.4006
 6060SOL     OW29641   0.356   2.049  12.460 -0.1025 -0.1759 -0.0203
 6060SOL    HW129642   0.369   2.112  12.389  0.9898 -0.6398 -0.2193
 6060SOL    HW229643   0.387   1.965  12.425 -1.5673 -0.2194 -1.2445
 6061SOL     OW29644   4.565   1.760   3.160  0.0411 -0.2924 -0.3436
 6061SOL    HW129645   4.605   1.707   3.229 -0.0202 -0.7705 -0.6734
 6061SOL    HW229646   4.565   1.846   3.201 -0.7222  0.0736 -1.0995
 6062SOL     OW29647   1.016   1.931   5.382 -0.3141  0.7838  0.0759
 6062SOL    HW129648   1.088   1.990   5.358 -0.1964  0.6586  0.1230
 6062SOL    HW229649   0.961   1.995   5.427 -1.9173  2.0322 -3.7286
 6063SOL     OW29650   1.697   4.204   6.174  0.0432 -0.1836  0.5574
 6063SOL    HW129651   1.729   4.283   6.217  1.9845 -0.6376 -0.0868
 6063SOL    HW229652   1.623   4.179   6.230 -2.4092  0.9915 -2.1482
 6064SOL     OW29653   3.039   0.247  11.868  0.2146 -0.8173 -0.3834
 6064SOL    HW129654   3.124   0.287  11.886  1.5149 -2.7772 -2.1470
 6064SOL    HW229655   2.980   0.319  11.891 -0.5398 -0.7315 -2.6166
 6065SOL     OW29656   0.316   4.303  10.759  0.3229  0.2718 -0.1669
 6065SOL    HW129657   0.238   4.252  10.741  0.7266 -0.3674 -0.0854
 6065SOL    HW229658   0.293   4.392  10.731 -0.6388  0.6099  1.7025
 6066SOL     OW29659   4.695   0.122   4.335  0.3294 -0.1118 -0.6867
 6066SOL    HW129660   0.049   0.091   4.292  1.2249 -0.0807  0.9536
 6066SOL    HW229661   0.014   0.181   4.397 -1.5739  1.9665 -1.2868
 6067SOL     OW29662   2.742   3.974   6.692 -0.5037 -0.1047  0.2648
 6067SOL    HW129663   2.758   3.911   6.622  0.3467  1.0933 -0.6209
 6067SOL    HW229664   2.736   3.921   6.772 -0.2982 -2.2974 -1.1656
 6068SOL     OW29665   4.058   1.728   6.937  0.1158 -0.6536  0.0230
 6068SOL    HW129666   4.063   1.637   6.964  0.4306 -0.8357 -0.6549
 6068SOL    HW229667   4.026   1.724   6.847  0.0115 -0.7207  0.0635
 6069SOL     OW29668   4.663   1.215   5.843  0.0467  0.0864 -0.3170
 6069SOL    HW129669   0.003   1.156   5.879  0.4665  1.0730  0.5393
 6069SOL    HW229670   4.602   1.146   5.818  1.4556 -1.8413  1.5539
 6070SOL     OW29671   1.999   3.379  16.252  0.1342  0.4188 -0.0871
 6070SOL    HW129672   2.070   3.441  16.234 -2.7719  3.6254 -0.4826
 6070SOL    HW229673   1.970   3.364  16.162 -0.3160 -1.1067  0.3160
 6071SOL     OW29674   0.811   4.236   2.414 -0.2473 -0.0469  0.2888
 6071SOL    HW129675   0.847   4.311   2.366  0.0050 -1.3743 -1.5992
 6071SOL    HW229676   0.814   4.264   2.506  0.8198  0.4779  0.0945
 6072SOL     OW29677   2.734   3.026  17.394  0.5822 -0.0414  0.2325
 6072SOL    HW129678   2.744   2.969  17.471  0.7064  1.4419  1.3146
 6072SOL    HW229679   2.639   3.033  17.401  0.2952 -2.8704 -0.9271
 6073SOL     OW29680   0.560   1.944  13.307  0.4478  0.8052  0.4648
 6073SOL    HW129681   0.491   1.920  13.245 -0.1136 -1.3041  1.8947
 6073SOL    HW229682   0.614   1.865  13.303 -1.6198 -0.7545  2.7714
 6074SOL     OW29683   3.945   1.679   9.724 -0.2985 -0.3152 -0.1718
 6074SOL    HW129684   3.882   1.750   9.713 -0.0238  0.0936  0.8427
 6074SOL    HW229685   3.995   1.682   9.643  1.1611  2.2100  0.8254
 6075SOL     OW29686   3.729   4.529   1.862 -0.0157  0.4093  0.3302
 6075SOL    HW129687   3.729   4.592   1.791 -1.0821 -0.1319 -0.1525
 6075SOL    HW229688   3.776   4.575   1.932  2.2193  3.0432 -2.9280
 6076SOL     OW29689   0.260   2.043  13.035  0.1161 -0.0862  0.6915
 6076SOL    HW129690   0.169   2.025  13.060  0.2296  0.6898  1.6455
 6076SOL    HW229691   0.260   2.138  13.026  0.9718 -0.0163  1.5624
 6077SOL     OW29692   4.165   4.238   7.019  0.3187  0.1864 -0.6152
 6077SOL    HW129693   4.169   4.321   7.066 -0.4999 -0.8473  1.2956
 6077SOL    HW229694   4.144   4.180   7.093  0.0962  0.0031 -0.8227
 6078SOL     OW29695   1.518   1.340  15.846 -0.1433 -0.0565  0.3776
 6078SOL    HW129696   1.551   1.363  15.933 -0.2110  1.1996  0.0644
 6078SOL    HW229697   1.467   1.419  15.829  0.9039  0.3740 -0.6953
 6079SOL     OW29698   2.583   1.280  10.674  0.8471 -0.3367 -0.1818
 6079SOL    HW129699   2.631   1.246  10.749 -1.6448 -1.3151  0.9651
 6079SOL    HW229700   2.636   1.244  10.604  0.2639 -1.1652 -0.1947
 6080SOL     OW29701   3.157   1.623   5.398  0.4476 -0.0232  0.0070
 6080SOL    HW129702   3.202   1.690   5.347  0.0569 -0.4043 -0.8248
 6080SOL    HW229703   3.226   1.566   5.432  1.1330  1.0633  0.4742
 6081SOL     OW29704   3.922   1.321   4.291 -0.7405  0.0122 -0.1831
 6081SOL    HW129705   3.848   1.271   4.326 -3.1579  3.4887 -0.2700
 6081SOL    HW229706   3.891   1.411   4.301  0.7273  0.4259  0.5651
 6082SOL     OW29707   1.882   1.284   7.697 -0.6354  0.1177  0.3472
 6082SOL    HW129708   1.842   1.280   7.784 -2.8202 -1.5929 -0.7092
 6082SOL    HW229709   1.838   1.361   7.663  0.9795  1.2693  0.8632
 6083SOL     OW29710   0.822   0.168  14.917  0.1872  0.1705 -0.1101
 6083SOL    HW129711   0.827   0.088  14.969 -1.9189  0.3811  0.4400
 6083SOL    HW229712   0.902   0.213  14.943 -0.3092  0.5489  0.7619
 6084SOL     OW29713   2.819   2.871   6.432 -0.5271 -0.1219  0.2017
 6084SOL    HW129714   2.861   2.957   6.421  0.9621 -0.8602  0.1648
 6084SOL    HW229715   2.891   2.808   6.428 -1.3755 -0.8787 -2.6585
 6085SOL     OW29716   2.461   2.379   5.337  0.3459 -0.6208  0.8274
 6085SOL    HW129717   2.478   2.294   5.297 -0.8022 -0.6626  0.4207
 6085SOL    HW229718   2.369   2.371   5.362  0.0585 -0.8726 -0.3037
 6086SOL     OW29719   2.451   3.033   9.269 -0.7053 -0.0841  0.1195
 6086SOL    HW129720   2.461   3.017   9.363 -0.6926 -1.7327 -0.1746
 6086SOL    HW229721   2.536   3.073   9.252 -0.5915 -0.4326 -0.1104
 6087SOL     OW29722   3.460   2.524   3.342 -0.1616  0.1946 -0.2001
 6087SOL    HW129723   3.487   2.541   3.252  0.6445  2.2538  0.4396
 6087SOL    HW229724   3.371   2.558   3.348 -0.6168 -0.7896 -1.3773
 6088SOL     OW29725   4.457   0.954   3.705  0.2826 -0.2635  0.8244
 6088SOL    HW129726   4.463   0.956   3.800 -0.9426  0.7350  0.8929
 6088SOL    HW229727   4.363   0.940   3.692  0.4852  0.0100 -0.9065
 6089SOL     OW29728   2.670   1.485   1.440  0.1299  0.3653 -0.7045
 6089SOL    HW129729   2.660   1.491   1.345  0.3892  2.7385 -0.5766
 6089SOL    HW229730   2.760   1.453   1.442 -0.6705 -1.9176 -1.3226
 6090SOL     OW29731   0.415   2.743   3.636  0.5396 -0.2496 -0.0062
 6090SOL    HW129732   0.406   2.838   3.641  1.7666 -0.0715 -1.1130
 6090SOL    HW229733   0.473   2.728   3.710  0.5152  0.8405  0.2299
 6091SOL     OW29734   2.797   3.292  17.290 -0.4203 -0.1786 -0.2022
 6091SOL    HW129735   2.889   3.313  17.306  0.1315 -1.4259 -1.6575
 6091SOL    HW229736   2.790   3.206  17.330  1.1405  0.0780  0.5994
 6092SOL     OW29737   0.387   1.395   6.874  0.8351  0.4504 -0.5135
 6092SOL    HW129738   0.450   1.330   6.842  2.5235  0.7866  2.1439
 6092SOL    HW229739   0.381   1.459   6.803 -0.5696  1.2984  0.3744
 6093SOL     OW29740   4.641   1.467  11.363 -0.1333  0.8428  0.1558
 6093SOL    HW129741   4.699   1.523  11.413  0.5973  0.6648 -0.4831
 6093SOL    HW229742   4.630   1.394  11.424 -0.7679 -0.9594 -2.1055
 6094SOL     OW29743   2.989   3.772   7.462 -0.1019 -0.5364 -0.0606
 6094SOL    HW129744   3.074   3.781   7.419 -1.6265  1.3804 -2.6957
 6094SOL    HW229745   2.999   3.677   7.474  3.6626  0.4296  4.3111
 6095SOL     OW29746   1.763   3.129   1.091 -0.2087 -0.1644  0.0934
 6095SOL    HW129747   1.746   3.198   1.027  0.6763 -0.6036 -0.6208
 6095SOL    HW229748   1.847   3.097   1.056  0.4108  0.0078  1.4078
 6096SOL     OW29749   1.752   0.747   6.853 -0.2501 -0.4166 -0.0942
 6096SOL    HW129750   1.814   0.781   6.918  0.0818  1.6821 -1.5297
 6096SOL    HW229751   1.814   0.741   6.781 -0.3438 -0.4160 -0.1747
 6097SOL     OW29752   2.087   3.121   7.665 -0.6069  0.0359  0.6707
 6097SOL    HW129753   2.164   3.080   7.624 -1.2801 -1.5426  0.9594
 6097SOL    HW229754   2.121   3.114   7.754 -0.4447  0.2428  0.6247
 6098SOL     OW29755   2.266   1.167   7.479  0.8427  0.3999 -0.3145
 6098SOL    HW129756   2.353   1.179   7.518  1.1299  0.2962 -0.9104
 6098SOL    HW229757   2.220   1.146   7.560  1.1526  1.0517  0.0268
 6099SOL     OW29758   0.583   2.377   8.755 -0.0035  0.2432 -0.0958
 6099SOL    HW129759   0.585   2.423   8.839  0.8657 -0.8605  0.4954
 6099SOL    HW229760   0.646   2.306   8.766 -0.3760 -0.0685  0.0184
 6100SOL     OW29761   2.801   1.446   5.678 -0.4024  0.6104  0.0800
 6100SOL    HW129762   2.877   1.486   5.634 -0.8767  2.3715  0.8716
 6100SOL    HW229763   2.754   1.393   5.614  1.5857 -0.3667 -0.5866
 6101SOL     OW29764   2.170   1.596   5.082  0.0629  0.0365  0.7413
 6101SOL    HW129765   2.120   1.545   5.146  0.2550  0.2352  1.0509
 6101SOL    HW229766   2.104   1.623   5.019 -0.7672 -2.2946  0.6271
 6102SOL     OW29767   4.696   4.628   6.373 -0.2407  0.5834  0.2197
 6102SOL    HW129768   4.607   4.656   6.355  0.0961  0.8381 -1.1071
 6102SOL    HW229769   0.018   4.687   6.314 -0.5798  1.0470  0.4079
 6103SOL     OW29770   3.878   1.894   4.785  0.1816 -0.3982 -0.4527
 6103SOL    HW129771   3.803   1.943   4.750  1.4122  0.2099 -2.2094
 6103SOL    HW229772   3.935   1.970   4.797  1.2852 -1.3874  0.4730
 6104SOL     OW29773   1.290   3.826  13.911  0.2584  0.2911 -0.2535
 6104SOL    HW129774   1.363   3.872  13.870  0.1877 -0.2546 -0.9860
 6104SOL    HW229775   1.337   3.795  13.988  0.0619 -0.9604 -0.6398
 6105SOL     OW29776   2.121   3.070   9.474  0.3628  0.1336 -0.3162
 6105SOL    HW129777   2.031   3.099   9.483  0.6629  0.4595  1.7417
 6105SOL    HW229778   2.159   3.105   9.394  0.7674 -0.0852 -0.2188
 6106SOL     OW29779   2.592   2.203  14.482 -0.0769  0.2427 -0.3913
 6106SOL    HW129780   2.585   2.273  14.417 -0.0864  0.9637  0.3939
 6106SOL    HW229781   2.511   2.159  14.455  0.9467 -0.8011 -1.7642
 6107SOL     OW29782   1.646   2.108  12.669  0.0610  0.3607  0.6494
 6107SOL    HW129783   1.738   2.124  12.646  0.3927 -1.3719  0.7400
 6107SOL    HW229784   1.606   2.101  12.583  0.2726  0.0370  0.5780
 6108SOL     OW29785   0.665   0.678   5.220 -0.5205 -0.5201 -0.5018
 6108SOL    HW129786   0.705   0.658   5.305  1.1915  0.1923 -1.1255
 6108SOL    HW229787   0.739   0.733   5.193  0.0596 -0.2696  1.6469
 6109SOL     OW29788   2.198   2.658   6.249 -0.2069  0.0185 -0.1354
 6109SOL    HW129789   2.176   2.743   6.289  1.2223  0.7582 -0.8866
 6109SOL    HW229790   2.234   2.621   6.330  3.1550  1.0177 -1.1409
 6110SOL     OW29791   0.529   2.251  13.322 -0.4559 -1.4054  0.3858
 6110SOL    HW129792   0.578   2.191  13.266 -0.8675 -1.1189 -0.2881
 6110SOL    HW229793   0.566   2.233  13.409 -0.6398 -0.7984  0.5939
 6111SOL     OW29794   0.481   2.056  11.947 -0.3799 -0.1765  0.2917
 6111SOL    HW129795   0.528   2.137  11.926 -0.0789  0.1154  2.1704
 6111SOL    HW229796   0.421   2.077  11.876 -2.7350 -1.1168  2.0373
 6112SOL     OW29797   3.808   3.139   7.031 -0.3146 -0.4524  1.2462
 6112SOL    HW129798   3.734   3.197   7.017 -0.4847 -1.0370 -0.3449
 6112SOL    HW229799   3.840   3.175   7.113  0.3254  1.5407  0.1080
 6113SOL     OW29800   2.807   2.631   7.510  0.0126  0.1338 -0.2471
 6113SOL    HW129801   2.833   2.553   7.559 -2.4949 -0.5566 -0.0026
 6113SOL    HW229802   2.867   2.632   7.436  2.1124  0.9950  1.4737
 6114SOL     OW29803   2.771   2.623   4.787 -0.1776  0.0704  0.0780
 6114SOL    HW129804   2.759   2.717   4.792  0.4809  0.1693 -0.1423
 6114SOL    HW229805   2.853   2.613   4.834 -0.6694 -1.3437  0.6484
 6115SOL     OW29806   2.438   2.060  10.866 -0.9566  0.4555  0.1438
 6115SOL    HW129807   2.445   2.131  10.930  1.6411  0.2443  0.1253
 6115SOL    HW229808   2.484   1.994  10.918  1.7280  1.1691 -1.3191
 6116SOL     OW29809   1.739   2.388   8.603  0.5180  0.4155  0.2229
 6116SOL    HW129810   1.775   2.474   8.624  2.3369 -0.3776  0.3025
 6116SOL    HW229811   1.731   2.406   8.510 -2.0296 -1.1244  0.1260
 6117SOL     OW29812   3.611   4.068   7.645  0.3568 -0.3668 -0.7246
 6117SOL    HW129813   3.573   4.101   7.727  0.0202 -1.7089 -0.3483
 6117SOL    HW229814   3.627   3.984   7.688  0.1849  0.0129  0.0919
 6118SOL     OW29815   3.617   2.172   5.064 -0.3610  0.2945  0.1793
 6118SOL    HW129816   3.652   2.085   5.082  0.5379  0.2705 -1.6774
 6118SOL    HW229817   3.679   2.192   4.994 -1.2140  3.2952  0.2777
 6119SOL     OW29818   2.299   2.371   8.597 -0.2560  0.5761 -0.5529
 6119SOL    HW129819   2.303   2.325   8.513  0.3326 -0.4502  0.0421
 6119SOL    HW229820   2.274   2.300   8.657 -0.6335 -0.1443 -1.5616
 6120SOL     OW29821   0.502   3.005  13.766  0.2566 -0.0710  0.5635
 6120SOL    HW129822   0.522   3.099  13.757  1.4428 -0.5377 -1.8294
 6120SOL    HW229823   0.491   2.976  13.675  1.9612  1.1981 -0.0505
 6121SOL     OW29824   1.047   1.130   3.806 -0.0979 -0.0184 -0.3683
 6121SOL    HW129825   1.111   1.085   3.860  0.2522  2.0509  0.9523
 6121SOL    HW229826   1.105   1.182   3.750 -0.6426  1.0591  0.0752
 6122SOL     OW29827   2.610   3.304   8.769 -0.3975  0.0567  0.4378
 6122SOL    HW129828   2.613   3.382   8.824 -0.9540  0.6771 -0.4223
 6122SOL    HW229829   2.516   3.294   8.758 -0.6303  0.5604  1.9196
 6123SOL     OW29830   1.012   2.568  11.654 -0.1657 -1.0217 -0.2344
 6123SOL    HW129831   0.977   2.479  11.649 -1.1596 -0.6876  0.5877
 6123SOL    HW229832   1.106   2.555  11.656  0.0235  0.5491  0.7868
 6124SOL     OW29833   1.978   4.628  12.400  0.0792 -0.1752  0.0559
 6124SOL    HW129834   1.944   4.539  12.390 -0.7231 -0.0672  1.8372
 6124SOL    HW229835   1.998   4.656  12.310  0.4430  0.3859  0.3099
 6125SOL     OW29836   0.813   0.479   2.876  0.2229  0.4280  0.2338
 6125SOL    HW129837   0.900   0.439   2.883 -0.7872 -1.6127  0.8261
 6125SOL    HW229838   0.800   0.508   2.967  0.5591  0.7915  0.1701
 6126SOL     OW29839   2.525   4.327   2.856 -0.0324 -0.3300  0.1653
 6126SOL    HW129840   2.584   4.282   2.795 -0.5963 -1.0383  0.1325
 6126SOL    HW229841   2.509   4.412   2.815 -2.5050 -0.9564 -0.2208
 6127SOL     OW29842   3.698   0.208   3.057  0.4006  0.7029 -0.2128
 6127SOL    HW129843   3.742   0.163   3.130  2.6193  1.4755 -1.0724
 6127SOL    HW229844   3.629   0.143   3.048 -0.2646  1.1764  1.4528
 6128SOL     OW29845   1.512   2.836   9.199 -0.6354  0.5912 -0.0216
 6128SOL    HW129846   1.591   2.793   9.233 -1.4966 -0.2185  0.9570
 6128SOL    HW229847   1.448   2.786   9.250  1.1772 -1.9479 -0.2097
 6129SOL     OW29848   0.631   4.629   3.406 -0.1305  0.5648  0.5642
 6129SOL    HW129849   0.709   4.684   3.412  0.1974  0.2706 -0.9504
 6129SOL    HW229850   0.643   4.565   3.476 -0.8691  1.2957  1.3533
 6130SOL     OW29851   3.054   2.450   3.848 -0.2605 -0.2050 -0.4690
 6130SOL    HW129852   3.077   2.390   3.777 -1.1174 -0.8752 -0.1824
 6130SOL    HW229853   2.972   2.418   3.886  0.3723  0.5646  1.5597
 6131SOL     OW29854   1.525   1.982  15.107 -0.1563  0.4187  0.6690
 6131SOL    HW129855   1.491   1.930  15.034 -0.9719 -0.2632  1.5440
 6131SOL    HW229856   1.597   1.925  15.136 -0.0026 -0.6727 -1.8646
 6132SOL     OW29857   3.456   4.163   8.494 -0.1065 -0.4282  0.2769
 6132SOL    HW129858   3.390   4.158   8.424  1.0247  0.2926 -0.8291
 6132SOL    HW229859   3.540   4.184   8.454 -1.4032  3.1196 -0.5766
 6133SOL     OW29860   4.442   1.426   0.775 -0.2347  0.3279 -0.3467
 6133SOL    HW129861   4.385   1.469   0.711 -1.2840  3.9962  3.0474
 6133SOL    HW229862   4.507   1.494   0.796 -0.8927  1.0037 -0.4994
 6134SOL     OW29863   2.106   2.315   0.241  0.3584 -0.0801 -0.1416
 6134SOL    HW129864   2.192   2.311   0.283  0.2815  0.1503  0.0380
 6134SOL    HW229865   2.123   2.367   0.163 -0.2870 -0.9788 -0.8807
 6135SOL     OW29866   2.762   3.901   0.592  0.4172 -0.7106 -0.1407
 6135SOL    HW129867   2.690   3.839   0.591  0.2229 -0.4945  0.7511
 6135SOL    HW229868   2.816   3.869   0.664  0.6113  0.8759  0.4247
 6136SOL     OW29869   2.793   1.125   7.195 -0.2302  0.2191 -0.2139
 6136SOL    HW129870   2.881   1.162   7.202 -0.9199  1.3279  2.4810
 6136SOL    HW229871   2.729   1.194   7.209 -1.0762 -0.5541 -0.3029
 6137SOL     OW29872   1.304   2.802   6.480  0.1863  0.3453  0.5462
 6137SOL    HW129873   1.346   2.795   6.566  2.8418  2.3708 -0.5967
 6137SOL    HW229874   1.243   2.729   6.486  2.4170 -1.6894 -1.2499
 6138SOL     OW29875   2.533   2.683   7.526  0.0742 -0.2688 -0.0460
 6138SOL    HW129876   2.535   2.725   7.612 -0.2790 -0.2665 -0.0385
 6138SOL    HW229877   2.623   2.652   7.519  0.5004  0.8652  0.3381
 6139SOL     OW29878   1.811   2.878  17.133  0.1893  0.3889 -0.2603
 6139SOL    HW129879   1.867   2.847  17.062 -2.0025 -1.7060 -1.0441
 6139SOL    HW229880   1.752   2.804  17.147  1.4965 -0.4019  1.0253
 6140SOL     OW29881   0.546   1.176   2.327 -0.0431  0.0994  0.5394
 6140SOL    HW129882   0.487   1.200   2.398 -2.3185  1.0966 -1.6889
 6140SOL    HW229883   0.476   1.135   2.277  3.0729 -0.8530 -3.0627
 6141SOL     OW29884   0.956   3.038   2.695 -0.5037 -0.6273 -0.0160
 6141SOL    HW129885   0.900   3.031   2.617 -1.4666 -3.0806  0.8859
 6141SOL    HW229886   1.022   2.978   2.659  1.1941  1.5138 -0.5051
 6142SOL     OW29887   4.677   4.298  10.463 -0.2183  1.1281 -0.3797
 6142SOL    HW129888   4.678   4.276  10.370 -0.7324 -0.4716 -0.0071
 6142SOL    HW229889   0.018   4.362  10.440 -0.6939  1.1077 -1.7666
 6143SOL     OW29890   0.220   2.702   8.899 -0.4626 -0.3431 -0.1051
 6143SOL    HW129891   0.236   2.646   8.824  2.6084 -1.3309  1.2853
 6143SOL    HW229892   0.276   2.664   8.967  1.9110  0.4779 -1.6101
 6144SOL     OW29893   2.734   3.778   9.001 -0.2563  0.1056  0.2620
 6144SOL    HW129894   2.690   3.724   8.935  1.3501  0.1391 -0.8077
 6144SOL    HW229895   2.699   3.865   8.983 -4.3862 -1.7037 -0.6937
 6145SOL     OW29896   2.248   4.595   7.890  0.0592 -0.0404 -0.2980
 6145SOL    HW129897   2.302   4.673   7.888  1.2563 -0.8083  1.8821
 6145SOL    HW229898   2.290   4.545   7.820  0.9232 -0.7918  0.7646
 6146SOL     OW29899   2.964   1.358   4.973  0.1196  0.0466  0.0098
 6146SOL    HW129900   2.962   1.295   5.045  1.8459 -0.3365 -0.2665
 6146SOL    HW229901   2.897   1.416   5.007 -0.0192  1.0333 -1.9244
 6147SOL     OW29902   4.373   4.314  11.835 -0.1990  0.3411 -0.3021
 6147SOL    HW129903   4.449   4.323  11.776 -0.7915 -1.3531 -1.3130
 6147SOL    HW229904   4.310   4.268  11.780 -0.2344  0.5560 -0.4402
 6148SOL     OW29905   1.210   3.353   1.951 -0.1399  0.0998 -0.5968
 6148SOL    HW129906   1.279   3.416   1.932  2.2204 -1.9453  1.2311
 6148SOL    HW229907   1.135   3.397   1.910  0.4298  0.3006 -1.4258
 6149SOL     OW29908   0.706   0.124   2.970  0.2411 -0.5655  0.3440
 6149SOL    HW129909   0.675   0.092   3.055 -1.9077 -0.4512 -0.3844
 6149SOL    HW229910   0.776   0.183   2.999  0.7547 -0.6328 -0.7584
 6150SOL     OW29911   1.160   2.909   9.424 -0.7767 -0.3257  0.1768
 6150SOL    HW129912   1.141   2.815   9.421  0.6078 -0.6150  0.3322
 6150SOL    HW229913   1.128   2.934   9.511  0.0824 -0.3090  0.4860
 6151SOL     OW29914   3.277   0.252   6.970 -0.3455  0.2349 -0.4167
 6151SOL    HW129915   3.342   0.319   6.995 -0.8454  0.7613 -0.5305
 6151SOL    HW229916   3.339   0.179   6.965  0.2650  0.7324 -0.2071
 6152SOL     OW29917   3.870   1.873   4.498  0.5666 -0.1461  0.3955
 6152SOL    HW129918   3.782   1.864   4.534  0.8865 -0.4442  1.0960
 6152SOL    HW229919   3.922   1.822   4.559 -1.7216 -2.3941  0.4739
 6153SOL     OW29920   2.399   0.318   6.690  0.8576 -0.8745 -0.0554
 6153SOL    HW129921   2.483   0.362   6.685  1.7421 -2.4178  1.0463
 6153SOL    HW229922   2.428   0.246   6.747  2.9243 -0.4464 -0.6052
 6154SOL     OW29923   0.004   1.239   8.220 -0.0578  0.3380  0.3348
 6154SOL    HW129924   4.649   1.202   8.255  0.1427 -0.9573 -0.5346
 6154SOL    HW229925   0.042   1.263   8.304 -0.5664 -0.4782  0.8081
 6155SOL     OW29926   2.792   2.462  17.630 -0.7553 -0.2956  0.0484
 6155SOL    HW129927   2.832   2.540  17.593 -0.1151 -1.1075 -0.9764
 6155SOL    HW229928   2.727   2.504  17.687 -1.4447  1.7125 -2.2456
 6156SOL     OW29929   3.076   0.852  10.201 -0.3139 -0.3797 -0.9004
 6156SOL    HW129930   2.989   0.892  10.210 -1.3323 -3.0768  1.2442
 6156SOL    HW229931   3.102   0.875  10.112 -0.0584 -2.1771 -1.2973
 6157SOL     OW29932   0.817   1.737  10.325  0.1001  0.2555  0.1932
 6157SOL    HW129933   0.838   1.815  10.274  1.2996  0.4572  0.9958
 6157SOL    HW229934   0.742   1.765  10.377 -0.8433  0.7073 -1.4373
 6158SOL     OW29935   0.610   0.795   1.522 -0.1512  0.5584 -0.1895
 6158SOL    HW129936   0.648   0.730   1.581 -0.8448  0.1604 -0.1817
 6158SOL    HW229937   0.663   0.873   1.541 -0.0950  0.3991  0.3072
 6159SOL     OW29938   2.639   1.152   2.295 -0.7398  0.7368 -0.0758
 6159SOL    HW129939   2.678   1.116   2.375 -0.4997 -1.5374 -1.2234
 6159SOL    HW229940   2.561   1.099   2.282 -0.7658  0.2834  1.8104
 6160SOL     OW29941   0.633   4.515  10.980  0.2450 -0.0573 -0.7483
 6160SOL    HW129942   0.584   4.469  11.048 -0.4462 -0.7988 -1.7385
 6160SOL    HW229943   0.698   4.446  10.980  1.8490  1.4550 -0.0097
 6161SOL     OW29944   1.448   3.541  10.106  0.3178 -0.0614 -0.1266
 6161SOL    HW129945   1.443   3.604  10.034  0.2587  1.7899  1.5009
 6161SOL    HW229946   1.356   3.538  10.133 -0.0758 -0.6268 -1.5077
 6162SOL     OW29947   2.853   2.552   9.484 -0.2511 -0.0597  0.1062
 6162SOL    HW129948   2.830   2.460   9.492 -1.7255  0.3058  0.0429
 6162SOL    HW229949   2.774   2.594   9.450 -0.0452 -1.5434 -2.1954
 6163SOL     OW29950   1.811   0.108   8.516 -0.0910 -0.1207 -0.0136
 6163SOL    HW129951   1.823   0.167   8.590  0.3740 -1.3716  0.8995
 6163SOL    HW229952   1.892   0.112   8.466 -0.3069 -2.0152 -0.5188
 6164SOL     OW29953   0.709   0.862  14.922 -0.1681  0.3281  0.3564
 6164SOL    HW129954   0.773   0.849  14.853 -2.2209 -1.2668 -1.2286
 6164SOL    HW229955   0.659   0.781  14.928 -2.2903  1.7410  1.8118
 6165SOL     OW29956   3.638   1.189   5.901  0.7402  0.2128  0.1979
 6165SOL    HW129957   3.709   1.127   5.887 -1.3151 -1.6127 -2.0800
 6165SOL    HW229958   3.575   1.158   5.835  0.9964 -0.3706  0.2302
 6166SOL     OW29959   0.349   4.039  12.235 -0.6112 -0.3841  0.7935
 6166SOL    HW129960   0.314   4.039  12.325  0.1013  1.9350  1.0754
 6166SOL    HW229961   0.310   3.959  12.199  0.0436  0.5923 -2.0380
 6167SOL     OW29962   4.350   3.839   4.618  0.0704 -0.8805 -0.7663
 6167SOL    HW129963   4.442   3.829   4.596  0.2333 -1.0534 -0.0004
 6167SOL    HW229964   4.355   3.805   4.707 -1.1256 -0.6046 -0.5930
 6168SOL     OW29965   1.063   3.850  14.894 -0.1383  0.1647  0.3265
 6168SOL    HW129966   1.089   3.903  14.969 -0.6270 -1.7428  1.8531
 6168SOL    HW229967   1.111   3.769  14.913  1.8502  0.5201 -3.1907
 6169SOL     OW29968   2.707   2.695  13.769 -0.0450 -0.3907  0.3286
 6169SOL    HW129969   2.794   2.714  13.732 -1.4119  0.0525 -2.6512
 6169SOL    HW229970   2.695   2.772  13.825  0.6555 -2.6979  3.6619
 6170SOL     OW29971   3.768   1.490  13.583 -0.1499  0.4014  0.4949
 6170SOL    HW129972   3.678   1.461  13.594  0.0058 -0.6665 -0.9911
 6170SOL    HW229973   3.770   1.509  13.489 -2.0107  1.1277  0.6031
 6171SOL     OW29974   1.698   0.508   3.889  0.6483 -0.1177 -0.3968
 6171SOL    HW129975   1.634   0.533   3.823  1.7718 -0.0695 -1.4617
 6171SOL    HW229976   1.709   0.591   3.936 -0.4752  0.6370 -1.4642
 6172SOL     OW29977   3.079   2.081   5.488 -0.4747 -0.3297 -0.2193
 6172SOL    HW129978   3.172   2.068   5.506 -0.6909 -0.9438  0.4708
 6172SOL    HW229979   3.077   2.174   5.510  1.1323 -0.4142  0.2820
 6173SOL     OW29980   2.693   0.415   7.490 -0.4857 -0.2934 -0.1069
 6173SOL    HW129981   2.652   0.397   7.406 -1.0419 -0.3852  0.1850
 6173SOL    HW229982   2.737   0.333   7.512  0.0697  0.0202 -0.0367
 6174SOL     OW29983   0.763   3.511   2.861  0.0339 -0.1463 -0.4756
 6174SOL    HW129984   0.779   3.481   2.772 -2.1941 -0.8406 -0.6375
 6174SOL    HW229985   0.677   3.550   2.850 -1.3949 -2.7607  1.3867
 6175SOL     OW29986   2.534   4.008   5.654  0.0468 -0.1260 -0.3263
 6175SOL    HW129987   2.581   3.985   5.734 -1.3174 -0.2121  0.4457
 6175SOL    HW229988   2.464   4.070   5.677 -2.5989 -2.9504 -0.7913
 6176SOL     OW29989   0.804   4.713   6.419 -0.2701  0.3585 -0.2631
 6176SOL    HW129990   0.719   4.671   6.407 -1.0208  1.4048  1.4452
 6176SOL    HW229991   0.850   4.680   6.342 -0.0810  0.1467 -0.0640
 6177SOL     OW29992   0.635   4.457   8.704 -0.0642 -0.1949 -0.8886
 6177SOL    HW129993   0.566   4.524   8.703  0.9837  0.8910 -1.0888
 6177SOL    HW229994   0.612   4.399   8.631  0.1792  0.3219 -1.3751
 6178SOL     OW29995   3.940   2.116   9.876  0.4973  0.0911  0.2180
 6178SOL    HW129996   4.032   2.124   9.902  0.6839  0.6786 -0.6229
 6178SOL    HW229997   3.913   2.207   9.863 -0.1354  0.0193  0.9790
 6179SOL     OW29998   4.233   0.531  11.339 -0.4242  0.0150 -0.2256
 6179SOL    HW129999   4.239   0.568  11.427  0.5967  3.6357 -1.8071
 6179SOL    HW230000   4.174   0.458  11.360 -0.4011 -0.0686 -0.4517
 6180SOL     OW30001   4.719   2.421  17.052 -0.1628  0.2123  0.1431
 6180SOL    HW130002   0.022   2.331  17.034  0.5061  0.3165  0.6586
 6180SOL    HW230003   4.630   2.426  17.018  0.5276  3.1957 -1.1875
 6181SOL     OW30004   4.257   2.812   3.595 -0.0477 -0.0656  0.2434
 6181SOL    HW130005   4.299   2.772   3.519  2.3873 -0.1050  1.6125
 6181SOL    HW230006   4.199   2.742   3.624  1.1206 -2.0354 -2.1910
 6182SOL     OW30007   1.388   4.560  16.894  0.0050  0.0738 -0.2221
 6182SOL    HW130008   1.444   4.621  16.941 -0.8376  0.2087  0.6277
 6182SOL    HW230009   1.451   4.496  16.862  0.1077  0.3437 -0.5521
 6183SOL     OW30010   0.080   1.323  12.359 -0.6178  0.1023  0.3112
 6183SOL    HW130011   4.711   1.329  12.357 -0.4502  2.6470 -0.4379
 6183SOL    HW230012   0.105   1.381  12.287 -1.6638 -0.1306 -0.2257
 6184SOL     OW30013   2.206   3.950   6.268 -0.2482 -0.3908 -1.0017
 6184SOL    HW130014   2.196   3.934   6.362  0.4773  2.1751 -0.4776
 6184SOL    HW230015   2.158   4.031   6.252  1.4653  0.6088 -1.1159
 6185SOL     OW30016   2.323   2.880   5.929 -0.1551 -0.0741  0.5896
 6185SOL    HW130017   2.379   2.808   5.899  0.4879  1.0167 -0.8573
 6185SOL    HW230018   2.336   2.944   5.858  0.0094  0.5670  1.2024
 6186SOL     OW30019   2.286   4.529  13.425  0.2342  0.1800 -0.2411
 6186SOL    HW130020   2.237   4.448  13.437  1.4955 -0.3723  1.1314
 6186SOL    HW230021   2.310   4.525  13.517  0.6644 -0.7093 -0.3971
 6187SOL     OW30022   1.051   3.135   3.657 -0.4627  0.7026 -0.0013
 6187SOL    HW130023   1.141   3.144   3.626  0.2488  0.2019  1.8903
 6187SOL    HW230024   1.005   3.121   3.574  1.3257  1.5540 -1.1296
 6188SOL     OW30025   0.010   2.959   6.327  0.7379  0.2481 -0.3531
 6188SOL    HW130026   4.689   2.906   6.391 -0.5955 -0.0227 -1.5420
 6188SOL    HW230027   0.061   3.018   6.381  1.8078  0.1160 -1.2088
 6189SOL     OW30028   3.320   2.891   7.595 -0.3276 -0.0202  0.0814
 6189SOL    HW130029   3.327   2.965   7.534 -0.0497  0.7567  1.0479
 6189SOL    HW230030   3.412   2.870   7.606 -0.3117 -0.2972 -0.5403
 6190SOL     OW30031   1.040   3.167   8.487 -0.1512  0.0762  0.4685
 6190SOL    HW130032   1.112   3.105   8.480 -0.2427 -0.1985  1.9529
 6190SOL    HW230033   1.000   3.137   8.568 -1.6478 -2.4586 -1.2362
 6191SOL     OW30034   4.592   1.567  16.100 -0.2792 -0.1501  0.0944
 6191SOL    HW130035   4.534   1.616  16.042  1.1075 -0.3139 -1.4729
 6191SOL    HW230036   4.668   1.626  16.108 -0.1756 -0.5892  2.3687
 6192SOL     OW30037   3.637   3.026   6.424 -0.4510  0.1086  0.2814
 6192SOL    HW130038   3.572   3.089   6.393 -0.7189 -0.7350 -0.8381
 6192SOL    HW230039   3.587   2.947   6.442 -0.6413  0.3788  0.9529
 6193SOL     OW30040   2.450   0.676  13.464 -0.2884  0.1093  0.4256
 6193SOL    HW130041   2.431   0.584  13.485  3.6989 -1.1702 -1.5731
 6193SOL    HW230042   2.515   0.669  13.394  0.2375 -1.1333  1.0328
 6194SOL     OW30043   2.800   1.905  14.987 -0.0244  0.2046 -0.6852
 6194SOL    HW130044   2.783   1.980  15.044  0.8653 -0.8920  0.9973
 6194SOL    HW230045   2.887   1.926  14.952 -0.0135 -0.6830 -1.1751
 6195SOL     OW30046   0.025   0.622   1.335  0.9058  0.1643 -0.0427
 6195SOL    HW130047   4.715   0.560   1.273 -0.1638 -1.1300  1.8777
 6195SOL    HW230048   0.079   0.570   1.394 -0.2087  0.0701  0.9069
 6196SOL     OW30049   2.851   0.137   6.355  0.2680  0.4233  0.1339
 6196SOL    HW130050   2.833   0.227   6.383 -1.4927  0.3653 -0.8130
 6196SOL    HW230051   2.942   0.135   6.386  1.2620 -1.6496 -2.9588
 6197SOL     OW30052   0.805   3.272  14.529  0.1587 -0.0689  0.0715
 6197SOL    HW130053   0.773   3.317  14.451 -1.6356 -2.2090 -0.3990
 6197SOL    HW230054   0.880   3.329  14.550  0.6377 -1.0268  0.9395
 6198SOL     OW30055   0.954   4.251   3.505 -0.0058 -0.6096 -0.3419
 6198SOL    HW130056   1.028   4.303   3.537 -3.0005  2.9007  0.7634
 6198SOL    HW230057   1.005   4.186   3.456  1.5977 -0.0092  0.5099
 6199SOL     OW30058   2.679   4.349  12.689  0.2502 -0.2645  0.2948
 6199SOL    HW130059   2.747   4.410  12.660  1.6338 -0.5466  3.0071
 6199SOL    HW230060   2.604   4.384  12.640 -1.5768 -1.5777  2.1070
 6200SOL     OW30061   1.507   1.733   8.248 -0.1236 -0.4285  0.7098
 6200SOL    HW130062   1.563   1.682   8.306  1.8153 -0.1888 -0.9393
 6200SOL    HW230063   1.503   1.674   8.173 -0.2299  0.9739 -0.3894
 6201SOL     OW30064   3.738   3.655   7.963 -0.1350 -0.4694 -0.7421
 6201SOL    HW130065   3.819   3.649   7.913 -0.7119  3.0719 -2.1066
 6201SOL    HW230066   3.695   3.575   7.933  1.0518 -1.5102  0.3475
 6202SOL     OW30067   4.150   0.361   3.753 -0.3782  0.0313 -0.1447
 6202SOL    HW130068   4.207   0.437   3.765  0.4571 -0.4729 -0.9327
 6202SOL    HW230069   4.215   0.292   3.761 -2.1577 -1.3822  2.0095
 6203SOL     OW30070   3.050   3.637  14.805  0.3799  0.4613  0.0270
 6203SOL    HW130071   3.107   3.579  14.854 -0.1200 -0.8696 -0.9689
 6203SOL    HW230072   3.034   3.704  14.871 -1.2733  0.3131 -0.2236
 6204SOL     OW30073   4.055   3.891   0.542 -0.0556  0.3386  0.4437
 6204SOL    HW130074   4.136   3.896   0.593  1.7405  0.0727 -2.3987
 6204SOL    HW230075   4.100   3.877   0.459 -0.9699  0.7775 -0.1225
 6205SOL     OW30076   1.389   1.675   1.552  0.4739  0.0931  0.1918
 6205SOL    HW130077   1.460   1.626   1.511 -0.0074  0.6960 -1.3766
 6205SOL    HW230078   1.353   1.603   1.604  2.4609 -1.1069 -0.0878
 6206SOL     OW30079   1.457   3.390  17.675 -0.8366  0.1986  0.3994
 6206SOL    HW130080   1.454   3.294  17.680 -2.1276  0.1746 -0.8624
 6206SOL    HW230081   1.548   3.402  17.702 -0.7030 -0.6603  0.3501
 6207SOL     OW30082   0.753   0.885  10.526 -0.7954 -0.8654  0.0340
 6207SOL    HW130083   0.801   0.890  10.608 -0.6955 -1.7164  0.0332
 6207SOL    HW230084   0.830   0.874  10.470  0.5070 -1.6571  1.9915
 6208SOL     OW30085   0.498   1.560  13.026 -0.0346 -0.2963  0.2989
 6208SOL    HW130086   0.487   1.588  12.935  0.2403  0.7219  0.5742
 6208SOL    HW230087   0.465   1.637  13.073 -0.0410 -0.3805  0.4304
 6209SOL     OW30088   2.212   0.245  16.789  0.4056 -0.3758  0.1621
 6209SOL    HW130089   2.158   0.194  16.728  2.4997 -0.5828 -1.5155
 6209SOL    HW230090   2.293   0.222  16.744  0.6815  0.9548 -0.0262
 6210SOL     OW30091   2.937   0.317   8.870  0.0899  0.5341 -0.0684
 6210SOL    HW130092   2.888   0.250   8.821 -0.0209  2.3522 -2.4317
 6210SOL    HW230093   3.014   0.265   8.891  0.4762  1.3164  0.4418
 6211SOL     OW30094   3.194   0.577   6.256  0.3051  0.0495 -0.1951
 6211SOL    HW130095   3.106   0.560   6.223 -0.5448 -1.1862  2.6882
 6211SOL    HW230096   3.171   0.637   6.328  0.6916 -0.0858  0.0425
 6212SOL     OW30097   2.879   3.243   1.753  0.4465  0.5200 -0.6703
 6212SOL    HW130098   2.953   3.255   1.813  0.0176 -0.2079  0.0045
 6212SOL    HW230099   2.806   3.256   1.815 -0.0617 -1.8210 -0.7637
 6213SOL     OW30100   2.111   4.214   7.968 -0.1943 -0.4706  0.1855
 6213SOL    HW130101   2.068   4.135   8.001 -0.8447 -0.0273  0.3920
 6213SOL    HW230102   2.168   4.176   7.901 -0.6788  0.5961 -0.8265
 6214SOL     OW30103   2.391   1.195  10.379 -0.1160  0.2682 -0.8936
 6214SOL    HW130104   2.438   1.191  10.296 -0.6586 -1.7808 -1.1001
 6214SOL    HW230105   2.440   1.127  10.426 -0.1185  0.3021 -0.8413
 6215SOL     OW30106   3.233   3.861   7.305  0.2609 -0.3556  0.1610
 6215SOL    HW130107   3.281   3.832   7.383  1.3141 -1.1990 -0.8030
 6215SOL    HW230108   3.306   3.895   7.255  0.0780 -1.5137 -0.9013
 6216SOL     OW30109   4.407   4.236   2.787  0.2309 -0.8267  0.7786
 6216SOL    HW130110   4.474   4.239   2.719 -1.7760 -1.4650 -1.2118
 6216SOL    HW230111   4.388   4.330   2.785 -0.7480 -1.0410 -0.0377
 6217SOL     OW30112   4.421   1.092   9.407 -0.4943  0.5004 -0.3102
 6217SOL    HW130113   4.503   1.054   9.376  0.2622  3.2246 -1.7116
 6217SOL    HW230114   4.374   1.010   9.420  0.6516 -0.1348 -0.1719
 6218SOL     OW30115   1.310   2.062  15.536 -0.1902  0.7559  0.0960
 6218SOL    HW130116   1.297   2.148  15.575  2.2065  1.6898 -1.1763
 6218SOL    HW230117   1.403   2.063  15.515 -0.1167 -0.5151  0.3566
 6219SOL     OW30118   0.919   2.348   4.140  0.3100  0.3550 -0.0164
 6219SOL    HW130119   1.008   2.325   4.114  0.5242 -1.6396  2.5032
 6219SOL    HW230120   0.866   2.317   4.066  0.7242 -0.1818 -0.0902
 6220SOL     OW30121   3.106   0.137   6.442  0.5286  0.1830  0.3483
 6220SOL    HW130122   3.158   0.203   6.395 -0.3033  1.9695  1.9434
 6220SOL    HW230123   3.171   0.076   6.475  1.1629 -0.1678 -1.5169
 6221SOL     OW30124   3.157   3.288   1.396  0.4766 -0.0284 -0.8694
 6221SOL    HW130125   3.090   3.333   1.447  0.8688 -0.3189 -0.0967
 6221SOL    HW230126   3.217   3.362   1.398  1.3929 -0.7398 -1.3970
 6222SOL     OW30127   0.707   3.273   7.869 -0.1684 -0.6374  0.5181
 6222SOL    HW130128   0.631   3.290   7.924  0.6510 -0.2868  1.5478
 6222SOL    HW230129   0.751   3.358   7.864  0.3051 -0.8593  0.8634
 6223SOL     OW30130   1.051   2.368   3.303 -0.5995  0.4636 -0.1936
 6223SOL    HW130131   1.045   2.356   3.398 -2.0434 -0.2510 -0.3616
 6223SOL    HW230132   1.124   2.430   3.300  1.5509 -2.1230 -1.0408
 6224SOL     OW30133   0.777   4.125   8.380 -0.7534  0.1664  0.3636
 6224SOL    HW130134   0.766   4.089   8.292  0.0946  0.8877 -0.0356
 6224SOL    HW230135   0.840   4.058   8.406 -0.1957  0.3673 -0.4637
 6225SOL     OW30136   0.619   3.442   6.179 -0.0014  0.2675 -0.0293
 6225SOL    HW130137   0.648   3.352   6.164  2.3444  1.2678 -1.4188
 6225SOL    HW230138   0.630   3.478   6.090  0.3565  1.0283  0.3237
 6226SOL     OW30139   4.176   2.527   9.181 -0.6385 -0.0637  0.1232
 6226SOL    HW130140   4.211   2.596   9.238  0.4704 -0.4894 -0.0475
 6226SOL    HW230141   4.213   2.447   9.218  1.7004  1.0992  0.2783
 6227SOL     OW30142   3.996   1.828   1.703  0.0792 -0.3928 -0.2636
 6227SOL    HW130143   3.950   1.744   1.698  3.4718 -2.2363 -0.1794
 6227SOL    HW230144   4.011   1.841   1.610  1.1655  2.1642  0.2781
 6228SOL     OW30145   4.209   2.442   4.743  0.0273 -0.2739  0.0455
 6228SOL    HW130146   4.116   2.431   4.723  0.2012  0.6211 -1.3066
 6228SOL    HW230147   4.212   2.369   4.804 -1.4539  0.1720  0.6469
 6229SOL     OW30148   2.780   1.719   0.126  0.0528 -0.2440  0.2421
 6229SOL    HW130149   2.848   1.660   0.095 -1.2319  0.0709 -3.1676
 6229SOL    HW230150   2.746   1.763   0.048 -1.7366  0.1877  1.2747
 6230SOL     OW30151   0.019   1.035   7.283  0.5936 -0.0425  0.4826
 6230SOL    HW130152   4.701   0.954   7.259 -1.5012  1.1763  0.1224
 6230SOL    HW230153   0.077   1.060   7.212 -0.0533  0.4706  0.1294
 6231SOL     OW30154   3.619   2.216   1.788  0.0903  0.3015  0.0152
 6231SOL    HW130155   3.682   2.143   1.784  1.0328  1.0710  0.6069
 6231SOL    HW230156   3.632   2.236   1.881  0.1399  1.5354 -0.2554
 6232SOL     OW30157   4.463   2.532   8.242  0.5172 -0.1269  0.0031
 6232SOL    HW130158   4.438   2.473   8.314  0.0289 -1.0000 -0.8735
 6232SOL    HW230159   4.391   2.504   8.185 -0.0991 -0.4091  0.9073
 6233SOL     OW30160   4.581   4.095   5.493  0.5518 -0.6848 -0.7741
 6233SOL    HW130161   4.640   4.170   5.480 -1.0238  0.7656  0.5792
 6233SOL    HW230162   4.617   4.061   5.575  1.1153 -0.3767 -0.8921
 6234SOL     OW30163   2.167   1.651   3.947  0.0564 -0.0628  0.0063
 6234SOL    HW130164   2.188   1.578   4.005  2.1153  0.0422 -0.5993
 6234SOL    HW230165   2.169   1.604   3.863  1.7666 -1.0375  0.5855
 6235SOL     OW30166   1.951   2.495  11.174 -0.1688  0.2134 -0.1770
 6235SOL    HW130167   1.906   2.429  11.226 -0.6320 -1.1070 -2.2449
 6235SOL    HW230168   2.011   2.436  11.127 -1.0482 -0.9286  0.1603
 6236SOL     OW30169   0.607   1.287   6.444  0.2063 -0.3592 -0.0032
 6236SOL    HW130170   0.671   1.345   6.403 -0.0221 -2.1383 -2.8955
 6236SOL    HW230171   0.637   1.202   6.411 -2.3469 -0.7999 -1.2095
 6237SOL     OW30172   3.096   1.771  17.484  0.3064  0.3758 -0.5419
 6237SOL    HW130173   3.002   1.768  17.470  0.1376  1.4734  0.3603
 6237SOL    HW230174   3.117   1.816  17.566  2.8354 -1.4151 -0.1914
 6238SOL     OW30175   0.212   3.002  11.094 -0.2736 -0.3449  0.1515
 6238SOL    HW130176   0.148   2.993  11.164  0.3839 -2.8185  0.4444
 6238SOL    HW230177   0.196   2.911  11.069  2.3303 -0.8962  0.4076
 6239SOL     OW30178   3.190   1.815   9.562 -0.3204  0.0299  0.3737
 6239SOL    HW130179   3.169   1.888   9.505  2.2997 -0.1540 -0.8380
 6239SOL    HW230180   3.124   1.814   9.632 -0.0510  0.5944  0.6397
 6240SOL     OW30181   3.625   0.587  13.526 -0.3661  0.4402 -0.4777
 6240SOL    HW130182   3.712   0.563  13.557 -0.8926 -1.3373 -0.3595
 6240SOL    HW230183   3.589   0.582  13.614  0.9141 -2.2086 -0.1265
 6241SOL     OW30184   1.728   1.788   5.714  0.0139  0.3265  0.0100
 6241SOL    HW130185   1.756   1.831   5.633 -2.2517 -1.0222 -1.4991
 6241SOL    HW230186   1.766   1.843   5.782  0.2530  2.5516 -1.9109
 6242SOL     OW30187   0.547   2.749   5.110  0.2831 -0.0368 -0.1616
 6242SOL    HW130188   0.513   2.670   5.068 -1.8894  1.1737 -0.6548
 6242SOL    HW230189   0.608   2.703   5.168  0.7213  0.2980 -0.3607
 6243SOL     OW30190   1.069   2.346   2.999 -0.1589 -0.0248 -0.4965
 6243SOL    HW130191   0.982   2.346   2.959  0.0928  1.8953 -1.0563
 6243SOL    HW230192   1.041   2.354   3.090 -2.7539 -0.9681 -1.2251
 6244SOL     OW30193   1.025   1.950  11.169  0.3260  0.2808 -0.4653
 6244SOL    HW130194   0.941   1.905  11.162 -0.0195  0.5041  2.5070
 6244SOL    HW230195   1.076   1.887  11.118  0.7036 -0.5452  0.9600
 6245SOL     OW30196   1.869   3.782  15.225 -0.1168  0.3219 -0.0890
 6245SOL    HW130197   1.795   3.819  15.178 -0.5721  0.1921  0.5299
 6245SOL    HW230198   1.840   3.691  15.226 -4.3168  1.6689  0.2102
 6246SOL     OW30199   2.433   3.441   6.742  0.2367 -0.2104  0.8025
 6246SOL    HW130200   2.383   3.512   6.783  1.2373  0.9739 -0.0308
 6246SOL    HW230201   2.508   3.451   6.801  1.4057  0.2528 -0.7470
 6247SOL     OW30202   0.066   1.298   6.619 -0.3538 -0.3724  0.3166
 6247SOL    HW130203   4.707   1.276   6.580 -1.7936 -0.4742  3.4703
 6247SOL    HW230204   0.131   1.231   6.599 -0.8080 -0.4120 -1.0692
 6248SOL     OW30205   0.233   0.422   4.565  0.2484 -0.0854  0.1100
 6248SOL    HW130206   0.157   0.470   4.599  0.8043  2.2490 -1.9414
 6248SOL    HW230207   0.278   0.406   4.648  0.6466 -0.4347 -0.1765
 6249SOL     OW30208   3.078   4.518  13.527 -0.8237  0.1262  0.2149
 6249SOL    HW130209   3.040   4.515  13.439 -0.5746  3.3484  0.0178
 6249SOL    HW230210   3.171   4.508  13.508 -0.4095  1.8617  1.3641
 6250SOL     OW30211   4.033   1.982   0.155 -0.6200 -0.4288 -0.4469
 6250SOL    HW130212   4.041   1.934   0.072 -1.3096 -0.1600 -0.6617
 6250SOL    HW230213   3.939   1.968   0.164 -0.9512  1.4302 -1.1096
 6251SOL     OW30214   1.376   1.723   7.237 -0.2746 -0.3504  0.7475
 6251SOL    HW130215   1.341   1.676   7.313 -2.7120 -2.1363 -1.4931
 6251SOL    HW230216   1.305   1.721   7.174 -0.6863 -0.3274  1.2078
 6252SOL     OW30217   1.081   3.897   5.318 -0.5558  0.5780  0.2365
 6252SOL    HW130218   1.173   3.904   5.340 -0.0529 -1.3991 -1.1937
 6252SOL    HW230219   1.041   3.883   5.404  0.6974  0.7310  0.8290
 6253SOL     OW30220   0.287   3.207   8.214  0.9403  0.2983 -0.2171
 6253SOL    HW130221   0.210   3.256   8.187 -0.3411 -1.6332 -0.0942
 6253SOL    HW230222   0.244   3.146   8.274  2.7181 -0.1943  0.5442
 6254SOL     OW30223   3.564   1.531  12.884 -0.5640  0.2581  0.3533
 6254SOL    HW130224   3.564   1.489  12.798 -0.6073  0.0647  0.4490
 6254SOL    HW230225   3.529   1.456  12.931  0.1489  0.6905  1.5761
 6255SOL     OW30226   4.711   1.885  14.766 -0.1592  0.3738 -0.2292
 6255SOL    HW130227   4.668   1.970  14.753  0.6892  1.1244  1.8069
 6255SOL    HW230228   4.678   1.831  14.694  1.1475 -0.0157 -0.5298
 6256SOL     OW30229   4.393   0.067   5.620 -0.2250 -0.1205  0.1840
 6256SOL    HW130230   4.370   4.701   5.634 -1.4440 -0.0710 -1.5873
 6256SOL    HW230231   4.419   0.055   5.529  0.4283  0.4748  0.2950
 6257SOL     OW30232   0.512   3.668  12.364 -0.1599 -0.3595  0.5907
 6257SOL    HW130233   0.499   3.745  12.419 -0.5078 -0.8389  1.1836
 6257SOL    HW230234   0.607   3.659  12.372  0.0261  1.2972  0.0933
 6258SOL     OW30235   2.555   1.742   1.464 -0.2715 -0.5135 -0.3066
 6258SOL    HW130236   2.503   1.742   1.384  0.2794 -1.2030 -0.6613
 6258SOL    HW230237   2.573   1.648   1.469  1.8678 -0.0896 -0.1118
 6259SOL     OW30238   0.192   1.103  11.205  0.6892 -0.0417 -0.0108
 6259SOL    HW130239   0.180   1.155  11.284  3.3558 -0.1649  0.4748
 6259SOL    HW230240   0.227   1.165  11.142  0.6261  0.4180  0.4073
 6260SOL     OW30241   2.420   1.509  16.096 -0.5385 -0.3558 -0.5190
 6260SOL    HW130242   2.400   1.486  16.005  0.3069 -0.7465 -0.6086
 6260SOL    HW230243   2.403   1.604  16.099 -0.0859 -0.2608 -0.8909
 6261SOL     OW30244   3.213   2.869  16.316 -0.5691  0.7384  0.2189
 6261SOL    HW130245   3.166   2.795  16.356  2.0935 -0.2367  1.5454
 6261SOL    HW230246   3.272   2.894  16.387  2.3605 -1.8944 -1.2782
 6262SOL     OW30247   0.242   3.361   2.045  0.5171  0.0337  0.2944
 6262SOL    HW130248   0.288   3.298   1.989  0.5932 -0.0510  0.4524
 6262SOL    HW230249   0.158   3.315   2.045 -0.0876  1.1446 -0.7424
 6263SOL     OW30250   0.598   1.785  15.964 -0.1575  0.4525 -0.2479
 6263SOL    HW130251   0.673   1.823  16.010 -0.9910  0.2144  1.3189
 6263SOL    HW230252   0.630   1.706  15.919 -0.4362  0.2632 -0.1145
 6264SOL     OW30253   2.738   1.104   1.995  0.0008 -0.4420  0.3299
 6264SOL    HW130254   2.750   1.158   2.073 -2.4333  1.3328 -0.5193
 6264SOL    HW230255   2.660   1.149   1.961  1.9853  0.0033 -3.6759
 6265SOL     OW30256   3.104   4.380   6.380  0.5823  0.5221 -0.2848
 6265SOL    HW130257   3.024   4.425   6.406  0.7362  0.1262  0.8821
 6265SOL    HW230258   3.140   4.342   6.461  1.4087  0.0390 -0.8782
 6266SOL     OW30259   0.583   3.778   6.458  0.0126 -0.2752  0.6344
 6266SOL    HW130260   0.629   3.837   6.519 -0.7734  0.3732  0.6057
 6266SOL    HW230261   0.528   3.843   6.413  0.1576 -0.5601  0.0601
 6267SOL     OW30262   1.556   2.858   8.070  0.2955 -0.2152 -0.1945
 6267SOL    HW130263   1.542   2.849   8.165  1.6226 -0.3502 -0.0096
 6267SOL    HW230264   1.497   2.931   8.051 -0.2398 -0.5292  0.2350
 6268SOL     OW30265   4.401   2.660   3.397 -0.0780  0.5007  0.3374
 6268SOL    HW130266   4.486   2.705   3.401 -1.2315  2.5565  1.4889
 6268SOL    HW230267   4.419   2.584   3.451 -0.3366  2.4927  3.2045
 6269SOL     OW30268   0.627   3.259  14.961  0.3962 -0.3118 -0.3972
 6269SOL    HW130269   0.552   3.265  15.021  0.5469  0.2579 -0.2653
 6269SOL    HW230270   0.596   3.259  14.871 -0.4464 -0.0167 -0.1124
 6270SOL     OW30271   0.894   3.719   1.774  0.2971 -0.4010  0.1042
 6270SOL    HW130272   0.816   3.706   1.720  1.3410  0.9052 -1.7325
 6270SOL    HW230273   0.886   3.810   1.801  2.1765  0.0130 -0.7108
 6271SOL     OW30274   0.277   0.491  16.068  0.1361  0.0775  0.0025
 6271SOL    HW130275   0.258   0.437  15.991  0.6384  0.6851 -0.5493
 6271SOL    HW230276   0.276   0.425  16.138 -3.6148 -2.3325 -2.3014
 6272SOL     OW30277   2.116   1.562   8.998 -0.3504  0.0186 -0.1430
 6272SOL    HW130278   2.082   1.478   9.030  1.1304 -1.1189 -1.4880
 6272SOL    HW230279   2.173   1.588   9.070 -0.6998 -1.0880  0.5340
 6273SOL     OW30280   1.115   1.499  16.135  0.3465 -0.7276 -0.0266
 6273SOL    HW130281   1.063   1.436  16.185  0.3799 -1.6078 -1.1054
 6273SOL    HW230282   1.041   1.519  16.078  0.8499  1.6060  0.1291
 6274SOL     OW30283   1.012   4.427   4.362 -0.3264  0.4318 -0.4110
 6274SOL    HW130284   1.082   4.420   4.427 -1.0677  0.7164  0.4168
 6274SOL    HW230285   0.946   4.452   4.426  0.0663  0.8777 -0.1823
 6275SOL     OW30286   0.605   1.239   3.192  0.0359  0.4013 -0.4485
 6275SOL    HW130287   0.621   1.226   3.286  3.0894  0.7878 -0.9008
 6275SOL    HW230288   0.627   1.153   3.155 -1.2742 -0.5490  0.9702
 6276SOL     OW30289   1.816   3.586   9.988 -0.4023 -0.3615  0.3913
 6276SOL    HW130290   1.828   3.660  10.049 -2.9015  0.0173  0.4216
 6276SOL    HW230291   1.879   3.520  10.016  0.1905  0.1304  0.2072
 6277SOL     OW30292   1.857   4.388   5.658 -0.5334  0.4194  0.0901
 6277SOL    HW130293   1.834   4.478   5.680  0.6467  0.4479  1.2417
 6277SOL    HW230294   1.772   4.346   5.672 -1.0874  1.0126 -1.5977
 6278SOL     OW30295   3.839   4.350   9.311 -0.0465  0.7815  0.8841
 6278SOL    HW130296   3.797   4.370   9.395 -0.4695  2.0956  0.3665
 6278SOL    HW230297   3.918   4.403   9.321  0.6168  0.4047 -2.4027
 6279SOL     OW30298   0.361   1.803   6.878  0.3828 -0.1559 -0.0571
 6279SOL    HW130299   0.301   1.866   6.838  0.9001 -0.8795 -1.9637
 6279SOL    HW230300   0.337   1.812   6.970 -1.5860 -0.8597 -0.5178
 6280SOL     OW30301   2.990   3.363  11.758  0.2168 -0.2946 -0.2011
 6280SOL    HW130302   2.966   3.276  11.725 -0.2725 -0.4861  0.6434
 6280SOL    HW230303   2.942   3.419  11.698 -0.4245  0.8800  1.3965
 6281SOL     OW30304   0.645   3.388   6.631 -0.2576 -0.3505  0.6460
 6281SOL    HW130305   0.615   3.315   6.577  2.1496 -0.6311 -0.3374
 6281SOL    HW230306   0.682   3.443   6.562  0.0356  0.3879  1.4003
 6282SOL     OW30307   2.440   0.001   3.674  0.3104  0.1042  0.6480
 6282SOL    HW130308   2.436   0.097   3.678  0.1447  0.1327 -0.1809
 6282SOL    HW230309   2.350   4.698   3.660 -0.0462  1.7926 -0.5718
 6283SOL     OW30310   0.717   0.377   2.194  0.0494 -0.1257 -0.0445
 6283SOL    HW130311   0.674   0.371   2.279 -0.0109  1.5243  0.0402
 6283SOL    HW230312   0.744   0.468   2.202  0.7094 -0.3564  0.3467
 6284SOL     OW30313   1.986   0.118   6.686  0.4714 -0.1758 -0.1083
 6284SOL    HW130314   2.000   0.052   6.754 -0.1403 -0.5457 -0.3385
 6284SOL    HW230315   2.042   0.185   6.724 -0.2445  0.3917 -0.0643
 6285SOL     OW30316   2.423   2.816   6.439  0.0532 -0.0228  0.3166
 6285SOL    HW130317   2.417   2.865   6.357 -0.9924 -2.0188 -0.8170
 6285SOL    HW230318   2.399   2.881   6.505 -0.1606  1.8327 -1.5994
 6286SOL     OW30319   0.839   1.619   5.971 -0.5206  0.7783 -0.2687
 6286SOL    HW130320   0.850   1.610   6.066 -0.4088  0.1912 -0.3396
 6286SOL    HW230321   0.853   1.531   5.935 -0.1901  0.2673  1.1016
 6287SOL     OW30322   1.097   3.885   4.735 -0.4330  0.3467 -0.5465
 6287SOL    HW130323   1.115   3.971   4.699 -0.5894  0.4722 -0.3232
 6287SOL    HW230324   1.112   3.832   4.656  0.0266  0.6130 -0.6364
 6288SOL     OW30325   3.504   0.348  14.099  0.4857  0.1629  0.2862
 6288SOL    HW130326   3.481   0.327  14.008 -0.0938 -0.4062  0.5633
 6288SOL    HW230327   3.574   0.283  14.103 -0.7699 -1.0189  2.6736
 6289SOL     OW30328   0.383   1.237   1.220 -0.0980 -0.3620 -0.4011
 6289SOL    HW130329   0.471   1.203   1.204 -0.4050 -0.3116 -2.2971
 6289SOL    HW230330   0.336   1.156   1.200  1.3783 -0.7884 -2.2472
 6290SOL     OW30331   4.195   0.595  14.470 -0.2354  0.3842  0.0691
 6290SOL    HW130332   4.243   0.658  14.416  2.6132 -1.1261  0.7969
 6290SOL    HW230333   4.119   0.648  14.492 -0.3800  0.1968  0.0213
 6291SOL     OW30334   4.175   0.673   3.548  0.3589  0.4340 -0.3913
 6291SOL    HW130335   4.266   0.644   3.541  0.3341  0.4221 -0.6652
 6291SOL    HW230336   4.153   0.645   3.637 -0.4384  1.4876 -0.2610
 6292SOL     OW30337   2.725   1.109  16.256 -0.1502  0.4138  0.7964
 6292SOL    HW130338   2.750   1.019  16.234  0.0716  0.6023  0.2790
 6292SOL    HW230339   2.788   1.124  16.326 -1.8425  0.2696  2.3498
 6293SOL     OW30340   0.095   0.982   5.886  0.1871  1.2394  0.1589
 6293SOL    HW130341   0.181   0.986   5.843 -0.2584 -1.6174 -1.0228
 6293SOL    HW230342   0.044   0.932   5.823  0.1495 -0.6147  1.6460
 6294SOL     OW30343   4.270   0.549   2.540 -0.1799 -0.1316 -0.7483
 6294SOL    HW130344   4.192   0.584   2.583  0.2447 -2.1158  1.6091
 6294SOL    HW230345   4.338   0.557   2.607 -0.7628  1.7222 -0.3793
 6295SOL     OW30346   2.864   1.380   6.226  0.3889 -0.2973 -0.1078
 6295SOL    HW130347   2.946   1.429   6.235  0.2688 -0.1304  0.0871
 6295SOL    HW230348   2.822   1.440   6.164  0.6505  0.2536  0.2481
 6296SOL     OW30349   4.265   4.492  13.953 -0.2544 -0.1556 -0.7910
 6296SOL    HW130350   4.263   4.430  13.881  0.6949  1.1441 -1.9312
 6296SOL    HW230351   4.306   4.572  13.921  0.2555  1.0088  2.7335
 6297SOL     OW30352   2.745   1.674  10.347 -0.6979 -0.2156  0.1888
 6297SOL    HW130353   2.718   1.584  10.329  2.7558 -0.6505 -2.8278
 6297SOL    HW230354   2.835   1.657  10.373  0.6997  0.3658 -4.2703
 6298SOL     OW30355   0.869   0.862   0.889 -0.0224 -0.7711  0.0446
 6298SOL    HW130356   0.926   0.799   0.846 -0.7354 -0.0442 -1.9702
 6298SOL    HW230357   0.911   0.945   0.863 -0.2548 -0.3007  1.1620
 6299SOL     OW30358   0.339   0.099   4.973  0.6449 -0.2700 -0.6598
 6299SOL    HW130359   0.365   0.043   4.900  0.9209 -2.1571  0.8991
 6299SOL    HW230360   0.428   0.116   5.004  0.5779  0.8651 -1.0652
 6300SOL     OW30361   0.855   2.215  11.712 -0.1124  0.1742 -0.3260
 6300SOL    HW130362   0.902   2.268  11.776 -0.7378  1.7126 -1.1269
 6300SOL    HW230363   0.826   2.284  11.653 -0.6773 -0.5880 -0.9472
 6301SOL     OW30364   0.839   2.057   5.545  0.4476 -0.2688 -0.7568
 6301SOL    HW130365   0.780   1.989   5.511  1.9784 -0.5759 -2.7586
 6301SOL    HW230366   0.804   2.139   5.511  1.0311 -0.0510 -0.8274
 6302SOL     OW30367   0.606   1.545  17.162 -0.1630 -0.1229 -0.3451
 6302SOL    HW130368   0.560   1.571  17.082 -0.1088  0.5785 -0.1507
 6302SOL    HW230369   0.554   1.468  17.184 -0.7364 -0.2619 -2.1377
 6303SOL     OW30370   2.391   3.705   8.488  0.4800  0.0905 -0.3691
 6303SOL    HW130371   2.405   3.798   8.504  0.5666  0.4304 -2.4128
 6303SOL    HW230372   2.313   3.705   8.544  1.1201  1.1274  0.5020
 6304SOL     OW30373   1.732   0.857   3.033  0.0236  0.0701  0.0889
 6304SOL    HW130374   1.788   0.838   2.958  2.4849 -0.7942  2.1521
 6304SOL    HW230375   1.752   0.783   3.091 -0.4041  1.5187  2.0987
 6305SOL     OW30376   1.869   0.765   6.586  0.9719 -0.2812 -0.1709
 6305SOL    HW130377   1.926   0.693   6.558 -0.9126 -1.8632  0.0221
 6305SOL    HW230378   1.933   0.834   6.604  0.6474 -0.4735  1.7134
 6306SOL     OW30379   0.954   3.540   2.246 -0.1112  0.1736 -0.3290
 6306SOL    HW130380   0.981   3.450   2.267 -1.0431  0.1440  0.7320
 6306SOL    HW230381   0.889   3.529   2.177  0.2359  1.5510 -0.8666
 6307SOL     OW30382   4.575   3.503   2.773  0.8527  0.4528  0.1514
 6307SOL    HW130383   4.628   3.428   2.745 -1.9749 -0.4962 -2.6229
 6307SOL    HW230384   4.576   3.482   2.867  1.5760  1.0250  0.2735
 6308SOL     OW30385   2.634   4.588  10.002  0.3288 -0.1919 -0.0969
 6308SOL    HW130386   2.589   4.672  10.011  0.8831 -0.0461  1.2867
 6308SOL    HW230387   2.582   4.544  10.068 -1.3488 -0.2121 -1.4262
 6309SOL     OW30388   4.459   4.203  13.539 -0.0888 -0.5841  0.0229
 6309SOL    HW130389   4.552   4.220  13.549 -0.3056  0.9208 -0.5459
 6309SOL    HW230390   4.455   4.127  13.598  1.4934  0.4984  1.4919
 6310SOL     OW30391   2.560   1.416   2.459  0.8544  0.4434  0.2873
 6310SOL    HW130392   2.603   1.342   2.416 -1.7380  0.3757 -2.1778
 6310SOL    HW230393   2.491   1.360   2.495  1.3708  0.7360  1.7478
 6311SOL     OW30394   2.901   2.682   3.432  0.4333  0.6282  0.3199
 6311SOL    HW130395   2.901   2.701   3.526  0.8906  1.9259  0.0610
 6311SOL    HW230396   2.940   2.763   3.398  0.4380  1.2796  1.8894
 6312SOL     OW30397   1.370   1.280   2.543  0.4641  0.5806  0.1760
 6312SOL    HW130398   1.444   1.340   2.536 -0.4356  1.5944 -0.6028
 6312SOL    HW230399   1.337   1.267   2.454 -0.8821 -0.8079  0.8806
 6313SOL     OW30400   4.105   3.275   4.471  0.8593 -0.5053  0.6229
 6313SOL    HW130401   4.043   3.337   4.433  1.9220 -0.6978 -1.4449
 6313SOL    HW230402   4.075   3.197   4.424  1.1245 -0.5606  0.5443
 6314SOL     OW30403   4.001   1.464   2.955  0.0348 -0.2062 -0.4621
 6314SOL    HW130404   3.972   1.373   2.965 -0.6129  0.3028  2.2988
 6314SOL    HW230405   4.084   1.457   3.003 -1.0795  0.6458  1.6034
 6315SOL     OW30406   0.247   0.748   6.428 -0.1010 -0.5018  0.3420
 6315SOL    HW130407   0.166   0.799   6.419  0.4043  0.7568  3.0778
 6315SOL    HW230408   0.301   0.797   6.366 -0.8284 -1.5150 -1.0910
 6316SOL     OW30409   0.608   1.584  14.490 -0.0599  0.4338  0.3393
 6316SOL    HW130410   0.516   1.565  14.509  0.7636 -0.9398  2.8584
 6316SOL    HW230411   0.649   1.503  14.520 -1.3723 -0.4218 -0.1853
 6317SOL     OW30412   3.003   3.170   6.779  0.3229  0.2407 -0.5739
 6317SOL    HW130413   3.076   3.119   6.814 -3.6878 -3.0970  2.9267
 6317SOL    HW230414   3.049   3.237   6.729 -0.2881  0.2558 -1.1157
 6318SOL     OW30415   1.712   0.230  16.004  0.7511 -0.3716 -0.0533
 6318SOL    HW130416   1.640   0.167  16.012 -1.5607  2.3663  0.4476
 6318SOL    HW230417   1.681   0.276  15.927 -2.1279 -1.6853  0.3165
 6319SOL     OW30418   0.527   1.962   2.384 -0.0365 -0.1761  0.0434
 6319SOL    HW130419   0.523   2.014   2.303 -0.0296 -0.4543 -0.1338
 6319SOL    HW230420   0.496   2.028   2.446 -1.0796 -0.5917 -0.0262
 6320SOL     OW30421   3.245   4.524   6.181  0.0301 -0.2073  0.2810
 6320SOL    HW130422   3.213   4.460   6.244  0.7557 -0.3802  0.4812
 6320SOL    HW230423   3.162   4.570   6.171  0.6845  0.9344  0.0489
 6321SOL     OW30424   2.105   2.436   2.580  0.3350 -0.4793 -0.6364
 6321SOL    HW130425   2.050   2.501   2.624  1.1032  0.9030 -1.7157
 6321SOL    HW230426   2.193   2.443   2.616  0.8706  0.6912 -2.1687
 6322SOL     OW30427   3.792   1.895   9.758  0.1483 -0.5481 -1.1198
 6322SOL    HW130428   3.853   1.958   9.798 -0.2857 -0.4392 -0.6145
 6322SOL    HW230429   3.729   1.957   9.722 -0.1855  0.1630  0.6596
 6323SOL     OW30430   0.865   1.464  15.231  0.2013 -0.5709  0.2995
 6323SOL    HW130431   0.889   1.543  15.183 -0.9927  0.0534  0.7386
 6323SOL    HW230432   0.929   1.468  15.303 -1.0377  0.8732  1.3315
 6324SOL     OW30433   3.075   4.615  13.252  0.0554 -0.0831  0.3167
 6324SOL    HW130434   3.122   4.616  13.169 -1.3845 -1.9822 -0.5280
 6324SOL    HW230435   3.097   4.701  13.288  0.4058  1.0689 -2.6436
 6325SOL     OW30436   3.247   3.193   2.627 -0.1020 -0.2209 -0.0581
 6325SOL    HW130437   3.161   3.183   2.669 -0.3160  1.0850 -0.1631
 6325SOL    HW230438   3.290   3.114   2.659 -0.8529 -1.2979 -1.7125
 6326SOL     OW30439   0.802   1.029   0.627 -0.0736  0.3308 -0.9117
 6326SOL    HW130440   0.799   0.964   0.557 -0.1806 -0.6388 -0.0081
 6326SOL    HW230441   0.865   1.095   0.599 -1.5459  0.9481 -2.7735
 6327SOL     OW30442   1.439   1.953   9.796 -0.0478 -0.2194 -0.3282
 6327SOL    HW130443   1.382   1.891   9.750  1.7832 -2.2964  0.2127
 6327SOL    HW230444   1.498   1.900   9.849 -0.1323 -0.5373 -0.5513
 6328SOL     OW30445   2.487   0.763   1.159  0.4652  0.1807 -0.1854
 6328SOL    HW130446   2.415   0.788   1.217  0.1972 -0.6164 -0.1749
 6328SOL    HW230447   2.484   0.669   1.143  1.5089 -0.2455  2.1112
 6329SOL     OW30448   0.121   4.292  11.050 -0.2837 -0.1901 -0.0272
 6329SOL    HW130449   0.041   4.239  11.051  0.5607 -1.4694  0.8354
 6329SOL    HW230450   0.159   4.243  10.978 -0.6757 -1.3965  0.5776
 6330SOL     OW30451   2.183   3.507   4.958 -0.1396 -0.2005  0.6094
 6330SOL    HW130452   2.190   3.584   5.014  1.4284 -0.3176  0.5552
 6330SOL    HW230453   2.189   3.442   5.028 -0.8495  1.8101  2.5303
 6331SOL     OW30454   1.736   3.422   7.346 -0.2103  0.2152 -0.6394
 6331SOL    HW130455   1.691   3.339   7.364  1.5311 -1.0574 -2.2060
 6331SOL    HW230456   1.752   3.418   7.252 -1.7733 -1.4339 -0.8488
 6332SOL     OW30457   3.427   1.309  13.802 -0.0427 -0.3991  0.0212
 6332SOL    HW130458   3.427   1.370  13.729 -1.1327  1.1455  1.3365
 6332SOL    HW230459   3.334   1.310  13.823 -0.6039 -1.4087 -2.4493
 6333SOL     OW30460   2.870   4.428   8.648  0.0095  0.4802  0.3712
 6333SOL    HW130461   2.796   4.489   8.646 -2.4070 -2.4800 -0.6635
 6333SOL    HW230462   2.902   4.405   8.561  0.7246  1.0905  0.4697
 6334SOL     OW30463   4.690   3.598   7.097 -0.2294 -0.2004 -0.0190
 6334SOL    HW130464   4.712   3.518   7.050  0.5732 -1.0636  1.8017
 6334SOL    HW230465   0.047   3.611   7.144 -0.2635  0.1717 -0.0675
 6335SOL     OW30466   3.672   1.337   9.009  0.1248 -0.0934  0.5207
 6335SOL    HW130467   3.694   1.248   8.981 -1.4202 -0.4890  0.5100
 6335SOL    HW230468   3.741   1.349   9.074 -0.0805  1.5261  0.4336
 6336SOL     OW30469   1.632   0.661   6.457  0.0352 -0.1143 -0.3804
 6336SOL    HW130470   1.607   0.622   6.541  1.9108  0.0259  0.2281
 6336SOL    HW230471   1.706   0.716   6.481  1.4473 -2.6263  1.1109
 6337SOL     OW30472   0.439   3.356  13.892 -0.0633  0.1237 -0.3127
 6337SOL    HW130473   0.464   3.269  13.923 -1.7356  0.2288  1.3197
 6337SOL    HW230474   0.524   3.400  13.900  0.9133 -1.6628 -0.9151
 6338SOL     OW30475   0.705   1.013  17.586 -0.0447 -0.4581  0.4060
 6338SOL    HW130476   0.700   1.037  17.493 -0.4912 -1.7852  0.0791
 6338SOL    HW230477   0.672   1.096  17.618  0.7927 -0.0460  0.2028
 6339SOL     OW30478   0.241   1.658   0.789 -0.0448  0.4489 -0.2110
 6339SOL    HW130479   0.165   1.699   0.829 -1.0774  0.8658 -2.5500
 6339SOL    HW230480   0.283   1.737   0.753  2.3238 -0.7039  0.0215
 6340SOL     OW30481   1.185   0.182   9.423 -0.0090 -0.2641 -0.0855
 6340SOL    HW130482   1.093   0.199   9.440  0.6297  1.2474  1.8021
 6340SOL    HW230483   1.189   0.235   9.344  1.6926 -0.7693 -0.3334
 6341SOL     OW30484   3.340   2.202   2.667 -0.3293  0.9630  0.6214
 6341SOL    HW130485   3.338   2.125   2.611  0.2786  0.3540  1.4303
 6341SOL    HW230486   3.292   2.260   2.609 -0.7381  1.2663  1.2581
 6342SOL     OW30487   0.424   1.446   8.195 -0.6424 -0.0352  0.2961
 6342SOL    HW130488   0.515   1.474   8.206 -0.1026 -0.8956 -1.8864
 6342SOL    HW230489   0.421   1.473   8.103  0.8802  1.3873  0.6832
 6343SOL     OW30490   4.694   0.437  13.678 -0.0880  0.1088  0.5704
 6343SOL    HW130491   4.623   0.468  13.734  0.9926  0.7497  1.5821
 6343SOL    HW230492   0.035   0.405  13.737 -0.0734 -1.7909 -0.4788
 6344SOL     OW30493   1.564   2.279  11.347  0.2087  0.2088  0.0242
 6344SOL    HW130494   1.594   2.265  11.257 -0.2158  2.5262 -0.4791
 6344SOL    HW230495   1.480   2.234  11.352  0.9545 -1.3048 -1.1875
 6345SOL     OW30496   2.449   2.775   7.781  0.6832 -0.4545 -0.3823
 6345SOL    HW130497   2.355   2.759   7.787  1.0435 -2.5227 -0.4877
 6345SOL    HW230498   2.459   2.859   7.826  2.9995 -1.1392  0.4058
 6346SOL     OW30499   2.837   3.158  16.974  0.1736 -0.5935  0.9157
 6346SOL    HW130500   2.767   3.200  17.024 -0.4083 -0.6170  0.1260
 6346SOL    HW230501   2.865   3.224  16.911  2.9234 -1.2101  1.5053
 6347SOL     OW30502   0.837   3.507   5.112 -0.0175 -0.2821  0.1034
 6347SOL    HW130503   0.887   3.586   5.092  1.1180 -1.3910 -1.4518
 6347SOL    HW230504   0.884   3.438   5.065  0.0982 -0.5198  0.5665
 6348SOL     OW30505   3.152   2.625   5.990  0.6041 -0.1746  0.1976
 6348SOL    HW130506   3.162   2.620   6.086 -1.5335  2.7165  0.5632
 6348SOL    HW230507   3.111   2.542   5.966  0.7559 -0.1332 -0.1935
 6349SOL     OW30508   3.855   0.633   7.132  0.5238  0.3263 -0.3568
 6349SOL    HW130509   3.782   0.588   7.089 -0.3052  0.9532  0.4005
 6349SOL    HW230510   3.826   0.624   7.223  0.9166 -0.7657 -0.3300
 6350SOL     OW30511   1.876   1.837   9.235 -0.3360  0.1488  0.3417
 6350SOL    HW130512   1.930   1.872   9.164 -0.6919  0.8539  0.4177
 6350SOL    HW230513   1.833   1.918   9.260 -1.8648 -0.3525 -0.6620
 6351SOL     OW30514   0.106   2.936   8.878  0.0775 -0.1332  0.0227
 6351SOL    HW130515   0.115   2.841   8.890 -1.5728 -0.2964  0.0798
 6351SOL    HW230516   0.172   2.971   8.937  0.6225 -1.7883  0.3966
 6352SOL     OW30517   4.220   2.749  13.796  0.2895 -0.2768  0.1984
 6352SOL    HW130518   4.287   2.763  13.863  1.4016  0.4422 -1.0509
 6352SOL    HW230519   4.161   2.822  13.815  0.5067  0.3793 -1.5979
 6353SOL     OW30520   0.950   2.307   2.030  0.0200 -0.2766  0.5132
 6353SOL    HW130521   0.902   2.338   1.953  2.3289 -0.1829 -0.8707
 6353SOL    HW230522   1.029   2.361   2.027  1.8467 -2.9336  1.0359
 6354SOL     OW30523   4.512   0.260   4.829 -0.2830 -0.5692 -0.6486
 6354SOL    HW130524   4.517   0.281   4.736 -2.6293  3.4410  0.1373
 6354SOL    HW230525   4.417   0.250   4.834 -0.4124 -0.7819 -3.7576
 6355SOL     OW30526   1.336   1.042   3.515  0.2271 -0.2449  0.2992
 6355SOL    HW130527   1.401   0.991   3.565 -0.8247  0.5502  2.4930
 6355SOL    HW230528   1.270   0.979   3.486 -0.8499  1.5116 -1.0001
 6356SOL     OW30529   1.184   1.348  16.591 -0.0116 -0.4184  0.1361
 6356SOL    HW130530   1.176   1.442  16.576  0.5707 -0.2921  0.5842
 6356SOL    HW230531   1.186   1.338  16.687  0.8070 -1.0786  0.0594
 6357SOL     OW30532   2.026   3.321  13.239  0.3529  0.2516  0.0936
 6357SOL    HW130533   2.027   3.275  13.155 -1.3064 -1.8037  1.1845
 6357SOL    HW230534   1.976   3.254  13.286 -0.2090  0.3857 -0.3039
 6358SOL     OW30535   1.174   1.946   3.885  0.3258 -0.0654  0.1058
 6358SOL    HW130536   1.250   1.982   3.930 -0.1907 -0.6756  1.4686
 6358SOL    HW230537   1.143   2.005   3.816 -0.6848  2.3986  2.6598
 6359SOL     OW30538   2.670   3.778  15.669 -0.2699  0.0611  0.0860
 6359SOL    HW130539   2.624   3.738  15.743  3.7015  0.6299  2.9032
 6359SOL    HW230540   2.750   3.725  15.672 -0.4118 -0.1392  0.3643
 6360SOL     OW30541   3.193   1.378  11.438  0.4037  0.1693  0.0628
 6360SOL    HW130542   3.131   1.310  11.412 -0.2720  0.7719  0.1112
 6360SOL    HW230543   3.241   1.349  11.515 -0.8542 -1.8810  0.0506
 6361SOL     OW30544   0.566   4.710   7.286  0.0665 -0.0131 -0.0000
 6361SOL    HW130545   0.487   4.657   7.299  0.1649  0.0395  0.8359
 6361SOL    HW230546   0.610   4.663   7.215 -2.2113  0.3893 -1.6772
 6362SOL     OW30547   2.760   3.934  10.976 -0.1291 -0.2835 -0.2850
 6362SOL    HW130548   2.783   4.026  10.985 -2.0158  0.3516 -2.0253
 6362SOL    HW230549   2.744   3.922  10.882 -0.9573  1.2466 -0.3301
 6363SOL     OW30550   1.431   3.503   2.991  0.8088  0.2216 -0.3394
 6363SOL    HW130551   1.471   3.439   3.050 -0.9084 -0.1618  0.4127
 6363SOL    HW230552   1.404   3.574   3.049  0.3762  0.3522 -0.7045
 6364SOL     OW30553   3.454   1.759  12.985 -0.1363  0.5545  0.2500
 6364SOL    HW130554   3.402   1.724  13.058 -1.4064  0.5785 -0.6388
 6364SOL    HW230555   3.501   1.683  12.951 -1.1513  0.6603 -1.3915
 6365SOL     OW30556   2.286   0.392  17.554  0.1751 -0.7991  0.1608
 6365SOL    HW130557   2.374   0.394  17.590  0.5391  2.2019 -0.9450
 6365SOL    HW230558   2.303   0.442  17.475 -0.9849 -0.6018  0.0300
 6366SOL     OW30559   3.574   4.576   7.017  0.0948  0.0319  0.4696
 6366SOL    HW130560   3.552   4.669   7.009 -1.0317 -0.1173  1.8341
 6366SOL    HW230561   3.564   4.557   7.110  0.1372 -0.7941  0.2993
 6367SOL     OW30562   1.251   0.111   7.839 -0.0044 -0.1564 -0.2291
 6367SOL    HW130563   1.170   0.159   7.857 -1.3109 -3.0415  1.5834
 6367SOL    HW230564   1.213   0.023   7.835  0.4218 -0.4949  3.3325
 6368SOL     OW30565   1.353   4.587   5.812 -0.3155  0.3434 -0.5289
 6368SOL    HW130566   1.314   4.518   5.866 -1.0637 -0.4187 -2.0319
 6368SOL    HW230567   1.415   4.537   5.759  0.1839  0.3099  0.0793
 6369SOL     OW30568   1.553   0.771  15.519 -0.0234 -0.0801  0.4343
 6369SOL    HW130569   1.501   0.745  15.595  0.5778 -0.4965  0.6912
 6369SOL    HW230570   1.566   0.692  15.467 -0.4337  1.2289 -1.6672
 6370SOL     OW30571   1.645   4.277   1.101 -0.1026 -0.2559  0.1809
 6370SOL    HW130572   1.602   4.306   1.181  0.2825  0.9181 -0.0324
 6370SOL    HW230573   1.581   4.238   1.042 -1.1502 -0.7960  1.6842
 6371SOL     OW30574   1.185   0.433   7.525 -0.0778  0.2408  0.3473
 6371SOL    HW130575   1.259   0.395   7.478 -0.2269 -2.2545  2.0911
 6371SOL    HW230576   1.117   0.415   7.460  0.9380 -1.8871 -0.1167
 6372SOL     OW30577   4.189   4.407   5.680  0.0174  0.3505 -0.2126
 6372SOL    HW130578   4.123   4.339   5.693 -0.3978  0.5065 -1.4404
 6372SOL    HW230579   4.141   4.483   5.711 -0.9405 -0.2925 -0.0999
 6373SOL     OW30580   0.059   4.084   2.031  0.0196  0.4826  0.0685
 6373SOL    HW130581   4.719   4.021   2.061  0.5691 -0.7707 -1.3545
 6373SOL    HW230582   0.140   4.044   2.063  0.4012  0.4025 -1.0008
 6374SOL     OW30583   2.950   3.408   1.566 -0.0716 -0.6111 -0.7067
 6374SOL    HW130584   2.872   3.400   1.511 -3.1660  0.1888  3.5308
 6374SOL    HW230585   2.930   3.359   1.646  0.4018 -0.6572 -0.6133
 6375SOL     OW30586   1.685   0.616   5.746  0.3429  0.2093  0.4134
 6375SOL    HW130587   1.636   0.698   5.755  2.6477  1.9082 -2.2639
 6375SOL    HW230588   1.650   0.575   5.667  0.5092  0.4097  0.2336
 6376SOL     OW30589   0.376   1.943   5.814 -0.1402 -0.6681 -0.2660
 6376SOL    HW130590   0.319   2.005   5.859  0.9781 -0.0736  0.3500
 6376SOL    HW230591   0.331   1.862   5.837 -0.7431  0.1076  1.2967
 6377SOL     OW30592   0.034   1.723  15.091  0.6648 -0.7880 -0.2152
 6377SOL    HW130593   0.091   1.698  15.164 -0.4686 -1.1279  0.5497
 6377SOL    HW230594   4.675   1.712  15.135  0.5508 -0.6319 -0.3969
 6378SOL     OW30595   1.819   0.466   6.754  0.2387 -0.0717 -0.4423
 6378SOL    HW130596   1.911   0.441   6.756 -0.0148 -0.9912 -0.0928
 6378SOL    HW230597   1.802   0.476   6.848 -2.7409 -0.0581 -1.0014
 6379SOL     OW30598   4.321   0.237   4.076  0.4271  0.3446 -0.3900
 6379SOL    HW130599   4.363   0.251   4.161  1.5246  1.6367 -1.1423
 6379SOL    HW230600   4.342   0.317   4.029 -2.1358  0.9915 -0.4132
 6380SOL     OW30601   2.423   3.862   4.983 -0.4431 -0.4602 -0.0219
 6380SOL    HW130602   2.503   3.834   4.939 -0.1859 -0.7198  0.5995
 6380SOL    HW230603   2.397   3.932   4.924  2.4485  1.1687  0.6584
 6381SOL     OW30604   4.002   0.247   0.991 -0.1297 -0.3678 -0.1269
 6381SOL    HW130605   3.992   0.170   1.047 -0.0833 -0.3300 -0.0674
 6381SOL    HW230606   4.092   0.272   1.010 -0.5569 -0.3542  1.8803
 6382SOL     OW30607   3.898   2.917   6.853 -0.2228 -0.3969 -0.0791
 6382SOL    HW130608   3.818   2.929   6.803  0.5141  1.3535 -0.8221
 6382SOL    HW230609   3.889   2.989   6.916 -0.0199 -0.2261 -0.2479
 6383SOL     OW30610   1.016   2.098   3.196  0.2627  0.2120 -0.5861
 6383SOL    HW130611   1.022   2.115   3.289  1.3087  1.4024 -0.8693
 6383SOL    HW230612   0.974   2.177   3.164 -0.1967  0.7859  1.4571
 6384SOL     OW30613   3.714   0.501   2.992  0.1475 -0.4412  0.1988
 6384SOL    HW130614   3.778   0.551   2.942 -2.7894  0.9599 -2.1881
 6384SOL    HW230615   3.741   0.410   2.977 -0.1324 -0.1508 -2.1773
 6385SOL     OW30616   3.845   1.352   5.416  0.4298 -0.2158 -0.2421
 6385SOL    HW130617   3.921   1.380   5.366  0.6670 -1.7775 -0.7686
 6385SOL    HW230618   3.883   1.297   5.485 -0.2329 -0.5909 -0.1740
 6386SOL     OW30619   1.584   1.159   5.352 -0.3108  0.3181  0.0528
 6386SOL    HW130620   1.578   1.095   5.281  0.2846  0.1308  0.1766
 6386SOL    HW230621   1.510   1.213   5.324 -0.2581  0.5158  0.3005
 6387SOL     OW30622   0.557   2.471  13.165 -0.3347  0.4473  0.3705
 6387SOL    HW130623   0.529   2.381  13.179  0.1559  0.2844  0.3261
 6387SOL    HW230624   0.613   2.480  13.242  0.5486 -1.0751 -0.0779
 6388SOL     OW30625   2.380   1.500   9.722  0.4257 -0.0710  0.8400
 6388SOL    HW130626   2.314   1.431   9.722 -1.1898  1.4850  1.5232
 6388SOL    HW230627   2.329   1.561   9.775  0.2118 -0.3110  0.9111
 6389SOL     OW30628   2.856   1.093  13.050  0.4221 -0.2306 -0.6428
 6389SOL    HW130629   2.786   1.038  13.014 -0.9635  1.0470  0.0602
 6389SOL    HW230630   2.845   1.070  13.142 -1.8843  1.4483 -0.4866
 6390SOL     OW30631   2.805   3.995   5.158 -0.0393 -0.2853 -0.7160
 6390SOL    HW130632   2.746   4.002   5.083  0.8432  0.4607 -1.3344
 6390SOL    HW230633   2.743   4.011   5.230 -0.8368 -1.3990 -1.1487
 6391SOL     OW30634   2.804   1.274  12.025  0.0218 -0.2419 -0.4435
 6391SOL    HW130635   2.794   1.204  11.961  2.9561 -1.2480  0.1809
 6391SOL    HW230636   2.899   1.279  12.031 -0.1744  1.4741  1.3702
 6392SOL     OW30637   3.138   3.646   6.199 -0.3465 -0.3542 -0.0432
 6392SOL    HW130638   3.043   3.651   6.210 -0.5628 -4.3661 -0.0686
 6392SOL    HW230639   3.166   3.609   6.283 -0.1846 -0.7290 -0.2615
 6393SOL     OW30640   1.948   1.339  13.332  0.6068 -0.2224  0.0064
 6393SOL    HW130641   1.976   1.259  13.288  1.6735  0.4058 -0.4455
 6393SOL    HW230642   1.994   1.337  13.416 -0.3862 -1.3558  0.5167
 6394SOL     OW30643   0.117   4.321  10.054 -0.3722  0.2215 -0.0910
 6394SOL    HW130644   0.151   4.397  10.006  1.3182 -0.3808  0.1788
 6394SOL    HW230645   0.029   4.353  10.075 -0.7221 -0.6051 -0.3174
 6395SOL     OW30646   0.319   1.081   0.878 -0.3794  0.2308 -0.1964
 6395SOL    HW130647   0.303   1.163   0.832 -1.6717  0.1427  0.1012
 6395SOL    HW230648   0.414   1.077   0.871 -0.3684  0.3254 -0.0973
 6396SOL     OW30649   4.152   2.167  17.633 -0.2137  0.3999  0.1693
 6396SOL    HW130650   4.173   2.107  17.561  1.5352 -1.2165  2.0484
 6396SOL    HW230651   4.152   2.110   0.004 -0.1164 -2.3428 -1.8848
 6397SOL     OW30652   0.783   0.770   2.442 -0.3492 -0.4747  0.6248
 6397SOL    HW130653   0.781   0.732   2.530 -0.6735  0.5196  1.0446
 6397SOL    HW230654   0.691   0.797   2.438  0.1854  1.4534  1.5642
 6398SOL     OW30655   3.808   1.050   2.311  0.2738 -0.4890 -0.1469
 6398SOL    HW130656   3.738   1.109   2.281  0.2162 -0.5796 -0.1908
 6398SOL    HW230657   3.826   1.099   2.391  1.7978  1.5584 -1.7161
 6399SOL     OW30658   0.927   0.933   9.561 -0.3449 -0.3957 -0.1549
 6399SOL    HW130659   0.890   1.017   9.587  1.7226  0.6483 -0.5673
 6399SOL    HW230660   0.888   0.881   9.631 -0.9597  1.6254  0.9940
 6400SOL     OW30661   2.181   3.946   6.743 -0.3335 -0.3697  0.5406
 6400SOL    HW130662   2.131   3.888   6.801  0.2000 -1.5256 -0.1638
 6400SOL    HW230663   2.265   3.943   6.788 -0.6790 -1.6037  1.0958
 6401SOL     OW30664   4.222   3.735   2.881  0.1099 -0.4312  0.1832
 6401SOL    HW130665   4.246   3.797   2.951  1.3540 -1.6481  0.8411
 6401SOL    HW230666   4.227   3.650   2.926 -1.2984 -0.9083 -0.5593
 6402SOL     OW30667   0.089   2.525   1.794  0.1657 -0.1215  0.8632
 6402SOL    HW130668   0.023   2.466   1.757  0.3102  0.3110 -0.0833
 6402SOL    HW230669   0.127   2.476   1.867  0.5845  0.6623  1.1723
 6403SOL     OW30670   2.553   1.638   4.543 -0.0944 -0.0861  0.9852
 6403SOL    HW130671   2.622   1.573   4.533 -0.8055 -0.6248 -0.4139
 6403SOL    HW230672   2.476   1.583   4.525  0.5390  0.0570 -2.1072
 6404SOL     OW30673   2.005   0.790   5.706  0.2991 -0.1628 -0.0527
 6404SOL    HW130674   2.100   0.787   5.715  0.0486 -2.2332  1.8194
 6404SOL    HW230675   1.979   0.858   5.768 -0.7676 -0.4803 -0.1439
 6405SOL     OW30676   1.332   2.945   2.794 -0.3720 -0.2816 -0.0690
 6405SOL    HW130677   1.338   3.004   2.869 -0.3750  1.3681 -1.3856
 6405SOL    HW230678   1.417   2.961   2.754  0.0773 -1.6783  0.3247
 6406SOL     OW30679   0.999   4.611   7.083 -0.4386 -0.1041  0.4172
 6406SOL    HW130680   1.086   4.576   7.102  0.5490  1.7444 -0.7590
 6406SOL    HW230681   0.955   4.615   7.168 -1.3784 -0.7815 -0.0403
 6407SOL     OW30682   0.370   3.530   6.245 -0.3819 -0.6461  0.1190
 6407SOL    HW130683   0.458   3.493   6.234 -0.1377 -0.0392  0.0666
 6407SOL    HW230684   0.318   3.456   6.213 -0.3816  0.8240 -3.1752
 6408SOL     OW30685   4.360   1.876   9.894  0.3053 -0.3648  0.3909
 6408SOL    HW130686   4.411   1.957   9.896 -0.9909  0.4932 -0.8683
 6408SOL    HW230687   4.425   1.818   9.933  0.4677  1.5729  2.9535
 6409SOL     OW30688   1.012   3.857  12.524 -0.4319 -0.0521  0.3730
 6409SOL    HW130689   1.079   3.907  12.570  0.3782 -0.0440 -0.8177
 6409SOL    HW230690   0.942   3.872  12.588 -0.7291 -1.6290  0.4138
 6410SOL     OW30691   3.200   2.836  14.944  0.5512 -0.3667 -0.0530
 6410SOL    HW130692   3.128   2.774  14.937 -0.6817  1.1368 -0.5243
 6410SOL    HW230693   3.195   2.874  14.857  0.2600 -0.4122 -0.0558
 6411SOL     OW30694   3.034   2.278   0.529 -0.1560 -0.2201 -0.1710
 6411SOL    HW130695   2.953   2.237   0.560 -0.0275 -0.0857  0.3345
 6411SOL    HW230696   2.996   2.346   0.474 -2.9621 -2.3730 -0.9072
 6412SOL     OW30697   1.519   1.565   8.032  0.3163 -0.0526  0.2738
 6412SOL    HW130698   1.515   1.471   8.050  2.8535 -0.2904 -0.3872
 6412SOL    HW230699   1.479   1.567   7.944  0.0319 -0.6038  0.3882
 6413SOL     OW30700   1.981   1.188   7.209  0.0257  0.2985  0.1254
 6413SOL    HW130701   1.963   1.148   7.294  1.7442 -0.7705  0.0025
 6413SOL    HW230702   1.902   1.239   7.195  0.4155  0.2803 -2.1784
 6414SOL     OW30703   2.744   2.665   5.816  0.4011 -0.2175  0.2042
 6414SOL    HW130704   2.687   2.625   5.751  2.8354 -2.8145 -0.3419
 6414SOL    HW230705   2.704   2.751   5.822  1.2610  0.2341 -0.5929
 6415SOL     OW30706   4.464   3.111   7.928 -0.4203  0.3082  0.0873
 6415SOL    HW130707   4.400   3.092   7.859 -0.1969 -0.7365  0.1727
 6415SOL    HW230708   4.452   3.037   7.987  0.6947  0.0402 -0.0199
 6416SOL     OW30709   0.869   3.957   4.883 -0.0991  0.0948 -0.2203
 6416SOL    HW130710   0.873   3.915   4.969 -0.1677  1.3625  0.3917
 6416SOL    HW230711   0.932   3.901   4.837  1.6643  0.9759  1.1358
 6417SOL     OW30712   1.962   2.394   8.201  0.2275 -0.6010  0.5235
 6417SOL    HW130713   1.947   2.301   8.220 -0.1810 -0.8173 -0.8369
 6417SOL    HW230714   2.010   2.431   8.275 -0.5483  0.6163  0.4164
 6418SOL     OW30715   2.967   3.506   7.451 -0.1324  0.0531 -0.3047
 6418SOL    HW130716   2.924   3.424   7.429 -1.1029 -0.2654  2.7406
 6418SOL    HW230717   3.054   3.478   7.480 -0.6216 -1.1854 -0.0248
 6419SOL     OW30718   2.302   0.092   9.441 -0.0047  0.5343 -0.3189
 6419SOL    HW130719   2.393   0.074   9.421 -0.1349  1.5602 -1.8208
 6419SOL    HW230720   2.308   0.071   9.534 -1.3390  0.5981 -0.2197
 6420SOL     OW30721   1.332   1.773   5.095 -0.0562  0.7328  0.3223
 6420SOL    HW130722   1.423   1.799   5.081 -0.2431  1.3700  0.2893
 6420SOL    HW230723   1.279   1.847   5.065 -1.6529 -0.1145  1.0183
 6421SOL     OW30724   3.704   0.844   4.266  0.0127 -0.2220  0.0726
 6421SOL    HW130725   3.659   0.785   4.206  0.3874 -1.9646  1.4797
 6421SOL    HW230726   3.700   0.930   4.224 -1.4143 -1.3375 -2.0490
 6422SOL     OW30727   0.284   0.760   2.504 -0.6568  0.2804  1.0525
 6422SOL    HW130728   0.306   0.695   2.570  0.2593  0.1253  0.5832
 6422SOL    HW230729   0.358   0.749   2.445 -1.2960 -0.7529  0.4358
 6423SOL     OW30730   0.250   0.221   5.959 -0.5682 -0.4470  0.4020
 6423SOL    HW130731   0.330   0.271   5.944 -0.7592  0.3553  1.9843
 6423SOL    HW230732   0.271   0.197   6.050  0.6281  0.4599  0.3737
 6424SOL     OW30733   1.552   2.070  12.936  0.3415  0.1708 -0.1015
 6424SOL    HW130734   1.618   2.051  12.870  1.1368  0.7633  0.5225
 6424SOL    HW230735   1.490   1.996  12.935 -0.5256  0.9198 -1.3798
 6425SOL     OW30736   3.503   3.207   8.046  0.4032  0.3352 -0.3083
 6425SOL    HW130737   3.528   3.185   7.956 -3.1838  0.0580 -1.2366
 6425SOL    HW230738   3.583   3.192   8.096  0.3784 -1.3709 -0.7988
 6426SOL     OW30739   4.643   2.756  13.421 -0.2934 -0.1818  0.2647
 6426SOL    HW130740   4.552   2.759  13.450 -0.1098 -0.2446  0.8379
 6426SOL    HW230741   4.680   2.722  13.502 -2.7045 -0.1812  1.3791
 6427SOL     OW30742   1.627   2.892   4.978 -0.3341 -0.0830 -0.0947
 6427SOL    HW130743   1.539   2.869   4.948  0.1798 -1.6741 -0.3680
 6427SOL    HW230744   1.681   2.889   4.899 -1.5201  0.4012 -0.9294
 6428SOL     OW30745   2.416   3.021  15.396 -0.2545 -0.3835 -0.4019
 6428SOL    HW130746   2.413   3.006  15.490 -1.2350 -1.5074 -0.6019
 6428SOL    HW230747   2.511   3.027  15.386 -0.0751  1.2939  2.5579
 6429SOL     OW30748   1.291   0.161  10.817  0.6754  0.1947  0.8723
 6429SOL    HW130749   1.354   0.201  10.756 -0.7007  0.5863 -0.2925
 6429SOL    HW230750   1.228   0.232  10.808  1.4902  1.2085  3.0520
 6430SOL     OW30751   3.462   2.178  14.329  0.4069  0.2053  0.3362
 6430SOL    HW130752   3.538   2.183  14.271 -2.2274  3.7790 -2.8133
 6430SOL    HW230753   3.399   2.172  14.257  2.1320 -2.8699 -0.9317
 6431SOL     OW30754   1.826   0.718  11.711 -0.1474  0.4624 -0.3507
 6431SOL    HW130755   1.869   0.788  11.759  0.7406  1.1826 -2.2097
 6431SOL    HW230756   1.779   0.691  11.790  0.7769 -0.6330 -0.1662
 6432SOL     OW30757   0.414   3.926   5.820 -0.1411  0.4899  0.0880
 6432SOL    HW130758   0.415   4.014   5.857 -2.3675  0.9786 -1.0368
 6432SOL    HW230759   0.506   3.897   5.816  0.0708  1.2491 -0.5722
 6433SOL     OW30760   4.172   0.932   3.662 -0.0056  0.2449  0.1127
 6433SOL    HW130761   4.091   0.964   3.624  0.2746  1.4440  0.5134
 6433SOL    HW230762   4.190   0.857   3.606 -1.2069 -0.7571  1.0809
 6434SOL     OW30763   2.783   1.556   8.362  0.2059 -0.0111  0.0608
 6434SOL    HW130764   2.767   1.575   8.269 -0.5822  1.0649  0.4169
 6434SOL    HW230765   2.834   1.475   8.361 -0.1749 -0.2606  0.7966
 6435SOL     OW30766   4.330   1.257   3.562 -0.3625 -0.6281 -0.1486
 6435SOL    HW130767   4.291   1.339   3.533 -1.2515 -2.1109 -3.2485
 6435SOL    HW230768   4.286   1.248   3.646 -0.2272  2.8316  0.2930
 6436SOL     OW30769   1.639   3.172   8.659  0.2435 -0.6784 -0.7021
 6436SOL    HW130770   1.612   3.255   8.621 -1.4404 -0.7298  0.3305
 6436SOL    HW230771   1.733   3.182   8.668  0.0744 -0.4898  1.0088
 6437SOL     OW30772   2.546   1.607   9.408 -0.2378  0.0557  0.0266
 6437SOL    HW130773   2.495   1.664   9.465  0.2912  2.0733 -1.5069
 6437SOL    HW230774   2.564   1.663   9.333  3.9867 -0.1394  0.8733
 6438SOL     OW30775   3.611   3.493  13.463 -0.1381 -0.2584 -0.0515
 6438SOL    HW130776   3.687   3.448  13.429  0.1651  1.1054 -1.1871
 6438SOL    HW230777   3.642   3.568  13.515 -1.2734  0.7009 -0.7472
 6439SOL     OW30778   1.972   2.722  12.863  0.2736  0.8117 -0.8145
 6439SOL    HW130779   1.981   2.816  12.848 -0.0709  1.2048  1.4549
 6439SOL    HW230780   1.900   2.706  12.803  1.5299 -0.8126 -1.8992
 6440SOL     OW30781   0.198   3.804  15.227  0.0700 -0.0923 -0.2360
 6440SOL    HW130782   0.200   3.843  15.315 -0.9953  2.3265 -1.2747
 6440SOL    HW230783   0.243   3.873  15.179  1.1996 -0.9866 -0.4640
 6441SOL     OW30784   1.732   1.385   6.000 -0.6634 -0.2328  0.4026
 6441SOL    HW130785   1.667   1.404   5.933 -0.9948 -0.0018  0.7889
 6441SOL    HW230786   1.811   1.404   5.949  0.6654 -2.4844  1.5765
 6442SOL     OW30787   2.860   4.136   8.074  0.2641 -0.5139 -0.0697
 6442SOL    HW130788   2.940   4.084   8.089 -0.2830 -1.7044 -1.2798
 6442SOL    HW230789   2.823   4.078   8.008  1.3455 -1.7258  0.3868
 6443SOL     OW30790   4.111   0.249   1.364  0.3386  0.0918 -0.2272
 6443SOL    HW130791   4.186   0.304   1.386 -0.7221  1.1480  0.7449
 6443SOL    HW230792   4.070   0.216   1.444 -0.5146 -0.8883 -1.0557
 6444SOL     OW30793   2.641   1.958   5.585 -0.2518 -0.0127 -0.5380
 6444SOL    HW130794   2.719   1.922   5.628 -1.3564 -0.2524  1.2544
 6444SOL    HW230795   2.606   1.879   5.545  0.3800 -0.6000  0.0807
 6445SOL     OW30796   4.386   1.461   6.946 -0.1798 -0.4133 -0.0692
 6445SOL    HW130797   4.339   1.473   7.029  0.7766  0.5651  0.3294
 6445SOL    HW230798   4.477   1.451   6.974  0.4538 -1.7617 -2.6888
 6446SOL     OW30799   1.322   0.380   2.358 -0.0947  0.1681 -0.0776
 6446SOL    HW130800   1.282   0.294   2.346  1.3873 -0.1898 -2.3630
 6446SOL    HW230801   1.282   0.431   2.288 -0.9140  0.0737  0.3179
 6447SOL     OW30802   1.712   3.490   6.565  0.0984 -1.2719  0.0383
 6447SOL    HW130803   1.631   3.481   6.515  0.4511  0.1063 -0.7905
 6447SOL    HW230804   1.692   3.448   6.648 -2.1809  1.0145  0.6471
 6448SOL     OW30805   0.867   3.510  16.623  0.1016  0.2011  0.7318
 6448SOL    HW130806   0.856   3.545  16.711  0.0725 -0.2897  0.9210
 6448SOL    HW230807   0.853   3.417  16.638  1.2445 -0.0603  0.2001
 6449SOL     OW30808   3.502   4.208   3.022 -0.8669  0.5651 -0.1124
 6449SOL    HW130809   3.523   4.290   2.978  2.1160 -0.6032 -0.9300
 6449SOL    HW230810   3.408   4.202   3.005 -0.9430  1.4182  0.0429
 6450SOL     OW30811   2.716   3.778  16.864  0.2835 -0.2315  0.0668
 6450SOL    HW130812   2.623   3.797  16.867  0.2595 -0.5209  1.5198
 6450SOL    HW230813   2.732   3.799  16.772 -1.9056 -0.1567 -0.2883
 6451SOL     OW30814   0.795   1.923  17.529 -0.0059  0.2567 -0.0659
 6451SOL    HW130815   0.821   1.856  17.592  1.0509 -0.3415 -1.1254
 6451SOL    HW230816   0.699   1.920  17.532  0.0734 -0.0871  2.2639
 6452SOL     OW30817   3.632   0.818   7.160  0.3036  0.2852  0.3447
 6452SOL    HW130818   3.620   0.905   7.197 -1.0499  0.9440 -1.6621
 6452SOL    HW230819   3.715   0.795   7.202 -0.3669  1.7872  2.4928
 6453SOL     OW30820   0.825   1.289  16.554  0.1630  0.5819 -0.4981
 6453SOL    HW130821   0.813   1.340  16.635 -1.1333  1.6196 -1.3419
 6453SOL    HW230822   0.874   1.215  16.590  1.2818  1.0863 -0.9677
 6454SOL     OW30823   1.860   1.238  14.889  0.5848  0.1049  0.2600
 6454SOL    HW130824   1.779   1.202  14.852  0.3992 -0.7225  1.4635
 6454SOL    HW230825   1.846   1.211  14.980 -0.4807 -0.2291  0.0005
 6455SOL     OW30826   3.329   1.137  12.473 -0.7478 -0.5028  0.2273
 6455SOL    HW130827   3.301   1.220  12.436 -0.1369 -0.8552 -1.0113
 6455SOL    HW230828   3.289   1.128  12.560  0.1011  0.2198  0.6908
 6456SOL     OW30829   3.261   2.913  16.872 -0.5039 -0.0206 -0.0139
 6456SOL    HW130830   3.324   2.930  16.942  1.4147 -1.8082 -1.2882
 6456SOL    HW230831   3.219   2.998  16.862 -0.7391 -0.0988  0.3605
 6457SOL     OW30832   4.453   0.556  11.050 -0.2945 -0.0287  0.2829
 6457SOL    HW130833   4.530   0.542  10.995 -1.9056 -1.0246 -1.7266
 6457SOL    HW230834   4.441   0.650  11.040 -1.8598 -0.4784 -2.0697
 6458SOL     OW30835   0.074   1.905   5.641 -0.0966 -0.1396  0.8029
 6458SOL    HW130836   0.106   1.994   5.653 -1.3339  0.3304  0.6596
 6458SOL    HW230837   0.158   1.871   5.609 -0.4045 -1.3428  1.2561
 6459SOL     OW30838   3.120   0.476   8.149 -0.7796 -0.2752  0.0550
 6459SOL    HW130839   3.155   0.432   8.226 -0.0689  0.7682  0.3256
 6459SOL    HW230840   3.194   0.467   8.089 -0.5142  1.7916  0.0946
 6460SOL     OW30841   2.055   4.693  16.321  0.4132 -0.2956 -0.1819
 6460SOL    HW130842   2.084   4.618  16.269 -0.5081  0.1570 -1.3326
 6460SOL    HW230843   2.003   0.019  16.260  1.8129  0.9213 -0.3407
 6461SOL     OW30844   0.565   3.341   2.546 -0.3233 -0.5201  0.1490
 6461SOL    HW130845   0.498   3.401   2.514 -0.6146 -1.4970 -1.0876
 6461SOL    HW230846   0.632   3.409   2.555 -1.0792  0.5321 -2.0134
 6462SOL     OW30847   0.422   3.314  14.291  0.2444 -0.0771 -0.4279
 6462SOL    HW130848   0.459   3.402  14.299  0.5575 -0.2826  0.3301
 6462SOL    HW230849   0.364   3.332  14.217  1.3471 -0.6841 -1.4433
 6463SOL     OW30850   1.769   3.684   7.957 -0.1544 -0.3408 -0.7010
 6463SOL    HW130851   1.793   3.642   7.875  0.8604 -2.0647  0.4784
 6463SOL    HW230852   1.790   3.773   7.929 -0.6826 -0.4636 -1.4669
 6464SOL     OW30853   3.575   3.577   8.989  0.1033  0.1096  0.3679
 6464SOL    HW130854   3.495   3.630   8.981  1.5023  2.0153 -0.8847
 6464SOL    HW230855   3.596   3.593   9.081  0.0919  0.3802  0.3232
 6465SOL     OW30856   4.328   0.675  11.956  0.1688  0.1213  0.1795
 6465SOL    HW130857   4.323   0.726  11.875  0.9206 -0.7682 -0.4343
 6465SOL    HW230858   4.382   0.724  12.018 -0.2759  1.1726 -0.2528
 6466SOL     OW30859   0.562   2.973   9.575  0.0925  1.3790  0.1222
 6466SOL    HW130860   0.648   3.014   9.577  0.2262  1.0375  1.1430
 6466SOL    HW230861   0.536   2.958   9.666  0.8886 -2.2372 -0.2539
 6467SOL     OW30862   2.891   3.566   6.378  0.3140  0.3255 -0.5360
 6467SOL    HW130863   2.840   3.494   6.341  0.6949 -0.4412  0.4336
 6467SOL    HW230864   2.874   3.628   6.308 -1.3819 -0.6088 -0.9498
 6468SOL     OW30865   3.397   2.242  12.094  0.4989  0.0632  0.6840
 6468SOL    HW130866   3.328   2.205  12.149  0.0387 -0.3101 -0.1490
 6468SOL    HW230867   3.457   2.273  12.161  1.9802  1.1699 -1.1533
 6469SOL     OW30868   0.363   0.423   7.059 -0.3718  0.2183  0.3310
 6469SOL    HW130869   0.367   0.336   7.099 -0.6878 -0.1064 -0.3407
 6469SOL    HW230870   0.272   0.421   7.028  0.0464  1.9996 -0.9876
 6470SOL     OW30871   0.869   1.249   0.249  0.0155 -0.2796  0.2995
 6470SOL    HW130872   0.895   1.221   0.337  0.0568  0.4210  0.5103
 6470SOL    HW230873   0.774   1.250   0.262 -0.0040  0.4465  0.0928
 6471SOL     OW30874   2.327   1.297  16.244  0.1109 -0.0084  0.1159
 6471SOL    HW130875   2.357   1.380  16.208  0.4741  0.2127  0.9280
 6471SOL    HW230876   2.380   1.237  16.192  1.2514 -1.1206  2.5350
 6472SOL     OW30877   3.330   2.637  14.779 -0.3467  0.2830  0.1840
 6472SOL    HW130878   3.316   2.719  14.827  1.7915 -0.3283  1.8885
 6472SOL    HW230879   3.324   2.663  14.687 -1.3969 -3.0599 -0.6757
 6473SOL     OW30880   1.167   4.466   9.280 -0.3328  0.5728  0.4084
 6473SOL    HW130881   1.107   4.489   9.209  0.9554  0.8684 -0.5948
 6473SOL    HW230882   1.248   4.483   9.231 -0.6330  2.4841  0.5822
 6474SOL     OW30883   1.799   2.446   9.848 -0.1958 -0.2404  0.1011
 6474SOL    HW130884   1.866   2.493   9.798 -0.5144  0.0820 -0.0230
 6474SOL    HW230885   1.722   2.453   9.791  0.8950  0.7630 -1.2595
 6475SOL     OW30886   2.284   0.349  10.337  0.2691 -0.1137  0.1418
 6475SOL    HW130887   2.258   0.258  10.351  0.4965  0.1170  2.1427
 6475SOL    HW230888   2.288   0.376  10.429 -1.0070  2.3653 -0.5232
 6476SOL     OW30889   1.818   2.585   8.846 -0.1841 -0.2993 -0.6726
 6476SOL    HW130890   1.854   2.601   8.759  1.1780  1.4486  0.2087
 6476SOL    HW230891   1.866   2.510   8.882  0.3580  0.1294 -0.5086
 6477SOL     OW30892   2.734   3.889  15.394  0.6813 -0.2151 -0.2914
 6477SOL    HW130893   2.709   3.849  15.478  1.1589  0.4171  0.1527
 6477SOL    HW230894   2.678   3.839  15.335 -0.5775 -1.0570  1.6132
 6478SOL     OW30895   3.140   0.440  13.070 -0.0296  0.0921  0.0821
 6478SOL    HW130896   3.063   0.473  13.023  0.0313 -3.5931 -2.6312
 6478SOL    HW230897   3.195   0.429  12.992  3.0535  1.9066  2.0555
 6479SOL     OW30898   3.014   2.658   2.989  0.0230  0.2267  0.8915
 6479SOL    HW130899   2.983   2.574   3.021 -2.1934  0.2640 -1.1492
 6479SOL    HW230900   3.046   2.634   2.902 -0.9878  1.0715  0.2817
 6480SOL     OW30901   2.093   3.219   1.518  0.1826 -0.9506  0.5299
 6480SOL    HW130902   2.003   3.197   1.542 -0.4352 -1.1671 -1.9487
 6480SOL    HW230903   2.117   3.248   1.606 -1.7085 -0.9540  1.0567
 6481SOL     OW30904   0.231   4.717   3.555  0.3891 -0.2915  0.4665
 6481SOL    HW130905   0.182   0.064   3.591 -1.0859 -0.7491 -0.5947
 6481SOL    HW230906   0.168   4.684   3.491  0.6297 -2.1694  1.1847
 6482SOL     OW30907   0.597   3.700   4.997  0.0470  0.3058  0.4994
 6482SOL    HW130908   0.672   3.657   4.956 -1.2739 -1.3201 -0.2050
 6482SOL    HW230909   0.633   3.723   5.083  1.6683 -0.9919  0.1476
 6483SOL     OW30910   1.623   4.540  11.288  0.3544  0.2034 -0.2949
 6483SOL    HW130911   1.609   4.572  11.377 -0.0742 -3.2575  0.8658
 6483SOL    HW230912   1.534   4.514  11.265  0.5011  0.0591 -0.7123
 6484SOL     OW30913   3.468   1.012   6.285 -0.4260 -0.1226  0.1352
 6484SOL    HW130914   3.508   1.096   6.262 -0.3358 -0.3476 -0.5229
 6484SOL    HW230915   3.547   0.960   6.297 -0.1851  0.5726  1.5570
 6485SOL     OW30916   3.776   3.447   6.950 -0.3213  0.0976 -0.2655
 6485SOL    HW130917   3.696   3.437   7.002 -1.1934  0.8056 -1.5068
 6485SOL    HW230918   3.844   3.480   7.010 -0.9171  2.4321 -0.8776
 6486SOL     OW30919   0.208   1.971  16.325 -0.3354 -0.6848  0.0243
 6486SOL    HW130920   0.291   1.946  16.364 -0.6869  0.2747  1.3675
 6486SOL    HW230921   0.193   2.047  16.380  1.5457  0.2902 -0.8224
 6487SOL     OW30922   3.930   0.349   6.869 -0.0605 -0.0534 -0.0061
 6487SOL    HW130923   3.943   0.255   6.855  1.7219  0.2843 -0.6882
 6487SOL    HW230924   4.017   0.371   6.901  0.9953 -1.2250 -2.0345
 6488SOL     OW30925   3.079   1.874   3.830  0.0372 -0.1504 -0.5404
 6488SOL    HW130926   3.053   1.866   3.738  1.2339 -0.3831 -0.8609
 6488SOL    HW230927   3.027   1.799   3.860 -0.6813  0.1898 -0.9185
 6489SOL     OW30928   4.075   0.267  15.429  0.3607  0.3099 -0.1177
 6489SOL    HW130929   4.000   0.303  15.381 -1.8358 -1.1769  2.1752
 6489SOL    HW230930   4.056   0.316  15.509 -1.9378  2.4016 -1.9093
 6490SOL     OW30931   0.697   1.153  10.568 -0.0710  0.5861  0.6467
 6490SOL    HW130932   0.620   1.164  10.513  0.3120  0.0900  0.0134
 6490SOL    HW230933   0.737   1.068  10.547 -3.4409 -0.2724 -2.2341
 6491SOL     OW30934   0.052   1.669   4.224  0.0088  0.4182 -1.0093
 6491SOL    HW130935   0.135   1.622   4.226  0.4102  1.0899 -1.6612
 6491SOL    HW230936   0.029   1.661   4.316  0.5892  0.8219 -0.8256
 6492SOL     OW30937   3.361   0.454  12.301  0.4998  0.4626 -0.3006
 6492SOL    HW130938   3.446   0.419  12.327 -0.9082 -3.7396 -1.2916
 6492SOL    HW230939   3.332   0.467  12.392  0.9651 -0.2248 -0.0534
 6493SOL     OW30940   3.168   3.745   8.272 -0.2955  0.0679 -0.0225
 6493SOL    HW130941   3.177   3.695   8.190  0.7045 -0.6525  0.5248
 6493SOL    HW230942   3.260   3.769   8.282  0.2253 -2.2994  1.0436
 6494SOL     OW30943   1.021   1.164  13.403  0.0732 -0.6239  0.2281
 6494SOL    HW130944   0.979   1.185  13.320  1.9804  0.7381 -0.3811
 6494SOL    HW230945   0.951   1.112  13.442 -0.9469  0.2829 -0.4146
 6495SOL     OW30946   0.888   3.326   9.271  0.3392  0.3255  0.0872
 6495SOL    HW130947   0.938   3.405   9.248 -0.6283  0.7059 -0.6928
 6495SOL    HW230948   0.818   3.325   9.206  1.1075 -2.3176 -0.6965
 6496SOL     OW30949   1.786   4.241   0.213 -0.1295 -0.2578 -0.0458
 6496SOL    HW130950   1.749   4.175   0.154 -0.8354  0.0973  0.0104
 6496SOL    HW230951   1.878   4.222   0.192 -0.8358 -0.0790 -3.2562
 6497SOL     OW30952   4.011   0.323  16.876 -0.1082  0.1306  0.3883
 6497SOL    HW130953   3.972   0.391  16.930 -0.8172  0.8663 -1.0560
 6497SOL    HW230954   3.940   0.261  16.859 -0.1710  0.3097  0.0065
 6498SOL     OW30955   1.148   2.477   3.855 -0.1403 -0.3152 -0.4440
 6498SOL    HW130956   1.152   2.423   3.934  1.7142 -0.5208 -0.6661
 6498SOL    HW230957   1.100   2.555   3.880  0.4458 -0.3318  0.7486
 6499SOL     OW30958   0.780   1.967   9.145 -0.4878  0.0056  0.4751
 6499SOL    HW130959   0.831   1.909   9.088 -0.7235  0.0644  0.1996
 6499SOL    HW230960   0.834   1.959   9.223  3.1173  0.7000 -1.9714
 6500SOL     OW30961   4.329   2.464   2.996  0.4167 -0.0088  0.1760
 6500SOL    HW130962   4.406   2.462   3.051  0.0205  2.5803  0.8022
 6500SOL    HW230963   4.372   2.451   2.912 -0.1463 -0.4965 -0.0390
 6501SOL     OW30964   2.888   3.009   5.628  0.0006 -0.3329  0.1327
 6501SOL    HW130965   2.978   2.995   5.656 -0.1270  2.8888  2.1865
 6501SOL    HW230966   2.892   3.036   5.537 -3.4764  2.4431  0.7708
 6502SOL     OW30967   0.781   3.103   9.685  0.5804 -0.1964 -0.8983
 6502SOL    HW130968   0.731   3.184   9.676  0.9013  0.4682  3.2787
 6502SOL    HW230969   0.749   3.067   9.768  3.2320  0.1133  0.2327
 6503SOL     OW30970   2.009   3.357   8.983  0.0049  0.0040 -0.8019
 6503SOL    HW130971   2.022   3.366   8.888 -1.4652  1.7246 -0.8388
 6503SOL    HW230972   1.914   3.365   8.987  0.1894  2.7530 -1.8792
 6504SOL     OW30973   1.975   1.508  14.062  0.1702  0.4329  0.1654
 6504SOL    HW130974   2.054   1.465  14.095 -0.8231 -0.6754  1.0815
 6504SOL    HW230975   1.936   1.450  13.997 -2.7539 -0.5205  2.8006
 6505SOL     OW30976   2.349   2.863  12.831 -0.4970  0.5707 -0.2112
 6505SOL    HW130977   2.392   2.936  12.875 -0.6733 -0.6621  1.9580
 6505SOL    HW230978   2.403   2.850  12.753  2.4612  1.2053  1.7653
 6506SOL     OW30979   0.929   0.194   5.181 -0.2283 -0.4946  0.0731
 6506SOL    HW130980   0.973   0.269   5.141  1.2082 -0.8727  0.9234
 6506SOL    HW230981   0.900   0.157   5.098  0.5877 -2.0454  0.4903
 6507SOL     OW30982   3.831   2.041   5.518  0.0053  0.3706 -0.0996
 6507SOL    HW130983   3.869   1.968   5.567  1.7107  1.1244 -0.2812
 6507SOL    HW230984   3.906   2.059   5.462 -0.9524  0.9037 -1.1898
 6508SOL     OW30985   1.270   2.295   7.593 -0.1223 -0.1959  0.0302
 6508SOL    HW130986   1.221   2.359   7.645 -1.2317 -1.2748  0.3176
 6508SOL    HW230987   1.199   2.231   7.581  2.5919 -3.1105 -0.3378
 6509SOL     OW30988   0.274   3.935   3.630  0.1760 -0.1119  0.5373
 6509SOL    HW130989   0.198   3.929   3.572 -0.2364  0.6079  1.0189
 6509SOL    HW230990   0.330   3.968   3.560  0.2188  0.0844  0.6662
 6510SOL     OW30991   0.334   0.972   7.350 -0.0055 -0.4385  0.6411
 6510SOL    HW130992   0.342   1.065   7.331 -1.0878 -0.7903 -1.5659
 6510SOL    HW230993   0.426   0.949   7.338 -0.1088 -0.3566 -0.2879
 6511SOL     OW30994   1.005   3.480   1.852  0.0612  0.3880 -0.2873
 6511SOL    HW130995   0.967   3.562   1.820  1.7554  0.9968 -0.7525
 6511SOL    HW230996   0.949   3.454   1.925  0.9581  4.7384  1.9707
 6512SOL     OW30997   3.893   3.690  15.459  0.1635  0.0175  0.5957
 6512SOL    HW130998   3.968   3.662  15.512 -0.0682  0.3986  1.1232
 6512SOL    HW230999   3.941   3.761  15.417 -0.9238 -0.2802 -1.1596
 6513SOL     OW31000   2.161   3.554   4.697  0.5550 -0.0039 -0.1038
 6513SOL    HW131001   2.190   3.536   4.786 -2.1992 -2.2416  0.3481
 6513SOL    HW231002   2.219   3.508   4.635 -0.3188 -0.9526 -0.2242
 6514SOL     OW31003   0.253   1.180   3.083  0.0470  0.7905 -0.8584
 6514SOL    HW131004   0.348   1.166   3.081 -0.1452 -0.3563 -1.7684
 6514SOL    HW231005   0.233   1.269   3.111 -0.1662  0.1253  1.1592
 6515SOL     OW31006   4.453   4.546   3.784 -0.1324  0.0891 -0.3337
 6515SOL    HW131007   4.460   4.462   3.740 -0.3335 -0.1818  0.1541
 6515SOL    HW231008   4.426   4.517   3.871 -1.2251  1.0506 -0.3367
 6516SOL     OW31009   2.028   0.795  16.993  0.1522 -0.0178  0.7139
 6516SOL    HW131010   1.960   0.815  17.057  0.7410  0.5711  1.1518
 6516SOL    HW231011   2.090   0.748  17.049 -0.9735 -1.9977  0.3182
 6517SOL     OW31012   0.852   3.274  10.455 -0.1791 -0.4603  0.2499
 6517SOL    HW131013   0.923   3.336  10.438 -0.9495  0.5848  0.7861
 6517SOL    HW231014   0.846   3.289  10.550 -1.1756 -2.2115  0.4707
 6518SOL     OW31015   1.961   1.716  10.862 -0.0382  0.2168 -0.3646
 6518SOL    HW131016   2.040   1.728  10.810  0.9460  0.7605  1.2337
 6518SOL    HW231017   1.972   1.629  10.900 -0.0046 -1.2032 -3.6735
 6519SOL     OW31018   3.909   1.237  13.665  0.2652  0.2227  0.7573
 6519SOL    HW131019   3.838   1.179  13.691 -0.5257  1.5921  1.6290
 6519SOL    HW231020   3.861   1.319  13.660 -0.0479 -0.1021 -1.8653
 6520SOL     OW31021   1.822   3.396   1.329 -0.1022 -0.0440  0.1882
 6520SOL    HW131022   1.738   3.437   1.312  0.4566  1.1945  0.4272
 6520SOL    HW231023   1.877   3.472   1.351 -2.5373  0.6348  3.7601
 6521SOL     OW31024   2.366   4.179  13.569  0.2664 -0.1266 -0.0924
 6521SOL    HW131025   2.279   4.201  13.537 -0.5432  0.0546  2.2495
 6521SOL    HW231026   2.348   4.175  13.663 -1.4209  0.5606 -0.3932
 6522SOL     OW31027   2.303   1.006   1.869 -0.0197 -0.2634  0.3637
 6522SOL    HW131028   2.337   0.917   1.867 -0.1893 -0.2895 -1.6053
 6522SOL    HW231029   2.238   1.012   1.799 -0.5860  0.5929  0.9615
 6523SOL     OW31030   2.867   0.504   8.399 -0.5113 -0.0477 -0.3776
 6523SOL    HW131031   2.805   0.562   8.354  0.8338 -0.3771 -2.6234
 6523SOL    HW231032   2.936   0.562   8.432 -1.8712  2.1066 -1.2604
 6524SOL     OW31033   2.700   2.461   8.149 -0.5275  0.5440  0.0876
 6524SOL    HW131034   2.734   2.545   8.118 -2.8372  1.6469  0.5913
 6524SOL    HW231035   2.607   2.454   8.129 -0.8800  0.9116  1.5877
 6525SOL     OW31036   3.083   3.710   6.843  0.2362 -0.0239 -0.1627
 6525SOL    HW131037   3.158   3.710   6.784 -0.1088  0.1040 -0.5977
 6525SOL    HW231038   3.013   3.669   6.792  0.3175  0.2479 -0.4885
 6526SOL     OW31039   1.093   1.509   5.523 -0.4152 -0.0950  0.2623
 6526SOL    HW131040   1.113   1.562   5.600 -3.2811  2.1478 -0.5371
 6526SOL    HW231041   1.096   1.573   5.452 -0.1537 -0.3124  0.0782
 6527SOL     OW31042   3.318   0.613  11.115 -0.0857  0.1650 -0.2183
 6527SOL    HW131043   3.345   0.692  11.163  1.6131  0.4545 -1.6508
 6527SOL    HW231044   3.291   0.647  11.030  1.6582  2.7876  0.2611
 6528SOL     OW31045   2.835   4.278   4.304 -0.1471  0.6782  0.7600
 6528SOL    HW131046   2.805   4.345   4.365  0.7244  1.4662  0.3254
 6528SOL    HW231047   2.751   4.234   4.288  1.1057 -1.5999  0.4086
 6529SOL     OW31048   1.066   3.261  11.050  0.4512  0.3405  0.3207
 6529SOL    HW131049   1.101   3.175  11.028  1.1882  0.8709 -0.6196
 6529SOL    HW231050   1.081   3.270  11.144  0.0810  0.4929  0.3663
 6530SOL     OW31051   2.561   2.618   9.033 -0.1567 -0.0827 -0.2369
 6530SOL    HW131052   2.518   2.562   8.969 -0.0411 -0.4476  0.0041
 6530SOL    HW231053   2.614   2.558   9.085 -2.5176 -0.6796  1.4624
 6531SOL     OW31054   1.749   0.634   4.612  0.0595  0.3419 -0.3305
 6531SOL    HW131055   1.792   0.719   4.616  1.6224 -0.5425  1.7159
 6531SOL    HW231056   1.708   0.634   4.699 -2.5669  0.5420 -1.5645
 6532SOL     OW31057   1.198   1.319  15.052  0.3677  0.5302 -0.3609
 6532SOL    HW131058   1.229   1.232  15.027  0.0313 -0.0842  1.3783
 6532SOL    HW231059   1.107   1.313  15.021  0.4608  3.7511 -1.2602
 6533SOL     OW31060   1.995   1.984   2.035 -0.2308  0.4686  0.2253
 6533SOL    HW131061   2.047   1.962   1.958 -1.5685 -0.8702 -0.2970
 6533SOL    HW231062   2.054   2.051   2.070  1.4003 -0.4065 -0.8914
 6534SOL     OW31063   0.818   0.658   4.121  0.2645 -0.0986  0.2859
 6534SOL    HW131064   0.904   0.659   4.164 -0.0711  1.6355  0.9234
 6534SOL    HW231065   0.780   0.574   4.146 -1.0849  0.6497  0.7202
 6535SOL     OW31066   0.024   0.318  14.553  0.1786  0.6021 -0.6412
 6535SOL    HW131067   0.041   0.338  14.461 -0.8413  3.2954 -0.2400
 6535SOL    HW231068   4.657   0.341  14.562  0.3782  0.6945  1.0655
 6536SOL     OW31069   0.822   2.478   6.212  0.1764  0.4245 -0.0969
 6536SOL    HW131070   0.794   2.567   6.191 -0.4873 -0.3704 -2.6045
 6536SOL    HW231071   0.771   2.451   6.289  0.4914 -0.0197 -0.0484
 6537SOL     OW31072   0.565   4.358   3.959 -1.0694  0.3534 -0.2252
 6537SOL    HW131073   0.472   4.348   3.980 -0.4794 -0.9649  1.8194
 6537SOL    HW231074   0.565   4.446   3.921  1.6225  0.4685  0.0240
 6538SOL     OW31075   1.245   3.838   3.020  0.1210  0.1921 -0.6444
 6538SOL    HW131076   1.199   3.786   2.954 -1.1649 -1.8261  1.8244
 6538SOL    HW231077   1.284   3.771   3.077 -3.6299 -0.6068  0.9725
 6539SOL     OW31078   2.035   3.275   6.440  0.1007  0.6645  0.0634
 6539SOL    HW131079   1.942   3.254   6.450  0.0927 -0.6759 -3.1991
 6539SOL    HW231080   2.031   3.363   6.402  0.0645 -0.0121 -1.4604
 6540SOL     OW31081   0.994   0.404   9.074 -0.0658  0.0135 -0.2482
 6540SOL    HW131082   0.994   0.310   9.091 -0.2745 -0.1620 -1.2144
 6540SOL    HW231083   0.979   0.399   8.980 -0.7087 -0.9864 -0.0906
 6541SOL     OW31084   0.621   0.578  14.265  0.5681 -0.8050 -0.3272
 6541SOL    HW131085   0.592   0.571  14.355  0.3850 -0.3905 -0.3554
 6541SOL    HW231086   0.707   0.615  14.284  0.0412  0.1127  0.2249
 6542SOL     OW31087   1.733   2.217   8.797  0.3232  0.9813  0.1514
 6542SOL    HW131088   1.773   2.155   8.735 -0.0251  0.4803  0.4273
 6542SOL    HW231089   1.749   2.289   8.737  0.4973  0.1883 -0.7558
 6543SOL     OW31090   3.895   3.411   4.353 -0.2523  0.1395  0.0751
 6543SOL    HW131091   3.803   3.435   4.352  0.0553  1.3485  1.8384
 6543SOL    HW231092   3.935   3.474   4.292  1.7789 -1.4309 -0.2105
 6544SOL     OW31093   0.578   2.561   1.323  0.8437 -0.0547  0.9633
 6544SOL    HW131094   0.531   2.503   1.262  2.5674 -1.5507  1.0520
 6544SOL    HW231095   0.661   2.515   1.338  0.9417 -0.3401 -0.4339
 6545SOL     OW31096   4.725   2.967   7.699  0.4531 -0.5018 -0.4976
 6545SOL    HW131097   0.086   2.974   7.660  1.2520 -1.6170  1.0730
 6545SOL    HW231098   4.695   3.058   7.700 -1.2867 -1.1641  3.1194
 6546SOL     OW31099   3.581   2.048  12.655 -0.4344 -0.0343  0.0800
 6546SOL    HW131100   3.571   2.070  12.748  0.2005  1.3417 -0.1665
 6546SOL    HW231101   3.601   1.955  12.657  0.5786  0.1540 -0.9494
 6547SOL     OW31102   0.295   4.375   7.939  0.1334  0.8195 -0.1968
 6547SOL    HW131103   0.283   4.288   7.978  0.4662  0.0715 -1.7397
 6547SOL    HW231104   0.391   4.381   7.942  0.1289  0.7012  0.1599
 6548SOL     OW31105   2.868   2.781   1.182  0.1708 -0.1687  0.2697
 6548SOL    HW131106   2.797   2.741   1.132 -0.5015 -1.2480  2.1041
 6548SOL    HW231107   2.823   2.799   1.265 -0.0170  1.9295 -0.2863
 6549SOL     OW31108   3.859   2.387   9.827 -0.6953 -0.0280 -0.8024
 6549SOL    HW131109   3.867   2.450   9.756 -1.6428  0.2180 -0.6844
 6549SOL    HW231110   3.766   2.366   9.836 -0.7981  1.3206  1.1971
 6550SOL     OW31111   4.523   0.676   8.975  0.5129  0.0001 -0.0314
 6550SOL    HW131112   4.534   0.732   8.898  0.3706 -0.1735 -0.1780
 6550SOL    HW231113   4.517   0.741   9.045 -0.9648  0.5761 -0.6903
 6551SOL     OW31114   0.683   2.564  11.852 -0.2693 -0.4472  0.0618
 6551SOL    HW131115   0.740   2.554  11.776  4.1937 -0.6218  3.4273
 6551SOL    HW231116   0.736   2.628  11.898  1.6018 -1.1995 -1.0478
 6552SOL     OW31117   2.438   4.012   1.542  0.0619 -0.5653  0.1201
 6552SOL    HW131118   2.404   4.102   1.539  1.4022 -0.0716 -0.2604
 6552SOL    HW231119   2.512   4.031   1.484 -1.2300  2.5432 -0.5147
 6553SOL     OW31120   2.384   2.022   1.010 -0.1464 -0.5003 -0.1206
 6553SOL    HW131121   2.380   2.038   1.104 -1.7213 -1.3023 -0.0491
 6553SOL    HW231122   2.291   2.010   0.991 -0.0934 -1.2470  0.1115
 6554SOL     OW31123   1.359   1.686  12.469  0.3249 -0.0003 -0.3975
 6554SOL    HW131124   1.445   1.686  12.425  1.1097 -0.5556  1.1539
 6554SOL    HW231125   1.322   1.772  12.450  0.8709  0.8113  2.2452
 6555SOL     OW31126   4.718   3.810  16.962 -0.1580  0.1287  0.0093
 6555SOL    HW131127   0.011   3.774  17.048 -1.3592 -0.4954  0.0191
 6555SOL    HW231128   4.716   3.728  16.912 -3.6418 -0.0642  0.4030
 6556SOL     OW31129   1.550   3.045  15.455 -0.5518  0.3254 -0.1710
 6556SOL    HW131130   1.537   3.110  15.386  3.6910  0.2321 -1.0414
 6556SOL    HW231131   1.628   2.994  15.432 -0.8729  0.9969 -2.8089
 6557SOL     OW31132   1.457   0.029  11.944  0.0199  0.5892  0.4981
 6557SOL    HW131133   1.431   0.040  12.036  0.6072  0.7644  0.6454
 6557SOL    HW231134   1.551   0.047  11.933  0.3361 -1.6277 -0.4620
 6558SOL     OW31135   3.999   2.878   2.588  0.1719 -0.2757  0.0832
 6558SOL    HW131136   4.043   2.799   2.620  0.3425  0.5000  1.7364
 6558SOL    HW231137   4.070   2.918   2.538  0.0387  1.7645  1.5463
 6559SOL     OW31138   4.054   1.435   8.378  0.2706  0.1697 -0.0293
 6559SOL    HW131139   4.048   1.531   8.385 -1.5853 -0.1930  3.3638
 6559SOL    HW231140   4.070   1.414   8.470  1.0954 -2.1221 -0.7134
 6560SOL     OW31141   2.751   0.636   4.686  0.0150  0.0040 -0.0185
 6560SOL    HW131142   2.741   0.554   4.639 -1.4065 -0.2676  0.7682
 6560SOL    HW231143   2.780   0.608   4.773  1.3415  3.4264  0.6690
 6561SOL     OW31144   4.026   1.539   4.031 -0.3162 -0.6515 -0.2163
 6561SOL    HW131145   4.116   1.514   4.048 -0.6038 -1.7327 -0.2111
 6561SOL    HW231146   3.989   1.505   4.113 -0.4587  0.1341  0.0419
 6562SOL     OW31147   1.635   4.156   6.676 -0.1986  0.2303  0.1094
 6562SOL    HW131148   1.637   4.218   6.603  0.1980 -0.3092 -0.3446
 6562SOL    HW231149   1.725   4.167   6.706 -0.4332  0.9732  0.5185
 6563SOL     OW31150   3.480   3.961   6.989  0.0938 -0.5231 -0.1312
 6563SOL    HW131151   3.423   3.971   6.912  1.3566 -0.2732 -1.0342
 6563SOL    HW231152   3.517   4.049   6.991  1.0662 -0.9137 -0.7323
 6564SOL     OW31153   0.523   3.041   9.173 -0.0958  0.6445 -0.7458
 6564SOL    HW131154   0.590   2.972   9.174 -1.5898 -0.8498 -2.9592
 6564SOL    HW231155   0.546   3.085   9.091 -0.5631 -0.6640 -1.5804
 6565SOL     OW31156   1.811   0.624   4.326 -0.2076 -0.3420 -0.0692
 6565SOL    HW131157   1.792   0.665   4.410  0.9646  2.3164 -1.0891
 6565SOL    HW231158   1.806   0.707   4.278 -0.4119  0.8073  1.9285
 6566SOL     OW31159   1.402   2.387   5.037 -0.8053 -0.0518  0.2490
 6566SOL    HW131160   1.464   2.406   5.107  0.1273 -0.0385 -0.5839
 6566SOL    HW231161   1.439   2.429   4.959 -0.3890 -1.6696 -0.4322
 6567SOL     OW31162   3.160   0.984   3.369 -0.5374 -0.0849 -0.2665
 6567SOL    HW131163   3.072   1.016   3.387 -0.2512 -1.5194  3.6616
 6567SOL    HW231164   3.154   0.951   3.279 -0.1409 -0.7895 -0.0370
 6568SOL     OW31165   1.031   4.042  13.250 -0.3401  0.2815  0.2269
 6568SOL    HW131166   1.061   4.035  13.340  2.4694 -1.6359 -0.8824
 6568SOL    HW231167   1.077   4.123  13.232 -0.2705 -0.1081 -1.3813
 6569SOL     OW31168   3.300   3.537  15.787 -0.3828  0.1234  0.2794
 6569SOL    HW131169   3.351   3.461  15.816 -1.6955 -0.3219  1.4156
 6569SOL    HW231170   3.312   3.521  15.693  1.0652 -0.3075  0.5444
 6570SOL     OW31171   1.340   3.573   9.701 -0.1335  0.9525 -0.0640
 6570SOL    HW131172   1.358   3.507   9.633 -2.2318 -0.1404  0.4334
 6570SOL    HW231173   1.317   3.521   9.778  2.4605  0.0364  0.1068
 6571SOL     OW31174   4.048   2.398  17.630 -0.1077  0.0950 -0.5331
 6571SOL    HW131175   3.955   2.378  17.640 -0.5980  2.4261 -0.5253
 6571SOL    HW231176   4.086   2.310  17.632  0.5845  0.3904 -0.7816
 6572SOL     OW31177   0.865   3.239   3.426 -0.3599  0.3622 -0.4708
 6572SOL    HW131178   0.865   3.147   3.402 -1.3927 -0.4912  2.8041
 6572SOL    HW231179   0.784   3.279   3.394 -1.3451 -0.5990  0.8583
 6573SOL     OW31180   4.715   0.339   7.924 -0.1010  0.5530  0.0742
 6573SOL    HW131181   0.051   0.411   7.934 -0.0617  0.1636  2.7488
 6573SOL    HW231182   4.724   0.289   8.005 -2.7848  1.9789  1.2595
 6574SOL     OW31183   1.382   2.366   1.146  0.3744  0.0293  0.1655
 6574SOL    HW131184   1.317   2.336   1.209 -0.5301 -1.1537 -1.3354
 6574SOL    HW231185   1.434   2.439   1.181  0.1394  0.4463 -0.3455
 6575SOL     OW31186   4.629   3.996   2.459 -0.3295 -0.2026 -0.0666
 6575SOL    HW131187   4.539   3.995   2.493 -0.4627 -1.2086 -0.4446
 6575SOL    HW231188   4.672   4.025   2.539 -2.1403  2.8265 -0.1912
 6576SOL     OW31189   3.196   1.720   4.099  0.2690 -0.0473  0.5106
 6576SOL    HW131190   3.150   1.662   4.159  0.0232  0.9012  1.2350
 6576SOL    HW231191   3.132   1.737   4.030  0.4635  0.4339  0.4523
 6577SOL     OW31192   0.763   2.739   1.573  0.3242 -0.0436  0.0882
 6577SOL    HW131193   0.673   2.741   1.541  0.0487 -1.7050  0.7625
 6577SOL    HW231194   0.774   2.659   1.625 -2.2920  0.2416  1.0853
 6578SOL     OW31195   1.662   0.118   8.884 -0.3873  0.7554 -0.4112
 6578SOL    HW131196   1.629   0.089   8.969  0.9478 -1.4896 -0.6412
 6578SOL    HW231197   1.750   0.084   8.897 -0.0809  0.7182 -2.5131
 6579SOL     OW31198   1.873   1.573   9.310  0.0864  0.2492 -0.2659
 6579SOL    HW131199   1.920   1.561   9.393 -0.8099  1.7450  0.4615
 6579SOL    HW231200   1.907   1.659   9.286  2.1788  0.1053  2.1418
 6580SOL     OW31201   3.697   0.776   4.558  0.6039 -0.1374  0.2910
 6580SOL    HW131202   3.625   0.715   4.568 -0.7117  1.2539 -0.6913
 6580SOL    HW231203   3.681   0.807   4.468 -0.6131  0.5647  0.7499
 6581SOL     OW31204   2.000   0.615   0.583 -0.0091 -0.0733 -0.2785
 6581SOL    HW131205   1.963   0.559   0.514  1.1694 -0.4772 -0.5717
 6581SOL    HW231206   2.088   0.584   0.600 -0.5563  0.1933  3.0046
 6582SOL     OW31207   1.331   1.036   8.901 -0.1855  0.0406  0.2216
 6582SOL    HW131208   1.423   1.051   8.877 -0.3767  0.1508 -0.4329
 6582SOL    HW231209   1.338   0.982   8.980  0.6540 -1.7066 -1.0557
 6583SOL     OW31210   0.361   3.141   1.890 -0.2105 -0.0105 -0.1097
 6583SOL    HW131211   0.418   3.085   1.837  0.1333  1.0344 -0.8503
 6583SOL    HW231212   0.326   3.085   1.959  2.4456 -1.5623 -0.0181
 6584SOL     OW31213   1.366   3.043   3.325  0.3751 -0.0468 -0.4532
 6584SOL    HW131214   1.351   2.966   3.270 -1.9884 -0.8390  1.2793
 6584SOL    HW231215   1.426   3.079   3.260  1.8593 -0.1574  0.8561
 6585SOL     OW31216   0.313   4.128   8.463 -0.6407 -0.3712 -0.3900
 6585SOL    HW131217   0.254   4.201   8.483 -1.5705 -0.5300 -2.4559
 6585SOL    HW231218   0.328   4.157   8.372  0.0164 -0.7779 -0.4086
 6586SOL     OW31219   1.088   1.652   8.837  0.6229 -0.1227 -0.0278
 6586SOL    HW131220   1.163   1.613   8.793 -0.4767 -0.9504 -1.1836
 6586SOL    HW231221   1.023   1.627   8.771 -0.1497  1.6437  0.0557
 6587SOL     OW31222   0.782   0.735   9.735  0.4178 -0.3408  0.3104
 6587SOL    HW131223   0.776   0.761   9.826  0.2409 -0.5583  0.3597
 6587SOL    HW231224   0.691   0.723   9.710  1.0177 -0.6059 -1.8098
 6588SOL     OW31225   3.196   0.569  11.483  0.1352 -0.0821 -0.3235
 6588SOL    HW131226   3.219   0.518  11.405 -0.2460 -1.6941  0.6185
 6588SOL    HW231227   3.132   0.511  11.524 -0.6190  0.3549 -0.8853
 6589SOL     OW31228   2.343   1.357  10.647  0.2389 -0.0387 -0.3269
 6589SOL    HW131229   2.333   1.421  10.718 -0.4892  1.6415 -1.9659
 6589SOL    HW231230   2.437   1.340  10.648  0.0908 -0.8358 -0.1924
 6590SOL     OW31231   1.195   3.759   9.481 -0.5574  0.1424  0.2608
 6590SOL    HW131232   1.273   3.706   9.497  0.5897  1.6245 -0.3904
 6590SOL    HW231233   1.220   3.823   9.414 -0.9118 -1.1930 -1.1490
 6591SOL     OW31234   4.404   1.878   1.948  0.3499  0.2209 -0.7333
 6591SOL    HW131235   4.410   1.927   2.030 -0.4422  2.1655 -1.8328
 6591SOL    HW231236   4.361   1.796   1.972 -0.6499  0.0620 -3.0182
 6592SOL     OW31237   2.684   4.396   7.052  0.0536 -0.3929 -0.4132
 6592SOL    HW131238   2.650   4.337   7.119  0.4621 -0.0623  0.0889
 6592SOL    HW231239   2.654   4.356   6.971 -0.0566 -0.4576 -0.3405
 6593SOL     OW31240   3.393   1.310   9.034  0.0849 -0.0267 -0.4883
 6593SOL    HW131241   3.484   1.336   9.020 -0.4674  1.4380 -1.3462
 6593SOL    HW231242   3.358   1.361   8.961  0.3412  0.0741 -0.5405
 6594SOL     OW31243   4.445   0.224  11.646 -0.8185  0.3247  0.2499
 6594SOL    HW131244   4.537   0.200  11.657 -0.8099  0.4701  0.4980
 6594SOL    HW231245   4.422   0.197  11.735  0.5114  0.3333  0.6089
 6595SOL     OW31246   4.289   1.167   0.748  0.4654 -0.2414 -0.0005
 6595SOL    HW131247   4.376   1.153   0.709  1.1193 -1.0812  1.7598
 6595SOL    HW231248   4.287   1.260   0.727 -0.9542 -0.0370  1.1207
 6596SOL     OW31249   4.251   4.569   6.948  0.4310 -0.5064 -0.2364
 6596SOL    HW131250   4.171   4.603   6.908 -0.0535 -1.1119  0.2186
 6596SOL    HW231251   4.305   4.573   6.869  0.0116 -1.3028 -0.5614
 6597SOL     OW31252   3.232   2.502   9.200  0.1388  0.0102  0.0761
 6597SOL    HW131253   3.221   2.576   9.259  0.0393  0.3868 -0.4062
 6597SOL    HW231254   3.252   2.436   9.266  0.0488  1.1762  1.2650
 6598SOL     OW31255   1.523   1.821   5.509  0.0984 -0.2307  0.0539
 6598SOL    HW131256   1.578   1.796   5.583  0.4324 -2.1135 -0.8226
 6598SOL    HW231257   1.439   1.842   5.550  1.1971  0.7045  1.8012
 6599SOL     OW31258   4.628   1.276   5.160 -0.0662  0.2590 -0.0917
 6599SOL    HW131259   4.584   1.305   5.240 -0.7409  1.6339 -0.9582
 6599SOL    HW231260   4.560   1.280   5.093  1.0820  0.8316 -1.2292
 6600SOL     OW31261   0.797   4.152  15.815  0.4161  0.0061  0.0351
 6600SOL    HW131262   0.856   4.157  15.740 -0.2786  0.8404 -0.4562
 6600SOL    HW231263   0.811   4.061  15.842  1.7527  0.2699  0.2187
 6601SOL     OW31264   0.172   4.243   0.450  0.8314 -0.2957 -0.4358
 6601SOL    HW131265   0.210   4.173   0.503  0.4315  0.3430  0.6989
 6601SOL    HW231266   0.095   4.254   0.506 -0.3233  0.9391 -2.2877
 6602SOL     OW31267   3.064   2.661   9.371  0.0861  0.1703  0.3051
 6602SOL    HW131268   3.136   2.650   9.434 -0.4055  0.2210  0.8744
 6602SOL    HW231269   2.990   2.625   9.419  0.0269  0.3481  0.3487
 6603SOL     OW31270   1.301   2.417   7.175  0.4829  0.6685 -0.2877
 6603SOL    HW131271   1.365   2.381   7.235 -1.0514  0.1043  1.0140
 6603SOL    HW231272   1.324   2.509   7.163 -2.5213  1.4247 -0.3396
 6604SOL     OW31273   1.718   1.164  14.010 -0.2190  0.1096 -0.2001
 6604SOL    HW131274   1.645   1.104  13.991 -1.7524  1.5841  1.0039
 6604SOL    HW231275   1.682   1.229  14.070 -1.3432  0.9143 -1.7545
 6605SOL     OW31276   1.100   3.307   5.662 -0.3092 -0.4128  0.4369
 6605SOL    HW131277   1.165   3.272   5.723 -0.5655 -0.6761  0.5589
 6605SOL    HW231278   1.090   3.235   5.600 -2.0296 -0.2005  0.4662
 6606SOL     OW31279   4.517   3.947  13.714  0.2981  0.0317  0.1549
 6606SOL    HW131280   4.587   3.947  13.780  0.6671 -0.1902 -0.2330
 6606SOL    HW231281   4.541   3.877  13.654  0.4267  0.2679 -0.0681
 6607SOL     OW31282   1.190   2.003   5.066  0.4443  0.1006 -0.0807
 6607SOL    HW131283   1.281   2.031   5.060  0.0234  1.0328 -2.0789
 6607SOL    HW231284   1.175   2.034   5.156  3.2865 -0.4855  0.5858
 6608SOL     OW31285   4.308   1.750   2.624 -1.0622  0.7868  0.3301
 6608SOL    HW131286   4.245   1.687   2.658 -0.4543  0.1130  0.1870
 6608SOL    HW231287   4.275   1.748   2.534  0.4424 -0.2212 -0.1998
 6609SOL     OW31288   4.134   1.572   2.726  0.1572  0.1001  0.2816
 6609SOL    HW131289   4.080   1.526   2.661 -0.1865 -0.5617  1.0438
 6609SOL    HW231290   4.076   1.571   2.802 -1.3314 -1.0299 -0.8447
 6610SOL     OW31291   4.057   0.931   6.236 -0.1378 -0.1572 -0.0913
 6610SOL    HW131292   4.034   0.901   6.323  2.1714 -0.5021  0.4208
 6610SOL    HW231293   4.151   0.916   6.249 -0.2564  0.8276  1.7856
 6611SOL     OW31294   0.817   3.114  17.442 -0.0791 -0.2163 -0.7396
 6611SOL    HW131295   0.909   3.127  17.421  0.6052 -1.2984  1.5390
 6611SOL    HW231296   0.816   3.021  17.465 -0.7358  0.8036  3.3653
 6612SOL     OW31297   3.843   1.814  13.176 -0.3973  0.1313  0.6127
 6612SOL    HW131298   3.863   1.730  13.217  0.3957  1.3314  2.6719
 6612SOL    HW231299   3.811   1.869  13.248 -1.1394 -0.2577  0.5782
 6613SOL     OW31300   4.409   1.343   8.643  0.0464 -0.3873 -0.0633
 6613SOL    HW131301   4.406   1.289   8.722 -2.0884 -1.7259 -1.0283
 6613SOL    HW231302   4.409   1.433   8.674 -0.7370  0.1842 -1.7045
 6614SOL     OW31303   3.507   4.161   3.605  0.0838 -0.4755 -0.2106
 6614SOL    HW131304   3.422   4.146   3.563  0.7634 -1.4873 -1.1998
 6614SOL    HW231305   3.558   4.084   3.582  0.9010  0.6118 -2.0450
 6615SOL     OW31306   0.216   0.583   3.124 -0.3393  0.5031 -0.1165
 6615SOL    HW131307   0.144   0.551   3.180 -0.4177 -1.2255 -1.1936
 6615SOL    HW231308   0.258   0.654   3.172 -0.8291  1.5177 -1.2087
 6616SOL     OW31309   2.104   2.414   6.121  1.2115 -0.2311 -0.2882
 6616SOL    HW131310   2.145   2.497   6.146  2.2753 -0.4094 -1.4385
 6616SOL    HW231311   2.168   2.357   6.163 -0.3696 -2.5389 -0.9940
 6617SOL     OW31312   0.131   2.297   6.798 -0.0801 -0.5639 -0.1345
 6617SOL    HW131313   0.107   2.297   6.706 -1.7488  1.6779  0.2895
 6617SOL    HW231314   0.222   2.316   6.773 -0.0480 -0.2020  0.2632
 6618SOL     OW31315   0.688   2.222   6.053 -0.3870 -0.6976 -0.1020
 6618SOL    HW131316   0.709   2.300   6.105 -1.5987  0.5646 -1.5076
 6618SOL    HW231317   0.635   2.162   6.106  1.9047 -2.2649  0.3811
 6619SOL     OW31318   2.084   0.270   0.129  0.2698 -0.0308  0.0103
 6619SOL    HW131319   2.076   0.352   0.081  0.4302  0.2094  0.3907
 6619SOL    HW231320   2.168   0.280   0.174 -0.2922 -0.4066  1.1308
 6620SOL     OW31321   1.999   2.750  14.202  0.1034  0.0115 -0.3558
 6620SOL    HW131322   2.068   2.764  14.137  0.0205  0.4087 -0.3559
 6620SOL    HW231323   1.982   2.840  14.229 -1.3465  0.0044 -1.2858
 6621SOL     OW31324   1.829   3.181   6.104 -0.5866  0.1294 -0.0520
 6621SOL    HW131325   1.806   3.153   6.192 -1.0746 -1.6429 -0.7386
 6621SOL    HW231326   1.844   3.108   6.043 -0.1455 -0.1545  0.3974
 6622SOL     OW31327   4.123   1.952   8.228 -0.5098 -0.4355  0.2049
 6622SOL    HW131328   4.148   2.045   8.224 -0.3302 -0.4359  1.3517
 6622SOL    HW231329   4.044   1.957   8.283  0.1839 -1.4367  1.2711
 6623SOL     OW31330   0.025   2.245   7.904 -0.0032  0.4360 -0.4284
 6623SOL    HW131331   4.692   2.306   7.860 -3.5925 -1.9571  0.9906
 6623SOL    HW231332   4.684   2.179   7.923  1.3882 -0.7126  0.4705
 6624SOL     OW31333   1.766   4.710   3.355 -0.3524  0.0623 -0.0719
 6624SOL    HW131334   1.832   0.008   3.289 -0.3319 -1.0626 -0.4638
 6624SOL    HW231335   1.692   0.010   3.299 -1.7281  2.6107  2.9751
 6625SOL     OW31336   2.345   1.140   2.880  0.3573  0.3655 -0.5661
 6625SOL    HW131337   2.428   1.123   2.835  0.1292 -1.9331 -0.1494
 6625SOL    HW231338   2.377   1.198   2.949 -0.8161  0.7877 -0.3709
 6626SOL     OW31339   0.689   0.592  10.751  0.3839 -0.4969 -0.6045
 6626SOL    HW131340   0.672   0.509  10.706 -1.4880 -0.4777  0.0782
 6626SOL    HW231341   0.785   0.595  10.757  0.5506 -0.0212 -3.5791
 6627SOL     OW31342   3.455   4.295   4.651 -0.4286  0.0692  0.6088
 6627SOL    HW131343   3.469   4.252   4.566  1.4711 -1.3211  1.6253
 6627SOL    HW231344   3.541   4.333   4.664  0.6527 -1.5279 -1.7836
 6628SOL     OW31345   3.254   0.718  12.153  0.3675  0.0073  0.6574
 6628SOL    HW131346   3.268   0.745  12.244  0.2996  1.4269  0.2388
 6628SOL    HW231347   3.262   0.622  12.152 -0.9788 -0.0663 -3.1582
 6629SOL     OW31348   3.554   2.637   5.342 -0.0107 -0.1445 -0.3362
 6629SOL    HW131349   3.567   2.718   5.392 -0.6892 -0.0613 -0.2866
 6629SOL    HW231350   3.585   2.567   5.399 -0.1207 -0.4972 -0.7082
 6630SOL     OW31351   1.578   0.102  12.204 -0.1196  0.1884 -0.2354
 6630SOL    HW131352   1.622   0.184  12.180  0.0663  0.6806  1.8004
 6630SOL    HW231353   1.640   0.045  12.158 -0.8998  0.0449 -1.1257
 6631SOL     OW31354   0.573   1.091  16.608  0.8096  0.4009  0.1489
 6631SOL    HW131355   0.641   1.156  16.587 -1.1882  2.7395  0.8692
 6631SOL    HW231356   0.507   1.118  16.544  0.4692  0.8842  0.7051
 6632SOL     OW31357   0.069   1.842  13.716  0.1543  0.1045  0.0374
 6632SOL    HW131358   0.153   1.801  13.735  0.0901  0.6773  1.5854
 6632SOL    HW231359   0.090   1.888  13.635  2.5089  0.4953  0.8848
 6633SOL     OW31360   4.120   4.215   1.361  0.4601  0.2063  0.2456
 6633SOL    HW131361   4.100   4.293   1.413  0.4719  1.0121 -0.9595
 6633SOL    HW231362   4.215   4.226   1.363  0.5140  0.5163 -2.8918
 6634SOL     OW31363   2.234   2.000   5.209 -0.5050 -0.1920  0.5673
 6634SOL    HW131364   2.311   1.952   5.178 -1.4474 -1.9614  1.0287
 6634SOL    HW231365   2.255   2.034   5.296 -1.4197 -0.7977  1.0275
 6635SOL     OW31366   1.219   0.525   9.656  0.1011 -0.0185 -0.5342
 6635SOL    HW131367   1.129   0.550   9.638 -0.4600  0.2709  2.7600
 6635SOL    HW231368   1.255   0.514   9.568  1.9329 -0.5038  0.2528
 6636SOL     OW31369   4.309   2.746   2.385  0.0770 -0.6924  0.1535
 6636SOL    HW131370   4.335   2.783   2.469 -0.6855  2.0494 -0.8177
 6636SOL    HW231371   4.344   2.657   2.389  0.4025 -0.4885  1.9642
 6637SOL     OW31372   4.445   0.615   0.230 -0.5829  0.6442 -0.0635
 6637SOL    HW131373   4.499   0.692   0.246  0.8792 -0.4996  0.4860
 6637SOL    HW231374   4.403   0.622   0.144  0.8762 -1.0541 -0.9121
 6638SOL     OW31375   1.207   0.375   9.868  0.3551 -0.1446  0.2428
 6638SOL    HW131376   1.169   0.299   9.823 -1.6869  0.1071  1.5572
 6638SOL    HW231377   1.233   0.430   9.794 -3.3794  0.1112 -0.8686
 6639SOL     OW31378   4.697   0.472   2.757  0.2406  0.2531 -0.2667
 6639SOL    HW131379   4.703   0.430   2.671  2.1495 -0.8758  0.4254
 6639SOL    HW231380   4.611   0.513   2.752  0.8428  1.2982 -2.2802
 6640SOL     OW31381   2.902   4.492   6.478 -1.0184  0.3254 -0.8535
 6640SOL    HW131382   2.808   4.496   6.459 -1.1423 -0.3651 -0.4099
 6640SOL    HW231383   2.907   4.542   6.559 -0.3796 -1.9269  0.5111
 6641SOL     OW31384   3.212   1.323   7.745  0.1152  0.4638  0.6146
 6641SOL    HW131385   3.261   1.241   7.756  0.2961  0.5254  0.2674
 6641SOL    HW231386   3.134   1.294   7.698  0.8008  0.4145 -0.4886
 6642SOL     OW31387   3.153   2.094  15.782  0.2177 -0.0519 -0.7824
 6642SOL    HW131388   3.238   2.138  15.770 -0.3349  1.2595  0.1189
 6642SOL    HW231389   3.099   2.171  15.797  0.6320 -0.1705  1.2238
 6643SOL     OW31390   2.740   0.602   5.894  0.1945  0.1437 -0.5366
 6643SOL    HW131391   2.818   0.574   5.846 -0.8019 -0.1173 -1.9969
 6643SOL    HW231392   2.729   0.526   5.951  0.8090  0.2639 -0.2498
 6644SOL     OW31393   2.042   0.416   5.607  0.1294 -0.6451  0.1997
 6644SOL    HW131394   2.051   0.324   5.631 -0.8525 -0.9185 -0.4920
 6644SOL    HW231395   1.993   0.453   5.680  0.4634 -2.2079  1.2095
 6645SOL     OW31396   2.544   3.089  12.090 -0.2211 -0.2692  0.4016
 6645SOL    HW131397   2.481   3.040  12.037 -0.3196 -0.6384  0.8628
 6645SOL    HW231398   2.498   3.171  12.072 -0.5608 -0.7759 -1.0313
 6646SOL     OW31399   0.009   3.291   4.641 -0.7023  0.1522  0.0378
 6646SOL    HW131400   0.077   3.247   4.590 -1.1385 -0.6437  0.1501
 6646SOL    HW231401   0.052   3.294   4.726  0.3193  0.3352 -0.4788
 6647SOL     OW31402   1.169   4.015   5.092  0.1840  0.1595 -0.0096
 6647SOL    HW131403   1.227   4.074   5.139  0.3410 -0.6516  0.8149
 6647SOL    HW231404   1.106   3.993   5.161  1.4607 -2.1498  0.3959
 6648SOL     OW31405   3.031   2.874   7.331 -0.0015 -0.0066  0.3807
 6648SOL    HW131406   3.096   2.811   7.297  2.6103  1.8318  1.9221
 6648SOL    HW231407   2.967   2.812   7.366 -1.3969  0.9585 -0.5036
 6649SOL     OW31408   4.115   0.064   0.053 -0.5469 -0.3581  0.4979
 6649SOL    HW131409   4.177   4.724   0.022  1.0075  0.0877  2.7676
 6649SOL    HW231410   4.113   0.032   0.143  1.4594  0.8997  0.9817
 6650SOL     OW31411   0.770   1.599  16.190 -0.3921 -0.2430  1.3186
 6650SOL    HW131412   0.732   1.658  16.125 -0.9311  2.6700  4.3316
 6650SOL    HW231413   0.757   1.519  16.139 -1.1583  2.2467 -2.3764
 6651SOL     OW31414   0.692   1.786   4.750 -0.4648  0.3137  0.8057
 6651SOL    HW131415   0.738   1.790   4.833 -0.0856 -2.1140  0.7086
 6651SOL    HW231416   0.671   1.878   4.738  1.7233  0.6202 -0.6753
 6652SOL     OW31417   0.497   1.400  14.284 -0.6008 -0.7290  0.3636
 6652SOL    HW131418   0.442   1.448  14.347 -1.7514  0.1547 -1.3089
 6652SOL    HW231419   0.545   1.477  14.253 -1.4391 -0.9806 -1.6006
 6653SOL     OW31420   1.281   2.792   4.381 -0.6623  1.1669  0.4180
 6653SOL    HW131421   1.198   2.783   4.334  0.7205 -2.0121 -1.4059
 6653SOL    HW231422   1.263   2.873   4.429 -1.3411  2.4006 -1.9087
 6654SOL     OW31423   0.779   1.307   8.384  0.8391  0.3099  0.0193
 6654SOL    HW131424   0.852   1.287   8.326 -0.4021 -1.9905 -0.7379
 6654SOL    HW231425   0.821   1.267   8.460  1.0071 -0.8218 -0.6718
 6655SOL     OW31426   3.425   4.187   1.312  0.1102 -0.1455 -0.1101
 6655SOL    HW131427   3.483   4.237   1.255  0.0835  0.3914  0.3291
 6655SOL    HW231428   3.359   4.255   1.325  0.5395  0.2130  0.2185
 6656SOL     OW31429   1.142   3.420   8.544  0.2844  0.2291 -0.5368
 6656SOL    HW131430   1.124   3.446   8.453 -0.9216  2.7029  0.3952
 6656SOL    HW231431   1.091   3.341   8.556 -1.7165  1.3626 -1.5040
 6657SOL     OW31432   1.058   0.435   2.340  0.4872  0.6462  0.0699
 6657SOL    HW131433   1.136   0.430   2.395  1.1751  1.9582 -0.8034
 6657SOL    HW231434   0.996   0.464   2.407  0.3715  0.9581 -0.1717
 6658SOL     OW31435   1.593   2.413   9.419  0.7306  0.5152 -0.6585
 6658SOL    HW131436   1.547   2.358   9.355  0.5504  2.4128 -2.1459
 6658SOL    HW231437   1.682   2.402   9.386  0.7324 -1.5985  0.0157
 6659SOL     OW31438   0.432   4.300  11.280 -0.1660 -0.7891 -0.5809
 6659SOL    HW131439   0.429   4.333  11.370  1.1896 -0.4892 -0.6430
 6659SOL    HW231440   0.511   4.247  11.285  0.5700  0.4476  1.0151
 6660SOL     OW31441   1.077   0.899   1.860  0.6103  0.8426 -0.3651
 6660SOL    HW131442   0.997   0.849   1.873  1.6215 -0.9465 -0.9673
 6660SOL    HW231443   1.099   0.898   1.953 -0.7035 -0.0206 -0.0736
 6661SOL     OW31444   0.438   4.704  15.721 -0.5992 -0.3626  0.2179
 6661SOL    HW131445   0.354   4.677  15.685 -0.9244  0.7425  0.1593
 6661SOL    HW231446   0.484   4.620  15.729  3.7985  2.0672  0.8260
 6662SOL     OW31447   0.625   1.710   7.784  0.0585 -0.3187 -0.1856
 6662SOL    HW131448   0.720   1.717   7.783 -0.0171  0.6100 -0.8773
 6662SOL    HW231449   0.598   1.710   7.692 -0.6951 -1.1175  0.0314
 6663SOL     OW31450   0.843   3.056   8.958  0.2300 -0.2554 -0.2090
 6663SOL    HW131451   0.833   2.993   9.029 -1.5575  0.3439  0.0673
 6663SOL    HW231452   0.763   3.107   8.953 -0.0677 -0.8677 -1.6059
 6664SOL     OW31453   1.894   4.496   6.547  0.2235  0.4708 -0.1179
 6664SOL    HW131454   1.922   4.490   6.638 -1.5133 -2.6338  0.1795
 6664SOL    HW231455   1.920   4.587   6.527 -3.1793  1.1156 -1.5364
 6665SOL     OW31456   2.578   4.305   3.910 -0.5002 -0.0345  0.3608
 6665SOL    HW131457   2.641   4.376   3.899  1.4255 -1.8055 -0.0686
 6665SOL    HW231458   2.596   4.245   3.838 -2.4903  0.0799 -0.2272
 6666SOL     OW31459   2.639   2.672   1.096 -0.1868 -0.4158  1.0263
 6666SOL    HW131460   2.566   2.622   1.132 -0.8492 -0.4983 -0.4453
 6666SOL    HW231461   2.595   2.733   1.036  2.0337 -0.6636 -0.8518
 6667SOL     OW31462   1.562   1.807   6.720 -0.4289 -0.3793  0.3249
 6667SOL    HW131463   1.540   1.731   6.667  3.4186 -1.3088  0.0609
 6667SOL    HW231464   1.515   1.877   6.674 -0.2048  0.2168  1.0134
 6668SOL     OW31465   2.697   1.330   5.215  0.1244  0.0091 -0.0082
 6668SOL    HW131466   2.623   1.387   5.237 -0.6998 -0.2382 -2.0694
 6668SOL    HW231467   2.774   1.382   5.238  1.1757 -0.9657 -1.3058
 6669SOL     OW31468   0.792   3.723   0.115 -0.3036  0.0211 -0.3638
 6669SOL    HW131469   0.823   3.732   0.025  0.5657  1.7643  0.1052
 6669SOL    HW231470   0.797   3.628   0.118 -0.5028 -0.0314 -1.7317
 6670SOL     OW31471   0.570   2.743  10.107  0.1085 -0.3631 -0.0761
 6670SOL    HW131472   0.475   2.740  10.093  0.2865  3.1818 -2.2259
 6670SOL    HW231473   0.597   2.653  10.093  1.4347  0.2995 -1.7986
 6671SOL     OW31474   3.148   0.300   4.590 -0.2097 -0.3234  0.2918
 6671SOL    HW131475   3.244   0.298   4.594 -0.1831 -1.0351 -0.7801
 6671SOL    HW231476   3.121   0.360   4.660 -2.6872  0.0426 -0.9949
 6672SOL     OW31477   3.366   1.230  13.294 -0.2438  0.2821 -0.2500
 6672SOL    HW131478   3.423   1.158  13.267  0.3921  0.1485  1.4699
 6672SOL    HW231479   3.292   1.175  13.323 -0.0007  0.2824  0.3619
 6673SOL     OW31480   3.496   0.658   6.520  0.1395  0.3966  0.2210
 6673SOL    HW131481   3.459   0.571   6.538 -1.3187  0.7755 -0.8652
 6673SOL    HW231482   3.537   0.640   6.435 -1.8530  1.1221 -0.9188
 6674SOL     OW31483   3.182   3.513   0.535  0.0706 -0.2747 -0.0951
 6674SOL    HW131484   3.161   3.570   0.609 -0.2762  0.3646 -0.6864
 6674SOL    HW231485   3.251   3.571   0.503  0.1201  0.2694  0.9839
 6675SOL     OW31486   2.476   1.596   6.273 -0.2495  0.4603 -0.2421
 6675SOL    HW131487   2.525   1.560   6.200  1.5761  0.9057  0.7598
 6675SOL    HW231488   2.404   1.533   6.275 -1.1450  1.4326 -1.7509
 6676SOL     OW31489   0.482   0.324  17.221 -0.4644 -0.5972  0.2800
 6676SOL    HW131490   0.553   0.388  17.220 -0.0981 -1.0116  0.0466
 6676SOL    HW231491   0.409   0.374  17.186 -0.1986 -1.5970 -1.7224
 6677SOL     OW31492   2.172   1.942  14.422  0.7838  0.7369  0.4567
 6677SOL    HW131493   2.263   1.944  14.393 -0.4681 -0.9168 -3.5557
 6677SOL    HW231494   2.191   1.905  14.508  0.7163 -1.0746 -0.3218
 6678SOL     OW31495   3.864   4.466   3.899  0.3551  0.5699 -0.2635
 6678SOL    HW131496   3.908   4.525   3.960  0.4053  0.3680 -0.1045
 6678SOL    HW231497   3.840   4.403   3.967 -0.7197  0.9156 -0.3200
 6679SOL     OW31498   3.793   3.317   6.612  0.2228 -0.3253  0.2066
 6679SOL    HW131499   3.844   3.398   6.622 -0.6380  0.2386  0.1251
 6679SOL    HW231500   3.744   3.331   6.530  1.0781 -1.5600 -0.5056
 6680SOL     OW31501   0.056   3.829  10.209  0.0707  0.0458  0.5158
 6680SOL    HW131502   0.023   3.840  10.299  1.1331 -0.3051  0.9452
 6680SOL    HW231503   4.707   3.846  10.152  0.4091 -1.6656 -0.4460
 6681SOL     OW31504   1.910   0.584  17.204  0.0106  0.4065  0.4648
 6681SOL    HW131505   1.887   0.657  17.260 -1.0543  1.4749 -1.3591
 6681SOL    HW231506   1.829   0.533  17.191  1.9298 -1.9179 -2.5673
 6682SOL     OW31507   4.285   4.618   7.214  0.3761  0.0203  0.0638
 6682SOL    HW131508   4.198   4.585   7.239  0.9975 -1.2618  0.5542
 6682SOL    HW231509   4.278   4.628   7.119 -0.5960  0.1764  0.1498
 6683SOL     OW31510   4.343   3.524   4.425  0.1732 -0.3969  0.3826
 6683SOL    HW131511   4.338   3.517   4.520  2.3146  0.4827  0.5778
 6683SOL    HW231512   4.435   3.505   4.408 -0.8762 -4.2879 -0.7528
 6684SOL     OW31513   3.775   3.088   2.564 -0.1353  0.0392 -0.4829
 6684SOL    HW131514   3.726   3.105   2.645  2.1283  1.8362  0.5091
 6684SOL    HW231515   3.838   3.029   2.606 -2.5977 -1.7587  0.7551
 6685SOL     OW31516   3.298   2.720  14.531  0.4070 -0.0357  0.0329
 6685SOL    HW131517   3.310   2.778  14.456 -1.1021  0.6743  0.3467
 6685SOL    HW231518   3.206   2.694  14.530  0.4747 -0.2892  0.4324
 6686SOL     OW31519   1.659   4.211   5.798 -0.3268 -0.1344  0.7173
 6686SOL    HW131520   1.582   4.165   5.830 -0.7276  0.2664  0.3268
 6686SOL    HW231521   1.721   4.202   5.871 -1.1518 -0.4696  1.3770
 6687SOL     OW31522   0.289   1.199  15.479  0.7001 -0.2438 -0.0878
 6687SOL    HW131523   0.361   1.150  15.439  1.7673  0.7232  0.6534
 6687SOL    HW231524   0.305   1.194  15.573  1.0234 -0.8756 -0.1725
 6688SOL     OW31525   1.506   3.471   7.621 -0.0849 -0.0535 -0.1572
 6688SOL    HW131526   1.543   3.409   7.684  3.0053 -0.1910 -2.1168
 6688SOL    HW231527   1.466   3.532   7.683  0.8156  1.0787 -0.7021
 6689SOL     OW31528   4.312   1.035   7.439 -0.1068  0.5194 -0.4026
 6689SOL    HW131529   4.391   1.017   7.490  0.3584  4.0598  0.1580
 6689SOL    HW231530   4.276   0.946   7.442 -0.6832  0.7793  0.7140
 6690SOL     OW31531   2.521   1.831  11.840  0.4685  0.6275  0.2125
 6690SOL    HW131532   2.530   1.797  11.929 -0.6955 -0.8698 -0.2638
 6690SOL    HW231533   2.479   1.917  11.850  0.7647  0.5862  1.8962
 6691SOL     OW31534   0.703   2.121  10.871 -0.2151  0.5116 -0.2923
 6691SOL    HW131535   0.752   2.056  10.921 -1.9842 -1.9220 -1.7608
 6691SOL    HW231536   0.645   2.147  10.943  0.4111 -1.3265  0.8795
 6692SOL     OW31537   1.119   0.370  10.755  0.7729  0.1574  0.5988
 6692SOL    HW131538   1.024   0.379  10.757  0.6361 -1.5681  2.1071
 6692SOL    HW231539   1.137   0.397  10.665 -1.6579  2.5215  0.8441
 6693SOL     OW31540   1.461   2.103   3.931  0.0070 -0.2910 -0.1898
 6693SOL    HW131541   1.483   2.119   3.839  0.1844 -1.0395 -0.2860
 6693SOL    HW231542   1.521   2.160   3.979 -1.5859 -0.3716  1.8862
 6694SOL     OW31543   1.635   1.672   7.254 -0.3758 -0.4206  0.1452
 6694SOL    HW131544   1.654   1.673   7.160  2.1463 -0.4546  0.6504
 6694SOL    HW231545   1.544   1.703   7.255 -0.3925 -0.4417 -0.6501
 6695SOL     OW31546   3.338   0.399   8.010 -0.3005  0.1487  0.3543
 6695SOL    HW131547   3.402   0.378   8.077 -0.0212 -1.9927 -0.5700
 6695SOL    HW231548   3.398   0.418   7.938 -0.2660 -0.4665  0.2244
 6696SOL     OW31549   2.748   1.069  13.318 -0.1773  0.5808 -0.5978
 6696SOL    HW131550   2.655   1.068  13.341 -0.0048  0.9000  0.0966
 6696SOL    HW231551   2.786   1.039  13.401 -0.5502  1.5839 -0.0755
 6697SOL     OW31552   4.244   2.291   4.247  0.2520 -0.4925  0.0550
 6697SOL    HW131553   4.208   2.268   4.333 -1.3989  0.7846 -0.3191
 6697SOL    HW231554   4.164   2.297   4.196  0.4927  0.7230 -0.1771
 6698SOL     OW31555   1.596   0.590  17.681  0.2512  0.3904 -0.1501
 6698SOL    HW131556   1.617   0.641  17.603 -0.3583 -1.0519 -1.2665
 6698SOL    HW231557   1.550   0.659   0.023  0.1417  0.9189 -1.0456
 6699SOL     OW31558   0.645   0.219  17.032  0.0041  0.2467 -0.1947
 6699SOL    HW131559   0.587   0.263  17.094  0.0209 -1.2433  0.8888
 6699SOL    HW231560   0.720   0.272  17.057  0.2787 -0.1339 -0.2084
 6700SOL     OW31561   0.217   3.640   2.877 -0.2236  0.3054  0.2139
 6700SOL    HW131562   0.136   3.687   2.899 -0.9285 -1.2295  0.9284
 6700SOL    HW231563   0.246   3.695   2.805 -0.0909 -0.7444 -0.5238
 6701SOL     OW31564   2.830   4.356   4.807 -0.5753 -0.2574 -0.5725
 6701SOL    HW131565   2.906   4.335   4.861 -1.8500 -1.4413  0.7924
 6701SOL    HW231566   2.808   4.269   4.774 -1.4237 -0.3086  0.1239
 6702SOL     OW31567   1.023   1.525   6.609 -0.0556  0.2752  0.1251
 6702SOL    HW131568   1.029   1.599   6.549 -1.7367  2.5968  2.8114
 6702SOL    HW231569   1.096   1.471   6.579  2.5140  2.5380  2.3157
 6703SOL     OW31570   3.349   1.047   4.874 -0.2956 -0.3783  0.0355
 6703SOL    HW131571   3.399   1.070   4.952 -1.4129 -3.8717  1.8137
 6703SOL    HW231572   3.338   0.952   4.881  1.8309 -0.4727  2.2727
 6704SOL     OW31573   1.805   1.676   6.775  0.3361  0.3492  0.2007
 6704SOL    HW131574   1.782   1.738   6.706 -1.5706 -1.7906 -1.0693
 6704SOL    HW231575   1.770   1.597   6.734  2.7584 -0.6727  0.0889
 6705SOL     OW31576   2.615   0.337   4.719 -0.1261 -0.4101  0.6904
 6705SOL    HW131577   2.661   0.328   4.635 -1.2030 -3.5891  0.4678
 6705SOL    HW231578   2.640   0.253   4.758  0.0688 -0.9703 -0.6469
 6706SOL     OW31579   2.581   3.898  13.535 -0.1780  0.3602 -0.5831
 6706SOL    HW131580   2.671   3.896  13.567  0.4904  0.0641 -2.4416
 6706SOL    HW231581   2.546   3.973  13.582  0.5593  1.5040 -1.8846
 6707SOL     OW31582   4.436   2.647  12.221 -0.2386 -0.3539  0.2910
 6707SOL    HW131583   4.486   2.675  12.298  0.0668 -2.2079  0.7890
 6707SOL    HW231584   4.443   2.553  12.241 -0.3085 -0.4433 -0.1137
 6708SOL     OW31585   3.087   0.044   1.880  0.5906 -0.3636  0.3365
 6708SOL    HW131586   3.039   0.011   1.956 -0.2512  0.6440  0.2434
 6708SOL    HW231587   3.012   0.076   1.831  0.7082  1.2914  1.2328
 6709SOL     OW31588   3.165   4.436   5.296  0.1533 -0.3104 -0.4471
 6709SOL    HW131589   3.225   4.371   5.259  0.6098 -1.2646  1.9166
 6709SOL    HW231590   3.165   4.412   5.389 -1.1542  0.4111 -0.2638
 6710SOL     OW31591   2.626   1.318   8.904 -0.4850 -0.5109  0.0674
 6710SOL    HW131592   2.683   1.250   8.941 -0.2097 -0.2744  0.0827
 6710SOL    HW231593   2.681   1.377   8.851  0.6244 -0.7821  0.9146
 6711SOL     OW31594   2.826   4.189   6.393 -0.2918  0.4837 -0.0262
 6711SOL    HW131595   2.745   4.186   6.443 -0.0547 -1.0327  0.2745
 6711SOL    HW231596   2.865   4.267   6.433 -0.2204  0.1624  0.5375
 6712SOL     OW31597   4.617   1.164   2.459 -0.0005  0.2080  0.4133
 6712SOL    HW131598   4.571   1.231   2.508  0.8391  0.2698  1.1173
 6712SOL    HW231599   4.543   1.108   2.437  0.5700 -0.3459 -0.1095
 6713SOL     OW31600   1.485   0.142   4.109  0.0428 -0.1593  0.7855
 6713SOL    HW131601   1.478   0.202   4.183 -0.4998 -0.0840  0.6785
 6713SOL    HW231602   1.430   0.066   4.131 -2.9397  1.7692  0.0532
 6714SOL     OW31603   4.145   4.691   9.179 -0.2539 -0.1806  0.1171
 6714SOL    HW131604   4.224   4.700   9.124 -0.1736  0.7312  0.3732
 6714SOL    HW231605   4.103   4.647   9.105  0.3844 -2.2962  1.0273
 6715SOL     OW31606   2.936   1.283  16.652  0.4830 -0.0870 -0.0355
 6715SOL    HW131607   2.962   1.360  16.600  1.0498 -0.6737 -0.6143
 6715SOL    HW231608   2.911   1.323  16.735 -0.2953 -3.5046  1.3690
 6716SOL     OW31609   2.216   3.317   5.138 -0.3826 -0.0722  0.1075
 6716SOL    HW131610   2.170   3.234   5.154 -0.3949 -0.1102 -0.1302
 6716SOL    HW231611   2.255   3.331   5.225  2.0304  0.4780 -1.0712
 6717SOL     OW31612   1.824   2.176   7.876  0.3357 -0.2111  0.3452
 6717SOL    HW131613   1.896   2.115   7.860 -1.1032 -0.9330 -3.4447
 6717SOL    HW231614   1.765   2.163   7.802 -0.1798 -0.8757  0.8731
 6718SOL     OW31615   2.403   2.076  14.305  0.1871 -0.2385  0.0236
 6718SOL    HW131616   2.356   2.107  14.227  1.5141 -0.7507 -0.9680
 6718SOL    HW231617   2.491   2.097  14.275  1.2602 -0.8433  2.8480
 6719SOL     OW31618   1.674   4.155  10.244 -0.0270  0.3013 -0.6712
 6719SOL    HW131619   1.651   4.063  10.235 -1.4187  0.6718 -0.8019
 6719SOL    HW231620   1.639   4.175  10.331 -1.6137 -1.1838 -0.9800
 6720SOL     OW31621   2.899   1.839   8.633  0.4881 -0.1136  0.0214
 6720SOL    HW131622   2.964   1.875   8.693 -0.0213  1.9305 -0.6554
 6720SOL    HW231623   2.948   1.787   8.570  0.9379  1.4847 -0.9536
 6721SOL     OW31624   0.117   3.445   8.545 -0.2711  0.4093 -0.3022
 6721SOL    HW131625   0.152   3.441   8.634 -0.9294  1.7570  0.0253
 6721SOL    HW231626   0.040   3.500   8.561 -1.2660 -0.8776 -0.6201
 6722SOL     OW31627   3.530   2.610   7.162  0.2136  0.6258 -0.2004
 6722SOL    HW131628   3.564   2.528   7.127  0.1423 -0.3223  1.9707
 6722SOL    HW231629   3.534   2.591   7.256  0.0456  1.0453 -0.1084
 6723SOL     OW31630   2.532   2.292   3.166 -0.0377 -0.1642 -0.1445
 6723SOL    HW131631   2.594   2.227   3.133  0.9893  1.7240 -1.8589
 6723SOL    HW231632   2.471   2.285   3.092  0.1530  0.5156 -0.3638
 6724SOL     OW31633   3.717   2.090   1.339 -0.5742  0.3334  0.8630
 6724SOL    HW131634   3.725   2.091   1.243 -1.0435 -1.7260  0.8177
 6724SOL    HW231635   3.621   2.085   1.343 -0.4548 -1.4393  1.3985
 6725SOL     OW31636   3.074   4.697   3.824  0.0451  0.9817  0.1302
 6725SOL    HW131637   3.104   4.668   3.911 -0.6156 -0.3436 -0.0887
 6725SOL    HW231638   2.988   0.003   3.852  0.1893  0.1523  1.5555
 6726SOL     OW31639   2.263   2.712   9.748  0.1964 -0.3253 -1.0174
 6726SOL    HW131640   2.230   2.765   9.820 -0.6822 -3.0966  0.6190
 6726SOL    HW231641   2.245   2.764   9.669 -2.2764 -2.6402 -1.9867
 6727SOL     OW31642   0.101   1.377  15.407  0.8027 -0.1362 -0.0465
 6727SOL    HW131643   0.180   1.322  15.407  0.8188 -0.1500  3.0268
 6727SOL    HW231644   0.072   1.373  15.498 -0.4744  0.5397 -0.4220
 6728SOL     OW31645   3.238   3.044  15.869 -0.5724  0.3896 -0.3659
 6728SOL    HW131646   3.152   3.025  15.830 -1.4251  0.2756  1.5905
 6728SOL    HW231647   3.287   3.039  15.787 -0.7365  0.5192 -0.4727
 6729SOL     OW31648   3.688   1.514   6.638  0.2675  0.7863  0.3875
 6729SOL    HW131649   3.645   1.436   6.672  0.7661  0.2960 -0.1102
 6729SOL    HW231650   3.613   1.572   6.649 -0.5590 -0.5195  1.7018
 6730SOL     OW31651   0.125   1.116   7.017 -0.4049 -0.0381 -0.0622
 6730SOL    HW131652   0.109   1.195   6.966 -0.2360  1.0969  1.6478
 6730SOL    HW231653   0.075   1.051   6.968  0.5729 -0.7824 -0.0634
 6731SOL     OW31654   3.314   2.747  10.565 -0.1898  0.6438  0.0139
 6731SOL    HW131655   3.299   2.662  10.605 -0.4358 -0.2499 -1.9715
 6731SOL    HW231656   3.222   2.758  10.540  0.0916 -1.0240 -1.7302
 6732SOL     OW31657   4.161   3.890   0.277 -0.1192 -0.7390  0.0501
 6732SOL    HW131658   4.210   3.815   0.243 -1.4601 -0.5947 -2.1540
 6732SOL    HW231659   4.160   3.944   0.199 -1.6904  0.0044  0.5913
 6733SOL     OW31660   2.222   0.291   3.378 -0.4971  0.7948  0.4563
 6733SOL    HW131661   2.179   0.205   3.379  0.6542  0.2259  0.8648
 6733SOL    HW231662   2.151   0.351   3.402 -0.4117  1.2236 -0.3506
 6734SOL     OW31663   3.021   0.556  16.573  0.4424  0.7735  0.0825
 6734SOL    HW131664   3.051   0.563  16.483 -0.1964 -0.3281 -0.2240
 6734SOL    HW231665   3.060   0.475  16.606 -0.7720  0.8482  1.7366
 6735SOL     OW31666   1.204   3.656   6.446 -0.0888 -0.0794 -0.1405
 6735SOL    HW131667   1.262   3.675   6.520  0.4310  3.2771 -1.4383
 6735SOL    HW231668   1.126   3.638   6.497  0.1824  1.2392  0.7373
 6736SOL     OW31669   2.314   0.468   3.907  0.3799  0.3981  0.0645
 6736SOL    HW131670   2.308   0.519   3.988  0.1648  2.4392 -1.2333
 6736SOL    HW231671   2.408   0.469   3.892  0.4459  0.8693  0.5228
 6737SOL     OW31672   0.258   4.423  17.669  0.3282 -0.1390 -0.1337
 6737SOL    HW131673   0.221   4.380   0.042  0.0288  2.0397  0.9147
 6737SOL    HW231674   0.256   4.348  17.610  2.8078 -0.3906  0.1232
 6738SOL     OW31675   1.943   3.835   8.387  0.5943  0.5362  0.4820
 6738SOL    HW131676   1.850   3.833   8.409 -0.0669  1.8198 -2.2028
 6738SOL    HW231677   1.984   3.904   8.438  1.8325 -1.4947  2.2391
 6739SOL     OW31678   2.925   2.935  17.109 -0.8043 -0.1217 -0.2538
 6739SOL    HW131679   2.900   2.936  17.201 -2.8483 -1.7086 -0.7820
 6739SOL    HW231680   2.884   3.009  17.064  2.1659  1.5957 -0.1577
 6740SOL     OW31681   4.023   2.078   9.603  0.2978  0.0719 -0.7562
 6740SOL    HW131682   4.045   2.020   9.676 -0.0205  1.2717  0.2897
 6740SOL    HW231683   4.076   2.157   9.616 -0.8566  0.2844  2.5580
 6741SOL     OW31684   2.754   1.353   2.173  0.1924  0.2562  0.3943
 6741SOL    HW131685   2.667   1.386   2.151 -0.5551 -0.5130  2.2315
 6741SOL    HW231686   2.720   1.293   2.239  1.3825 -0.4941  0.3188
 6742SOL     OW31687   0.862   1.138  15.287 -0.3744 -0.5151 -0.2422
 6742SOL    HW131688   0.859   1.112  15.379 -0.5927 -1.0407 -0.3999
 6742SOL    HW231689   0.817   1.062  15.250  1.2081 -0.8402 -1.4598
 6743SOL     OW31690   4.250   0.656   4.908  0.5179  0.3431  0.2808
 6743SOL    HW131691   4.235   0.711   4.832 -0.6980 -1.1785 -0.6016
 6743SOL    HW231692   4.243   0.721   4.977  0.0151  0.6551 -0.0664
 6744SOL     OW31693   3.240   3.866   9.577  0.6480 -0.2125  0.1756
 6744SOL    HW131694   3.246   3.806   9.651 -0.2165  2.4598  2.4295
 6744SOL    HW231695   3.250   3.806   9.503  0.6930  0.1974 -0.1494
 6745SOL     OW31696   0.228   3.913   4.573 -0.2894 -0.5364 -0.4167
 6745SOL    HW131697   0.211   4.002   4.543 -1.1984 -0.7411 -0.5035
 6745SOL    HW231698   0.267   3.919   4.660 -2.5626 -3.3264  0.8139
 6746SOL     OW31699   4.349   2.023   1.663  0.6211  0.2477 -0.0398
 6746SOL    HW131700   4.400   2.052   1.587 -1.5609 -1.5172 -2.1743
 6746SOL    HW231701   4.295   1.960   1.615 -1.5437  1.2912  1.0903
 6747SOL     OW31702   1.082   4.023   9.491 -0.6697 -0.1200 -0.0761
 6747SOL    HW131703   1.160   3.972   9.471 -0.1066 -0.4753  3.0142
 6747SOL    HW231704   1.018   3.952   9.484  1.9573 -2.4390 -0.9049
 6748SOL     OW31705   4.695   4.061   2.995  0.6931 -0.2433  0.1861
 6748SOL    HW131706   4.711   4.125   3.064  1.0262 -0.1582  0.0273
 6748SOL    HW231707   4.601   4.071   2.979  1.1045  2.2356 -0.5646
 6749SOL     OW31708   0.087   4.276   5.126  0.2865 -0.0665  0.2059
 6749SOL    HW131709   0.137   4.346   5.084  0.6173  0.2357  1.1181
 6749SOL    HW231710   0.139   4.199   5.102 -0.7228 -1.5424  2.8209
 6750SOL     OW31711   3.163   2.949   2.953 -0.2600 -0.1247 -0.3025
 6750SOL    HW131712   3.246   2.990   2.927 -0.5747  0.5283 -0.3030
 6750SOL    HW231713   3.109   2.984   2.882 -0.8611  0.2404  0.3334
 6751SOL     OW31714   2.574   2.322   4.940  0.2042  0.5098  0.2331
 6751SOL    HW131715   2.576   2.343   5.033  0.0793 -0.2748  0.4200
 6751SOL    HW231716   2.556   2.407   4.901 -0.3727 -0.5365 -1.8035
 6752SOL     OW31717   1.586   0.940   4.635 -0.3604  0.2660  0.1419
 6752SOL    HW131718   1.669   0.903   4.604 -0.6664 -1.0037  0.8374
 6752SOL    HW231719   1.605   1.024   4.678 -0.8388  0.6112 -0.3167
 6753SOL     OW31720   1.035   2.956   6.672  0.0089 -0.1517 -0.3975
 6753SOL    HW131721   1.003   3.023   6.732  2.1162  0.0098  0.5584
 6753SOL    HW231722   0.953   2.921   6.638 -1.0330  0.0789  1.9597
 6754SOL     OW31723   0.019   2.982  10.745  0.1127 -0.8458 -0.0214
 6754SOL    HW131724   0.109   3.010  10.765  1.0934 -2.2584 -2.4433
 6754SOL    HW231725   4.717   3.041  10.676  0.6115 -0.2244  0.3084
 6755SOL     OW31726   3.414   3.947   4.272  0.7605  0.0297  0.3094
 6755SOL    HW131727   3.367   3.993   4.203 -0.8208 -2.2838 -0.1509
 6755SOL    HW231728   3.501   3.925   4.240  0.8238  2.1681 -0.9491
 6756SOL     OW31729   1.814   4.696   2.948  0.0580  0.2970 -0.0010
 6756SOL    HW131730   1.719   4.687   2.938  0.2473 -0.0748 -1.3771
 6756SOL    HW231731   1.841   4.718   2.859  1.6114  1.0740  0.6724
 6757SOL     OW31732   3.888   1.603   9.988  0.4139 -0.5782 -0.0828
 6757SOL    HW131733   3.794   1.607  10.001  0.1823 -1.5817 -1.5184
 6757SOL    HW231734   3.878   1.617   9.894 -2.7628  1.6686  0.5849
 6758SOL     OW31735   1.867   3.597  13.216  0.5196 -0.0339 -0.0342
 6758SOL    HW131736   1.899   3.562  13.300 -0.2443  0.1706  0.3405
 6758SOL    HW231737   1.885   3.517  13.168 -0.0276  0.1067 -0.4653
 6759SOL     OW31738   2.455   4.554  15.197 -0.4470  0.4883  0.2348
 6759SOL    HW131739   2.442   4.477  15.252  2.8168 -0.1397  0.1340
 6759SOL    HW231740   2.460   4.514  15.110 -1.6353  0.2347  0.2771
 6760SOL     OW31741   1.346   4.396   0.136 -0.0088 -0.0446  0.5604
 6760SOL    HW131742   1.268   4.382   0.190 -0.5134  0.5448 -0.0018
 6760SOL    HW231743   1.364   4.488   0.154 -0.5396  0.1025  0.3455
 6761SOL     OW31744   0.763   3.444   0.108  0.0304 -0.2919 -0.1285
 6761SOL    HW131745   0.837   3.406   0.061  0.8240 -0.2101  1.0466
 6761SOL    HW231746   0.695   3.377   0.109  0.5501 -0.8121  0.6461
 6762SOL     OW31747   3.056   4.335   9.349 -0.4659  0.3890 -0.3660
 6762SOL    HW131748   3.135   4.362   9.396 -1.5839  0.8600  1.2708
 6762SOL    HW231749   3.066   4.242   9.371  1.1335  0.5889 -0.2699
 6763SOL     OW31750   2.484   2.435   5.599  0.4257 -0.4841 -0.3031
 6763SOL    HW131751   2.560   2.392   5.639  1.8344  1.8785 -0.3743
 6763SOL    HW231752   2.499   2.427   5.505 -0.9389  0.0515 -0.5544
 6764SOL     OW31753   2.622   3.182   5.377  0.1497  0.3945  0.2719
 6764SOL    HW131754   2.583   3.209   5.294 -1.2414 -1.5096  0.3178
 6764SOL    HW231755   2.716   3.175   5.356 -0.0788 -1.0606 -0.2858
 6765SOL     OW31756   4.549   2.001   3.296 -0.6368 -0.6245 -0.1209
 6765SOL    HW131757   4.476   2.015   3.235 -2.1252  1.4886  2.1778
 6765SOL    HW231758   4.616   2.057   3.256 -1.3407 -0.2287 -0.7350
 6766SOL     OW31759   2.830   1.620   8.993 -0.0722  0.0959 -0.2488
 6766SOL    HW131760   2.921   1.590   8.995  0.0341  0.5444  1.2854
 6766SOL    HW231761   2.846   1.710   9.018  0.4581  0.3180 -1.3653
 6767SOL     OW31762   4.274   3.124  13.577  0.6780 -0.5496 -0.2907
 6767SOL    HW131763   4.217   3.048  13.571  2.5803 -1.9227 -1.0588
 6767SOL    HW231764   4.329   3.103  13.652  0.1032  2.3202  0.9436
 6768SOL     OW31765   2.200   0.232   3.802 -0.4039  0.5927  0.2770
 6768SOL    HW131766   2.202   0.324   3.831 -1.1237  0.6721  0.0854
 6768SOL    HW231767   2.274   0.226   3.742 -0.8341  1.7977 -0.3814
 6769SOL     OW31768   4.571   2.180   6.130  0.2383 -0.2699 -0.4914
 6769SOL    HW131769   4.527   2.115   6.075  0.3647 -1.2558  0.5796
 6769SOL    HW231770   4.544   2.255   6.077 -1.2689 -1.1323 -0.9652
 6770SOL     OW31771   4.049   1.781   6.538 -0.5323  0.4287 -0.1850
 6770SOL    HW131772   4.079   1.866   6.572 -0.1857 -0.4023  1.5882
 6770SOL    HW231773   4.136   1.750   6.513 -1.1094  0.1033 -1.7424
 6771SOL     OW31774   1.054   3.330   6.619  0.1754 -0.8321 -0.0217
 6771SOL    HW131775   1.007   3.414   6.612 -0.5207 -1.3064 -1.0571
 6771SOL    HW231776   0.978   3.276   6.601 -0.1575 -1.3861  3.0755
 6772SOL     OW31777   1.111   4.685   5.723  0.4508  0.1048 -0.5216
 6772SOL    HW131778   1.102   4.606   5.670 -1.3403 -0.3185  0.4051
 6772SOL    HW231779   1.199   4.668   5.756 -0.1507  0.1379  1.1125
 6773SOL     OW31780   0.099   1.880  14.114  0.1120 -0.0687  0.2185
 6773SOL    HW131781   0.159   1.811  14.142  2.7854  2.0407 -0.3727
 6773SOL    HW231782   0.025   1.856  14.169  1.5678  1.8458  3.0494
 6774SOL     OW31783   1.825   3.021   7.654 -0.3363  0.3494  0.0435
 6774SOL    HW131784   1.832   2.992   7.745 -1.0964 -0.0784 -0.0321
 6774SOL    HW231785   1.912   3.057   7.640 -0.0290 -0.1651  0.6262
 6775SOL     OW31786   2.018   0.700   6.252  0.0843 -0.3209  0.5073
 6775SOL    HW131787   2.026   0.657   6.337  0.9878  1.2886  1.2329
 6775SOL    HW231788   2.062   0.782   6.275  1.0286 -0.3332 -1.2717
 6776SOL     OW31789   0.957   2.211   5.821  0.1821  0.1547 -0.3151
 6776SOL    HW131790   0.995   2.194   5.735  1.7562  2.3282 -0.0190
 6776SOL    HW231791   0.937   2.120   5.843 -0.4167  0.6405  1.2221
 6777SOL     OW31792   1.181   1.488   2.645  0.0060 -0.2714 -0.7930
 6777SOL    HW131793   1.237   1.411   2.637 -0.8526 -0.9870  0.0314
 6777SOL    HW231794   1.122   1.494   2.570 -0.8643  1.3656  0.0114
 6778SOL     OW31795   0.153   4.214   2.845 -0.4164  0.2202 -0.0455
 6778SOL    HW131796   0.063   4.184   2.853  0.3944 -1.8773  1.3275
 6778SOL    HW231797   0.194   4.167   2.918  1.5673  1.6508 -0.2390
 6779SOL     OW31798   3.858   2.429   3.656  0.1915  0.2666  0.2479
 6779SOL    HW131799   3.829   2.438   3.565  1.7229  1.2683 -0.1489
 6779SOL    HW231800   3.785   2.372   3.680 -2.2954  2.8524 -1.1861
 6780SOL     OW31801   1.464   2.883   8.913 -0.9962 -0.2667  0.0888
 6780SOL    HW131802   1.476   2.825   8.989  3.4130  0.3832 -0.1306
 6780SOL    HW231803   1.497   2.966   8.945  1.4606 -0.1777 -2.6809
 6781SOL     OW31804   1.431   2.251   7.350 -0.6243  0.3345  0.3421
 6781SOL    HW131805   1.391   2.281   7.432  0.2475  0.0136  0.8899
 6781SOL    HW231806   1.413   2.157   7.358 -1.3670  0.5432  1.1402
 6782SOL     OW31807   1.438   0.871   3.840 -0.0681  0.0619 -0.4060
 6782SOL    HW131808   1.356   0.912   3.867  0.6951 -0.5569  2.7872
 6782SOL    HW231809   1.483   0.861   3.924 -2.4299 -2.6509  0.5510
 6783SOL     OW31810   3.451   3.526   7.273  0.6863  0.2383  0.3773
 6783SOL    HW131811   3.461   3.599   7.212  3.1274 -2.2487 -2.1589
 6783SOL    HW231812   3.510   3.552   7.344  0.7728  0.7540  0.1212
 6784SOL     OW31813   0.676   1.324   6.109 -0.0403  0.0692  0.7476
 6784SOL    HW131814   0.628   1.367   6.180  0.5130 -0.0896  1.2136
 6784SOL    HW231815   0.628   1.366   6.037  0.6866 -0.4235 -0.0332
 6785SOL     OW31816   2.090   1.397   1.521  0.3332  0.1665  0.0871
 6785SOL    HW131817   2.037   1.338   1.575 -1.2690  1.0261 -0.5211
 6785SOL    HW231818   2.025   1.465   1.504  1.7887  1.0923 -1.7769
 6786SOL     OW31819   4.604   0.820   0.333 -0.1964 -0.2607 -0.2271
 6786SOL    HW131820   4.588   0.906   0.372  0.1826 -0.2753 -0.0434
 6786SOL    HW231821   4.659   0.839   0.257 -2.7092 -1.8248 -2.4278
 6787SOL     OW31822   3.837   0.977   1.052  0.3400 -0.0524 -0.2889
 6787SOL    HW131823   3.902   0.961   1.120 -1.8849 -3.9384  0.9032
 6787SOL    HW231824   3.762   1.004   1.105 -0.2866  0.8649 -1.6151
 6788SOL     OW31825   1.825   2.601   7.501 -0.2785 -0.1779  0.0262
 6788SOL    HW131826   1.744   2.553   7.484 -0.6737  0.5386 -0.0991
 6788SOL    HW231827   1.861   2.598   7.413 -0.5890  0.8183 -0.1259
 6789SOL     OW31828   4.014   1.940  13.677 -0.8839  0.0361  0.3759
 6789SOL    HW131829   3.992   1.848  13.667 -0.3314  0.0314 -0.7715
 6789SOL    HW231830   3.988   1.977  13.593 -1.9255  0.3671  0.8456
 6790SOL     OW31831   2.085   4.050   2.976  0.3824  0.6551  0.2010
 6790SOL    HW131832   2.100   4.125   2.918 -1.6883  0.2375 -0.8589
 6790SOL    HW231833   2.008   4.074   3.028  2.1920  1.2703  2.6107
 6791SOL     OW31834   1.965   4.659   5.334 -0.3371 -0.3108  0.3084
 6791SOL    HW131835   2.049   4.614   5.341 -1.3225 -2.2928 -0.9983
 6791SOL    HW231836   1.897   4.598   5.306  2.4245 -2.3574 -1.9681
 6792SOL     OW31837   1.753   3.715   3.364  0.1042  0.5638 -0.2267
 6792SOL    HW131838   1.697   3.785   3.330  0.1680 -0.8003 -3.1394
 6792SOL    HW231839   1.835   3.725   3.316 -0.5091 -2.5777 -1.8829
 6793SOL     OW31840   2.797   1.141   1.661 -0.2078  0.3810  0.3192
 6793SOL    HW131841   2.721   1.196   1.645  1.0204  1.2988 -2.2553
 6793SOL    HW231842   2.758   1.066   1.616  0.0445  1.4525 -1.6858
 6794SOL     OW31843   2.030   4.435   7.847 -0.0845 -0.8871 -0.0712
 6794SOL    HW131844   2.106   4.486   7.875  0.5426 -0.6348 -2.2797
 6794SOL    HW231845   2.062   4.347   7.867 -1.7840 -1.5558 -0.2941
 6795SOL     OW31846   2.421   2.084   6.080  0.4772 -0.1950 -0.0511
 6795SOL    HW131847   2.335   2.044   6.088  1.0425 -1.6590 -1.3027
 6795SOL    HW231848   2.441   2.095   5.987 -2.2714 -0.7843 -0.6905
 6796SOL     OW31849   0.047   0.674   4.160 -0.2109  0.3399 -0.2802
 6796SOL    HW131850   0.030   0.660   4.253  0.3230 -0.9061 -0.3812
 6796SOL    HW231851   0.097   0.756   4.155  0.8740 -0.4189 -2.1060
 6797SOL     OW31852   1.157   4.270  13.206  0.2006 -0.5695  0.4132
 6797SOL    HW131853   1.197   4.241  13.124 -2.8008 -1.1692 -0.8410
 6797SOL    HW231854   1.231   4.302  13.258  0.7999 -1.5479  0.1432
 6798SOL     OW31855   0.754   0.365   3.989 -0.0973 -0.3939  0.0852
 6798SOL    HW131856   0.665   0.394   4.007 -0.4007  0.5106 -2.7916
 6798SOL    HW231857   0.786   0.422   3.919  0.1234 -1.0312 -0.3315
 6799SOL     OW31858   1.527   4.348  14.992  0.0741  0.2225 -0.0624
 6799SOL    HW131859   1.577   4.300  15.058  1.7049  2.2721  0.1713
 6799SOL    HW231860   1.558   4.309  14.911 -1.8498  1.8410 -1.5728
 6800SOL     OW31861   4.491   3.156  13.395 -0.0840 -0.3388  0.5746
 6800SOL    HW131862   4.438   3.138  13.473 -1.4085  0.9223 -0.0419
 6800SOL    HW231863   4.497   3.073  13.347  0.3378 -0.7874  1.4091
 6801SOL     OW31864   3.387   1.009   7.428 -0.0334 -0.4780 -0.0324
 6801SOL    HW131865   3.318   1.022   7.492  0.1940 -0.7771  0.2726
 6801SOL    HW231866   3.347   0.934   7.383 -1.9100  0.2347  0.4533
 6802SOL     OW31867   3.555   0.715  12.379 -0.6984  0.5089 -0.8639
 6802SOL    HW131868   3.565   0.663  12.458  0.5958 -0.8794 -1.9581
 6802SOL    HW231869   3.463   0.694  12.363 -0.7127  0.6318 -0.9442
 6803SOL     OW31870   1.197   2.859   6.889 -0.1518  0.0250  0.3448
 6803SOL    HW131871   1.136   2.873   6.817 -0.3458  2.0724  0.9232
 6803SOL    HW231872   1.221   2.948   6.912  1.3255 -0.0878 -0.6944
 6804SOL     OW31873   1.951   4.296   5.369  0.7986 -0.4634  0.0849
 6804SOL    HW131874   2.047   4.300   5.363  0.9166 -2.2668  0.5216
 6804SOL    HW231875   1.947   4.292   5.464 -0.2462  0.9406  0.0879
 6805SOL     OW31876   3.095   0.131   8.256  0.4066  0.6424 -0.1263
 6805SOL    HW131877   3.137   0.213   8.282 -1.9903  1.7324  0.3137
 6805SOL    HW231878   3.169   0.070   8.246 -1.1018 -1.3051  0.6132
 6806SOL     OW31879   3.059   2.827   4.550  0.4349 -0.1805 -0.1496
 6806SOL    HW131880   3.154   2.817   4.548  0.7507  2.7566  1.2477
 6806SOL    HW231881   3.044   2.749   4.603  0.0078  0.6630  0.9670
 6807SOL     OW31882   0.030   2.185   3.275 -0.6029  0.2731 -0.1200
 6807SOL    HW131883   0.115   2.142   3.281 -0.6309  0.2751  0.2602
 6807SOL    HW231884   0.014   2.187   3.369  1.1838 -2.8991  0.2378
 6808SOL     OW31885   2.513   1.642   7.856  0.7953  1.0751 -0.0948
 6808SOL    HW131886   2.517   1.619   7.763  0.7620  0.8961 -0.0520
 6808SOL    HW231887   2.484   1.557   7.889  0.1640  2.0106  1.7502
 6809SOL     OW31888   2.993   4.308  13.175 -0.2010 -0.0268 -0.4624
 6809SOL    HW131889   2.911   4.357  13.185 -0.0491  0.0055  0.5466
 6809SOL    HW231890   3.054   4.381  13.169 -0.1052 -0.0943 -0.2829
 6810SOL     OW31891   4.585   3.385   3.415 -0.0152 -0.5850 -0.1902
 6810SOL    HW131892   4.511   3.431   3.454  0.2060  1.4599 -2.1475
 6810SOL    HW231893   4.551   3.295   3.419  1.6134 -1.0647  2.4538
 6811SOL     OW31894   0.209   1.850   6.464 -0.0481  0.1855  0.0499
 6811SOL    HW131895   0.183   1.763   6.434  2.2329  0.1299 -1.7419
 6811SOL    HW231896   0.303   1.841   6.447 -0.0719 -0.9091  0.5311
 6812SOL     OW31897   1.777   0.891  16.796 -0.2233  0.0271 -0.1086
 6812SOL    HW131898   1.706   0.851  16.846 -1.5960 -0.5018 -2.4831
 6812SOL    HW231899   1.855   0.837  16.813  0.2437  1.3322  1.9812
 6813SOL     OW31900   2.669   1.946   6.122  0.5063 -0.1011  0.3676
 6813SOL    HW131901   2.586   1.958   6.075  0.7410  1.1069  0.2408
 6813SOL    HW231902   2.640   2.002   6.194  1.1764  1.1099 -0.2917
 6814SOL     OW31903   3.510   1.624  14.391  0.6599  0.1538  0.4688
 6814SOL    HW131904   3.434   1.664  14.433  1.1164  2.0345 -0.4956
 6814SOL    HW231905   3.573   1.692  14.418  0.8482 -0.5308  1.7742
 6815SOL     OW31906   1.377   1.313   5.232 -0.1073 -0.2495 -0.0532
 6815SOL    HW131907   1.360   1.368   5.156  3.3353  1.5107  0.4670
 6815SOL    HW231908   1.385   1.384   5.295 -0.5034 -0.1595 -0.1057
 6816SOL     OW31909   2.377   0.623   6.137 -0.1929  0.2057  0.4604
 6816SOL    HW131910   2.348   0.701   6.089  3.0794  0.7917 -0.5442
 6816SOL    HW231911   2.360   0.560   6.066 -0.9321  1.4751 -0.4948
 6817SOL     OW31912   1.690   2.477   5.129 -0.3191 -0.1919  0.5008
 6817SOL    HW131913   1.651   2.435   5.205 -0.2614 -0.0650  0.6004
 6817SOL    HW231914   1.779   2.499   5.158  0.0001 -0.8426  0.0278
 6818SOL     OW31915   0.220   3.617   2.171  0.3864  0.0765  0.3879
 6818SOL    HW131916   0.239   3.530   2.135  2.2041  0.0905  1.3242
 6818SOL    HW231917   0.125   3.624   2.155  0.4972 -2.2247 -1.3175
 6819SOL     OW31918   3.560   3.841   5.481 -0.0707  0.5484  0.1530
 6819SOL    HW131919   3.535   3.781   5.551  2.1817 -0.4768  0.0932
 6819SOL    HW231920   3.625   3.790   5.433  0.3935  1.0737  0.2214
 6820SOL     OW31921   3.200   2.354   2.950  0.5704  0.9468 -0.3462
 6820SOL    HW131922   3.263   2.295   2.908  3.3517  2.7361  1.3347
 6820SOL    HW231923   3.177   2.408   2.875 -1.4014  1.6088  0.7336
 6821SOL     OW31924   2.429   0.429  16.520  0.0755 -0.3745  0.5564
 6821SOL    HW131925   2.417   0.469  16.606 -0.3235 -0.5738  0.5923
 6821SOL    HW231926   2.378   0.493  16.471  1.0166  0.9056  1.2504
 6822SOL     OW31927   1.291   1.371   3.008 -0.2155  0.4787 -0.2363
 6822SOL    HW131928   1.318   1.298   3.064  1.8451  1.4688  0.0484
 6822SOL    HW231929   1.224   1.327   2.956 -1.0787  2.1124 -0.5142
 6823SOL     OW31930   4.618   3.323  12.498  0.5144 -0.4644  0.7424
 6823SOL    HW131931   4.559   3.359  12.565  0.8785 -1.0269  1.3653
 6823SOL    HW231932   4.578   3.354  12.417 -0.8070 -1.3340  1.0565
 6824SOL     OW31933   3.335   2.919   6.270  0.0936 -0.6008  0.0999
 6824SOL    HW131934   3.370   2.887   6.186  2.1675 -1.1097  1.1560
 6824SOL    HW231935   3.369   3.008   6.261 -1.6511  0.1436  0.8921
 6825SOL     OW31936   0.903   4.375  15.120 -0.2570 -0.2466  0.2788
 6825SOL    HW131937   0.936   4.300  15.070 -0.3580  0.4647 -0.8508
 6825SOL    HW231938   0.956   4.379  15.200  0.2615 -1.4920  0.0040
 6826SOL     OW31939   3.181   4.082   4.102 -0.1592 -0.0330  0.3706
 6826SOL    HW131940   3.171   4.170   4.138  1.7428  0.0828  0.6279
 6826SOL    HW231941   3.109   4.086   4.040  0.1820  1.0156  0.0429
 6827SOL     OW31942   1.549   0.556   6.702  0.1242  0.2513  0.1005
 6827SOL    HW131943   1.640   0.573   6.726 -0.4590 -0.3486  2.7214
 6827SOL    HW231944   1.534   0.468   6.737  1.5101 -0.0673 -0.1039
 6828SOL     OW31945   4.350   1.934  11.893 -0.8925 -0.3815 -0.6956
 6828SOL    HW131946   4.263   1.913  11.859 -0.5048  0.4303 -2.1683
 6828SOL    HW231947   4.383   1.993  11.825 -0.7213  0.8285  0.4478
 6829SOL     OW31948   2.985   0.300   5.258  0.1040  0.3399  0.1538
 6829SOL    HW131949   2.951   0.334   5.341  0.5530  2.2605 -0.4402
 6829SOL    HW231950   2.937   0.218   5.252 -0.8607  0.9792 -0.8814
 6830SOL     OW31951   4.289   0.938   5.834 -0.7126 -0.4200 -0.0224
 6830SOL    HW131952   4.307   0.858   5.785  0.7163 -0.0183 -0.1475
 6830SOL    HW231953   4.205   0.912   5.872 -1.3344  1.0838 -0.3595
 6831SOL     OW31954   2.374   1.289   3.470  0.2102  0.1230  0.6368
 6831SOL    HW131955   2.409   1.378   3.471  1.1409 -0.2307 -0.5545
 6831SOL    HW231956   2.365   1.279   3.375  0.3082 -1.5209  0.8080
 6832SOL     OW31957   2.880   2.845   2.629  0.0243 -0.0846  0.8068
 6832SOL    HW131958   2.785   2.837   2.635 -0.2459  2.7144  0.3905
 6832SOL    HW231959   2.927   2.766   2.655  0.5958 -0.5728 -1.6606
 6833SOL     OW31960   4.634   2.315  12.437  0.0162  0.2647 -0.5046
 6833SOL    HW131961   4.696   2.243  12.421  0.2396  0.4704 -0.5684
 6833SOL    HW231962   4.700   2.381  12.416 -0.0821  0.8970  1.2061
 6834SOL     OW31963   4.512   2.790   1.836 -0.3804 -0.0813  0.4594
 6834SOL    HW131964   4.479   2.872   1.872 -1.4410  0.4004 -1.6001
 6834SOL    HW231965   4.454   2.786   1.760  0.1602  0.5595  0.0138
 6835SOL     OW31966   4.207   1.612   4.625  0.2474  0.0036 -0.3823
 6835SOL    HW131967   4.254   1.613   4.708  0.4733 -0.0543 -0.5107
 6835SOL    HW231968   4.119   1.630   4.659  1.2720  1.0418  1.6787
 6836SOL     OW31969   2.743   3.968   8.404  0.5956  0.3065 -0.3142
 6836SOL    HW131970   2.791   3.908   8.347 -1.2168  0.7911 -2.3905
 6836SOL    HW231971   2.710   3.913   8.475 -0.0268 -1.9199 -2.2867
 6837SOL     OW31972   2.839   1.954   1.702  0.1860  0.1648  0.3032
 6837SOL    HW131973   2.930   1.950   1.732  0.3512  0.9402 -0.1195
 6837SOL    HW231974   2.831   2.049   1.702  1.6904  0.2988  1.1463
 6838SOL     OW31975   3.274   4.669   6.546  0.0986  0.3778 -0.4468
 6838SOL    HW131976   3.309   4.653   6.634  1.5489  2.8279 -0.5909
 6838SOL    HW231977   3.233   4.583   6.535 -1.9363  1.1027  1.6992
 6839SOL     OW31978   1.865   2.051   8.300 -0.0850  0.1915  0.3443
 6839SOL    HW131979   1.856   2.010   8.387 -0.1566 -0.2477  0.1321
 6839SOL    HW231980   1.773   2.051   8.273  0.3381 -1.2332 -1.1111
 6840SOL     OW31981   1.795   1.998  11.331 -0.4272 -0.6227 -0.0541
 6840SOL    HW131982   1.844   1.917  11.319  0.0653 -0.2355 -0.6739
 6840SOL    HW231983   1.725   1.973  11.392  0.7081 -1.2098  1.0081
 6841SOL     OW31984   2.700   0.309   3.771 -0.4611  0.2860  0.2950
 6841SOL    HW131985   2.716   0.214   3.771  0.5151  0.4697  2.7952
 6841SOL    HW231986   2.785   0.339   3.740 -0.1816 -2.0873 -1.2430
 6842SOL     OW31987   0.254   2.345   5.248 -0.3105 -0.8001  0.1497
 6842SOL    HW131988   0.162   2.347   5.220 -1.1422 -2.3493  2.7682
 6842SOL    HW231989   0.295   2.369   5.165  0.5123  1.1182  1.1085
 6843SOL     OW31990   0.146   2.185   1.276 -0.0236 -0.2893  0.4698
 6843SOL    HW131991   0.213   2.168   1.343  1.1772  1.6804 -0.2268
 6843SOL    HW231992   0.189   2.165   1.193  1.7029  0.9057  1.0754
 6844SOL     OW31993   4.008   2.138   6.138  0.5330  0.5644  0.3319
 6844SOL    HW131994   3.925   2.104   6.172  0.1122  0.9365 -0.3199
 6844SOL    HW231995   4.011   2.112   6.045 -0.6044  1.4515  0.0561
 6845SOL     OW31996   2.162   4.072   1.735  0.0096  0.1776 -0.1494
 6845SOL    HW131997   2.088   4.071   1.795  0.5580  0.5347  0.5196
 6845SOL    HW231998   2.148   3.986   1.693  1.8188 -0.8586  1.3638
 6846SOL     OW31999   2.573   0.340   1.924 -0.8765 -0.1606  0.0078
 6846SOL    HW132000   2.494   0.288   1.905  0.5989 -2.1247 -0.6938
 6846SOL    HW232001   2.528   0.421   1.945 -1.8423 -0.6315 -0.2263
 6847SOL     OW32002   0.951   1.369   1.194 -0.7163  0.1310 -0.1643
 6847SOL    HW132003   0.935   1.281   1.159  0.7877 -0.2903  0.2270
 6847SOL    HW232004   1.039   1.394   1.168 -0.8737  0.0243 -0.7860
 6848SOL     OW32005   2.953   3.770   7.083 -0.1822 -0.3022  0.4399
 6848SOL    HW132006   3.026   3.771   7.144 -1.9042 -0.0702  2.4931
 6848SOL    HW232007   2.999   3.738   7.005  0.4552 -1.0892  1.1453
 6849SOL     OW32008   0.234   0.358   8.611  0.4233  0.5257  0.1096
 6849SOL    HW132009   0.314   0.308   8.622 -0.4678 -1.0701 -0.7282
 6849SOL    HW232010   0.252   0.425   8.545  0.1781  0.0638 -0.4219
 6850SOL     OW32011   3.501   3.759   8.556  0.4332  0.3048  0.2608
 6850SOL    HW132012   3.463   3.803   8.632 -1.2985  2.0097 -1.5830
 6850SOL    HW232013   3.445   3.682   8.551  0.0667  0.5695  0.3262
 6851SOL     OW32014   2.772   1.557   5.056 -0.0750 -0.1846  0.7153
 6851SOL    HW132015   2.683   1.533   5.029  0.6821 -0.4920 -1.5195
 6851SOL    HW232016   2.759   1.624   5.123  0.5283  1.3408 -0.6892
 6852SOL     OW32017   4.300   0.603  13.365 -0.0677 -0.5094  0.2362
 6852SOL    HW132018   4.328   0.596  13.274  0.0487 -0.0688  0.2385
 6852SOL    HW232019   4.381   0.594  13.416  0.4757  1.3589 -0.2798
 6853SOL     OW32020   4.006   0.378   8.939  0.2981 -0.3140 -0.0174
 6853SOL    HW132021   3.991   0.392   9.033  0.4273  1.4354 -0.2588
 6853SOL    HW232022   3.991   0.469   8.913 -0.7339 -1.1622 -2.3639
 6854SOL     OW32023   3.745   4.192   6.406 -0.0593  0.5958  0.4849
 6854SOL    HW132024   3.678   4.212   6.471 -1.0872  0.7006 -0.6078
 6854SOL    HW232025   3.694   4.179   6.326  0.0922  0.3874  0.4198
 6855SOL     OW32026   2.589   2.055   7.284  0.1671  0.0006 -0.1869
 6855SOL    HW132027   2.537   1.979   7.261  1.7042 -0.3691 -2.4361
 6855SOL    HW232028   2.571   2.118   7.214 -0.7862 -0.7265 -0.5938
 6856SOL     OW32029   1.632   0.885   8.263  0.5831  0.1508  0.4700
 6856SOL    HW132030   1.690   0.959   8.281 -0.2327  0.3509  2.2320
 6856SOL    HW232031   1.616   0.852   8.351  1.2335 -1.4018 -0.0060
 6857SOL     OW32032   2.041   3.459   0.324 -0.0322 -0.4864  0.2824
 6857SOL    HW132033   2.091   3.522   0.376 -1.6192  1.0669 -0.0802
 6857SOL    HW232034   1.955   3.500   0.325  0.4161  0.4547 -0.4462
 6858SOL     OW32035   3.368   4.591  14.661 -0.5890 -0.2305 -0.2047
 6858SOL    HW132036   3.337   4.534  14.591 -2.1915  0.7029 -0.2591
 6858SOL    HW232037   3.444   4.641  14.631 -1.4948  0.4578 -1.4203
 6859SOL     OW32038   4.190   0.147  12.647 -0.0969  0.2941  0.6851
 6859SOL    HW132039   4.265   0.120  12.701  0.1834 -0.5878 -0.1366
 6859SOL    HW232040   4.129   0.165  12.718 -0.8109 -0.6644  0.3109
 6860SOL     OW32041   0.405   1.383  10.898  0.0176  0.5746  0.5161
 6860SOL    HW132042   0.441   1.364  10.811 -1.3648  0.2630  0.0058
 6860SOL    HW232043   0.412   1.299  10.942 -2.3898  0.6888  1.1030
 6861SOL     OW32044   1.846   1.607  13.341  0.3695  0.1060 -0.0522
 6861SOL    HW132045   1.900   1.533  13.315  0.6320  0.2310  0.1356
 6861SOL    HW232046   1.894   1.641  13.416  0.0620 -0.9681  0.6209
 6862SOL     OW32047   4.363   2.822   2.723  0.0388  0.1685  0.1152
 6862SOL    HW132048   4.386   2.844   2.814 -0.7496 -1.3114  0.6678
 6862SOL    HW232049   4.276   2.784   2.722  0.2882 -0.4792  2.9162
 6863SOL     OW32050   4.502   2.162   4.071 -0.2922 -0.2849 -0.0862
 6863SOL    HW132051   4.545   2.245   4.049  1.0392 -0.6613  1.0722
 6863SOL    HW232052   4.411   2.189   4.080 -1.1096 -2.7329 -1.0804
 6864SOL     OW32053   2.338   2.889  10.484 -0.5308  0.0959 -0.3087
 6864SOL    HW132054   2.249   2.873  10.515 -0.3338  0.4029  0.3992
 6864SOL    HW232055   2.388   2.856  10.558 -0.4931  0.1895 -0.2925
 6865SOL     OW32056   1.059   1.487  15.445  0.3473 -0.1404  0.5201
 6865SOL    HW132057   1.009   1.440  15.513 -0.0788  1.8829  1.6195
 6865SOL    HW232058   1.124   1.432  15.403 -0.0132  0.7213 -1.1865
 6866SOL     OW32059   0.916   1.191   5.518  0.2373  0.4504  0.3075
 6866SOL    HW132060   0.910   1.123   5.585 -1.7466 -0.9143 -1.2921
 6866SOL    HW232061   1.011   1.207   5.526  0.4298 -1.3235  1.6969
 6867SOL     OW32062   3.026   0.288   9.196  0.2383 -0.1255  0.1097
 6867SOL    HW132063   3.050   0.284   9.103  0.7475  0.3284  0.2194
 6867SOL    HW232064   2.964   0.215   9.196  1.3356 -1.0604  0.2810
 6868SOL     OW32065   1.788   2.875   0.115 -0.7198  0.0669  0.7888
 6868SOL    HW132066   1.703   2.858   0.073 -1.8426  5.6261  0.8821
 6868SOL    HW232067   1.780   2.963   0.150  3.4477  0.6014  0.3464
 6869SOL     OW32068   3.737   0.436  15.066  0.2777  0.1926  0.2853
 6869SOL    HW132069   3.762   0.472  14.980  0.0204 -0.4400 -0.0543
 6869SOL    HW232070   3.644   0.455  15.070  0.7374  2.3959  0.5229
 6870SOL     OW32071   4.644   1.766   6.926 -0.6125 -0.4154 -0.1584
 6870SOL    HW132072   4.632   1.689   6.982  0.1940  0.0105  0.6102
 6870SOL    HW232073   0.007   1.779   6.961 -1.5215  0.6324  1.7475
 6871SOL     OW32074   2.938   0.092  14.021 -0.8894 -0.3485 -0.0848
 6871SOL    HW132075   2.862   0.117  14.075 -1.4752 -1.3585 -0.4476
 6871SOL    HW232076   3.004   0.116  14.086 -2.1875 -0.0281  1.1392
 6872SOL     OW32077   1.936   3.249  16.488 -0.3956 -0.4789  0.1286
 6872SOL    HW132078   1.976   3.275  16.405  2.4611 -0.6743  1.4671
 6872SOL    HW232079   1.844   3.255  16.460 -0.2107  0.6925 -0.2359
 6873SOL     OW32080   4.304   3.689   2.025  0.4521  0.4461 -0.9979
 6873SOL    HW132081   4.239   3.630   1.987  0.0185  1.3013 -1.5787
 6873SOL    HW232082   4.303   3.762   1.963  1.1415  1.2981 -0.0022
 6874SOL     OW32083   1.027   2.067   8.908  0.3032  0.1039  0.5841
 6874SOL    HW132084   0.939   2.094   8.882  0.7349  0.8929 -0.0459
 6874SOL    HW232085   1.002   1.978   8.933 -0.7124  0.2517  0.0965
 6875SOL     OW32086   2.530   1.978   2.962 -0.0408  0.3144  0.4952
 6875SOL    HW132087   2.462   2.022   3.013 -2.0571 -1.1520 -0.9328
 6875SOL    HW232088   2.496   1.989   2.874  0.6969 -1.3475  0.0015
 6876SOL     OW32089   4.299   1.781   5.592 -0.5419 -0.2642  0.3423
 6876SOL    HW132090   4.330   1.811   5.507 -2.1192 -1.1870 -0.5694
 6876SOL    HW232091   4.372   1.795   5.652  1.1937 -1.9796 -1.3862
 6877SOL     OW32092   2.212   4.609   4.964 -0.8586 -0.0348 -0.4790
 6877SOL    HW132093   2.184   4.638   5.051  1.3031  2.1753 -0.5417
 6877SOL    HW232094   2.215   4.682   4.902  0.6241  2.2724  2.3072
 6878SOL     OW32095   2.789   3.898  15.930  0.1138 -0.3156 -0.0969
 6878SOL    HW132096   2.762   3.859  15.846 -3.1408  0.1473  0.7351
 6878SOL    HW232097   2.825   3.984  15.910  0.9419 -0.7666 -0.5652
 6879SOL     OW32098   4.350   2.289   1.202  0.0687 -0.0154  0.0352
 6879SOL    HW132099   4.328   2.380   1.182  0.6987  0.0806 -0.2120
 6879SOL    HW232100   4.360   2.235   1.123 -1.4612  2.3586 -1.8125
 6880SOL     OW32101   4.565   3.702  12.398  0.1381 -0.3822  0.4516
 6880SOL    HW132102   4.511   3.758  12.454  0.5997 -0.3433  0.8529
 6880SOL    HW232103   4.615   3.763  12.345 -0.2722 -1.1658 -0.8504
 6881SOL     OW32104   3.367   4.629   4.273  0.6051 -0.2253 -0.0127
 6881SOL    HW132105   3.305   4.639   4.345  0.5056 -1.2846  0.0429
 6881SOL    HW232106   3.305   4.596   4.208  0.0029  0.6684  0.0989
 6882SOL     OW32107   0.858   2.923   2.197 -0.1281 -1.1035  0.3621
 6882SOL    HW132108   0.855   2.934   2.292 -0.5420 -0.0551  0.2221
 6882SOL    HW232109   0.779   2.871   2.183 -0.4402  0.0495 -2.0842
 6883SOL     OW32110   4.081   1.440   5.311  0.6839  0.2294 -0.8233
 6883SOL    HW132111   4.078   1.507   5.243  0.0201 -0.2871 -1.3057
 6883SOL    HW232112   4.122   1.478   5.389 -1.7744 -1.4327  1.2624
 6884SOL     OW32113   0.252   2.835   4.783 -0.0670  0.2233  0.7450
 6884SOL    HW132114   0.346   2.820   4.787  0.2975  2.3298  0.1913
 6884SOL    HW232115   0.235   2.896   4.855 -0.4421  0.3053  0.5872
 6885SOL     OW32116   3.438   4.723   6.319  0.0537  0.0268 -0.8016
 6885SOL    HW132117   3.378   4.685   6.255 -0.3398  0.0964 -0.4755
 6885SOL    HW232118   3.396   4.702   6.403 -0.9843 -0.5807 -1.4709
 6886SOL     OW32119   2.122   0.538   2.156 -0.3977 -0.4178 -0.4943
 6886SOL    HW132120   2.078   0.514   2.074 -1.8726  0.9460 -0.1132
 6886SOL    HW232121   2.068   0.614   2.181 -0.9570 -0.2608 -2.1816
 6887SOL     OW32122   1.701   1.233   7.169  0.0869  0.3801  0.0350
 6887SOL    HW132123   1.723   1.311   7.219  0.7055 -0.5702  1.2342
 6887SOL    HW232124   1.605   1.240   7.172  0.1476 -0.2552  2.8399
 6888SOL     OW32125   1.262   3.894   4.305  0.2000  0.7750 -0.3732
 6888SOL    HW132126   1.348   3.927   4.331  0.2605  0.6254 -0.3819
 6888SOL    HW232127   1.234   3.854   4.388 -1.6636  2.1328 -0.3408
 6889SOL     OW32128   1.425   2.990   5.908 -0.0914  0.3956 -0.3659
 6889SOL    HW132129   1.434   2.899   5.936  0.4509  0.1264 -1.4039
 6889SOL    HW232130   1.395   3.047   5.978  0.2926  0.1568 -0.0086
 6890SOL     OW32131   2.517   4.105  10.915  0.0137  0.4022  0.3735
 6890SOL    HW132132   2.553   4.016  10.918  0.2909  0.4765 -0.6731
 6890SOL    HW232133   2.591   4.152  10.953 -0.4433  0.6603  0.9452
 6891SOL     OW32134   0.322   2.680   1.303 -0.0289  0.1652  1.1442
 6891SOL    HW132135   0.265   2.670   1.379 -0.5989  0.5946  0.7734
 6891SOL    HW232136   0.404   2.685   1.353 -0.1266 -0.5608  1.3717
 6892SOL     OW32137   2.876   0.228   7.549  0.3845 -0.0594 -0.8642
 6892SOL    HW132138   2.874   0.258   7.640  1.8673  1.5811 -1.3739
 6892SOL    HW232139   2.949   0.274   7.508  0.0214  1.2179 -0.0825
 6893SOL     OW32140   3.357   2.660   2.570  0.4650  1.2127 -0.0369
 6893SOL    HW132141   3.401   2.576   2.582  0.0213  0.7996 -1.3310
 6893SOL    HW232142   3.431   2.706   2.532  0.4863  0.7781 -0.5084
 6894SOL     OW32143   0.870   3.739   8.723  0.1084  0.0477  0.1578
 6894SOL    HW132144   0.963   3.717   8.731  0.9760  2.3871 -3.1015
 6894SOL    HW232145   0.861   3.793   8.801 -1.7073 -1.9194  1.3054
 6895SOL     OW32146   3.348   0.019   8.240  0.0357  0.0844 -0.0803
 6895SOL    HW132147   3.443   0.029   8.241  0.0939  0.0293 -3.2994
 6895SOL    HW232148   3.329   0.003   8.332 -2.1995 -1.1024 -0.7392
 6896SOL     OW32149   0.089   1.216  10.124  0.6443 -0.4809 -0.2529
 6896SOL    HW132150   0.069   1.297  10.172  1.9511 -0.8327  0.8779
 6896SOL    HW232151   0.068   1.246  10.035  1.6401  3.5417  0.8332
 6897SOL     OW32152   2.670   2.621  11.688  0.1617  0.0180  0.2962
 6897SOL    HW132153   2.747   2.625  11.631  0.6556  0.7486  0.9891
 6897SOL    HW232154   2.592   2.651  11.643 -1.8317 -1.3567  2.8433
 6898SOL     OW32155   3.319   1.517   8.889  0.4201  0.1488 -0.8541
 6898SOL    HW132156   3.336   1.608   8.911 -0.4388  0.2076 -0.4108
 6898SOL    HW232157   3.273   1.528   8.806  1.3688 -1.8818 -1.6334
 6899SOL     OW32158   4.612   2.700  17.174  0.2753 -0.3723  0.3131
 6899SOL    HW132159   4.579   2.648  17.101 -1.9149 -1.2636  1.9213
 6899SOL    HW232160   4.575   2.656  17.251  0.6608 -0.6953  0.3150
 6900SOL     OW32161   0.864   0.448  14.756 -0.4871  0.1283  0.0254
 6900SOL    HW132162   0.852   0.514  14.687 -1.9415  0.1986  0.3448
 6900SOL    HW232163   0.901   0.491  14.832 -0.7791 -0.4678  0.5045
 6901SOL     OW32164   0.465   3.275   8.505 -0.3617 -0.1536 -0.4443
 6901SOL    HW132165   0.411   3.202   8.475 -1.1961  0.0551  0.5430
 6901SOL    HW232166   0.547   3.235   8.474 -0.1078 -0.0132  0.0464
 6902SOL     OW32167   1.158   2.028  11.695 -0.4057  0.5947  0.0375
 6902SOL    HW132168   1.103   2.032  11.617 -0.2674  0.1513 -0.0824
 6902SOL    HW232169   1.090   2.040  11.762  0.9870 -1.5958  1.8545
 6903SOL     OW32170   0.015   0.470  17.288 -0.0362 -0.1991  0.0240
 6903SOL    HW132171   4.687   0.391  17.288 -0.0705 -0.1658  0.8726
 6903SOL    HW232172   0.078   0.445  17.220  0.4482  0.6332  0.1653
 6904SOL     OW32173   4.212   2.021   0.343 -0.3256 -0.5708 -0.5641
 6904SOL    HW132174   4.165   2.105   0.341  0.0863 -0.3121  0.8123
 6904SOL    HW232175   4.164   1.983   0.269 -0.3016 -0.9269 -0.3968
 6905SOL     OW32176   3.022   2.069   6.020  0.0586  0.3352 -0.0202
 6905SOL    HW132177   3.026   1.974   6.015  0.6549  0.2901  1.3631
 6905SOL    HW232178   3.102   2.093   5.971 -0.9941  2.0872 -0.8898
 6906SOL     OW32179   4.099   0.187   2.972 -0.0133 -0.2302  0.2302
 6906SOL    HW132180   4.130   0.136   3.047  1.5855  0.4714  0.0636
 6906SOL    HW232181   4.079   0.125   2.901  0.2100 -2.5111  2.1566
 6907SOL     OW32182   3.513   0.946  10.193  0.2896  0.1046  0.3339
 6907SOL    HW132183   3.539   1.010  10.127  0.8400  1.4350  1.8348
 6907SOL    HW232184   3.545   0.973  10.279  0.2481 -1.1889  0.7453
 6908SOL     OW32185   0.269   4.259   5.697  0.3004 -0.3487  0.5282
 6908SOL    HW132186   0.298   4.350   5.693  1.2825 -0.7427 -1.1569
 6908SOL    HW232187   0.198   4.278   5.635  0.8409  0.2147  0.0854
 6909SOL     OW32188   2.300   0.214   6.458  0.2051 -0.5240  0.2802
 6909SOL    HW132189   2.310   0.297   6.413  0.1248 -0.9628 -0.5461
 6909SOL    HW232190   2.342   0.233   6.542  1.2410  1.5673 -0.7214
 6910SOL     OW32191   0.890   2.229   4.373  0.6789 -0.4357 -0.3074
 6910SOL    HW132192   0.817   2.172   4.347  0.9316 -0.1282 -1.6734
 6910SOL    HW232193   0.894   2.299   4.308 -1.3114  0.3688  0.4100
 6911SOL     OW32194   4.384   3.191  13.072 -0.2425 -0.4165 -0.0763
 6911SOL    HW132195   4.294   3.222  13.079 -0.4741 -0.9357 -0.6703
 6911SOL    HW232196   4.375   3.099  13.098  0.2656 -0.4065  0.1289
 6912SOL     OW32197   3.423   2.209   1.590  0.0903  0.9175 -0.4694
 6912SOL    HW132198   3.494   2.229   1.652  2.1090 -3.1988 -1.4604
 6912SOL    HW232199   3.421   2.113   1.587 -1.8985  0.9529 -0.4022
 6913SOL     OW32200   2.196   3.622  13.550 -0.2569 -0.0318  0.1613
 6913SOL    HW132201   2.218   3.658  13.636  0.6363 -3.7632  1.4604
 6913SOL    HW232202   2.280   3.577  13.543 -0.4965 -0.5673  0.7572
 6914SOL     OW32203   4.596   3.407  17.635  0.3592  0.5119 -0.2978
 6914SOL    HW132204   4.571   3.463   0.004  1.9896  0.5683  0.1933
 6914SOL    HW232205   4.573   3.320  17.668  0.4013  0.7389  0.3399
 6915SOL     OW32206   2.122   1.303  11.943  0.0811 -0.1988  0.5349
 6915SOL    HW132207   2.122   1.391  11.903  0.8968 -0.9473 -1.1041
 6915SOL    HW232208   2.031   1.272  11.937 -0.8671  2.6042  0.1906
 6916SOL     OW32209   0.256   0.035  10.992  0.0069  0.0050 -0.4876
 6916SOL    HW132210   0.177   0.076  11.026  0.8130  0.4627  0.8644
 6916SOL    HW232211   0.259   4.678  11.041 -1.4769  0.0180 -0.3764
 6917SOL     OW32212   2.756   1.758   5.250  0.0269 -0.6074  0.2941
 6917SOL    HW132213   2.774   1.846   5.218  0.5522 -0.5130  0.8590
 6917SOL    HW232214   2.762   1.773   5.344  3.5405  3.0541 -0.5292
 6918SOL     OW32215   0.540   0.042  13.520  0.3576 -0.5761 -0.6704
 6918SOL    HW132216   0.499   4.709  13.457 -0.9069  0.0232 -0.4043
 6918SOL    HW232217   0.490   0.032  13.601  0.2850 -0.1994 -0.6669
 6919SOL     OW32218   4.367   3.232   2.976  0.7480 -0.2984 -0.2665
 6919SOL    HW132219   4.447   3.181   2.960  0.6579 -0.4378 -0.2689
 6919SOL    HW232220   4.307   3.182   2.920 -0.2649 -0.0232  0.5727
 6920SOL     OW32221   0.161   1.919   4.161 -0.4049  0.2432 -0.5551
 6920SOL    HW132222   0.079   1.878   4.185 -0.6991  0.0265 -1.9166
 6920SOL    HW232223   0.140   1.908   4.068 -0.3352 -0.2170 -0.5165
 6921SOL     OW32224   2.009   1.387   8.185  0.0220  0.8450 -0.5918
 6921SOL    HW132225   2.022   1.452   8.254  1.1801  1.9705 -1.8750
 6921SOL    HW232226   2.087   1.336   8.208 -0.8425  0.4702  1.5394
 6922SOL     OW32227   4.425   1.105  16.263 -0.1051 -0.5108  0.2424
 6922SOL    HW132228   4.374   1.185  16.255 -3.1990 -2.3171  1.5994
 6922SOL    HW232229   4.514   1.139  16.260 -0.3787  0.3239  1.3675
 6923SOL     OW32230   0.385   1.392   0.081  0.2206 -0.6098 -0.5260
 6923SOL    HW132231   0.351   1.331   0.146  1.5124  1.3551  1.9829
 6923SOL    HW232232   0.300   1.428   0.055 -0.0098  0.6604  2.0691
 6924SOL     OW32233   1.567   2.783   4.270  0.9309  0.6169  0.6408
 6924SOL    HW132234   1.553   2.867   4.315  0.0131  0.9470 -0.2572
 6924SOL    HW232235   1.482   2.787   4.226  1.6724  0.6563 -0.7541
 6925SOL     OW32236   4.716   2.011  13.891 -0.2215  0.3324  0.0976
 6925SOL    HW132237   0.026   1.973  13.971  2.2573 -1.0243 -1.6739
 6925SOL    HW232238   0.019   1.948  13.825 -1.1413  0.4512 -0.4210
 6926SOL     OW32239   4.033   3.223   5.820 -0.2719  0.2169  0.1510
 6926SOL    HW132240   3.955   3.272   5.847 -0.3681  0.6228 -0.8538
 6926SOL    HW232241   4.069   3.273   5.746  0.5985  0.4184  0.7079
 6927SOL     OW32242   0.142   4.104   7.270 -0.0467 -0.0530  0.4354
 6927SOL    HW132243   0.209   4.156   7.226  0.3369 -0.7038  0.2537
 6927SOL    HW232244   0.094   4.176   7.311  2.4116  0.9230  1.6601
 6928SOL     OW32245   1.538   2.440   9.697 -0.0984  0.2790  0.4614
 6928SOL    HW132246   1.515   2.347   9.693  1.0276  0.0025  0.2920
 6928SOL    HW232247   1.553   2.459   9.604 -0.8899 -1.6233 -0.0639
 6929SOL     OW32248   0.582   3.955   3.825  0.6749  0.5412 -0.1979
 6929SOL    HW132249   0.656   3.999   3.868  0.3652  1.1305 -0.2644
 6929SOL    HW232250   0.501   4.005   3.833  1.1532  0.9461  2.1152
 6930SOL     OW32251   3.305   0.441   0.310  0.3844 -0.1515 -0.1774
 6930SOL    HW132252   3.234   0.487   0.355 -0.1524 -0.6220 -0.5561
 6930SOL    HW232253   3.275   0.351   0.319 -1.0842  0.1067 -2.6179
 6931SOL     OW32254   1.075   0.214   2.570  0.0978 -0.2692 -0.2162
 6931SOL    HW132255   1.046   0.130   2.605 -0.4845  0.1237  0.2569
 6931SOL    HW232256   1.116   0.181   2.490 -0.0726  2.5315 -1.4711
 6932SOL     OW32257   0.188   0.825   7.562 -0.2034 -0.7152  0.6901
 6932SOL    HW132258   0.209   0.866   7.477 -2.2697 -3.0802 -0.9470
 6932SOL    HW232259   0.272   0.809   7.606  0.4117 -0.5612 -0.4178
 6933SOL     OW32260   2.189   3.557  16.209  0.2197 -0.1420 -0.0732
 6933SOL    HW132261   2.284   3.565  16.206  0.3293 -0.8050  1.8223
 6933SOL    HW232262   2.167   3.649  16.221  1.0555 -0.0297  0.6292
 6934SOL     OW32263   3.794   1.230  14.002  0.2567 -0.2607  0.3080
 6934SOL    HW132264   3.737   1.265  13.933  1.6932 -1.9480 -1.7414
 6934SOL    HW232265   3.742   1.240  14.082 -0.3247 -1.1874  0.0498
 6935SOL     OW32266   1.461   0.262   9.481 -0.0375 -0.4085  0.0608
 6935SOL    HW132267   1.378   0.217   9.465 -0.0221  0.4318 -2.4317
 6935SOL    HW232268   1.502   0.230   9.400  0.9697 -1.4531  0.9838
 6936SOL     OW32269   0.054   1.226   1.044 -0.2748 -0.1842 -0.1322
 6936SOL    HW132270   0.128   1.173   1.074  1.1041  1.1000 -1.3087
 6936SOL    HW232271   0.102   1.299   1.005  0.9713 -1.7071 -1.4712
 6937SOL     OW32272   1.520   3.779  11.903 -0.1000 -0.6638 -0.0330
 6937SOL    HW132273   1.588   3.715  11.883  0.5222  0.1563 -0.5621
 6937SOL    HW232274   1.506   3.753  11.994 -1.6398 -0.1300 -0.1226
 6938SOL     OW32275   1.341   3.147   1.679  0.0014  0.0001  0.7376
 6938SOL    HW132276   1.268   3.120   1.624 -0.8504  0.1837  1.7910
 6938SOL    HW232277   1.347   3.239   1.653  1.3387 -0.7593 -1.6127
 6939SOL     OW32278   2.434   1.208   5.660 -0.2448  0.7122 -0.0070
 6939SOL    HW132279   2.451   1.152   5.736 -0.1388 -1.1748 -1.4318
 6939SOL    HW232280   2.449   1.147   5.588  0.7762 -2.2864  2.7635
 6940SOL     OW32281   1.930   4.408  12.158 -0.3650 -0.0144 -0.9302
 6940SOL    HW132282   1.932   4.352  12.081 -0.9771 -1.4872  0.1268
 6940SOL    HW232283   1.935   4.493  12.113  2.6722  1.1991  1.6308
 6941SOL     OW32284   2.221   3.480   9.648  0.6371  0.9882 -0.3205
 6941SOL    HW132285   2.192   3.391   9.626  2.5833 -0.6291  3.5142
 6941SOL    HW232286   2.141   3.528   9.670  1.8309  2.6195  0.4547
 6942SOL     OW32287   2.631   4.067   9.096 -0.0053  0.1687  0.0416
 6942SOL    HW132288   2.592   4.015   9.166  3.0708 -1.7622  0.2978
 6942SOL    HW232289   2.720   4.083   9.128  0.4328  1.1141 -1.6890
 6943SOL     OW32290   2.227   0.280   5.880 -0.3099  0.0502  0.2531
 6943SOL    HW132291   2.159   0.249   5.821 -0.4826  0.9195 -0.0069
 6943SOL    HW232292   2.199   0.368   5.905  0.4114  0.3949 -0.1623
 6944SOL     OW32293   0.778   0.412   9.803  0.1504 -0.0460 -0.2764
 6944SOL    HW132294   0.691   0.449   9.813  0.4353 -0.0232  2.1558
 6944SOL    HW232295   0.759   0.325   9.838 -0.2792 -0.2818 -1.1200
 6945SOL     OW32296   3.100   3.408   7.809  0.6288  0.3961  0.7100
 6945SOL    HW132297   3.135   3.323   7.834 -2.1695 -1.5595 -1.9494
 6945SOL    HW232298   3.023   3.370   7.766  0.3485  1.4454  0.2596
 6946SOL     OW32299   0.069   0.492  12.334 -0.6702  0.4341 -0.4109
 6946SOL    HW132300   0.100   0.403  12.320 -0.3043  0.4966  0.0074
 6946SOL    HW232301   0.044   0.508  12.425  1.1023  1.1722 -0.0480
 6947SOL     OW32302   4.330   3.438   5.733 -0.0477 -0.2354 -0.7235
 6947SOL    HW132303   4.398   3.371   5.724  0.6492  0.5774 -1.5396
 6947SOL    HW232304   4.359   3.497   5.802  0.0980 -3.9082  2.3121
 6948SOL     OW32305   4.296   0.623   3.069 -0.3985  0.0370 -0.5078
 6948SOL    HW132306   4.228   0.567   3.030  0.1419 -0.6148 -0.5130
 6948SOL    HW232307   4.247   0.689   3.119 -0.6942 -0.2242 -0.4547
 6949SOL     OW32308   0.090   0.809   1.159  0.0582 -0.6074 -0.2557
 6949SOL    HW132309   0.073   0.737   1.219 -1.1168  1.0402  1.3686
 6949SOL    HW232310   0.035   0.877   1.199  0.7795 -0.0814 -0.1558
 6950SOL     OW32311   3.866   1.558  16.576  0.0629 -0.1520 -0.9184
 6950SOL    HW132312   3.854   1.541  16.669  0.3694  0.4512 -0.7707
 6950SOL    HW232313   3.878   1.653  16.579 -0.9048  0.0657 -3.4651
 6951SOL     OW32314   4.405   2.107   2.532  0.1790 -0.0187  0.1705
 6951SOL    HW132315   4.315   2.131   2.508  0.0386 -1.3492 -0.6256
 6951SOL    HW232316   4.395   2.050   2.608  0.2865 -1.0562 -0.6053
 6952SOL     OW32317   1.213   0.982   7.324 -0.7546 -0.1700  0.0777
 6952SOL    HW132318   1.308   0.995   7.329 -0.8616  0.0789  1.6110
 6952SOL    HW232319   1.185   1.050   7.263 -0.2242  0.6121  0.7031
 6953SOL     OW32320   1.351   1.071   3.086 -0.4758 -0.0368 -0.5997
 6953SOL    HW132321   1.422   1.059   3.023 -0.4961 -0.2316 -0.5837
 6953SOL    HW232322   1.391   1.085   3.172 -1.5486 -1.3963  0.1056
 6954SOL     OW32323   0.787   0.617   6.547  0.0814 -0.3805  0.2287
 6954SOL    HW132324   0.876   0.631   6.580 -0.7676  1.0842  1.8871
 6954SOL    HW232325   0.743   0.672   6.612 -2.4844 -1.1523 -0.8956
 6955SOL     OW32326   2.908   3.285   2.299  0.3740  0.3135  0.2676
 6955SOL    HW132327   2.856   3.360   2.328 -1.4633 -0.0075 -2.1787
 6955SOL    HW232328   2.838   3.229   2.266  1.8558 -0.6427 -1.2452
 6956SOL     OW32329   2.091   3.533   6.026  0.1761 -0.3310 -0.5360
 6956SOL    HW132330   2.002   3.513   6.056  0.6419  0.2335  1.2470
 6956SOL    HW232331   2.095   3.448   5.982  0.8338 -0.4769 -0.2006
 6957SOL     OW32332   4.715   2.616   3.824  0.4036 -0.0684 -0.6847
 6957SOL    HW132333   0.015   2.629   3.733  1.2156  2.9024 -0.0287
 6957SOL    HW232334   0.059   2.668   3.863 -1.5906  1.1847  1.2173
 6958SOL     OW32335   0.920   3.761   4.461 -0.1600 -0.5679  0.0597
 6958SOL    HW132336   0.941   3.672   4.489  1.9447  0.4289  1.6124
 6958SOL    HW232337   0.850   3.751   4.397 -1.1700 -1.6698  1.3382
 6959SOL     OW32338   3.290   1.014   5.724  0.5017  0.4980  0.8287
 6959SOL    HW132339   3.344   0.935   5.722 -1.5965 -0.9645  2.2444
 6959SOL    HW232340   3.348   1.074   5.677 -0.3452 -0.2885 -1.2126
 6960SOL     OW32341   0.797   0.643   3.454  0.0377 -0.8106  0.0637
 6960SOL    HW132342   0.742   0.649   3.532 -2.6507  1.5499 -2.0273
 6960SOL    HW232343   0.882   0.663   3.494 -0.4053  1.0359  0.0698
 6961SOL     OW32344   0.821   0.859   8.871  0.2070 -0.4200  0.2839
 6961SOL    HW132345   0.909   0.879   8.903  0.3815  1.6850 -1.5019
 6961SOL    HW232346   0.765   0.864   8.948 -0.3874 -1.6220 -0.0606
 6962SOL     OW32347   0.195   2.147   5.642 -0.0089  0.0628  0.4822
 6962SOL    HW132348   0.258   2.186   5.580  0.6773 -2.1169 -0.1712
 6962SOL    HW232349   0.151   2.222   5.683  2.0776  0.8878  1.2568
 6963SOL     OW32350   0.364   0.353   3.386  0.2997 -0.1014  0.1778
 6963SOL    HW132351   0.287   0.380   3.435  1.2383  1.2001  0.9595
 6963SOL    HW232352   0.330   0.279   3.336  0.0616  0.5446 -0.6134
 6964SOL     OW32353   4.127   0.980   7.039  0.0520 -0.1146 -0.6687
 6964SOL    HW132354   4.102   1.017   6.954 -1.2411  0.7647  0.0927
 6964SOL    HW232355   4.058   0.921   7.066  1.8642 -1.6336  0.6856
 6965SOL     OW32356   0.782   2.073  10.573 -0.0775 -0.0594 -0.5529
 6965SOL    HW132357   0.835   2.146  10.540  0.1793  0.8771  1.9814
 6965SOL    HW232358   0.778   2.090  10.667 -0.6759  1.7390 -0.8884
 6966SOL     OW32359   4.372   0.249   1.079  0.1551 -0.4648 -0.1605
 6966SOL    HW132360   4.387   0.301   1.000 -0.9364 -0.1009 -0.1237
 6966SOL    HW232361   4.313   0.178   1.053 -0.1432 -0.2740 -0.0053
 6967SOL     OW32362   4.485   2.714   0.920 -0.6694 -0.0828  0.2715
 6967SOL    HW132363   4.433   2.759   0.986  0.1131 -0.0190  0.8447
 6967SOL    HW232364   4.569   2.745   0.954  0.7176 -2.0363 -1.2880
 6968SOL     OW32365   2.789   0.865  16.289  0.3622  0.3261 -0.2149
 6968SOL    HW132366   2.729   0.817  16.346  1.7814  0.7654  1.6632
 6968SOL    HW232367   2.867   0.876  16.343  1.6638 -1.3069 -1.7543
 6969SOL     OW32368   0.702   1.140  17.344 -0.2648 -0.0005 -0.0695
 6969SOL    HW132369   0.755   1.219  17.351  1.3026 -0.9787 -0.9498
 6969SOL    HW232370   0.638   1.166  17.277  0.2143  0.7739 -0.2305
 6970SOL     OW32371   0.651   2.244   5.507 -0.4264 -0.5443 -0.2821
 6970SOL    HW132372   0.641   2.232   5.602 -2.4911  1.1167 -0.2900
 6970SOL    HW232373   0.559   2.233   5.480 -0.0500  1.0752 -2.2092
 6971SOL     OW32374   2.550   0.268   0.940  0.0825  0.1240  0.4242
 6971SOL    HW132375   2.539   0.347   0.993  0.5992  0.5729 -0.1387
 6971SOL    HW232376   2.560   0.199   1.006  1.4783 -1.2075 -1.1583
 6972SOL     OW32377   0.287   2.102  13.779 -0.0840  0.0800  0.6474
 6972SOL    HW132378   0.350   2.064  13.717 -0.2159  0.6112  0.1897
 6972SOL    HW232379   0.308   2.047  13.855  1.3640  0.9372  0.8581
 6973SOL     OW32380   0.348   3.093   6.356  0.2106 -0.5412 -0.7634
 6973SOL    HW132381   0.325   3.000   6.344 -1.6349  0.0374 -1.7402
 6973SOL    HW232382   0.303   3.125   6.277  1.4347 -1.3188 -1.7869
 6974SOL     OW32383   1.661   2.064   7.127  0.4700  0.0488  0.1779
 6974SOL    HW132384   1.660   2.031   7.217 -1.3655 -0.1114  0.0988
 6974SOL    HW232385   1.680   1.986   7.075  0.6573  1.3699 -1.7269
 6975SOL     OW32386   0.576   0.526   1.614 -0.0827  0.3550  0.5883
 6975SOL    HW132387   0.592   0.555   1.703  0.2200 -3.2534  1.7153
 6975SOL    HW232388   0.645   0.464   1.590  0.0236  0.6081  0.2374
 6976SOL     OW32389   0.070   3.198  16.225  0.3195 -0.4950  0.2331
 6976SOL    HW132390   0.016   3.144  16.168  1.9305  0.6082 -2.3506
 6976SOL    HW232391   0.031   3.177  16.310  1.8852  0.7808  1.2730
 6977SOL     OW32392   0.852   1.673  17.677 -0.5230 -0.0936 -0.3565
 6977SOL    HW132393   0.878   1.585  17.647  1.3590  0.0879  0.7570
 6977SOL    HW232394   0.769   1.658   0.016  1.4379  1.7044  3.9267
 6978SOL     OW32395   3.773   1.102   4.479 -0.1493  0.0641 -0.3809
 6978SOL    HW132396   3.719   1.113   4.557 -0.3352 -1.7195 -0.2428
 6978SOL    HW232397   3.711   1.122   4.409 -0.4500  1.5485  0.3202
 6979SOL     OW32398   3.329   2.726  15.171  0.1393  0.8530 -0.5881
 6979SOL    HW132399   3.286   2.749  15.088 -2.1059  1.5553  0.7604
 6979SOL    HW232400   3.394   2.665  15.137  0.5920  2.2962 -2.2548
 6980SOL     OW32401   3.567   2.498   3.598 -0.4973 -0.1633  0.0890
 6980SOL    HW132402   3.512   2.554   3.544  0.6620 -0.5182 -1.4810
 6980SOL    HW232403   3.584   2.429   3.533 -2.9262  0.4355 -1.1773
 6981SOL     OW32404   4.693   4.523   8.052 -0.1833  0.1308 -0.3600
 6981SOL    HW132405   0.053   4.503   8.088  0.9849  2.2623 -1.9804
 6981SOL    HW232406   4.646   4.582   8.112 -1.5353 -0.7879 -0.5043
 6982SOL     OW32407   2.154   3.266   9.285  0.1805  0.3115  0.2847
 6982SOL    HW132408   2.131   3.331   9.219 -3.3194 -0.7360  0.4459
 6982SOL    HW232409   2.227   3.310   9.328  0.0534  0.4045  0.4060
 6983SOL     OW32410   1.377   3.802   5.951  0.1590  0.0713  0.2707
 6983SOL    HW132411   1.441   3.739   5.984  1.4870  0.8343 -0.8603
 6983SOL    HW232412   1.295   3.769   5.987  0.0467  1.0001  0.8681
 6984SOL     OW32413   1.166   0.018  15.414 -0.1445  0.4857 -0.4239
 6984SOL    HW132414   1.152   0.017  15.319 -0.8333 -1.6883 -0.2848
 6984SOL    HW232415   1.257   0.046  15.408  0.5379 -2.0796 -1.6398
 6985SOL     OW32416   1.291   0.501   9.378  0.0633  0.0789  0.1336
 6985SOL    HW132417   1.304   0.503   9.283 -2.0309 -1.7713 -0.1894
 6985SOL    HW232418   1.349   0.426   9.396 -0.4560 -0.1301  0.9304
 6986SOL     OW32419   1.246   0.990   1.149 -0.3635 -0.1990 -0.0851
 6986SOL    HW132420   1.208   0.909   1.183 -1.7759  0.2883 -0.5106
 6986SOL    HW232421   1.318   1.020   1.204  1.5306 -1.0124 -2.0952
 6987SOL     OW32422   3.792   2.868  16.291 -0.8377 -0.1030  0.2857
 6987SOL    HW132423   3.809   2.896  16.202  1.2312  1.9027  1.3266
 6987SOL    HW232424   3.884   2.860  16.317 -1.3629 -0.2850  2.1521
 6988SOL     OW32425   0.853   3.753  13.257  0.7297 -0.1813 -0.2098
 6988SOL    HW132426   0.810   3.798  13.184 -0.5425 -0.0394  0.6294
 6988SOL    HW232427   0.784   3.687  13.262  0.6838 -0.0867  0.3707
 6989SOL     OW32428   1.211   4.364   3.628 -0.5960 -0.0420 -0.7744
 6989SOL    HW132429   1.294   4.385   3.670  0.2336  0.3100 -2.5745
 6989SOL    HW232430   1.239   4.379   3.538 -0.2140  0.9558 -0.4965
 6990SOL     OW32431   3.954   3.576   4.171 -0.6204 -0.5547  0.4310
 6990SOL    HW132432   3.994   3.635   4.107 -0.9614  0.9926  1.6478
 6990SOL    HW232433   3.893   3.535   4.110 -0.1374  0.6371 -0.8605
 6991SOL     OW32434   0.916   1.954  10.155 -0.0639  0.2426  0.9899
 6991SOL    HW132435   0.950   2.038  10.126 -0.1795 -0.7377 -1.9787
 6991SOL    HW232436   0.862   1.931  10.079  2.1172 -0.7054 -0.2771
 6992SOL     OW32437   0.969   3.831  16.151  0.4169 -0.1911 -0.1539
 6992SOL    HW132438   1.028   3.906  16.158 -1.4604  1.3290 -0.7064
 6992SOL    HW232439   1.029   3.758  16.167  1.4266  0.8446  0.7460
 6993SOL     OW32440   0.528   0.690   2.360  0.4671 -0.3063 -0.2752
 6993SOL    HW132441   0.570   0.608   2.385 -0.5593 -1.4657 -2.3352
 6993SOL    HW232442   0.544   0.691   2.266  1.0765 -0.9488 -0.1733
 6994SOL     OW32443   4.559   2.778  12.430 -0.6040  0.3748  0.1692
 6994SOL    HW132444   4.576   2.748  12.519  0.3436  0.7308  0.1127
 6994SOL    HW232445   4.464   2.787  12.440 -0.5909  1.7066 -0.9283
 6995SOL     OW32446   0.150   0.996   8.489 -0.0761 -0.3361 -0.2263
 6995SOL    HW132447   0.187   0.919   8.532 -0.5425 -1.0082 -1.0317
 6995SOL    HW232448   0.230   1.027   8.445 -1.1356 -1.2706 -2.8582
 6996SOL     OW32449   2.252   0.771   3.803 -0.2849  0.6665  0.1484
 6996SOL    HW132450   2.331   0.822   3.784 -1.1788  2.8826  2.3224
 6996SOL    HW232451   2.256   0.767   3.899  0.3489 -1.4791  0.0322
 6997SOL     OW32452   4.208   4.178  11.702  0.3743 -0.1551 -0.3843
 6997SOL    HW132453   4.142   4.149  11.764 -0.2903 -1.0265 -1.5095
 6997SOL    HW232454   4.174   4.159  11.615 -0.2361 -1.6192  0.1784
 6998SOL     OW32455   3.902   0.856   6.975  0.0414 -0.5089 -0.0464
 6998SOL    HW132456   3.876   0.782   7.029  0.2275 -0.5426 -0.0050
 6998SOL    HW232457   3.962   0.821   6.910 -2.2039  1.0420 -2.9893
 6999SOL     OW32458   0.943   1.353  13.180 -0.0650 -0.3954  0.2182
 6999SOL    HW132459   0.960   1.360  13.086  2.2868  4.0696  0.9776
 6999SOL    HW232460   1.000   1.417  13.222 -1.1914  0.6627  0.1408
 7000SOL     OW32461   3.236   1.415  15.784  0.0015  0.2723  0.0386
 7000SOL    HW132462   3.157   1.459  15.816 -0.2072 -0.4909  0.5586
 7000SOL    HW232463   3.268   1.475  15.716  0.7191  3.6853  3.3466
 7001SOL     OW32464   2.184   3.508   9.115 -0.2918  0.1245  0.1913
 7001SOL    HW132465   2.115   3.460   9.068 -0.6294  0.7432  0.0592
 7001SOL    HW232466   2.138   3.585   9.149 -0.4442  0.7874 -1.5277
 7002SOL     OW32467   1.377   3.797   4.994  0.2737  0.0822 -0.0061
 7002SOL    HW132468   1.379   3.808   4.898  0.6110 -0.6007 -0.0770
 7002SOL    HW232469   1.310   3.863   5.013  0.1981  0.7925 -2.6024
 7003SOL     OW32470   1.257   1.091  14.948 -0.0045  0.6257 -0.1099
 7003SOL    HW132471   1.180   1.039  14.923 -0.1685  0.6940  0.2431
 7003SOL    HW232472   1.316   1.049  14.886 -0.9206  1.5259 -1.5708
 7004SOL     OW32473   1.901   1.803   7.782 -0.3299 -0.4229  0.4761
 7004SOL    HW132474   1.915   1.773   7.692  3.8157  1.2154  0.5618
 7004SOL    HW232475   1.868   1.720   7.814 -1.7145  0.3766  1.0842
 7005SOL     OW32476   2.598   1.325   0.463  0.3759  0.8915 -0.1662
 7005SOL    HW132477   2.588   1.418   0.441  0.0801  0.3405 -2.4093
 7005SOL    HW232478   2.536   1.296   0.396  0.1004 -0.3262  0.6272
 7006SOL     OW32479   4.076   0.430   6.609 -0.4683  0.1120 -0.3407
 7006SOL    HW132480   4.112   0.363   6.550  0.2049  0.5797 -0.4575
 7006SOL    HW232481   4.041   0.371   6.676  0.3031 -0.5220 -0.4927
 7007SOL     OW32482   3.382   0.906   6.575 -0.2839 -0.5629 -0.4029
 7007SOL    HW132483   3.438   0.836   6.539  0.9453  0.8893 -1.3064
 7007SOL    HW232484   3.360   0.948   6.492 -0.3351 -2.0190 -1.1357
 7008SOL     OW32485   4.484   2.711   3.950 -0.4472  0.1141 -0.7586
 7008SOL    HW132486   4.537   2.707   4.029  1.1208 -0.0550 -1.8327
 7008SOL    HW232487   4.548   2.696   3.880 -0.4537  0.6322 -0.8736
 7009SOL     OW32488   1.066   3.570   9.229 -0.7412 -0.2284  0.3588
 7009SOL    HW132489   1.117   3.622   9.292  0.3917 -0.8314 -0.0684
 7009SOL    HW232490   1.106   3.487   9.254 -1.2329 -0.4491  0.4091
 7010SOL     OW32491   0.893   3.601  14.103 -0.1398 -0.0851  0.2042
 7010SOL    HW132492   0.854   3.675  14.057  1.5805  1.0333  0.5448
 7010SOL    HW232493   0.956   3.576  14.036  1.1755 -0.5781  1.6041
 7011SOL     OW32494   4.597   0.304  17.566  0.4599  0.0055 -0.0128
 7011SOL    HW132495   4.674   0.248  17.564  2.0181  2.1593 -0.7414
 7011SOL    HW232496   4.578   0.301  17.472  3.0053  0.5196 -0.5354
 7012SOL     OW32497   1.760   3.101   5.320  0.3058  0.2662 -0.4211
 7012SOL    HW132498   1.792   3.021   5.279  1.0447 -0.7969  2.2517
 7012SOL    HW232499   1.791   3.162   5.253  0.1907  1.7532  0.8805
 7013SOL     OW32500   2.571   4.245   3.113 -0.5255 -0.1735 -0.3775
 7013SOL    HW132501   2.535   4.317   3.061 -0.9605  0.9768  1.5042
 7013SOL    HW232502   2.597   4.179   3.049 -2.3048 -1.5704  0.3617
 7014SOL     OW32503   4.617   0.698  17.202  0.1693  0.1190 -0.0918
 7014SOL    HW132504   4.616   0.695  17.106  3.3854  0.6198 -0.1403
 7014SOL    HW232505   4.686   0.633  17.211 -0.2307 -0.0345  1.9799
 7015SOL     OW32506   3.726   2.205   8.450  0.0168  0.3603  0.5511
 7015SOL    HW132507   3.688   2.135   8.398  1.0284  0.7974 -0.8007
 7015SOL    HW232508   3.789   2.165   8.509  1.1884  0.6392 -0.4979
 7016SOL     OW32509   4.374   2.723   5.738 -0.0453 -0.1150 -0.0004
 7016SOL    HW132510   4.461   2.751   5.707  0.2195 -0.4380  0.4597
 7016SOL    HW232511   4.357   2.789   5.806 -1.9733 -1.9344  1.2708
 7017SOL     OW32512   4.341   0.215  15.429 -0.3913  0.3510 -0.2328
 7017SOL    HW132513   4.261   0.207  15.481  0.3868  1.3706  1.1121
 7017SOL    HW232514   4.379   0.128  15.446 -3.9391 -1.1025  0.3589
 7018SOL     OW32515   0.743   2.937   4.331  0.1735  0.0840 -0.5853
 7018SOL    HW132516   0.767   3.029   4.338  2.2151 -0.5057  0.2730
 7018SOL    HW232517   0.813   2.900   4.385 -1.7091 -2.0816  0.3714
 7019SOL     OW32518   4.096   2.713   5.765  0.2323 -0.0520 -0.7944
 7019SOL    HW132519   4.189   2.694   5.752  1.2326  3.5298  1.2074
 7019SOL    HW232520   4.091   2.808   5.771  0.5059 -0.0888  0.1133
 7020SOL     OW32521   1.382   3.859  16.331  0.3412 -0.5940  0.4219
 7020SOL    HW132522   1.393   3.874  16.425  2.7243 -2.5302  0.4406
 7020SOL    HW232523   1.445   3.791  16.307  1.0030  0.8036 -1.8067
 7021SOL     OW32524   4.415   1.852   1.193 -0.5688  0.3502 -0.4431
 7021SOL    HW132525   4.392   1.821   1.281 -0.0448  0.1628 -0.3754
 7021SOL    HW232526   4.492   1.907   1.205 -0.2723 -0.2004  0.1798
 7022SOL     OW32527   3.319   2.933   7.179  0.0180  0.1106  0.6351
 7022SOL    HW132528   3.285   2.852   7.217  1.2600 -0.7945 -0.1761
 7022SOL    HW232529   3.339   2.991   7.253  0.9489 -1.1639  1.3681
 7023SOL     OW32530   0.166   0.819   8.236  0.3684 -0.0793  0.2568
 7023SOL    HW132531   0.233   0.884   8.257  0.0015  0.1249  0.8044
 7023SOL    HW232532   0.109   0.859   8.171 -2.0651 -0.5472  2.0933
 7024SOL     OW32533   4.130   4.162   5.464 -0.2612 -0.6344 -0.0292
 7024SOL    HW132534   4.188   4.232   5.493 -1.8936  0.6712  0.1122
 7024SOL    HW232535   4.060   4.178   5.528  0.4657 -1.1416  0.8909
 7025SOL     OW32536   3.197   3.227  11.578  0.4404 -0.5976  0.5844
 7025SOL    HW132537   3.249   3.285  11.523  0.1936 -1.5857 -0.7049
 7025SOL    HW232538   3.174   3.291  11.646  1.5210  2.1749 -1.6758
 7026SOL     OW32539   3.180   0.327   7.684 -0.4282  0.0607 -0.0561
 7026SOL    HW132540   3.261   0.336   7.733 -0.2516 -0.8286 -0.2008
 7026SOL    HW232541   3.208   0.263   7.619  1.1662 -0.0084  0.7029
 7027SOL     OW32542   2.757   4.315   3.298  0.2510 -0.0552  0.7257
 7027SOL    HW132543   2.744   4.404   3.265 -0.1653 -0.7061 -0.8815
 7027SOL    HW232544   2.676   4.279   3.261  0.5846  0.3889 -0.4478
 7028SOL     OW32545   3.272   0.925   1.580 -0.5203 -0.0103 -0.3161
 7028SOL    HW132546   3.297   0.841   1.619 -0.8907 -0.0701 -0.2116
 7028SOL    HW232547   3.218   0.960   1.650  0.2611 -0.2386  0.4103
 7029SOL     OW32548   2.812   2.319  12.267 -0.1135  0.3135 -0.6925
 7029SOL    HW132549   2.754   2.395  12.266 -0.0033  0.3960 -0.7837
 7029SOL    HW232550   2.749   2.250  12.248  0.1209 -0.4327  1.2299
 7030SOL     OW32551   2.986   3.967  11.874 -0.1891  0.0422 -0.3514
 7030SOL    HW132552   2.904   3.919  11.887  0.5505 -0.8842  0.9220
 7030SOL    HW232553   3.041   3.891  11.853  1.1813  1.0262 -0.3219
 7031SOL     OW32554   1.653   1.302  14.253  0.0119 -0.8451  0.1431
 7031SOL    HW132555   1.673   1.335  14.341  1.1753  2.4966 -1.3799
 7031SOL    HW232556   1.578   1.358  14.230 -0.5743 -1.0649  1.4982
 7032SOL     OW32557   3.602   1.057  12.514  0.0699 -0.6523 -0.1529
 7032SOL    HW132558   3.512   1.075  12.486 -0.9963 -0.9765  3.1615
 7032SOL    HW232559   3.593   1.098  12.600  0.2064 -0.0991 -0.4001
 7033SOL     OW32560   1.116   1.946  14.067  0.2121 -0.5907  0.2716
 7033SOL    HW132561   1.146   1.864  14.028  1.1762  0.5007 -1.2815
 7033SOL    HW232562   1.023   1.943  14.047 -0.4045  1.1679  2.8384
 7034SOL     OW32563   1.440   4.148   4.116 -0.7682  0.4037 -0.0566
 7034SOL    HW132564   1.406   4.164   4.204  1.7543 -1.0278  1.1644
 7034SOL    HW232565   1.501   4.220   4.103 -3.1812  2.1278 -1.9280
 7035SOL     OW32566   4.471   4.137  14.194 -0.0182  0.1465  0.3079
 7035SOL    HW132567   4.465   4.048  14.159  0.8136  0.9518 -1.8565
 7035SOL    HW232568   4.495   4.193  14.120  1.2174 -1.7413 -0.7183
 7036SOL     OW32569   0.674   3.960   6.623  0.3392  0.2878  1.1272
 7036SOL    HW132570   0.707   3.968   6.713 -0.0478 -1.5032  1.4092
 7036SOL    HW232571   0.744   4.006   6.577 -0.7664  0.5774 -0.2542
 7037SOL     OW32572   2.691   1.420   6.451 -0.1487 -0.3492 -0.4957
 7037SOL    HW132573   2.741   1.403   6.371  0.8090 -0.1086  0.0515
 7037SOL    HW232574   2.726   1.507   6.467 -3.0881  0.3937  1.7827
 7038SOL     OW32575   4.044   3.466   2.521  0.0805  0.1281  0.3599
 7038SOL    HW132576   4.041   3.551   2.565 -0.8277  0.6291 -0.6533
 7038SOL    HW232577   4.136   3.441   2.518 -0.3120 -1.2618 -0.0369
 7039SOL     OW32578   3.176   2.475  16.946 -0.3884 -0.1291 -0.2365
 7039SOL    HW132579   3.096   2.483  16.894 -0.9603 -0.6714  0.5564
 7039SOL    HW232580   3.191   2.380  16.952 -2.7217 -0.3044  2.8980
 7040SOL     OW32581   2.656   3.574   6.629  0.2193  0.4664 -0.2886
 7040SOL    HW132582   2.569   3.563   6.666 -0.6279  1.4869 -2.0077
 7040SOL    HW232583   2.630   3.640   6.566 -2.4610 -1.0173 -0.7069
 7041SOL     OW32584   1.571   2.930  17.681 -0.5206  0.0538  0.0877
 7041SOL    HW132585   1.503   2.994  17.700 -0.3631 -0.3182  1.9374
 7041SOL    HW232586   1.531   2.881  17.610 -4.0804  2.5125  0.4232
 7042SOL     OW32587   3.530   1.721  16.770  0.3868 -0.4406 -0.2313
 7042SOL    HW132588   3.442   1.683  16.773  0.7004 -1.2715 -1.6630
 7042SOL    HW232589   3.505   1.811  16.749 -0.8132 -0.3612  1.5209
 7043SOL     OW32590   0.170   2.200   6.500  0.1271  0.6938  0.2415
 7043SOL    HW132591   0.187   2.259   6.426  0.1902  0.6771  0.2426
 7043SOL    HW232592   0.084   2.167   6.475 -0.6788  2.2431  0.9782
 7044SOL     OW32593   1.029   1.379   3.420 -0.4123 -0.3874 -0.0354
 7044SOL    HW132594   1.111   1.427   3.406 -0.2768 -0.6094 -0.0039
 7044SOL    HW232595   1.043   1.322   3.344 -1.3195 -0.3353 -0.2318
 7045SOL     OW32596   1.132   3.711   6.904 -0.0066 -0.7803 -0.0253
 7045SOL    HW132597   1.051   3.674   6.869 -0.8255  0.9925 -0.0037
 7045SOL    HW232598   1.115   3.802   6.881  1.3556 -0.7137 -0.7296
 7046SOL     OW32599   1.128   1.598   9.401  0.4132  0.3559 -0.2000
 7046SOL    HW132600   1.146   1.505   9.409  1.7578  0.7586  1.4977
 7046SOL    HW232601   1.213   1.641   9.399 -0.4920  2.1284 -0.5752
 7047SOL     OW32602   1.465   2.180   9.630  0.0565 -0.5478  0.8664
 7047SOL    HW132603   1.475   2.100   9.681 -0.1665 -1.8524 -1.1731
 7047SOL    HW232604   1.521   2.157   9.557  1.0623  0.4864  1.3035
 7048SOL     OW32605   3.405   4.364   6.040 -0.6489  0.3771 -0.0134
 7048SOL    HW132606   3.342   4.419   6.086  0.1187  1.4888 -0.2836
 7048SOL    HW232607   3.345   4.322   5.978 -2.3051 -0.1206  1.9264
 7049SOL     OW32608   2.057   0.034   7.549 -0.9304  0.2607  0.0967
 7049SOL    HW132609   2.147   0.068   7.554 -1.4993  2.0005 -1.7210
 7049SOL    HW232610   2.013   0.114   7.578  1.5691  0.6185  2.8731
 7050SOL     OW32611   3.028   3.090  10.037  0.7741 -0.1169 -0.5226
 7050SOL    HW132612   3.051   2.997  10.032 -0.4279 -0.3983 -0.7862
 7050SOL    HW232613   2.983   3.098  10.121 -0.9331 -2.0689 -1.2453
 7051SOL     OW32614   4.003   1.586   7.969 -0.3184 -0.0518 -0.6957
 7051SOL    HW132615   3.998   1.674   7.934 -0.7213 -0.6089 -2.0219
 7051SOL    HW232616   3.950   1.594   8.049 -1.3233  0.9762 -1.4808
 7052SOL     OW32617   3.088   2.288   4.442  0.3293  0.4900 -0.1505
 7052SOL    HW132618   2.995   2.282   4.461  0.3120  1.4410  0.0663
 7052SOL    HW232619   3.098   2.376   4.406  0.2686  0.2708 -0.7104
 7053SOL     OW32620   4.159   1.301   8.146 -0.0768  0.3241 -0.3940
 7053SOL    HW132621   4.079   1.309   8.094  1.0993  1.2909 -2.0416
 7053SOL    HW232622   4.129   1.335   8.231  1.8389 -0.1143  0.4504
 7054SOL     OW32623   4.543   1.301  16.086 -0.3163 -0.5718  0.4457
 7054SOL    HW132624   4.623   1.254  16.062 -0.0794 -0.9433  1.9373
 7054SOL    HW232625   4.580   1.390  16.088  1.4309 -1.2863 -0.1937
 7055SOL     OW32626   1.551   4.685   7.461 -0.2419  0.1312  0.3749
 7055SOL    HW132627   1.625   4.673   7.400 -1.8997 -0.7290 -1.4934
 7055SOL    HW232628   1.483   4.726   7.407 -0.5113 -0.1108  0.5322
 7056SOL     OW32629   2.157   3.094   3.176  0.6894 -0.1352  0.0839
 7056SOL    HW132630   2.095   3.148   3.128  1.8240  1.3190  0.2664
 7056SOL    HW232631   2.183   3.153   3.247 -0.2834 -1.4866  1.5759
 7057SOL     OW32632   3.268   1.759   6.059 -0.2105 -0.1655  0.2654
 7057SOL    HW132633   3.239   1.757   6.151  0.1843 -3.5090  0.3318
 7057SOL    HW232634   3.306   1.671   6.060 -1.3114 -0.6120  2.3039
 7058SOL     OW32635   1.845   4.488   0.807 -0.5596  0.1485 -0.1417
 7058SOL    HW132636   1.763   4.535   0.789 -1.0834 -0.6553  0.1481
 7058SOL    HW232637   1.823   4.459   0.895 -0.5078  3.0068  0.8144
 7059SOL     OW32638   2.976   3.383  13.255 -0.2582  0.2844 -0.0246
 7059SOL    HW132639   3.067   3.382  13.285 -0.8047  1.3122  1.6768
 7059SOL    HW232640   2.991   3.351  13.166 -3.4946 -0.2296 -0.3754
 7060SOL     OW32641   1.160   3.572  10.596  0.2418  0.7116 -0.0794
 7060SOL    HW132642   1.122   3.588  10.683  0.7650 -1.3201  0.5143
 7060SOL    HW232643   1.085   3.596  10.542  0.1622  0.3417 -0.1336
 7061SOL     OW32644   3.194   1.145   5.933 -0.0473 -0.0771 -0.1029
 7061SOL    HW132645   3.110   1.184   5.910 -0.6812 -1.6674 -0.4520
 7061SOL    HW232646   3.213   1.095   5.854  0.6298 -1.5051  0.9783
 7062SOL     OW32647   2.116   0.688   7.294  0.2418  0.6693  0.3498
 7062SOL    HW132648   2.074   0.766   7.331  0.5945  1.1054 -0.1682
 7062SOL    HW232649   2.099   0.687   7.200  0.1156  0.5037  0.3759
 7063SOL     OW32650   2.044   0.120   8.377 -0.5510 -0.0401 -0.4033
 7063SOL    HW132651   2.049   0.058   8.305 -0.4256  0.8974 -1.2097
 7063SOL    HW232652   2.124   0.172   8.373 -0.2487 -0.6705 -2.2630
 7064SOL     OW32653   4.099   2.547  11.682 -0.2080 -1.0436  0.4879
 7064SOL    HW132654   4.151   2.468  11.692  2.9540  0.9869  0.4016
 7064SOL    HW232655   4.016   2.515  11.647 -0.2877 -1.0416  0.6757
 7065SOL     OW32656   1.532   4.243   6.912 -0.7613 -0.1971  0.2533
 7065SOL    HW132657   1.533   4.204   6.825  0.8164  2.1514 -0.7624
 7065SOL    HW232658   1.567   4.329   6.891 -0.9721  0.1250  1.2087
 7066SOL     OW32659   2.968   3.304   8.286  0.2701  0.2239  0.1196
 7066SOL    HW132660   3.018   3.336   8.211 -1.4553 -3.4755 -2.6249
 7066SOL    HW232661   2.959   3.387   8.333  0.1244 -0.1236  0.7059
 7067SOL     OW32662   3.514   1.611   6.083 -0.1322 -0.3412  0.2062
 7067SOL    HW132663   3.595   1.639   6.041  1.2842  0.0101  3.1694
 7067SOL    HW232664   3.538   1.521   6.105 -1.3479 -0.5764  0.5420
 7068SOL     OW32665   2.776   0.537   0.502 -0.9024  0.5481  0.1507
 7068SOL    HW132666   2.710   0.525   0.570 -0.4335 -2.5519  0.0603
 7068SOL    HW232667   2.839   0.574   0.565 -0.0330 -2.0718  0.8408
 7069SOL     OW32668   3.970   2.305   4.659 -0.2231 -0.2950  0.2686
 7069SOL    HW132669   3.923   2.387   4.644  1.2749  0.1644 -1.9213
 7069SOL    HW232670   3.937   2.250   4.588 -1.9440  3.2584 -1.6888
 7070SOL     OW32671   1.077   2.413  16.051  0.3878  0.1121 -0.0367
 7070SOL    HW132672   1.071   2.454  16.137  0.1790 -1.1836  0.5633
 7070SOL    HW232673   0.994   2.367  16.044  0.4202  0.0512 -0.0164
 7071SOL     OW32674   3.501   4.155   9.474  0.3755  0.3159 -0.4604
 7071SOL    HW132675   3.517   4.150   9.568  1.2352  3.4431 -0.4608
 7071SOL    HW232676   3.590   4.180   9.450  0.1451 -0.2249 -1.8792
 7072SOL     OW32677   4.029   1.537   7.596  0.3808  0.1670  0.0449
 7072SOL    HW132678   4.095   1.539   7.665  0.3428  2.5342 -0.0053
 7072SOL    HW232679   4.056   1.454   7.556 -1.1720  0.8002 -2.3196
 7073SOL     OW32680   4.222   0.412   0.051  0.1425  0.3807  0.1982
 7073SOL    HW132681   4.218   0.505   0.033 -1.0270  0.6630  1.9200
 7073SOL    HW232682   4.144   0.410   0.106 -0.2899  1.0336 -0.4031
 7074SOL     OW32683   1.515   1.083   1.280  0.2012  0.2967 -0.2420
 7074SOL    HW132684   1.506   1.167   1.325 -0.3920 -0.0252  0.2256
 7074SOL    HW232685   1.608   1.059   1.275  0.1203  0.4826 -2.6469
 7075SOL     OW32686   1.429   2.798  16.354  0.0912 -0.4337 -0.7032
 7075SOL    HW132687   1.422   2.703  16.368  1.0007 -0.6971 -2.0715
 7075SOL    HW232688   1.391   2.826  16.437 -0.0901 -2.1563 -0.1921
 7076SOL     OW32689   0.853   3.798  12.920 -0.3093  0.8019  0.2855
 7076SOL    HW132690   0.813   3.793  12.833  0.9436  2.1791 -0.3683
 7076SOL    HW232691   0.767   3.798  12.961  0.0033 -1.0732  0.9950
 7077SOL     OW32692   0.171   2.493  14.086 -0.3952  0.0031 -0.1518
 7077SOL    HW132693   0.180   2.399  14.077 -1.0325 -0.3373  3.0390
 7077SOL    HW232694   0.108   2.515  14.016 -1.5165 -2.2411  0.1708
 7078SOL     OW32695   2.907   2.451   5.847 -0.4494 -0.1007  0.0375
 7078SOL    HW132696   2.859   2.532   5.864  0.6328  0.7423 -0.8994
 7078SOL    HW232697   2.960   2.440   5.926 -0.7109 -1.1370  0.0705
 7079SOL     OW32698   0.161   0.780   7.939  0.0005  0.2028 -0.0373
 7079SOL    HW132699   0.077   0.749   7.903 -0.6421  1.0382  0.7383
 7079SOL    HW232700   0.134   0.869   7.962 -0.9085 -0.2305  0.5711
 7080SOL     OW32701   3.379   3.490   1.171 -0.3494 -0.0768  0.4684
 7080SOL    HW132702   3.416   3.415   1.218 -0.9172 -0.3800  0.4297
 7080SOL    HW232703   3.358   3.554   1.239  0.3921  0.3761  0.2702
 7081SOL     OW32704   2.403   0.329   7.065 -0.3228 -0.2183  0.3630
 7081SOL    HW132705   2.309   0.333   7.081 -0.4434 -1.8666  0.0499
 7081SOL    HW232706   2.425   0.422   7.071 -0.1825 -0.2169 -0.2526
 7082SOL     OW32707   0.305   3.118   7.644 -0.2618  0.2930  0.1797
 7082SOL    HW132708   0.311   3.211   7.623  0.3703  0.2695  0.2390
 7082SOL    HW232709   0.315   3.116   7.740  0.2947  2.0776  0.1624
 7083SOL     OW32710   2.682   3.384   0.592 -0.0701 -0.0127  0.5791
 7083SOL    HW132711   2.769   3.378   0.552 -0.3620  0.8637 -0.1802
 7083SOL    HW232712   2.652   3.293   0.591  0.0630 -0.0344 -1.5863
 7084SOL     OW32713   1.340   0.608   6.995 -0.2523  0.5554  0.3365
 7084SOL    HW132714   1.302   0.644   7.075 -1.5202 -0.5118  0.2061
 7084SOL    HW232715   1.269   0.555   6.960  1.4438 -0.8724 -0.9558
 7085SOL     OW32716   2.157   1.908   9.428  0.4496 -0.0157  0.2248
 7085SOL    HW132717   2.192   1.859   9.354 -0.7266 -2.0397  0.9863
 7085SOL    HW232718   2.225   1.973   9.444 -0.3883  1.3029 -1.6456
 7086SOL     OW32719   0.120   1.414  13.404  0.0051  0.4026 -0.1138
 7086SOL    HW132720   0.062   1.409  13.327  0.2042 -0.8987 -0.1795
 7086SOL    HW232721   0.057   1.439  13.471 -0.2824 -1.2688  0.2439
 7087SOL     OW32722   1.904   2.518  10.628 -0.2767  0.3780 -0.6585
 7087SOL    HW132723   1.915   2.424  10.612  1.0980  0.2276  1.2064
 7087SOL    HW232724   1.839   2.536  10.560 -0.1334 -1.2033 -1.2148
 7088SOL     OW32725   3.881   2.139  15.000 -0.3232  0.4978 -0.1785
 7088SOL    HW132726   3.890   2.059  14.947 -0.0714  0.0705  0.5005
 7088SOL    HW232727   3.963   2.181  14.976 -0.4052  0.5438 -0.3760
 7089SOL     OW32728   1.865   4.712   1.631  0.2112  0.3343  0.3738
 7089SOL    HW132729   1.869   4.619   1.654  1.3741 -0.0432 -1.3584
 7089SOL    HW232730   1.957   0.009   1.640  0.4578 -0.3219 -0.4957
 7090SOL     OW32731   0.767   0.085  10.389  0.0943  0.2274 -0.1062
 7090SOL    HW132732   0.852   0.067  10.428 -0.2804 -1.2630  0.0225
 7090SOL    HW232733   0.718   0.006  10.410  0.3699  0.1879  0.3734
 7091SOL     OW32734   4.057   4.246   1.792 -0.1053  0.5864 -0.1875
 7091SOL    HW132735   3.967   4.240   1.824  0.6958  1.1599  2.1451
 7091SOL    HW232736   4.036   4.272   1.702 -0.5861 -0.6792 -0.4398
 7092SOL     OW32737   1.372   1.976   3.605 -0.0808  0.1457  0.7337
 7092SOL    HW132738   1.361   2.061   3.563  0.8918 -0.8023 -1.4044
 7092SOL    HW232739   1.433   1.927   3.550 -1.4852 -1.6929  0.8192
 7093SOL     OW32740   2.344   0.393  13.464  0.3177  0.5940 -0.3203
 7093SOL    HW132741   2.254   0.361  13.474  0.4389  0.6949  1.1084
 7093SOL    HW232742   2.384   0.318  13.420 -0.7553  0.1730 -0.5735
 7094SOL     OW32743   1.414   2.502   8.450  0.1981 -0.1896 -0.2600
 7094SOL    HW132744   1.483   2.437   8.440  0.1855 -0.1415 -0.6364
 7094SOL    HW232745   1.465   2.577   8.420 -0.6845  0.3952 -0.3053
 7095SOL     OW32746   4.043   4.252   5.927  0.0169  0.6167 -0.0235
 7095SOL    HW132747   3.959   4.206   5.923 -0.1870  1.0313 -0.4236
 7095SOL    HW232748   4.052   4.282   6.018 -0.8879 -1.5185  0.7778
 7096SOL     OW32749   1.886   1.511   6.487 -0.4938  0.0334 -0.2272
 7096SOL    HW132750   1.971   1.542   6.520 -1.3381  1.4275  0.6116
 7096SOL    HW232751   1.871   1.447   6.557 -1.0392  0.1719 -0.2172
 7097SOL     OW32752   0.364   2.804   5.805 -0.2628 -0.1713  0.2790
 7097SOL    HW132753   0.424   2.764   5.869  3.7473 -0.6622 -3.7788
 7097SOL    HW232754   0.301   2.734   5.788 -0.0222  0.2188 -2.1383
 7098SOL     OW32755   1.731   1.875   8.073  0.1480  0.9982 -0.2643
 7098SOL    HW132756   1.645   1.898   8.038  0.6978 -2.0434 -3.6607
 7098SOL    HW232757   1.733   1.782   8.050 -1.0709  1.1645 -1.0128
 7099SOL     OW32758   1.419   0.546  15.091  0.3193 -0.3837  0.3013
 7099SOL    HW132759   1.371   0.463  15.102 -1.1869  0.4920  0.3352
 7099SOL    HW232760   1.377   0.592  15.164 -2.4954  0.9893 -2.1757
 7100SOL     OW32761   0.862   2.997  11.195 -0.3566  0.3578 -0.3215
 7100SOL    HW132762   0.947   2.992  11.151  0.7898  1.1740  1.8114
 7100SOL    HW232763   0.831   3.082  11.164  1.1902  2.3582  3.6320
 7101SOL     OW32764   0.383   0.192   3.031 -0.0397 -0.2867  0.1976
 7101SOL    HW132765   0.317   0.203   3.100 -2.1756 -2.4485 -1.5101
 7101SOL    HW232766   0.462   0.190   3.086 -0.3710  0.8985  0.7157
 7102SOL     OW32767   0.476   4.325   3.641  0.5885 -0.1493 -0.3948
 7102SOL    HW132768   0.527   4.245   3.625 -1.2938 -1.1822 -1.2496
 7102SOL    HW232769   0.549   4.386   3.635  0.5391  0.0621  1.1693
 7103SOL     OW32770   3.741   4.357   0.307  0.1255  0.1409 -0.2155
 7103SOL    HW132771   3.834   4.379   0.313  0.7611 -2.4557 -0.5384
 7103SOL    HW232772   3.712   4.435   0.355 -3.2111  0.0620 -2.1284
 7104SOL     OW32773   0.783   0.884  15.195  0.1485 -0.1104  0.3886
 7104SOL    HW132774   0.765   0.872  15.102  0.5594 -1.6955  0.5241
 7104SOL    HW232775   0.733   0.813  15.233 -1.9783  0.7212 -0.8727
 7105SOL     OW32776   4.269   3.803  13.851  0.4862  0.2269 -0.2565
 7105SOL    HW132777   4.279   3.763  13.764 -2.0480  1.1051 -0.9508
 7105SOL    HW232778   4.232   3.731  13.903 -0.2080  0.3857 -0.5322
 7106SOL     OW32779   0.148   3.195   2.331  0.2606 -0.0878  0.1851
 7106SOL    HW132780   0.106   3.239   2.257  0.9959 -0.4794 -0.4643
 7106SOL    HW232781   0.131   3.268   2.391  0.7049  0.7167 -0.6684
 7107SOL     OW32782   3.705   4.623   0.846  0.2036 -0.4887 -0.0854
 7107SOL    HW132783   3.652   4.554   0.886 -0.7168  1.4265  2.0048
 7107SOL    HW232784   3.634   4.688   0.842 -0.2829 -1.1139 -1.6392
 7108SOL     OW32785   2.973   3.066   6.502 -0.2968  0.4197 -0.2847
 7108SOL    HW132786   2.997   3.147   6.456 -0.6053  1.5977  1.6529
 7108SOL    HW232787   2.936   3.101   6.583  0.0671  2.9531 -1.2378
 7109SOL     OW32788   3.111   3.334   4.243  0.1087 -0.6368 -0.1245
 7109SOL    HW132789   3.110   3.241   4.218 -0.9383 -0.4501 -0.7791
 7109SOL    HW232790   3.203   3.354   4.229 -0.0510 -0.8673 -1.5509
 7110SOL     OW32791   0.449   1.161  11.046 -0.6684 -0.2172 -0.0003
 7110SOL    HW132792   0.500   1.153  11.127 -0.2097  3.1221  0.0606
 7110SOL    HW232793   0.496   1.089  11.005 -1.0944 -0.9758  0.8429
 7111SOL     OW32794   2.899   1.785   8.002  0.2760 -0.2287 -0.3573
 7111SOL    HW132795   2.945   1.858   8.043  2.4998 -1.6550 -0.2605
 7111SOL    HW232796   2.806   1.801   7.990  0.6695  2.0791 -0.2536
 7112SOL     OW32797   3.478   0.555   3.606 -0.0914  0.3820 -0.1521
 7112SOL    HW132798   3.482   0.626   3.541 -1.7895 -1.0107 -1.7670
 7112SOL    HW232799   3.572   0.545   3.625 -0.3002  0.4314  0.9189
 7113SOL     OW32800   2.517   0.152   5.738 -0.4707 -0.1574  0.1433
 7113SOL    HW132801   2.548   0.129   5.825  0.1972  0.6702  0.1253
 7113SOL    HW232802   2.579   0.220   5.715  0.8758 -1.1875  0.7078
 7114SOL     OW32803   3.640   1.536  10.203  0.1341  0.7589  0.0310
 7114SOL    HW132804   3.660   1.628  10.220 -0.9614  1.2596 -1.3532
 7114SOL    HW232805   3.726   1.493  10.202 -0.0300  0.4200  3.9970
 7115SOL     OW32806   3.160   2.685   7.546  0.0306 -0.7535 -0.1334
 7115SOL    HW132807   3.178   2.688   7.452  2.0509  0.4270  0.2958
 7115SOL    HW232808   3.188   2.775   7.566  1.1434 -0.9362 -0.9310
 7116SOL     OW32809   0.698   2.562  15.106 -0.3376  0.0928  0.5950
 7116SOL    HW132810   0.776   2.579  15.159 -0.5134  0.4484  0.7349
 7116SOL    HW232811   0.640   2.525  15.173 -2.0638  2.5587  0.4613
 7117SOL     OW32812   3.745   0.339   1.439  0.5535 -0.0849 -0.0585
 7117SOL    HW132813   3.669   0.368   1.490  1.2580  1.6586 -0.0030
 7117SOL    HW232814   3.707   0.333   1.352 -0.2979 -0.2987  0.3245
 7118SOL     OW32815   3.287   0.719   5.206 -0.0285  0.4673  0.8570
 7118SOL    HW132816   3.209   0.720   5.262  0.3553 -2.6815  1.4081
 7118SOL    HW232817   3.338   0.797   5.229  0.5561 -0.5012  2.8202
 7119SOL     OW32818   1.244   1.626   6.758 -0.0017 -0.3503 -0.1136
 7119SOL    HW132819   1.293   1.654   6.680 -0.3397 -0.1543 -0.2578
 7119SOL    HW232820   1.157   1.623   6.718 -0.6518 -2.8099  1.5012
 7120SOL     OW32821   3.474   1.772   6.991 -0.3155 -0.2476 -0.6345
 7120SOL    HW132822   3.379   1.760   6.993 -0.3278  0.2426  1.2559
 7120SOL    HW232823   3.493   1.738   6.904 -1.8901  1.0203 -1.4815
 7121SOL     OW32824   1.005   0.506  11.015  0.2134  0.2109 -0.3756
 7121SOL    HW132825   1.065   0.543  10.950  0.8635 -1.1225 -0.5349
 7121SOL    HW232826   0.930   0.497  10.956  0.9096  3.0655 -1.7278
 7122SOL     OW32827   4.688   1.755   1.844 -0.0389 -0.4449 -0.4113
 7122SOL    HW132828   4.640   1.722   1.768 -0.7959  0.7344 -0.4413
 7122SOL    HW232829   0.041   1.700   1.845  1.0472  1.1414  1.1212
 7123SOL     OW32830   0.188   1.619   1.820 -0.3501 -0.2208 -0.3091
 7123SOL    HW132831   0.274   1.632   1.779 -0.2943  1.2393  0.2917
 7123SOL    HW232832   0.214   1.594   1.909  0.2085 -0.4052 -0.5235
 7124SOL     OW32833   4.430   2.268   7.026 -0.7843  0.0480  0.2470
 7124SOL    HW132834   4.339   2.293   7.046 -1.1482  0.2801 -1.6785
 7124SOL    HW232835   4.418   2.201   6.959 -1.3693  0.4839 -0.0931
 7125SOL     OW32836   1.653   1.767  11.744  0.2181 -0.2567  0.2328
 7125SOL    HW132837   1.608   1.816  11.813 -1.1775 -1.0292 -0.1294
 7125SOL    HW232838   1.585   1.763  11.676 -0.5767  0.7358  0.9709
 7126SOL     OW32839   4.317   4.524   6.478  0.3401 -0.0307 -0.1583
 7126SOL    HW132840   4.245   4.549   6.420 -0.6963 -0.2176  1.0582
 7126SOL    HW232841   4.390   4.568   6.435  0.2817 -2.0694 -2.3299
 7127SOL     OW32842   2.567   4.708   9.053 -0.6823  0.0940 -0.5267
 7127SOL    HW132843   2.537   4.707   9.144  1.8953  0.7964  0.3208
 7127SOL    HW232844   2.625   4.632   9.046  0.9719  1.0545  3.0633
 7128SOL     OW32845   1.257   1.277   2.278  0.1878  0.0356 -0.3413
 7128SOL    HW132846   1.259   1.333   2.201  0.3571  0.0018 -0.3609
 7128SOL    HW232847   1.166   1.281   2.307  0.0486  1.9933 -1.1266
 7129SOL     OW32848   2.425   3.845  16.879 -0.1693 -0.9822 -0.3526
 7129SOL    HW132849   2.381   3.920  16.838  1.6985  0.1297 -0.2963
 7129SOL    HW232850   2.427   3.873  16.971 -2.3364  0.0207 -0.5982
 7130SOL     OW32851   0.221   3.682   5.146 -0.1362  0.4290 -0.1304
 7130SOL    HW132852   0.263   3.766   5.167  0.9874 -0.1813  0.0745
 7130SOL    HW232853   0.281   3.644   5.082  0.6358 -2.2337  2.1822
 7131SOL     OW32854   1.614   1.278  12.896  0.2169  0.0517  0.8087
 7131SOL    HW132855   1.696   1.290  12.942 -0.2391 -0.5978  1.7889
 7131SOL    HW232856   1.552   1.310  12.961  2.4954  0.9951  2.4968
 7132SOL     OW32857   2.667   0.731  16.718  0.2875  0.5132 -0.4249
 7132SOL    HW132858   2.701   0.700  16.634  0.5899  0.1216 -0.1570
 7132SOL    HW232859   2.745   0.741  16.773  0.3376 -0.0218 -0.3985
 7133SOL     OW32860   1.055   0.263   7.920  0.4606 -0.3755 -0.2564
 7133SOL    HW132861   0.962   0.244   7.931  0.8319 -0.7956  2.1181
 7133SOL    HW232862   1.038   0.347   7.877  2.2915 -0.5017 -1.2460
 7134SOL     OW32863   1.254   3.133   2.129 -0.2067 -1.1671  0.2956
 7134SOL    HW132864   1.237   3.203   2.066  0.3324 -0.6609  0.7087
 7134SOL    HW232865   1.171   3.135   2.178 -0.3015  0.4805  0.0825
 7135SOL     OW32866   2.959   1.680   3.959 -0.6848  0.4998  0.1499
 7135SOL    HW132867   2.978   1.594   3.922 -1.9725  0.4166 -0.3324
 7135SOL    HW232868   2.872   1.668   3.998 -0.2654 -1.7271  0.4022
 7136SOL     OW32869   2.317   4.255   8.586  0.1408 -0.5037 -0.1921
 7136SOL    HW132870   2.411   4.271   8.592  0.1222  0.1445 -1.6025
 7136SOL    HW232871   2.301   4.337   8.538  1.5114 -1.5845 -2.4838
 7137SOL     OW32872   0.679   1.326   7.811  0.0386  0.5050 -0.0666
 7137SOL    HW132873   0.603   1.322   7.869  0.8465 -0.0753  0.9473
 7137SOL    HW232874   0.755   1.341   7.866 -0.2359  1.0292  0.1716
 7138SOL     OW32875   3.770   0.053   8.677  0.1391  0.2209  0.0474
 7138SOL    HW132876   3.845   0.067   8.618 -1.6138  2.3507 -1.6774
 7138SOL    HW232877   3.813   0.065   8.762 -0.2562  2.0410 -0.0175
 7139SOL     OW32878   1.447   3.275  11.081  0.3717  0.2553  0.0823
 7139SOL    HW132879   1.420   3.227  11.002 -1.0251 -2.2118  2.0419
 7139SOL    HW232880   1.413   3.361  11.059  1.3954  0.5167 -0.4558
 7140SOL     OW32881   0.312   1.331  16.210  1.0306 -0.1712 -0.3232
 7140SOL    HW132882   0.292   1.274  16.136  1.4650 -1.6469  0.7120
 7140SOL    HW232883   0.325   1.412  16.161 -1.1506  0.8447  0.7713
 7141SOL     OW32884   4.376   0.346   1.356 -0.2415  0.0610 -0.0016
 7141SOL    HW132885   4.373   0.337   1.261 -0.2279  0.5471 -0.0503
 7141SOL    HW232886   4.441   0.282   1.386  0.2618  0.2547 -0.6820
 7142SOL     OW32887   3.410   4.003   1.749 -0.3125 -0.0223 -0.2209
 7142SOL    HW132888   3.505   4.001   1.765 -0.4295 -1.0006  0.3303
 7142SOL    HW232889   3.375   3.988   1.837  0.0105 -0.3437 -0.1466
 7143SOL     OW32890   1.758   3.636   4.906 -0.2926  0.1721 -0.4038
 7143SOL    HW132891   1.699   3.654   4.980 -0.8561  2.5421 -1.4103
 7143SOL    HW232892   1.695   3.617   4.837 -0.9692  1.1524 -0.0610
 7144SOL     OW32893   2.372   2.271  12.756  0.4699 -0.2075  0.6171
 7144SOL    HW132894   2.338   2.182  12.755  2.2735 -0.9012  0.0634
 7144SOL    HW232895   2.444   2.262  12.693  1.5600 -0.8462  1.9379
 7145SOL     OW32896   0.212   2.891   7.504 -0.2072 -0.5862  0.4696
 7145SOL    HW132897   0.249   2.961   7.558 -1.5778 -1.2689  2.3113
 7145SOL    HW232898   0.208   2.828   7.576 -2.5084 -1.4290 -0.3889
 7146SOL     OW32899   1.360   3.095   0.047 -0.3446  0.3811 -0.3995
 7146SOL    HW132900   1.271   3.082   0.015  0.0273 -0.2950 -1.1559
 7146SOL    HW232901   1.346   3.119   0.139  0.1803 -0.6305 -0.0558
 7147SOL     OW32902   4.521   0.789   6.487  0.3977 -0.0456  0.2493
 7147SOL    HW132903   4.613   0.812   6.503  0.5879 -0.6822  0.0399
 7147SOL    HW232904   4.512   0.723   6.419  2.6709 -1.3501  1.2276
 7148SOL     OW32905   2.846   1.093   5.643  0.3319 -0.3891  0.0860
 7148SOL    HW132906   2.774   1.045   5.685  0.8725 -1.2344  0.0364
 7148SOL    HW232907   2.804   1.109   5.559  0.5433  1.1870  0.2737
 7149SOL     OW32908   0.384   2.789   2.244  0.1204 -0.0903 -0.1582
 7149SOL    HW132909   0.322   2.849   2.203  0.8429 -0.0960 -1.2539
 7149SOL    HW232910   0.412   2.850   2.312  0.9119  0.9185 -1.3918
 7150SOL     OW32911   1.132   0.571  10.524 -0.4724  0.3649  0.0750
 7150SOL    HW132912   1.204   0.620  10.486 -1.2779  1.0333 -0.5810
 7150SOL    HW232913   1.080   0.542  10.449 -0.0201 -2.7027  0.9314
 7151SOL     OW32914   1.132   1.190  16.815  0.0657  0.4213 -0.3118
 7151SOL    HW132915   1.057   1.162  16.867  0.9895 -1.8234 -0.1659
 7151SOL    HW232916   1.114   1.149  16.730  0.6979 -1.5263  0.4965
 7152SOL     OW32917   3.551   4.715  14.542 -0.2541 -0.8108 -0.8049
 7152SOL    HW132918   3.621   4.666  14.498 -0.7652 -0.1876 -2.3144
 7152SOL    HW232919   3.540   0.060  14.478 -1.0561  1.0434  1.4075
 7153SOL     OW32920   3.043   0.638   4.335  0.4702 -0.8070  0.0154
 7153SOL    HW132921   2.954   0.673   4.325  1.4632  1.7367  0.0131
 7153SOL    HW232922   3.035   0.548   4.367 -2.5939 -0.0768  1.3004
 7154SOL     OW32923   1.853   0.743   8.186  0.6267 -0.0302  0.3826
 7154SOL    HW132924   1.770   0.787   8.202  1.4806  1.5464  0.4470
 7154SOL    HW232925   1.905   0.817   8.154 -0.1466  0.0868 -0.5844
 7155SOL     OW32926   2.758   4.075  13.665  0.3918  0.1250  0.0758
 7155SOL    HW132927   2.770   4.103  13.756 -1.7954 -0.6940  0.6223
 7155SOL    HW232928   2.771   4.160  13.625 -1.1174  1.2222  1.9436
 7156SOL     OW32929   1.816   1.424  11.440 -0.1793  0.3338  0.5354
 7156SOL    HW132930   1.825   1.399  11.348 -2.8877  1.6755 -0.1209
 7156SOL    HW232931   1.826   1.342  11.489  1.4826  0.4581  0.4039
 7157SOL     OW32932   1.287   2.394   1.713 -0.4435  0.3182 -0.0842
 7157SOL    HW132933   1.381   2.405   1.699 -0.5569  0.8043 -0.4588
 7157SOL    HW232934   1.267   2.310   1.672  0.2428  1.5105 -2.8507
 7158SOL     OW32935   1.468   1.442  16.384  0.4581 -0.5596 -0.2300
 7158SOL    HW132936   1.403   1.385  16.343  0.6707  0.0311 -1.3810
 7158SOL    HW232937   1.463   1.519  16.328 -1.6596 -1.2347 -0.9673
 7159SOL     OW32938   2.672   3.758   7.760  0.6915  0.2279 -0.6794
 7159SOL    HW132939   2.724   3.684   7.731 -1.4545 -2.1014  1.4485
 7159SOL    HW232940   2.725   3.831   7.726 -0.5014  1.3048 -0.2413
 7160SOL     OW32941   4.227   4.564  15.368  0.6025 -0.2675 -0.4963
 7160SOL    HW132942   4.266   4.652  15.358 -0.3199  0.3755  1.5955
 7160SOL    HW232943   4.284   4.508  15.421 -0.0990  0.8869  1.4902
 7161SOL     OW32944   4.461   3.239   3.801 -0.3701 -0.2952  0.1760
 7161SOL    HW132945   4.417   3.258   3.884 -1.9206 -2.1512 -0.2033
 7161SOL    HW232946   4.505   3.161   3.835  2.0312  1.6129  1.3915
 7162SOL     OW32947   3.295   1.584  13.143 -0.0986 -0.1661  0.1000
 7162SOL    HW132948   3.273   1.552  13.056  1.8571  2.1880 -1.2827
 7162SOL    HW232949   3.240   1.532  13.201  2.4477 -2.2317  0.6632
 7163SOL     OW32950   4.604   3.910   4.280  0.1229  0.1276 -0.3235
 7163SOL    HW132951   4.536   3.852   4.315  2.3790 -0.7521  2.6237
 7163SOL    HW232952   4.648   3.850   4.220 -0.6070  0.1008 -0.8330
 7164SOL     OW32953   1.073   3.831   3.553  0.3358 -0.1998 -0.6054
 7164SOL    HW132954   1.070   3.918   3.512  1.5549  0.7598  1.3663
 7164SOL    HW232955   1.131   3.841   3.629 -1.8007 -1.4947  1.1875
 7165SOL     OW32956   2.115   0.383   5.083  0.0011  0.2862 -0.0831
 7165SOL    HW132957   2.077   0.297   5.100  1.8085 -0.5932 -0.5430
 7165SOL    HW232958   2.120   0.430   5.167  0.1275 -0.7987  0.5137
 7166SOL     OW32959   0.841   3.746   0.387 -0.0321  0.2453  0.4045
 7166SOL    HW132960   0.809   3.747   0.297  3.1721 -0.0755 -0.7207
 7166SOL    HW232961   0.805   3.663   0.418 -1.8005  0.0836 -2.1236
 7167SOL     OW32962   4.516   0.562   7.696  0.2840 -0.0237  0.5489
 7167SOL    HW132963   4.470   0.496   7.748  1.3449 -0.5815  0.7779
 7167SOL    HW232964   4.596   0.510   7.683 -0.5438 -0.7631 -1.4670
 7168SOL     OW32965   0.115   1.363   6.869 -0.4971  0.6803  0.1844
 7168SOL    HW132966   0.097   1.342   6.777 -0.2948  2.2037 -0.2137
 7168SOL    HW232967   0.211   1.363   6.860 -0.4589  0.3702  0.6025
 7169SOL     OW32968   1.229   1.709   3.629 -0.2232  0.3079  0.3928
 7169SOL    HW132969   1.149   1.681   3.674  1.0785 -1.7619  1.4283
 7169SOL    HW232970   1.221   1.803   3.613  1.7811  0.5454  0.8385
 7170SOL     OW32971   1.887   0.861  16.461  0.1571  0.1240 -0.1430
 7170SOL    HW132972   1.916   0.792  16.521  0.2304  0.8381  0.6449
 7170SOL    HW232973   1.972   0.862  16.415 -0.0422  0.8744 -0.4877
 7171SOL     OW32974   4.267   0.768   8.069  0.3790 -0.2322  0.2441
 7171SOL    HW132975   4.337   0.830   8.049  2.7613 -2.6030  1.1771
 7171SOL    HW232976   4.206   0.822   8.119  1.3176 -0.7128  1.9058
 7172SOL     OW32977   2.307   4.661   6.464 -0.0907 -0.1795 -0.2687
 7172SOL    HW132978   2.257   4.608   6.527  1.2791 -0.2567  0.7508
 7172SOL    HW232979   2.268   0.022   6.461 -1.0566 -0.6347 -0.7136
 7173SOL     OW32980   2.989   3.945   2.062  0.0841 -0.5286  0.0139
 7173SOL    HW132981   2.895   3.934   2.073  0.0161  0.9506  0.9097
 7173SOL    HW232982   3.012   3.856   2.035  1.0595 -0.5939  1.0464
 7174SOL     OW32983   2.534   1.984   0.683 -0.0186 -0.2591 -0.3413
 7174SOL    HW132984   2.587   1.945   0.752 -1.2222  0.0551  0.7521
 7174SOL    HW232985   2.474   1.913   0.661 -1.4047  0.4946  1.0301
 7175SOL     OW32986   1.192   1.811   8.016 -0.1538 -0.4197 -0.5889
 7175SOL    HW132987   1.248   1.782   8.088  1.2080  1.5201 -0.8582
 7175SOL    HW232988   1.125   1.856   8.067 -0.7730 -0.2838 -1.5181
 7176SOL     OW32989   3.823   2.486   3.087 -0.1589  0.2284 -0.2246
 7176SOL    HW132990   3.828   2.398   3.050 -2.1613  0.8944 -2.1156
 7176SOL    HW232991   3.904   2.529   3.063  0.2775 -0.9665 -0.9120
 7177SOL     OW32992   0.939   1.114   5.110 -0.4433 -0.3366  0.9063
 7177SOL    HW132993   0.972   1.029   5.081  1.3826 -0.3594  3.0985
 7177SOL    HW232994   1.012   1.142   5.165 -0.4638 -3.3349  2.4683
 7178SOL     OW32995   3.277   3.845  11.773 -0.2848  0.0575 -0.0304
 7178SOL    HW132996   3.362   3.888  11.761 -0.5113  0.6161  0.3509
 7178SOL    HW232997   3.239   3.858  11.687  2.0716 -0.3717 -1.1468
 7179SOL     OW32998   1.079   0.661   4.186 -0.3561 -0.0963 -0.4081
 7179SOL    HW132999   1.139   0.729   4.214 -1.8959  0.8182  0.6225
 7179SOL    HW233000   1.145   0.592   4.178 -1.2022 -0.9446 -0.1298
 7180SOL     OW33001   2.312   0.949   2.562 -0.2996 -0.2661  0.4616
 7180SOL    HW133002   2.291   0.915   2.649  0.1393  0.5203  0.8744
 7180SOL    HW233003   2.373   0.884   2.526 -1.0004 -1.9464  2.3060
 7181SOL     OW33004   1.181   1.705   5.345 -0.1913 -0.1511  0.9343
 7181SOL    HW133005   1.136   1.786   5.369 -0.8404  0.0854 -1.0382
 7181SOL    HW233006   1.181   1.713   5.249 -0.5792 -2.1924  0.7537
 7182SOL     OW33007   0.327   0.633  14.284  0.0221 -0.3293 -0.3105
 7182SOL    HW133008   0.305   0.710  14.336  0.2975 -0.2106 -0.3691
 7182SOL    HW233009   0.409   0.664  14.245  1.0585  1.5303  3.3957
 7183SOL     OW33010   4.459   0.683  13.149 -0.0122  0.3266 -0.5676
 7183SOL    HW133011   4.532   0.664  13.207 -2.2250 -0.3556  1.9889
 7183SOL    HW233012   4.479   0.769  13.112 -1.3614  1.2273  0.7953
 7184SOL     OW33013   0.215   3.948  15.447  0.2629 -0.4602  0.0094
 7184SOL    HW133014   0.261   3.886  15.503 -1.3776 -0.7130  1.0765
 7184SOL    HW233015   0.248   4.030  15.485  0.0446 -0.6298  0.5601
 7185SOL     OW33016   2.654   2.233   3.406  0.0023  0.1553  0.3490
 7185SOL    HW133017   2.737   2.271   3.379 -0.3896  0.3608 -0.5754
 7185SOL    HW233018   2.606   2.248   3.325  0.0593 -0.8472  0.1246
 7186SOL     OW33019   1.716   2.226   6.019  0.1315 -0.4171 -0.2459
 7186SOL    HW133020   1.755   2.270   6.095  2.5125 -2.7369 -0.1483
 7186SOL    HW233021   1.622   2.243   6.033 -0.0095 -1.2167 -0.2657
 7187SOL     OW33022   3.355   2.869   6.545  0.2935  0.2756 -0.2301
 7187SOL    HW133023   3.269   2.835   6.568 -0.5819  1.2838 -2.0567
 7187SOL    HW233024   3.337   2.883   6.452  0.4300  0.9988 -0.1455
 7188SOL     OW33025   2.881   4.650   8.903 -0.1255  0.1288  0.4239
 7188SOL    HW133026   2.957   4.622   8.953  0.2548 -0.5924 -0.5490
 7188SOL    HW233027   2.813   4.596   8.943  1.5072 -2.6696 -0.6044
 7189SOL     OW33028   4.483   2.433   7.857  0.1837 -0.4327  0.2287
 7189SOL    HW133029   4.462   2.347   7.893  0.2354 -0.4009  0.3349
 7189SOL    HW233030   4.409   2.454   7.800  1.4265  1.9298 -0.5267
 7190SOL     OW33031   4.211   4.069  14.359 -0.1620  0.2888 -0.0429
 7190SOL    HW133032   4.241   4.158  14.377  0.5229  0.4231 -1.8652
 7190SOL    HW233033   4.235   4.071  14.267 -0.0865  1.1895 -0.0029
 7191SOL     OW33034   2.874   1.007   7.987  0.5871  0.5406 -0.3004
 7191SOL    HW133035   2.858   1.068   8.059  1.2715 -1.3069  1.3950
 7191SOL    HW233036   2.965   1.027   7.966  0.4896 -1.6474 -2.8699
 7192SOL     OW33037   3.973   4.614   0.969 -0.1010  0.2090  0.3191
 7192SOL    HW133038   3.988   4.660   1.052 -1.5704 -1.1059  1.3162
 7192SOL    HW233039   3.878   4.629   0.974 -0.2365 -0.3266 -0.5421
 7193SOL     OW33040   0.522   1.670   2.383  0.5421 -0.1166 -0.0407
 7193SOL    HW133041   0.432   1.641   2.395  0.2769  0.9473  0.5372
 7193SOL    HW233042   0.510   1.765   2.388  1.6013 -0.1276  2.7583
 7194SOL     OW33043   4.198   1.826   8.873  0.1556  0.2887 -0.1550
 7194SOL    HW133044   4.124   1.862   8.824 -0.7240  0.0706  1.0003
 7194SOL    HW233045   4.275   1.876   8.847  0.1665  1.6379  2.4099
 7195SOL     OW33046   1.464   0.424   4.803 -0.0973 -0.0903 -0.5483
 7195SOL    HW133047   1.499   0.338   4.826  0.0403  0.0585 -0.2074
 7195SOL    HW233048   1.549   0.468   4.805 -0.9551  1.6024 -1.1196
 7196SOL     OW33049   4.576   0.154   5.986 -0.1266 -0.3575 -0.2054
 7196SOL    HW133050   4.509   0.192   6.044  0.5506 -0.8653  0.9138
 7196SOL    HW233051   4.537   0.082   5.937  2.5047 -1.1232 -1.1681
 7197SOL     OW33052   1.592   0.878  15.243 -0.1109  0.1330  0.1964
 7197SOL    HW133053   1.554   0.844  15.324 -0.6716 -0.0905 -0.1619
 7197SOL    HW233054   1.535   0.953  15.225 -1.9285 -0.6835  2.3925
 7198SOL     OW33055   1.528   0.342   8.891  0.4826 -0.0331 -0.2305
 7198SOL    HW133056   1.580   0.413   8.930  1.2751 -0.3845 -0.6335
 7198SOL    HW233057   1.581   0.263   8.901  0.9602  0.3835  0.5273
 7199SOL     OW33058   3.226   4.388   1.579  0.2062  0.4833 -0.0256
 7199SOL    HW133059   3.242   4.411   1.487 -1.2844 -1.3085 -0.7123
 7199SOL    HW233060   3.313   4.388   1.618  0.2220  1.6556 -0.0528
 7200SOL     OW33061   1.311   2.947   3.794  0.0776  0.1355  0.0392
 7200SOL    HW133062   1.270   3.013   3.739 -0.2030  0.7623  0.9890
 7200SOL    HW233063   1.327   3.007   3.868  0.3488  0.2403 -0.1043
 7201SOL     OW33064   1.429   4.381  16.016  0.3920 -0.6418 -0.4231
 7201SOL    HW133065   1.408   4.289  16.033 -1.8965  0.0968  0.7658
 7201SOL    HW233066   1.402   4.385  15.924  0.1477  1.4557 -0.2484
 7202SOL     OW33067   3.906   2.058  17.429  0.5060  0.2995 -0.0815
 7202SOL    HW133068   3.996   2.078  17.402  0.1589  1.3662 -0.4438
 7202SOL    HW233069   3.857   2.138  17.408  0.6346  0.2480 -0.5821
 7203SOL     OW33070   2.606   0.077  11.555 -0.2925  0.1164  0.2254
 7203SOL    HW133071   2.589   0.048  11.645 -1.0481 -1.0281 -0.2867
 7203SOL    HW233072   2.516   0.073  11.525 -0.5388  0.1601  0.9564
 7204SOL     OW33073   2.324   0.350   4.179  0.3704 -0.2711 -0.3473
 7204SOL    HW133074   2.305   0.316   4.266 -2.0341  1.0428 -0.3698
 7204SOL    HW233075   2.319   0.267   4.133  1.5629 -0.5759  0.0659
 7205SOL     OW33076   0.161   0.372   5.537  0.1395 -0.5196  0.1741
 7205SOL    HW133077   0.137   0.324   5.457  1.2516  0.3294 -0.6728
 7205SOL    HW233078   0.141   0.313   5.610  1.8514  0.0338  1.0861
 7206SOL     OW33079   3.823   2.441   3.387 -0.3335 -0.3824  0.2045
 7206SOL    HW133080   3.899   2.500   3.387 -1.9346  1.6941  0.7988
 7206SOL    HW233081   3.783   2.474   3.306  2.7111  0.2739 -1.0406
 7207SOL     OW33082   2.155   3.765   9.173 -0.2630  0.0178 -0.1327
 7207SOL    HW133083   2.175   3.820   9.248  0.5027 -0.4817  0.0257
 7207SOL    HW233084   2.112   3.830   9.117  1.1275  0.1105 -1.1136
 7208SOL     OW33085   1.366   1.441  10.631 -0.1640  0.0004 -0.0525
 7208SOL    HW133086   1.381   1.378  10.561 -2.8835 -0.8170  0.0956
 7208SOL    HW233087   1.421   1.411  10.704  0.8796 -0.7066 -1.1316
 7209SOL     OW33088   4.530   3.302   7.152 -0.0500 -0.5607  0.2573
 7209SOL    HW133089   4.616   3.264   7.135 -0.6559 -0.5434 -2.9452
 7209SOL    HW233090   4.544   3.362   7.225 -0.4718 -0.5643  0.3458
 7210SOL     OW33091   3.553   3.769   3.879 -0.3129 -0.1245  0.4879
 7210SOL    HW133092   3.494   3.844   3.884  2.4391  2.2256 -2.4132
 7210SOL    HW233093   3.630   3.818   3.909 -2.2594  3.6108 -0.6500
 7211SOL     OW33094   2.113   2.340   6.429 -0.4405  0.5230  0.1718
 7211SOL    HW133095   2.195   2.316   6.385 -0.5224  0.7498 -0.1026
 7211SOL    HW233096   2.149   2.410   6.484  2.1003  0.5965 -1.5796
 7212SOL     OW33097   0.169   1.332   7.537 -0.4384 -0.1601  0.1922
 7212SOL    HW133098   0.091   1.371   7.576 -0.3077 -0.1974  0.4913
 7212SOL    HW233099   0.147   1.239   7.535 -0.1556 -0.1784 -2.3045
 7213SOL     OW33100   1.647   2.268  11.081 -0.2956 -0.1505  0.1875
 7213SOL    HW133101   1.605   2.204  11.024  0.3443 -0.6886  0.3181
 7213SOL    HW233102   1.663   2.343  11.025  1.9920 -1.7438 -1.2867
 7214SOL     OW33103   1.503   4.241   4.851  0.7299 -0.5449 -0.2135
 7214SOL    HW133104   1.584   4.191   4.857  0.3058 -1.3664 -1.3827
 7214SOL    HW233105   1.451   4.202   4.781  0.2562  0.3846 -0.3814
 7215SOL     OW33106   2.306   0.004  10.180 -0.0260  0.2641 -0.0626
 7215SOL    HW133107   2.228   0.007  10.125  0.9460  1.7693 -1.3772
 7215SOL    HW233108   2.265   4.708  10.263  0.9982  0.3239  0.4678
 7216SOL     OW33109   1.373   2.010   7.066 -0.2589 -0.4987  0.0869
 7216SOL    HW133110   1.367   1.938   7.129  0.5089 -0.3639  0.3157
 7216SOL    HW233111   1.442   2.067   7.101 -1.2408  0.2206  0.8159
 7217SOL     OW33112   4.448   1.437   6.653 -0.1847  0.3916  0.6348
 7217SOL    HW133113   4.415   1.527   6.646 -1.8409 -0.3472 -1.0264
 7217SOL    HW233114   4.426   1.411   6.743 -0.1244  1.9699  1.1102
 7218SOL     OW33115   1.485   3.919  16.577  0.0271 -0.1022 -0.8145
 7218SOL    HW133116   1.447   3.996  16.619 -0.4646 -1.5012  1.3382
 7218SOL    HW233117   1.513   3.874  16.657  0.0405  1.4045  0.0324
 7219SOL     OW33118   3.091   3.852   9.021  0.5436  0.3124  0.1773
 7219SOL    HW133119   3.032   3.803   9.078  0.0441  0.6710 -0.0268
 7219SOL    HW233120   3.159   3.785   9.024  0.5089  0.3322  1.4043
 7220SOL     OW33121   3.837   0.009  10.278 -0.1894 -0.4601  0.1150
 7220SOL    HW133122   3.843   4.641  10.296 -2.9003 -0.7801 -0.6886
 7220SOL    HW233123   3.911   0.026  10.219 -1.2508 -0.3553 -1.1830
 7221SOL     OW33124   0.406   1.092   4.003 -0.0716  0.0876 -0.8614
 7221SOL    HW133125   0.380   1.139   4.082 -0.0688 -1.2113 -0.0843
 7221SOL    HW233126   0.381   1.005   4.034 -0.6276 -0.2004 -2.1137
 7222SOL     OW33127   4.437   2.179   7.916  0.1058 -0.2053  0.0857
 7222SOL    HW133128   4.390   2.121   7.857  0.1733  0.1894 -0.3540
 7222SOL    HW233129   4.485   2.116   7.970 -2.3037  0.1132  2.5837
 7223SOL     OW33130   0.465   1.575   7.960  0.2198 -0.0605  0.6981
 7223SOL    HW133131   0.526   1.628   7.908  1.6691 -1.0257  1.4248
 7223SOL    HW233132   0.391   1.570   7.900 -0.7639 -1.0090  2.0121
 7224SOL     OW33133   3.314   2.346   7.975 -0.5395 -0.8737  0.2438
 7224SOL    HW133134   3.399   2.304   7.984 -0.5158 -0.7059  0.8046
 7224SOL    HW233135   3.336   2.437   7.954 -0.3238 -0.3935  2.6073
 7225SOL     OW33136   1.757   3.932   7.874  0.2163 -0.2904 -0.0463
 7225SOL    HW133137   1.763   3.980   7.957 -0.5818  2.0643 -1.3444
 7225SOL    HW233138   1.665   3.947   7.853  0.6605  0.8261 -1.2578
 7226SOL     OW33139   1.929   3.684   4.423  0.1811  0.5103  0.2717
 7226SOL    HW133140   1.957   3.750   4.359  1.8128  1.1500  1.6437
 7226SOL    HW233141   1.917   3.741   4.499  1.3990 -0.0266  0.8622
 7227SOL     OW33142   0.518   2.990  17.385 -0.1212 -0.1077 -0.3869
 7227SOL    HW133143   0.533   2.896  17.379  0.4164 -0.0631  0.3378
 7227SOL    HW233144   0.607   3.020  17.367 -0.5025  0.5463 -1.1760
 7228SOL     OW33145   0.171   0.474   8.885 -0.1348  0.5139 -0.2217
 7228SOL    HW133146   0.183   0.418   8.809 -2.2733 -1.2767  0.7699
 7228SOL    HW233147   0.078   0.474   8.909 -0.2896  0.3931 -0.8290
 7229SOL     OW33148   3.166   4.717   7.759 -0.1994  0.3057  0.2420
 7229SOL    HW133149   3.236   0.008   7.821  1.0027 -0.7822 -0.8287
 7229SOL    HW233150   3.137   0.082   7.746 -1.2325  0.2017  1.8631
 7230SOL     OW33151   1.117   3.696   7.862 -0.0129 -0.1016  0.7026
 7230SOL    HW133152   1.034   3.742   7.873 -0.3287 -0.1982 -1.2451
 7230SOL    HW233153   1.183   3.765   7.871 -1.2524  1.2986 -1.0192
 7231SOL     OW33154   2.163   2.021   4.394 -0.4124  0.5554  0.2879
 7231SOL    HW133155   2.224   1.958   4.430  0.9704  2.1626  0.7482
 7231SOL    HW233156   2.120   1.952   4.343 -1.2658  0.0684  1.6666
 7232SOL     OW33157   0.914   0.903   6.447  0.0164  0.2401  0.1524
 7232SOL    HW133158   0.920   0.993   6.479  0.5104  0.8440 -1.6488
 7232SOL    HW233159   0.896   0.868   6.534  0.5263  0.0477  0.1819
 7233SOL     OW33160   0.044   1.053   2.728 -0.0474  0.0553 -0.4294
 7233SOL    HW133161   0.121   0.995   2.723  0.7170  0.9098  1.1688
 7233SOL    HW233162   4.700   0.999   2.692 -0.6338 -0.6977  1.8404
 7234SOL     OW33163   1.871   3.620   5.213 -0.3923 -0.4498 -0.1061
 7234SOL    HW133164   1.893   3.527   5.223 -0.9841 -0.5257  0.4421
 7234SOL    HW233165   1.930   3.641   5.140  0.1148  1.1784  0.7836
 7235SOL     OW33166   0.086   3.550   5.525  0.1664 -0.4429  0.2185
 7235SOL    HW133167   0.020   3.588   5.582 -0.5469  0.2680 -1.0909
 7235SOL    HW233168   0.155   3.616   5.534 -0.6427  0.1732  1.8667
 7236SOL     OW33169   2.292   0.733   5.693  0.0305 -0.3969 -1.4440
 7236SOL    HW133170   2.360   0.665   5.699  0.2271 -0.1453 -0.7288
 7236SOL    HW233171   2.293   0.757   5.786  2.5082 -3.4260 -0.7077
 7237SOL     OW33172   2.946   1.376  10.451  0.0448 -0.3811 -0.5691
 7237SOL    HW133173   3.008   1.353  10.520  2.0937 -1.2930 -2.7095
 7237SOL    HW233174   2.985   1.458  10.421  0.4343 -0.7034 -0.9578
 7238SOL     OW33175   2.372   3.086   5.761  0.1861 -0.4075 -0.1951
 7238SOL    HW133176   2.454   3.123   5.730  0.0354 -0.3689 -0.5503
 7238SOL    HW233177   2.316   3.124   5.693 -0.6874 -0.1762  0.6620
 7239SOL     OW33178   2.310   3.653  12.394  0.0081 -0.4398 -0.0963
 7239SOL    HW133179   2.352   3.723  12.443  1.0524 -0.1153 -1.4492
 7239SOL    HW233180   2.244   3.700  12.343 -1.3449  0.4740  2.4974
 7240SOL     OW33181   3.835   3.682   8.401  0.1444  0.3316 -0.4261
 7240SOL    HW133182   3.915   3.728   8.376  1.8377 -2.3366  0.0840
 7240SOL    HW233183   3.861   3.608   8.456  1.2712  0.3191 -0.9764
 7241SOL     OW33184   4.454   0.064   7.848 -0.5377  0.7256 -0.5548
 7241SOL    HW133185   4.364   0.044   7.822 -0.9299 -2.2936  3.1282
 7241SOL    HW233186   4.505   4.722   7.805 -2.7334 -1.3071  0.0741
 7242SOL     OW33187   1.984   0.006   6.459 -0.0161 -0.0563  0.8027
 7242SOL    HW133188   1.985   0.053   6.542  2.1286  0.8532  0.2657
 7242SOL    HW233189   1.995   0.076   6.394 -1.4171 -1.8835 -1.4005
 7243SOL     OW33190   1.185   4.615  15.950  0.2925  0.4552 -0.1378
 7243SOL    HW133191   1.119   4.684  15.955  0.2391  0.1227  3.3939
 7243SOL    HW233192   1.166   4.579  15.863 -0.8498  1.9780 -0.5256
 7244SOL     OW33193   4.036   2.126   2.154  0.3962 -0.0191 -0.3280
 7244SOL    HW133194   4.065   2.199   2.100 -0.1681 -0.8095 -1.6927
 7244SOL    HW233195   4.028   2.061   2.084  1.5977 -0.3918 -0.1250
 7245SOL     OW33196   1.846   3.229   3.153  0.1073  0.2241  0.0647
 7245SOL    HW133197   1.802   3.182   3.224  1.0933  2.2740  1.9929
 7245SOL    HW233198   1.915   3.272   3.203  1.2839 -0.9564 -0.5363
 7246SOL     OW33199   1.010   1.279  15.658 -0.9826 -0.0095  0.0432
 7246SOL    HW133200   1.082   1.274  15.720 -0.2740 -0.1609 -0.8015
 7246SOL    HW233201   0.937   1.235  15.703 -1.3677  0.7264  0.1457
 7247SOL     OW33202   0.945   0.284   3.129  0.0157  0.4737  0.0625
 7247SOL    HW133203   0.921   0.373   3.106 -1.5074  0.4609  1.5833
 7247SOL    HW233204   0.947   0.282   3.225  0.1645 -0.2624  0.0490
 7248SOL     OW33205   4.035   1.870   5.666 -0.4087 -0.3750  0.5066
 7248SOL    HW133206   4.029   1.913   5.752 -0.6702  1.4403 -0.4229
 7248SOL    HW233207   4.125   1.838   5.661  0.1025  1.5941 -2.9330
 7249SOL     OW33208   2.457   2.618  12.576 -0.1348 -0.2520  0.4020
 7249SOL    HW133209   2.450   2.711  12.597 -0.2200 -0.2735  0.4680
 7249SOL    HW233210   2.548   2.614  12.545 -0.1011 -2.3419  0.7686
 7250SOL     OW33211   3.108   4.007   6.519 -0.2038 -0.3010  0.0260
 7250SOL    HW133212   3.054   4.084   6.535  0.8178  0.5894 -0.8194
 7250SOL    HW233213   3.047   3.933   6.509 -0.1104 -0.2319 -1.1347
 7251SOL     OW33214   0.124   0.609   4.963 -0.2353  0.2580 -0.1358
 7251SOL    HW133215   0.033   0.584   4.976  0.5346 -1.7321  1.4714
 7251SOL    HW233216   0.109   0.661   4.884 -1.0500  0.4530  0.1517
 7252SOL     OW33217   2.506   4.165   5.025  0.0458  0.1816 -0.2081
 7252SOL    HW133218   2.578   4.135   4.970  1.1764 -0.7291  1.7611
 7252SOL    HW233219   2.443   4.143   4.957 -0.8554  1.9135  0.0577
 7253SOL     OW33220   4.259   4.400   4.440  0.3064  0.2212  0.0834
 7253SOL    HW133221   4.247   4.494   4.432 -2.4292 -0.0294  1.0628
 7253SOL    HW233222   4.344   4.378   4.403  0.0849  1.9715 -1.4468
 7254SOL     OW33223   2.391   0.730  15.731  0.2115 -0.4906  0.2516
 7254SOL    HW133224   2.316   0.700  15.781 -0.7898  2.2901  0.4301
 7254SOL    HW233225   2.404   0.656  15.672 -0.1084 -0.8033  0.5736
 7255SOL     OW33226   1.752   1.780   8.763 -0.4851 -0.8528  0.8277
 7255SOL    HW133227   1.827   1.741   8.808 -0.3369 -0.0929  1.2432
 7255SOL    HW233228   1.728   1.851   8.823  0.4284  0.0006  0.1864
 7256SOL     OW33229   0.065   4.504   4.156  0.2934 -0.1945  0.5103
 7256SOL    HW133230   0.020   4.535   4.235  1.0094 -0.1755  0.9100
 7256SOL    HW233231   0.143   4.467   4.198 -0.6893 -2.3181  0.4645
 7257SOL     OW33232   3.527   2.800  16.291  0.0248 -0.2925 -0.4085
 7257SOL    HW133233   3.617   2.813  16.320  0.7294 -1.7968 -1.9579
 7257SOL    HW233234   3.497   2.732  16.351  0.7854  0.5835  0.9457
 7258SOL     OW33235   0.482   0.076   5.567 -0.6436  0.2075  0.1478
 7258SOL    HW133236   0.497   0.170   5.565 -1.7187  0.3538 -1.2050
 7258SOL    HW233237   0.567   0.045   5.535 -1.4693  0.6732 -2.4713
 7259SOL     OW33238   1.549   1.967   4.790 -0.2539 -0.0325 -0.0671
 7259SOL    HW133239   1.580   2.058   4.801  1.8595 -0.5438 -1.7620
 7259SOL    HW233240   1.477   1.977   4.728 -0.3340  1.0468  0.2011
 7260SOL     OW33241   0.057   0.741   6.842 -0.1874  0.1943  0.7526
 7260SOL    HW133242   0.026   0.831   6.854  1.0527  0.6092  0.8307
 7260SOL    HW233243   0.097   0.726   6.928  0.2844 -0.1257  0.4786
 7261SOL     OW33244   3.582   2.864   5.511 -0.2733  0.0644  0.0846
 7261SOL    HW133245   3.646   2.934   5.498 -0.5790  0.6823  1.8720
 7261SOL    HW233246   3.629   2.831   5.587  0.6853  0.9686 -0.1161
 7262SOL     OW33247   3.660   3.652  16.844 -0.6827  0.7343  0.1516
 7262SOL    HW133248   3.581   3.636  16.897 -1.2553 -0.4556 -1.0632
 7262SOL    HW233249   3.724   3.646  16.915 -1.2122  2.6704  0.7991
 7263SOL     OW33250   0.112   3.102   3.842 -0.4721  0.2596  0.4399
 7263SOL    HW133251   0.088   3.027   3.897  0.2059 -0.6255 -0.4722
 7263SOL    HW233252   0.042   3.095   3.777 -0.8101  1.2332  0.7002
 7264SOL     OW33253   0.779   0.185   8.001  0.0858 -0.4793 -0.4190
 7264SOL    HW133254   0.735   0.268   8.022  1.2565  0.1783 -0.5456
 7264SOL    HW233255   0.718   0.133   8.053 -2.4231  1.8010 -1.0847
 7265SOL     OW33256   2.136   2.880  13.055 -0.1869  0.0344 -0.5057
 7265SOL    HW133257   2.227   2.909  13.058 -0.7943  1.8311  0.2844
 7265SOL    HW233258   2.115   2.872  13.148 -0.4773 -0.6871 -0.6335
 7266SOL     OW33259   3.827   4.142   1.429  0.2536  0.4004 -0.2088
 7266SOL    HW133260   3.792   4.075   1.371 -0.1826  0.5013 -0.0622
 7266SOL    HW233261   3.894   4.182   1.374  0.7473 -0.9459 -0.6006
 7267SOL     OW33262   2.642   1.933   0.234  0.0701  0.1886  0.3643
 7267SOL    HW133263   2.728   1.892   0.227 -0.0182  0.3761 -1.9384
 7267SOL    HW233264   2.585   1.856   0.240 -0.1272  0.1077 -2.3892
 7268SOL     OW33265   2.991   2.330   5.326 -0.0813 -0.3801  0.2767
 7268SOL    HW133266   2.949   2.262   5.380 -1.3066  0.3366  0.2305
 7268SOL    HW233267   2.986   2.409   5.379  1.0006  0.1396 -0.4131
 7269SOL     OW33268   1.625   3.131   5.742  0.0405 -0.2257 -0.0161
 7269SOL    HW133269   1.574   3.079   5.805  1.5826  1.6317  2.8029
 7269SOL    HW233270   1.660   3.062   5.687  0.6585 -0.6300  0.8823
 7270SOL     OW33271   1.171   0.576  11.526 -0.5197  0.1846 -0.1769
 7270SOL    HW133272   1.132   0.526  11.454  1.2011 -2.9094  1.0327
 7270SOL    HW233273   1.247   0.619  11.487 -0.3320 -0.9167 -1.0311
 7271SOL     OW33274   1.877   1.135   8.800 -0.1343 -0.4827 -0.1736
 7271SOL    HW133275   1.899   1.047   8.828 -1.0026 -0.9334 -0.9165
 7271SOL    HW233276   1.962   1.179   8.801 -0.0427 -0.6991  1.6082
 7272SOL     OW33277   1.281   0.513   3.103  0.6088 -0.2631 -0.1153
 7272SOL    HW133278   1.311   0.588   3.155  0.5715  1.5824 -2.7872
 7272SOL    HW233279   1.357   0.455   3.108  0.2341 -0.8850 -1.8710
 7273SOL     OW33280   1.473   1.195  17.289  0.1067 -0.1282 -0.1284
 7273SOL    HW133281   1.550   1.249  17.269 -0.9971  1.2931 -0.5384
 7273SOL    HW233282   1.408   1.257  17.323 -0.5474  0.0772 -1.7494
 7274SOL     OW33283   4.580   2.306   2.539  0.1937 -0.0599 -0.2565
 7274SOL    HW133284   4.531   2.224   2.547 -1.1076  0.9022  1.5498
 7274SOL    HW233285   4.656   2.256   2.509  1.9193  1.7280  1.1404
 7275SOL     OW33286   4.301   4.703   4.615 -0.1912 -0.2155  0.3514
 7275SOL    HW133287   4.205   4.704   4.621 -0.1842 -2.1314  0.7521
 7275SOL    HW233288   4.310   4.687   4.521 -2.0975  1.2683 -0.0949
 7276SOL     OW33289   3.823   1.200   2.533 -0.8686  0.3853 -0.2185
 7276SOL    HW133290   3.745   1.243   2.566 -0.2748  0.0017  1.6885
 7276SOL    HW233291   3.815   1.127   2.594 -1.8367  0.3694 -0.3626
 7277SOL     OW33292   4.553   1.209   0.614  0.3352  0.5098  0.4802
 7277SOL    HW133293   4.627   1.171   0.662  1.4612 -1.5141 -2.9105
 7277SOL    HW233294   4.558   1.298   0.651 -0.0641  0.6268  0.2406
 7278SOL     OW33295   3.903   0.005   6.414 -0.5814 -0.4021 -0.2524
 7278SOL    HW133296   3.849   0.082   6.432 -0.3648  0.2414 -2.3563
 7278SOL    HW233297   3.842   4.671   6.372 -2.3771  1.9964 -1.0375
 7279SOL     OW33298   1.291   2.974  15.417 -0.1201  0.2515 -0.0870
 7279SOL    HW133299   1.385   2.961  15.431 -0.2716  0.7729  1.3997
 7279SOL    HW233300   1.246   2.923  15.484 -0.1407  2.8735  1.8963
 7280SOL     OW33301   2.670   3.191   6.371 -0.7466  1.0766 -0.0787
 7280SOL    HW133302   2.699   3.244   6.297 -2.8505  1.6562 -0.4799
 7280SOL    HW233303   2.718   3.220   6.449 -1.6342  0.0209  0.8571
 7281SOL     OW33304   3.030   0.994  12.156  0.2555 -0.0801 -0.3081
 7281SOL    HW133305   2.942   0.967  12.131  0.5262 -0.7951 -0.4796
 7281SOL    HW233306   3.018   0.998  12.251  0.4053 -1.2709 -0.2415
 7282SOL     OW33307   4.322   4.721   4.344  0.4624 -0.5635 -0.0425
 7282SOL    HW133308   4.361   4.680   4.267  0.4760  2.1678 -1.5052
 7282SOL    HW233309   4.372   0.077   4.342  0.8193 -0.7065  2.3920
 7283SOL     OW33310   3.739   4.133  13.409 -0.2790  0.2550 -0.3705
 7283SOL    HW133311   3.649   4.116  13.435 -0.5979 -0.6985 -2.1323
 7283SOL    HW233312   3.756   4.222  13.440 -1.2273  0.0470  0.7384
 7284SOL     OW33313   0.485   4.008   4.184 -0.0005 -0.3703  0.0002
 7284SOL    HW133314   0.542   3.938   4.152  1.0398  1.8590 -3.0883
 7284SOL    HW233315   0.473   3.996   4.278  0.6572 -0.0585  0.1248
 7285SOL     OW33316   3.054   2.312   7.973 -0.2369 -0.5850 -0.0358
 7285SOL    HW133317   3.147   2.295   7.955  0.1586  0.6429  0.8715
 7285SOL    HW233318   3.048   2.402   7.939 -0.8481 -0.1698  1.1851
 7286SOL     OW33319   2.317   2.286   6.247 -0.3783  0.5744 -0.2982
 7286SOL    HW133320   2.341   2.225   6.177 -0.2572 -1.5021  1.5486
 7286SOL    HW233321   2.401   2.331   6.260 -0.5520  0.8002  0.0482
 7287SOL     OW33322   2.984   3.018   1.623  0.3158  0.1239  0.4095
 7287SOL    HW133323   2.976   3.046   1.532 -1.0681 -0.5259  0.3467
 7287SOL    HW233324   2.913   3.069   1.661  1.0586  0.6219  1.1489
 7288SOL     OW33325   2.494   1.095  16.152 -0.1456 -0.0702 -0.2808
 7288SOL    HW133326   2.577   1.099  16.200 -1.5160 -1.7474  2.2027
 7288SOL    HW233327   2.490   1.016  16.098  1.6085 -0.9919  0.9309
 7289SOL     OW33328   0.584   4.615   3.879  0.2685  0.1838 -0.0778
 7289SOL    HW133329   0.501   4.664   3.873  0.0367 -0.6173 -3.3929
 7289SOL    HW233330   0.644   4.678   3.920  0.8589  1.2325 -2.5501
 7290SOL     OW33331   3.690   2.246  17.370  0.1277 -0.3910  0.0625
 7290SOL    HW133332   3.708   2.264  17.278 -0.8993  1.7083  0.2958
 7290SOL    HW233333   3.622   2.179  17.364  1.6399 -1.9537  0.2878
 7291SOL     OW33334   1.219   3.394   3.907 -0.2170  0.1853  0.7077
 7291SOL    HW133335   1.124   3.381   3.899 -0.4626  1.5723  1.3558
 7291SOL    HW233336   1.228   3.449   3.830  1.4186 -0.5164  0.3926
 7292SOL     OW33337   4.492   1.945  11.558 -0.0839 -0.1453  0.3140
 7292SOL    HW133338   4.468   1.885  11.488  0.2046 -0.0397  0.1216
 7292SOL    HW233339   4.546   1.881  11.605  2.4051  1.9481  0.2859
 7293SOL     OW33340   2.849   3.709   6.133 -0.5288 -0.1225 -0.4720
 7293SOL    HW133341   2.903   3.761   6.073 -0.7037  0.6814  0.0738
 7293SOL    HW233342   2.763   3.723   6.093  0.2055  0.5669 -1.8321
 7294SOL     OW33343   1.582   4.635  15.194  0.1599  0.7521 -0.0520
 7294SOL    HW133344   1.523   4.595  15.131  0.1080  0.2450  0.3208
 7294SOL    HW233345   1.591   4.557  15.250 -0.4881  0.4450 -0.3767
 7295SOL     OW33346   0.895   4.469   2.308 -0.4600 -0.5203  0.0839
 7295SOL    HW133347   0.872   4.534   2.375  2.6692  1.5951 -0.8834
 7295SOL    HW233348   0.911   4.535   2.240  0.2485 -0.3003  0.4568
 7296SOL     OW33349   2.975   2.779  16.603  0.2599 -0.0651 -0.2520
 7296SOL    HW133350   2.949   2.869  16.583  2.8529  0.4301 -1.5466
 7296SOL    HW233351   2.972   2.783  16.698  2.2053  1.9171 -0.2535
 7297SOL     OW33352   3.772   4.289   0.036  0.2201  0.0288 -0.3413
 7297SOL    HW133353   3.760   4.335   0.119 -0.6656 -3.0517  1.2504
 7297SOL    HW233354   3.699   4.226   0.041 -1.1390  1.8589  2.8903
 7298SOL     OW33355   1.904   2.660   0.889 -0.0402 -0.4017 -0.0046
 7298SOL    HW133356   1.851   2.582   0.900 -0.2309 -0.1000  1.1946
 7298SOL    HW233357   1.987   2.631   0.926 -1.1881  0.5736  3.3430
 7299SOL     OW33358   0.091   2.961   9.293 -0.1455 -0.9680  0.3908
 7299SOL    HW133359   0.117   2.920   9.376  0.3161 -1.9766 -0.2498
 7299SOL    HW233360   0.029   2.893   9.264 -1.0722 -0.5965  1.4770
 7300SOL     OW33361   3.221   3.159  11.220 -0.1665  0.4081 -0.3386
 7300SOL    HW133362   3.257   3.248  11.221 -1.9675  1.1184  0.6181
 7300SOL    HW233363   3.147   3.171  11.161  0.7352  1.8922 -1.1666
 7301SOL     OW33364   0.040   0.247   2.125  0.0156  1.0223  0.3315
 7301SOL    HW133365   0.112   0.213   2.178 -0.4827  0.1339  0.4395
 7301SOL    HW233366   0.006   0.167   2.084  1.9622 -0.1346  0.9619
 7302SOL     OW33367   0.078   4.322   7.386  0.0743  0.4057 -0.9375
 7302SOL    HW133368   0.075   4.413   7.358  2.5654  0.7019 -0.1686
 7302SOL    HW233369   0.144   4.322   7.455  1.3787 -2.1590 -2.1535
 7303SOL     OW33370   2.167   2.073   4.806  0.0912 -0.0765  0.2390
 7303SOL    HW133371   2.244   2.093   4.860  1.2591 -0.6051 -1.2496
 7303SOL    HW233372   2.159   2.163   4.775  0.0127  0.3645  1.5177
 7304SOL     OW33373   4.085   1.506  12.425 -0.4217 -0.5756  0.6383
 7304SOL    HW133374   4.127   1.578  12.378 -2.1611 -0.3803 -0.6396
 7304SOL    HW233375   3.997   1.534  12.400  0.9524  0.2955 -3.2104
 7305SOL     OW33376   0.483   0.967   0.430  0.0675 -0.0088 -0.0237
 7305SOL    HW133377   0.543   0.949   0.358  0.2709  0.8032 -0.0549
 7305SOL    HW233378   0.456   0.877   0.451 -3.6580  1.1554  0.2072
 7306SOL     OW33379   2.317   1.452   6.541 -0.4067 -1.0512 -0.2057
 7306SOL    HW133380   2.398   1.496   6.516 -1.9367  0.4950 -2.4477
 7306SOL    HW233381   2.253   1.515   6.507  1.8715  0.1071 -2.3693
 7307SOL     OW33382   1.154   4.689  16.976 -0.4830 -0.3149  0.2863
 7307SOL    HW133383   1.200   0.044  16.952  1.3723 -2.2971 -2.9043
 7307SOL    HW233384   1.214   4.622  16.943  2.1668  1.5814  1.1582
 7308SOL     OW33385   0.779   4.014   0.395 -0.0793 -0.1510 -0.0973
 7308SOL    HW133386   0.817   4.035   0.310  2.3421 -0.1643  0.9654
 7308SOL    HW233387   0.801   3.921   0.392  0.5658  0.0654 -1.9013
 7309SOL     OW33388   3.558   1.514   3.771  0.3370  0.0226 -0.2609
 7309SOL    HW133389   3.522   1.571   3.703  0.3107 -0.8146 -0.9570
 7309SOL    HW233390   3.490   1.506   3.837  0.7009  0.9091  0.2109
 7310SOL     OW33391   1.772   2.911  15.401  0.1632  0.3352  0.1183
 7310SOL    HW133392   1.820   2.868  15.471  1.4878  2.1374  0.3301
 7310SOL    HW233393   1.825   2.895  15.323  0.6910 -1.3245  0.8254
 7311SOL     OW33394   4.642   0.220   5.676 -0.5186  0.0397  0.7068
 7311SOL    HW133395   4.566   0.167   5.652 -1.6138  2.5617 -1.3722
 7311SOL    HW233396   4.601   0.287   5.730 -2.4500  0.2358 -1.0365
 7312SOL     OW33397   4.673   1.764   3.433  0.3379 -0.6101 -0.4319
 7312SOL    HW133398   4.625   1.747   3.514  1.6610  1.0184  0.6855
 7312SOL    HW233399   4.639   1.849   3.407 -0.6325 -0.7335  0.4585
 7313SOL     OW33400   1.660   1.808   1.342  0.2756 -0.3046 -0.0234
 7313SOL    HW133401   1.605   1.760   1.403 -1.0155 -0.3077 -1.1938
 7313SOL    HW233402   1.724   1.846   1.402 -0.6429 -0.6854  1.1874
 7314SOL     OW33403   1.584   4.193  14.767 -0.1290 -0.2748 -0.1121
 7314SOL    HW133404   1.535   4.263  14.723  1.9191 -0.5452 -2.7723
 7314SOL    HW233405   1.663   4.195  14.714 -0.0368 -0.4274  0.0207
 7315SOL     OW33406   2.008   0.243   9.245 -0.0035 -0.2749  0.2900
 7315SOL    HW133407   2.044   0.155   9.256  1.4194  0.3401  0.6344
 7315SOL    HW233408   2.088   0.287   9.214 -0.2075 -0.8333 -1.0209
 7316SOL     OW33409   4.149   3.438   3.957  0.0196  0.2261  0.1280
 7316SOL    HW133410   4.087   3.377   3.997 -0.3784  0.7258  0.2578
 7316SOL    HW233411   4.187   3.485   4.031 -1.5878  1.3079  0.2421
 7317SOL     OW33412   2.671   4.213   7.500 -0.3432  0.2478  0.4700
 7317SOL    HW133413   2.703   4.252   7.582 -2.0453  2.7347 -0.0400
 7317SOL    HW233414   2.743   4.151   7.496 -0.6280 -0.0545  0.0642
 7318SOL     OW33415   4.206   3.605   0.181  0.1761  0.7040  0.1747
 7318SOL    HW133416   4.115   3.597   0.211  0.1604 -0.2611 -0.1131
 7318SOL    HW233417   4.229   3.512   0.174  3.8579  1.5919  0.4765
 7319SOL     OW33418   3.978   0.119  10.040  0.3988  0.5078  0.5319
 7319SOL    HW133419   3.922   0.067   9.982  0.0615  0.3532  1.0037
 7319SOL    HW233420   4.012   0.180   9.974 -0.3064 -0.3998 -0.6895
 7320SOL     OW33421   3.509   3.586   9.616 -0.1857  0.3125 -0.6454
 7320SOL    HW133422   3.558   3.666   9.634  2.5662 -1.2598 -1.0077
 7320SOL    HW233423   3.550   3.510   9.658 -2.2474 -0.1124  0.6024
 7321SOL     OW33424   0.099   3.653   4.457  0.3288 -0.9879  0.2357
 7321SOL    HW133425   0.091   3.644   4.362 -0.3203  1.2608  0.0790
 7321SOL    HW233426   0.151   3.733   4.466  0.3079 -0.7563 -1.7352
 7322SOL     OW33427   2.155   1.092  16.338 -0.1204  0.4886  0.2478
 7322SOL    HW133428   2.099   1.136  16.401 -0.6677  2.3009 -1.5079
 7322SOL    HW233429   2.207   1.169  16.315  1.4812 -0.0134  2.1924
 7323SOL     OW33430   1.071   1.094   7.729 -0.2811 -0.4588 -0.5432
 7323SOL    HW133431   1.132   1.135   7.791 -1.0712 -0.5702  0.3150
 7323SOL    HW233432   1.129   1.036   7.680 -2.0138 -2.7495  0.0861
 7324SOL     OW33433   4.458   3.789   6.603 -0.2418 -0.1868  0.5963
 7324SOL    HW133434   4.484   3.804   6.694  0.6562 -1.4122  0.5376
 7324SOL    HW233435   4.389   3.855   6.596 -0.7717 -1.0306 -2.3146
 7325SOL     OW33436   2.346   0.204   0.748 -0.3747  0.2437  0.1616
 7325SOL    HW133437   2.418   0.204   0.811 -0.9683  2.4560  0.8261
 7325SOL    HW233438   2.268   0.208   0.804  0.4474  2.4413  1.1409
 7326SOL     OW33439   4.543   0.060   3.174 -0.0096  0.1465 -0.3108
 7326SOL    HW133440   4.456   0.094   3.153  0.6611  0.8522 -1.9686
 7326SOL    HW233441   4.591   0.140   3.198 -1.1807  1.5888 -2.7829
 7327SOL     OW33442   1.387   3.579   1.827  0.2559  1.1804 -0.0417
 7327SOL    HW133443   1.395   3.648   1.893  2.4928  1.2311 -0.3626
 7327SOL    HW233444   1.313   3.602   1.771  0.6746  1.3129 -0.5327
 7328SOL     OW33445   2.905   4.424   2.147 -0.4095  0.3740  0.1258
 7328SOL    HW133446   2.911   4.340   2.100 -0.4231  0.1519  0.5205
 7328SOL    HW233447   2.970   4.409   2.216 -0.6435 -0.3133  0.1947
 7329SOL     OW33448   2.850   4.066   2.417 -0.1324 -1.0332  0.2754
 7329SOL    HW133449   2.848   4.159   2.443  1.3169 -0.3633 -2.0586
 7329SOL    HW233450   2.773   4.064   2.361 -1.3291  1.6667  1.7721
 7330SOL     OW33451   3.877   0.779  12.268  0.2912 -0.4924 -0.0562
 7330SOL    HW133452   3.837   0.734  12.194  0.9202  0.6581 -1.1058
 7330SOL    HW233453   3.970   0.756  12.257  0.1979 -0.1643 -1.5142
 7331SOL     OW33454   0.615   2.417   4.948 -0.5557  0.4102  0.3313
 7331SOL    HW133455   0.535   2.454   4.986 -0.9815 -0.4655  0.3024
 7331SOL    HW233456   0.635   2.473   4.873 -1.2341  0.9258  0.5306
 7332SOL     OW33457   3.841   4.572   7.246  0.4310 -0.3627 -0.4509
 7332SOL    HW133458   3.899   4.640   7.211 -1.0659  1.4159  0.5348
 7332SOL    HW233459   3.900   4.527   7.306 -0.4801  1.3121  1.6915
 7333SOL     OW33460   3.783   1.621  16.824  0.2925 -0.1867  0.1577
 7333SOL    HW133461   3.776   1.669  16.906  0.0278 -0.6845  0.4261
 7333SOL    HW233462   3.703   1.651  16.781  1.6222 -0.0552 -2.2130
 7334SOL     OW33463   0.600   3.511   8.319  0.0316  0.1990 -0.0826
 7334SOL    HW133464   0.652   3.559   8.383  0.7932  0.9222 -1.2418
 7334SOL    HW233465   0.510   3.522   8.352 -0.9734 -0.0726 -2.7655
 7335SOL     OW33466   1.808   0.437   8.046  0.0739  0.9043 -0.0288
 7335SOL    HW133467   1.826   0.410   8.136 -0.5897 -0.4790 -0.3292
 7335SOL    HW233468   1.717   0.464   8.037 -0.3069 -1.3816 -2.8448
 7336SOL     OW33469   1.191   3.276   3.377  0.2598 -0.1071 -0.2107
 7336SOL    HW133470   1.145   3.263   3.294 -0.1446 -0.6398  0.0905
 7336SOL    HW233471   1.244   3.196   3.378 -0.3071 -0.4615  1.5545
 7337SOL     OW33472   2.991   0.537   7.684 -0.1091 -0.1065  0.1303
 7337SOL    HW133473   2.983   0.481   7.761  0.1175  0.4385  0.5525
 7337SOL    HW233474   3.064   0.494   7.639 -2.1898 -0.1333 -3.2081
 7338SOL     OW33475   3.885   4.126   2.952 -0.6325 -0.1768  0.4763
 7338SOL    HW133476   3.815   4.063   2.938  1.5416 -2.0691 -1.8028
 7338SOL    HW233477   3.833   4.197   2.990  0.4545  0.3007  1.0877
 7339SOL     OW33478   3.608   0.827  15.720  0.3373 -0.3531 -0.1904
 7339SOL    HW133479   3.688   0.837  15.670  0.8856  1.2215  0.9929
 7339SOL    HW233480   3.540   0.861  15.662 -0.4841 -1.6179  0.0354
 7340SOL     OW33481   2.582   0.104   8.105 -0.1128  0.1445  0.3417
 7340SOL    HW133482   2.673   0.087   8.081  0.0827  0.4173  0.9161
 7340SOL    HW233483   2.579   0.192   8.140  1.8400 -0.2298  1.4463
 7341SOL     OW33484   0.368   1.813  14.249 -0.7386 -0.3173  0.2688
 7341SOL    HW133485   0.337   1.764  14.326 -1.0304 -0.5538  0.0051
 7341SOL    HW233486   0.407   1.743  14.196 -1.2367  1.1441 -1.9924
 7342SOL     OW33487   2.244   2.640   5.308 -0.0500 -0.6326 -0.1506
 7342SOL    HW133488   2.250   2.544   5.301  0.4650 -0.7989  2.6425
 7342SOL    HW233489   2.289   2.669   5.228 -3.0129  3.0870 -0.4331
 7343SOL     OW33490   1.930   2.058   5.719  0.3920  0.6171 -0.3073
 7343SOL    HW133491   1.992   2.125   5.748  1.5537 -0.4563 -0.2563
 7343SOL    HW233492   1.983   1.998   5.665  4.0771  0.6056  3.3360
 7344SOL     OW33493   0.529   1.292   0.801 -0.3165 -0.0822 -0.0933
 7344SOL    HW133494   0.603   1.353   0.795  0.5125 -0.8307  2.5457
 7344SOL    HW233495   0.518   1.271   0.709  0.1233  0.3989 -0.2566
 7345SOL     OW33496   1.800   3.378   8.414  0.1033  0.1580 -0.2664
 7345SOL    HW133497   1.753   3.383   8.331 -2.1905  0.6171  1.0296
 7345SOL    HW233498   1.754   3.439   8.471 -1.0886 -0.3242 -0.6969
 7346SOL     OW33499   0.261   3.968   2.171 -0.4418  0.8178  0.1662
 7346SOL    HW133500   0.311   3.973   2.253 -0.1157  1.9513 -0.1080
 7346SOL    HW233501   0.240   3.875   2.184 -2.7376  1.3384  0.2443
 7347SOL     OW33502   1.316   4.692   2.916  0.6708  0.5870  0.1798
 7347SOL    HW133503   1.298   0.048   2.870  0.4020  0.6010  0.3067
 7347SOL    HW233504   1.410   4.707   2.927  1.1673 -1.2187 -1.6773
 7348SOL     OW33505   0.172   1.614  15.296  0.7681 -0.2190  0.4451
 7348SOL    HW133506   0.191   1.658  15.379 -2.5060  0.7312  0.6807
 7348SOL    HW233507   0.138   1.529  15.323 -0.0126 -0.4517 -1.2804
 7349SOL     OW33508   3.689   0.850   8.048  0.0849 -0.1340 -0.4680
 7349SOL    HW133509   3.701   0.941   8.074  0.1887 -0.9612  2.3991
 7349SOL    HW233510   3.593   0.849   8.039 -0.1426  0.2882  1.8430
 7350SOL     OW33511   3.215   2.521   8.198 -0.0101  0.4711  0.0914
 7350SOL    HW133512   3.193   2.470   8.121  1.0419 -0.3648  0.3337
 7350SOL    HW233513   3.309   2.509   8.210 -0.0251 -0.8295 -1.0505
 7351SOL     OW33514   4.164   3.446   7.467 -0.2496 -0.4631  0.2837
 7351SOL    HW133515   4.255   3.414   7.470  0.9035  2.8630  0.7217
 7351SOL    HW233516   4.173   3.531   7.424  0.7262 -0.4809  0.4382
 7352SOL     OW33517   1.103   2.891   2.489 -0.2924 -0.3612 -0.4845
 7352SOL    HW133518   1.126   2.814   2.437  1.0996 -0.7263  0.6703
 7352SOL    HW233519   1.009   2.902   2.476  0.4228  1.7220 -4.0090
 7353SOL     OW33520   2.516   3.097   2.273 -0.2099  0.8233 -0.0668
 7353SOL    HW133521   2.488   3.061   2.188 -0.4483  2.9921 -0.8913
 7353SOL    HW233522   2.547   3.180   2.237  1.1040  0.9579  1.3827
 7354SOL     OW33523   3.690   3.752  13.500 -0.3374 -0.4284  0.3447
 7354SOL    HW133524   3.750   3.779  13.569 -1.3397 -0.3001  1.1650
 7354SOL    HW233525   3.632   3.828  13.487  0.1805 -0.0826  0.0663
 7355SOL     OW33526   1.685   2.086   7.638  0.3900  0.8134  0.2471
 7355SOL    HW133527   1.678   2.038   7.555  0.3514 -0.5284  1.0379
 7355SOL    HW233528   1.595   2.101   7.667  0.2146 -1.0212  0.6454
 7356SOL     OW33529   2.850   3.364   4.194 -1.1510 -0.2451 -0.7899
 7356SOL    HW133530   2.926   3.328   4.240 -0.9102  0.8177 -0.3723
 7356SOL    HW233531   2.893   3.386   4.111  0.1634  1.4728  0.3511
 7357SOL     OW33532   2.656   3.316  10.014 -0.2742 -0.0010  0.9663
 7357SOL    HW133533   2.730   3.259   9.991  1.6981  3.5402 -1.4401
 7357SOL    HW233534   2.591   3.299   9.946  2.5376 -2.8700 -1.0051
 7358SOL     OW33535   3.718   2.677   3.964 -0.3834  0.2651 -0.5823
 7358SOL    HW133536   3.704   2.720   4.048  2.2360  0.6494 -0.3474
 7358SOL    HW233537   3.637   2.694   3.916 -0.0699  1.1973 -0.7892
 7359SOL     OW33538   4.704   0.359   2.529 -0.3544  0.0357  0.2833
 7359SOL    HW133539   0.046   0.309   2.484 -2.0271 -0.2544 -1.9559
 7359SOL    HW233540   4.674   0.424   2.465  1.0305  0.9761  0.5971
 7360SOL     OW33541   3.876   3.630   1.169  0.5520  0.0438 -0.0185
 7360SOL    HW133542   3.785   3.613   1.147  0.6108  0.8996 -0.9493
 7360SOL    HW233543   3.903   3.671   1.087 -2.7930 -2.3788 -2.2947
 7361SOL     OW33544   4.664   2.501   6.526 -0.3775  0.4192 -0.4003
 7361SOL    HW133545   4.644   2.419   6.481  0.4082  0.2003 -0.3517
 7361SOL    HW233546   4.613   2.497   6.608 -0.7955 -0.1878 -0.6910
 7362SOL     OW33547   2.286   0.809   5.966  0.3208  0.2750 -0.5291
 7362SOL    HW133548   2.267   0.901   5.983 -0.0276 -0.2003  1.5597
 7362SOL    HW233549   2.202   0.769   5.990  0.3047 -0.4658 -1.7813
 7363SOL     OW33550   2.805   4.124  17.038  0.0020  0.0656  0.2290
 7363SOL    HW133551   2.790   4.187  17.109 -1.6645 -0.9555  0.7772
 7363SOL    HW233552   2.765   4.166  16.962  0.7741  1.4064  0.5637
 7364SOL     OW33553   2.762   3.948   4.051  0.2315 -0.3591  0.3277
 7364SOL    HW133554   2.730   3.953   3.961 -1.4654 -1.1433  0.8970
 7364SOL    HW233555   2.827   3.878   4.048  1.2063  0.6253 -1.3129
 7365SOL     OW33556   1.239   2.473   0.054  0.4944 -0.5590  0.4273
 7365SOL    HW133557   1.287   2.554   0.068  0.6887 -0.6645  0.3696
 7365SOL    HW233558   1.146   2.491   0.064  0.5015 -0.1178 -0.3048
 7366SOL     OW33559   4.268   3.770   6.827  0.7858  0.1120 -0.2011
 7366SOL    HW133560   4.222   3.836   6.878 -0.3292  1.5165 -3.0298
 7366SOL    HW233561   4.347   3.758   6.879  1.2190 -0.8031 -1.0504
 7367SOL     OW33562   0.546   2.826   0.414 -0.6388 -0.1744 -0.5016
 7367SOL    HW133563   0.546   2.919   0.436  0.2133 -0.1048 -0.7987
 7367SOL    HW233564   0.455   2.804   0.397 -0.2064 -1.8466 -0.6404
 7368SOL     OW33565   3.406   2.440  10.319 -0.4850 -0.0239  0.1334
 7368SOL    HW133566   3.313   2.450  10.300 -1.1298 -2.8469  1.8356
 7368SOL    HW233567   3.397   2.355  10.363  1.0264  0.5565  1.5494
 7369SOL     OW33568   3.594   4.635  10.358  0.6214  0.5910 -0.3331
 7369SOL    HW133569   3.638   4.551  10.348  2.2873  1.1607  2.0508
 7369SOL    HW233570   3.618   4.649  10.450 -0.0113 -1.4627  0.1504
 7370SOL     OW33571   4.451   1.669   4.560 -0.0844 -0.0634  0.4589
 7370SOL    HW133572   4.487   1.705   4.641 -0.7556 -0.4674  0.9290
 7370SOL    HW233573   4.356   1.676   4.569 -0.0568  1.4853 -0.3736
 7371SOL     OW33574   3.483   3.415   2.146 -0.1458  0.0049 -0.1213
 7371SOL    HW133575   3.542   3.382   2.214 -1.6052  1.6243  1.9411
 7371SOL    HW233576   3.459   3.337   2.097 -0.9629  0.6326 -0.7107
 7372SOL     OW33577   4.549   2.748   4.586  0.2728  0.3868  0.3222
 7372SOL    HW133578   4.463   2.745   4.544 -0.5051 -0.1427  1.9512
 7372SOL    HW233579   4.564   2.839   4.612  2.3490 -0.2145  1.2850
 7373SOL     OW33580   3.190   1.105   3.653 -0.0101  0.5594  0.5954
 7373SOL    HW133581   3.267   1.139   3.608 -0.1164  1.5771  1.1743
 7373SOL    HW233582   3.127   1.120   3.582  0.5554  1.3561  0.2594
 7374SOL     OW33583   2.262   4.156   6.576  0.0230  0.5840 -0.1637
 7374SOL    HW133584   2.244   4.073   6.619  1.3502  0.1770 -0.3932
 7374SOL    HW233585   2.177   4.187   6.544  0.1037 -0.0633 -0.9979
 7375SOL     OW33586   1.112   1.980   7.187 -0.0972 -0.0355 -0.2508
 7375SOL    HW133587   1.175   2.030   7.136 -0.6096  2.9137  1.9749
 7375SOL    HW233588   1.056   2.049   7.223 -0.6101 -0.5623 -0.0452
 7376SOL     OW33589   1.103   0.603   8.820  0.4389 -0.0403  0.3810
 7376SOL    HW133590   1.137   0.516   8.798  0.2100  0.5358 -2.1763
 7376SOL    HW233591   1.161   0.622   8.894 -1.1251 -0.9224  1.8456
 7377SOL     OW33592   0.831   3.083   9.354 -0.9693  0.3920  0.1668
 7377SOL    HW133593   0.846   3.177   9.341  0.0046  0.4091  1.4124
 7377SOL    HW233594   0.828   3.067   9.448  1.7738 -0.1365  0.1504
 7378SOL     OW33595   4.208   1.686   2.376  0.5199  0.5262 -0.2380
 7378SOL    HW133596   4.112   1.694   2.378  0.2532 -2.6531 -2.9377
 7378SOL    HW233597   4.238   1.730   2.297  1.6928  0.7554  0.3314
 7379SOL     OW33598   4.214   3.279  14.164  0.3081 -0.2835  0.0565
 7379SOL    HW133599   4.248   3.342  14.229 -1.1554  0.0723  0.4802
 7379SOL    HW233600   4.175   3.215  14.223  0.8658 -0.4502  0.2486
 7380SOL     OW33601   3.670   1.594   2.552  0.4389  0.0258  0.1735
 7380SOL    HW133602   3.595   1.648   2.578 -0.3620  0.3405 -2.7259
 7380SOL    HW233603   3.648   1.508   2.589  2.1684 -0.8761 -0.8861
 7381SOL     OW33604   1.508   1.916  13.957  0.5309  0.4109  0.0923
 7381SOL    HW133605   1.560   1.873  13.889  1.2196  0.0376  0.8625
 7381SOL    HW233606   1.580   1.959  14.002  1.3952 -1.7465  0.7464
 7382SOL     OW33607   3.274   3.013   3.547  0.2173  0.4029 -0.3544
 7382SOL    HW133608   3.241   2.987   3.461 -0.8108 -0.9161  0.4489
 7382SOL    HW233609   3.244   3.104   3.536  1.2684  0.7219 -0.5850
 7383SOL     OW33610   2.417   0.679  14.948  0.4947  0.3275 -0.3476
 7383SOL    HW133611   2.332   0.721  14.945  1.3583  1.9555 -1.6018
 7383SOL    HW233612   2.470   0.750  14.984  0.8936  0.1154 -0.5064
 7384SOL     OW33613   4.477   4.176   6.210  0.3163 -0.2250 -0.0588
 7384SOL    HW133614   4.518   4.250   6.254  0.5585 -0.3128 -0.1374
 7384SOL    HW233615   4.387   4.181   6.243  1.1911  0.1807  2.2640
 7385SOL     OW33616   2.032   3.126   0.374  0.6015 -0.4950 -0.7812
 7385SOL    HW133617   1.970   3.107   0.304 -0.6862 -1.7442  0.6896
 7385SOL    HW233618   2.040   3.219   0.356  0.2779 -0.2571  0.3258
 7386SOL     OW33619   0.607   1.315   7.187 -0.9627  0.0602  0.3921
 7386SOL    HW133620   0.607   1.296   7.093  0.6721  1.2447  0.1608
 7386SOL    HW233621   0.513   1.309   7.204 -1.4332 -0.5839 -2.4770
 7387SOL     OW33622   0.780   3.940   7.346  0.3993 -0.0690  0.5400
 7387SOL    HW133623   0.837   3.881   7.297 -1.5453  0.5943 -2.5168
 7387SOL    HW233624   0.838   4.009   7.378 -0.2918  1.2090 -0.9214
 7388SOL     OW33625   3.074   0.839   4.076 -0.1659 -0.0592 -0.2327
 7388SOL    HW133626   3.126   0.846   4.156  1.0929 -0.2431 -1.0491
 7388SOL    HW233627   3.115   0.902   4.018  0.9560 -0.1234  0.4984
 7389SOL     OW33628   3.544   3.280   2.388 -0.7200  0.3620  0.1216
 7389SOL    HW133629   3.486   3.204   2.383  0.8509 -0.8676  0.4101
 7389SOL    HW233630   3.524   3.306   2.478 -1.0450 -1.0268  0.4435
 7390SOL     OW33631   3.345   2.391   6.354  0.4254  0.3814 -0.6559
 7390SOL    HW133632   3.398   2.404   6.432  0.7305 -0.2812 -0.7479
 7390SOL    HW233633   3.258   2.410   6.388 -0.4318 -0.8374 -2.1234
 7391SOL     OW33634   2.118   3.630   2.417  0.3827  0.9230 -0.3472
 7391SOL    HW133635   2.078   3.544   2.431 -0.2459  0.9404 -2.1253
 7391SOL    HW233636   2.205   3.616   2.379  1.4999  0.0269  2.5204
 7392SOL     OW33637   1.518   3.970  15.464 -0.5651  0.6102  0.0165
 7392SOL    HW133638   1.530   3.886  15.508 -0.1154  0.5733 -0.1727
 7392SOL    HW233639   1.608   3.993  15.439 -0.7836 -0.3653 -1.6413
 7393SOL     OW33640   1.379   0.870  12.121 -0.2811  0.2642 -0.0188
 7393SOL    HW133641   1.408   0.941  12.178  2.4345  2.2116 -3.8023
 7393SOL    HW233642   1.430   0.880  12.040  0.1104 -1.1965  0.0491
 7394SOL     OW33643   0.782   0.343  10.082 -0.3608  0.0340 -0.4164
 7394SOL    HW133644   0.863   0.313  10.124 -1.2579 -0.8321  0.7012
 7394SOL    HW233645   0.736   0.268  10.043 -1.2492 -0.7141  2.1024
 7395SOL     OW33646   1.734   4.223  10.788  0.2717  0.3302  0.0249
 7395SOL    HW133647   1.778   4.183  10.714 -1.1208  0.3321 -0.8137
 7395SOL    HW233648   1.810   4.262  10.832 -0.1757  0.6764  0.5023
 7396SOL     OW33649   4.655   2.581   9.900  0.5963 -0.0039 -0.9611
 7396SOL    HW133650   4.702   2.586   9.983 -0.8930 -0.7090 -0.0829
 7396SOL    HW233651   4.647   2.670   9.866  2.5502  0.6329  0.2595
 7397SOL     OW33652   2.148   0.960   1.631  0.6932 -0.7902 -0.3375
 7397SOL    HW133653   2.195   0.926   1.555  0.5829 -0.4411 -0.5644
 7397SOL    HW233654   2.090   0.885   1.639 -0.1786  0.0615  1.2765
 7398SOL     OW33655   3.019   3.526  11.533  0.3824  0.2933  0.5221
 7398SOL    HW133656   3.106   3.494  11.509  0.1703 -0.4243  0.6947
 7398SOL    HW233657   2.976   3.544  11.450 -1.6331 -0.4446  1.3922
 7399SOL     OW33658   1.545   2.046  12.433  0.1671 -0.2089 -0.3403
 7399SOL    HW133659   1.596   2.111  12.384 -2.5100  1.3801 -1.0377
 7399SOL    HW233660   1.454   2.078  12.427 -0.5270 -2.3054 -0.9316
 7400SOL     OW33661   0.480   0.079   6.892 -0.3493 -0.2626 -0.2328
 7400SOL    HW133662   0.497   0.026   6.814  0.6677 -1.7584  1.0022
 7400SOL    HW233663   0.421   0.140   6.849 -1.7599 -1.2549  0.2871
 7401SOL     OW33664   2.753   3.310  11.292 -0.1126 -0.0007  0.1201
 7401SOL    HW133665   2.781   3.388  11.245 -0.9380  0.0838 -0.2279
 7401SOL    HW233666   2.829   3.304  11.350 -0.1477  1.0543  0.2751
 7402SOL     OW33667   2.871   1.955   7.099  0.1299  0.4764  0.4468
 7402SOL    HW133668   2.823   1.880   7.134  0.6005  0.4891  1.1247
 7402SOL    HW233669   2.933   1.967   7.171  3.0913  0.9174 -2.1969
 7403SOL     OW33670   2.023   2.680   5.726  0.4594  0.5869 -0.4650
 7403SOL    HW133671   2.094   2.651   5.669 -0.5956 -2.4482 -0.2453
 7403SOL    HW233672   2.053   2.767   5.751 -0.9184  0.7535  0.5969
 7404SOL     OW33673   1.420   3.349   8.590  0.0132  0.2747 -0.0140
 7404SOL    HW133674   1.326   3.351   8.574 -0.2164 -3.6753  1.0462
 7404SOL    HW233675   1.404   3.278   8.652  2.9151 -0.9151 -0.6386
 7405SOL     OW33676   2.859   0.796   6.383 -0.4482 -0.1955 -0.7269
 7405SOL    HW133677   2.769   0.765   6.374 -0.1756 -0.8828 -1.1068
 7405SOL    HW233678   2.857   0.834   6.295  3.8316 -3.4349 -2.2295
 7406SOL     OW33679   2.275   3.756   1.879 -0.2952  0.0111  0.0832
 7406SOL    HW133680   2.351   3.701   1.865 -0.0916 -0.0182  1.3750
 7406SOL    HW233681   2.247   3.781   1.791 -2.1198 -2.3774 -0.0102
 7407SOL     OW33682   1.254   3.208   6.387  0.2362 -0.2272  0.1485
 7407SOL    HW133683   1.249   3.188   6.481 -1.8588  0.5587  0.2028
 7407SOL    HW233684   1.200   3.135   6.359 -1.2919  1.1179 -0.4004
 7408SOL     OW33685   4.570   0.589   4.947 -0.5072 -0.3414 -0.3586
 7408SOL    HW133686   4.488   0.617   4.907  0.4365 -0.1586 -2.1861
 7408SOL    HW233687   4.538   0.564   5.033 -1.5038  1.4228 -0.2291
 7409SOL     OW33688   2.419   1.739  13.745 -0.4633 -0.5631 -0.2159
 7409SOL    HW133689   2.330   1.702  13.746 -0.8126  0.2536 -0.6417
 7409SOL    HW233690   2.420   1.794  13.824  3.1894  0.6319 -1.1341
 7410SOL     OW33691   3.012   1.541   0.322 -0.5103  0.2362 -0.1090
 7410SOL    HW133692   2.980   1.470   0.267 -0.3356 -0.3732  0.5745
 7410SOL    HW233693   3.072   1.580   0.258 -0.9583  0.9704 -0.0768
 7411SOL     OW33694   4.141   0.851   7.287 -0.1541 -0.2648 -0.1679
 7411SOL    HW133695   4.155   0.915   7.217 -3.0581 -1.7934 -2.1696
 7411SOL    HW233696   4.151   0.764   7.248  2.0708 -0.2758  0.4672
 7412SOL     OW33697   1.920   1.789  17.640  0.0477 -0.1707  0.1302
 7412SOL    HW133698   1.906   1.838   0.016  1.6530 -0.5743  0.6417
 7412SOL    HW233699   1.866   1.835  17.575  2.2944  2.2588  0.0297
 7413SOL     OW33700   2.213   2.404   9.040 -0.7752 -0.4754  0.5770
 7413SOL    HW133701   2.255   2.360   9.114  3.5127 -0.5607 -1.9035
 7413SOL    HW233702   2.284   2.418   8.978  1.1766 -2.7827  2.2622
 7414SOL     OW33703   3.452   1.470   4.702 -0.2893  0.4255 -1.2246
 7414SOL    HW133704   3.449   1.381   4.669  0.6557  0.1056 -0.4366
 7414SOL    HW233705   3.382   1.473   4.768  0.8392  2.4301 -0.0816
 7415SOL     OW33706   1.911   0.879   8.904 -0.1106  0.3343 -0.0165
 7415SOL    HW133707   1.824   0.848   8.879  0.3127  1.5346 -3.0053
 7415SOL    HW233708   1.886   0.929   8.981 -0.4492 -1.0441  0.7619
 7416SOL     OW33709   2.485   0.074   0.259 -0.2316 -0.6426 -0.3857
 7416SOL    HW133710   2.448   0.092   0.345 -1.3824  1.2090 -1.2591
 7416SOL    HW233711   2.507   4.708   0.268 -2.0381 -0.9819  0.5031
 7417SOL     OW33712   1.682   3.862   6.140  0.5539  0.0624 -0.3558
 7417SOL    HW133713   1.697   3.813   6.222  0.0761 -0.1147 -0.3730
 7417SOL    HW233714   1.634   3.938   6.174 -0.2520 -1.2585  1.4864
 7418SOL     OW33715   3.124   1.483   6.927 -0.1258 -0.0046  0.3243
 7418SOL    HW133716   3.149   1.500   6.837  1.0775  0.5318  0.7704
 7418SOL    HW233717   3.198   1.441   6.970  0.5889 -0.4630 -1.3677
 7419SOL     OW33718   1.494   2.518   4.203 -0.0444 -0.0881 -0.1296
 7419SOL    HW133719   1.502   2.611   4.185  1.0135 -0.3817 -1.2116
 7419SOL    HW233720   1.505   2.495   4.110 -0.8096 -3.1121  0.5272
 7420SOL     OW33721   2.348   1.169   6.885  0.1238  0.2501 -0.0608
 7420SOL    HW133722   2.285   1.126   6.941  1.0547  0.0811  0.8513
 7420SOL    HW233723   2.425   1.125   6.920 -0.9058 -0.0505  1.8124
 7421SOL     OW33724   4.092   1.243  15.474  0.3263  0.2402  0.2640
 7421SOL    HW133725   4.073   1.311  15.538  0.0199  1.3637 -0.9981
 7421SOL    HW233726   4.010   1.193  15.481  0.2921  0.2504 -0.0506
 7422SOL     OW33727   1.988   0.374  17.440  0.3618 -0.1750 -0.4283
 7422SOL    HW133728   2.079   0.392  17.465  1.1308 -0.9785 -2.6197
 7422SOL    HW233729   2.001   0.340  17.351  1.1817 -1.2130  0.0878
 7423SOL     OW33730   1.093   4.198   9.250  0.6538 -0.4020 -0.2829
 7423SOL    HW133731   1.124   4.286   9.271 -1.8496  0.0101  1.6865
 7423SOL    HW233732   1.088   4.146   9.330 -1.8636 -2.0720 -1.5128
 7424SOL     OW33733   3.954   3.431   4.884  0.5044  0.5845 -0.1899
 7424SOL    HW133734   3.946   3.382   4.802  0.9867  1.1667 -0.5945
 7424SOL    HW233735   3.866   3.425   4.920  0.6855 -0.4577  0.0501
 7425SOL     OW33736   2.532   1.955   3.830  0.2229  0.3742 -0.1635
 7425SOL    HW133737   2.461   1.991   3.883 -0.8356  1.1469 -2.0793
 7425SOL    HW233738   2.498   1.966   3.741  2.3602 -0.8473 -1.1370
 7426SOL     OW33739   2.331   0.439  17.270  0.2708 -0.1004  0.0292
 7426SOL    HW133740   2.419   0.434  17.232 -0.5692  3.5730 -2.3778
 7426SOL    HW233741   2.291   0.373  17.213 -0.7324  0.7819 -0.2727
 7427SOL     OW33742   2.079   3.019   6.137  0.7057 -0.5100  0.3699
 7427SOL    HW133743   2.090   2.925   6.121 -0.8147 -0.3538 -1.6577
 7427SOL    HW233744   2.013   3.018   6.207  1.6644  1.2841  1.2987
 7428SOL     OW33745   0.807   0.008   4.258 -0.9352  0.2899  0.7264
 7428SOL    HW133746   0.790   0.012   4.164  2.1676 -0.3489  0.1552
 7428SOL    HW233747   0.793   0.099   4.283  1.0569  0.8133 -0.1071
 7429SOL     OW33748   2.813   1.997   5.105  0.1886 -0.1849  0.1038
 7429SOL    HW133749   2.891   2.053   5.101 -1.2154  1.7280 -0.3103
 7429SOL    HW233750   2.797   1.970   5.015  0.8861  1.7552 -0.5942
 7430SOL     OW33751   0.590   0.994  10.883 -0.3248 -0.4172  0.7556
 7430SOL    HW133752   0.544   0.932  10.939  1.3154 -1.4304  0.9810
 7430SOL    HW233753   0.585   0.942  10.803 -2.8051  0.7873  0.1214
 7431SOL     OW33754   2.595   2.204   0.908  0.1761 -1.2296 -0.0610
 7431SOL    HW133755   2.505   2.234   0.891  0.5550  1.4057  2.7783
 7431SOL    HW233756   2.570   2.140   0.974 -1.1531  0.8751  1.4599
 7432SOL     OW33757   2.041   4.069   9.442 -0.4175 -0.6516 -0.1462
 7432SOL    HW133758   2.116   4.010   9.434  0.0307  0.0499 -1.0709
 7432SOL    HW233759   1.989   4.043   9.519  2.3484  1.9815  2.6055
 7433SOL     OW33760   4.620   2.722   4.178  0.4889  0.2203  0.1214
 7433SOL    HW133761   4.573   2.655   4.228  0.2816  0.7367  0.6183
 7433SOL    HW233762   4.627   2.797   4.237 -0.0671  0.4197 -0.0680
 7434SOL     OW33763   4.189   0.622   5.305  0.0892 -0.3196 -0.1288
 7434SOL    HW133764   4.241   0.565   5.362 -0.5879 -0.2990  0.5021
 7434SOL    HW233765   4.115   0.569   5.277  0.8854 -2.0279  0.9841
 7435SOL     OW33766   2.821   2.225   7.338  0.0203  0.0786 -0.1916
 7435SOL    HW133767   2.772   2.143   7.331  0.6202 -0.1571 -1.5148
 7435SOL    HW233768   2.857   2.246   7.252  0.9958 -1.1909 -0.0930
 7436SOL     OW33769   4.132   1.203   6.482  0.2586  0.7088 -0.0355
 7436SOL    HW133770   4.155   1.281   6.533  1.5859  0.5754 -0.4236
 7436SOL    HW233771   4.120   1.136   6.549  1.3131  1.4257  0.8846
 7437SOL     OW33772   1.968   4.534   7.343 -0.4110  0.1718 -0.5733
 7437SOL    HW133773   2.063   4.524   7.329 -0.1722  2.6038 -0.6805
 7437SOL    HW233774   1.957   4.557   7.435  0.8741  0.9247 -0.5982
 7438SOL     OW33775   4.272   3.568   4.143 -0.8134  0.0867 -0.1353
 7438SOL    HW133776   4.279   3.541   4.235 -0.8187 -2.8206 -0.9809
 7438SOL    HW233777   4.362   3.598   4.131 -1.7551  2.7047 -0.6503
 7439SOL     OW33778   2.836   3.943   3.261 -0.3956  0.5924  0.3027
 7439SOL    HW133779   2.836   4.013   3.327 -1.8269  2.2021 -1.4116
 7439SOL    HW233780   2.742   3.946   3.240 -0.9086 -0.0202  2.5120
 7440SOL     OW33781   3.065   2.425   8.808 -0.0923  0.0033  0.0934
 7440SOL    HW133782   3.024   2.348   8.768  1.7843  1.0968 -3.9809
 7440SOL    HW233783   3.022   2.487   8.749 -0.2197  1.9661  2.2280
 7441SOL     OW33784   3.266   0.762   7.034  0.6042  0.2031 -0.0951
 7441SOL    HW133785   3.176   0.782   7.061  0.2408 -3.7080  1.5387
 7441SOL    HW233786   3.268   0.780   6.940  0.0757 -1.9233 -0.5145
 7442SOL     OW33787   2.270   0.541   9.434 -0.0074  0.6846 -0.2654
 7442SOL    HW133788   2.304   0.540   9.523 -1.2571 -1.3671  0.2014
 7442SOL    HW233789   2.268   0.634   9.415  1.1803  0.4983 -1.3063
 7443SOL     OW33790   2.833   1.418   3.026  0.0428 -0.0095  0.0926
 7443SOL    HW133791   2.788   1.434   3.109  0.4886 -1.2750  0.5824
 7443SOL    HW233792   2.884   1.498   3.015  0.2813 -0.1417  0.2186
 7444SOL     OW33793   3.415   0.227   3.731  0.0198 -0.0850  0.8759
 7444SOL    HW133794   3.329   0.188   3.712  0.1286 -0.6661  1.5821
 7444SOL    HW233795   3.393   0.320   3.731  2.5044  0.4821 -0.4643
 7445SOL     OW33796   1.686   2.913  16.608  0.0354  0.4135  0.4535
 7445SOL    HW133797   1.635   2.994  16.616  1.2552  1.0968  1.1702
 7445SOL    HW233798   1.773   2.951  16.608 -0.1648  0.8785 -1.9637
 7446SOL     OW33799   4.275   1.178   7.216 -0.1048  0.4932  0.2929
 7446SOL    HW133800   4.220   1.121   7.163 -0.5158  0.3538  0.8654
 7446SOL    HW233801   4.278   1.123   7.294  1.7189  1.8752  1.2030
 7447SOL     OW33802   3.656   1.163   4.724 -0.1004  0.0396  0.4334
 7447SOL    HW133803   3.567   1.189   4.745 -1.4363 -1.8718 -2.8315
 7447SOL    HW233804   3.705   1.216   4.787  1.9263 -0.0543 -1.0661
 7448SOL     OW33805   0.482   2.798   9.815  0.2114  0.2155  0.2529
 7448SOL    HW133806   0.408   2.748   9.849 -0.0661  1.4716  1.5302
 7448SOL    HW233807   0.522   2.826   9.898 -0.7154  0.9175  0.4596
 7449SOL     OW33808   2.177   4.207   7.163 -0.2825  0.2550 -0.2983
 7449SOL    HW133809   2.264   4.242   7.181  0.0121 -2.3236  3.3323
 7449SOL    HW233810   2.195   4.114   7.173 -1.8212 -0.0642 -0.3965
 7450SOL     OW33811   3.342   2.125   3.196 -0.2947  0.0801 -0.2836
 7450SOL    HW133812   3.364   2.131   3.103 -0.4113  0.1919 -0.3033
 7450SOL    HW233813   3.396   2.051   3.224  0.4578  1.0724  0.9124
 7451SOL     OW33814   3.324   1.419  15.396 -0.1926 -0.2208  0.2334
 7451SOL    HW133815   3.395   1.476  15.366  0.8096 -2.0425 -0.8837
 7451SOL    HW233816   3.303   1.453  15.483  0.0166 -0.1132  0.2405
 7452SOL     OW33817   1.003   4.050   7.125  0.0513 -0.1276 -0.1263
 7452SOL    HW133818   1.045   4.022   7.043 -1.6410  1.0227 -1.3709
 7452SOL    HW233819   0.916   4.016   7.105 -0.4378 -1.1537  3.7861
 7453SOL     OW33820   2.090   1.731  14.005 -0.4829  0.3551 -0.1774
 7453SOL    HW133821   2.030   1.661  14.032 -1.0458  0.7290 -0.4419
 7453SOL    HW233822   2.020   1.780  13.961  1.2147  0.7085 -2.5385
 7454SOL     OW33823   1.080   3.244   3.106  0.5459  0.0776  0.4766
 7454SOL    HW133824   1.156   3.208   3.061  0.2654  0.7478 -0.5401
 7454SOL    HW233825   1.005   3.211   3.055 -0.3566  1.4446  0.9134
 7455SOL     OW33826   2.920   1.226  17.146 -0.4357 -0.4143 -0.3677
 7455SOL    HW133827   2.832   1.241  17.182 -0.5161  1.0137 -1.1523
 7455SOL    HW233828   2.971   1.301  17.177 -0.3806 -1.7341  2.7311
 7456SOL     OW33829   1.506   3.609   4.706 -0.4906  0.0693  0.3241
 7456SOL    HW133830   1.484   3.702   4.711  0.4856  0.3629 -0.8715
 7456SOL    HW233831   1.570   3.609   4.635 -2.2588 -0.1755 -1.2730
 7457SOL     OW33832   0.471   2.039   5.299  0.2840 -0.3748  0.5925
 7457SOL    HW133833   0.477   2.021   5.205 -0.1642  0.3576  0.4292
 7457SOL    HW233834   0.530   1.969   5.328 -1.0275 -1.5663  0.3835
 7458SOL     OW33835   1.057   3.152   5.343 -0.1093 -0.0402 -0.5480
 7458SOL    HW133836   1.083   3.232   5.298 -0.7782  0.1480 -0.5913
 7458SOL    HW233837   0.962   3.156   5.355  0.0411  0.7318  0.4405
 7459SOL     OW33838   4.098   1.523   1.488  0.7257 -0.0554 -0.4650
 7459SOL    HW133839   4.085   1.558   1.400  0.3636 -0.9000 -0.7460
 7459SOL    HW233840   4.010   1.536   1.524  0.1741 -1.8094 -1.1903
 7460SOL     OW33841   0.212   1.646   2.482 -0.2170 -0.2519 -0.0690
 7460SOL    HW133842   0.242   1.687   2.563 -3.2711  2.6769 -0.4395
 7460SOL    HW233843   0.131   1.695   2.467 -0.0939  0.9069  3.2476
 7461SOL     OW33844   0.957   1.611   3.690 -0.1405 -0.4855 -0.4055
 7461SOL    HW133845   0.920   1.678   3.747  2.0924  0.1540  0.2739
 7461SOL    HW233846   0.883   1.550   3.686 -0.0784 -0.5309 -0.9337
 7462SOL     OW33847   3.847   4.143   8.657 -0.2345 -0.8155 -0.6082
 7462SOL    HW133848   3.805   4.094   8.586 -1.7794  0.9549 -0.9309
 7462SOL    HW233849   3.765   4.182   8.687  0.3291 -0.0849  0.0034
 7463SOL     OW33850   3.991   2.333  10.938  0.0338 -0.4164 -0.4073
 7463SOL    HW133851   3.990   2.404  11.002  3.1905  2.5065 -3.6329
 7463SOL    HW233852   4.077   2.339  10.896 -0.5615  0.3387 -1.4908
 7464SOL     OW33853   2.211   3.207   9.706 -0.1544 -0.1706  0.3106
 7464SOL    HW133854   2.213   3.134   9.643 -0.3056  0.7811 -0.8012
 7464SOL    HW233855   2.281   3.174   9.762  0.2118  0.1166  0.0127
 7465SOL     OW33856   3.279   3.312   7.009 -0.7064 -0.1547  0.0554
 7465SOL    HW133857   3.247   3.278   6.925  1.6714  0.8901 -1.2688
 7465SOL    HW233858   3.296   3.404   6.990 -1.8354 -0.0381 -0.4354
 7466SOL     OW33859   0.851   4.238   3.020  0.2319 -0.1044  0.2064
 7466SOL    HW133860   0.823   4.171   2.957 -3.4610  0.3770  1.3407
 7466SOL    HW233861   0.814   4.190   3.094  1.0562 -0.6637  0.2453
 7467SOL     OW33862   2.688   0.730  13.192 -0.1644 -0.0483 -0.2732
 7467SOL    HW133863   2.745   0.788  13.244  1.6273 -1.6471 -0.4629
 7467SOL    HW233864   2.650   0.791  13.128 -2.4413 -0.6849  0.4711
 7468SOL     OW33865   3.981   2.324   3.883 -0.5745 -0.0297  0.0370
 7468SOL    HW133866   3.943   2.372   3.809 -0.6020 -0.3831 -0.1802
 7468SOL    HW233867   3.982   2.232   3.854  3.5070 -0.5399  1.7930
 7469SOL     OW33868   0.114   3.442   0.049 -0.9269 -0.0395 -0.0160
 7469SOL    HW133869   0.032   3.438   0.000 -0.9760 -0.3195  0.0903
 7469SOL    HW233870   0.179   3.485  17.699 -0.3934  0.2709  0.8551
 7470SOL     OW33871   0.305   1.402   1.414  0.7984  0.0627  0.2546
 7470SOL    HW133872   0.304   1.351   1.333 -0.2312  0.4112  0.0512
 7470SOL    HW233873   0.338   1.341   1.479  1.6598  0.2550 -0.0019
 7471SOL     OW33874   4.393   2.925   3.808 -0.5443  0.7343 -0.0522
 7471SOL    HW133875   4.330   2.907   3.738 -0.9775  0.2121  0.4758
 7471SOL    HW233876   4.421   2.838   3.837 -0.8956  0.8028  0.4852
 7472SOL     OW33877   2.398   3.242  16.239 -0.4571  0.3781 -0.3660
 7472SOL    HW133878   2.477   3.194  16.262 -1.1925  0.3941  2.2035
 7472SOL    HW233879   2.323   3.182  16.238  0.0866 -0.2921 -0.4973
 7473SOL     OW33880   1.924   1.478   5.820  0.3583 -0.7665 -0.3214
 7473SOL    HW133881   1.919   1.568   5.852 -2.1404 -1.0063 -0.0596
 7473SOL    HW233882   1.960   1.496   5.733  0.0308  1.9176  0.1183
 7474SOL     OW33883   2.286   2.895   4.495  0.0938 -0.2686 -0.2689
 7474SOL    HW133884   2.300   2.912   4.402 -2.0203 -0.8590 -0.6812
 7474SOL    HW233885   2.322   2.973   4.538 -0.0977 -1.3413  1.8808
 7475SOL     OW33886   2.751   2.392   0.605 -0.0573 -0.3711 -0.2484
 7475SOL    HW133887   2.791   2.430   0.527  0.1156  0.8597  0.4447
 7475SOL    HW233888   2.728   2.461   0.667 -1.1061 -0.8092 -0.1446
 7476SOL     OW33889   1.615   0.615   3.393  0.2877 -0.2556 -0.5184
 7476SOL    HW133890   1.659   0.694   3.423  0.4312 -0.0922 -1.1609
 7476SOL    HW233891   1.681   0.546   3.402  1.1595  0.8290  1.2959
 7477SOL     OW33892   1.359   4.455  12.171 -0.1379 -0.4785  0.4688
 7477SOL    HW133893   1.425   4.428  12.235  2.4982 -1.1497 -2.5675
 7477SOL    HW233894   1.343   4.541  12.212 -0.7158 -0.4061  0.0876
 7478SOL     OW33895   2.216   1.596   9.478  0.0418 -0.0069  0.2688
 7478SOL    HW133896   2.276   1.609   9.551 -0.2860 -3.1747  1.1146
 7478SOL    HW233897   2.142   1.644   9.516 -0.4431 -1.1957  0.8378
 7479SOL     OW33898   0.959   0.767   2.779  0.4576 -0.9651  0.5504
 7479SOL    HW133899   0.986   0.744   2.868 -1.4459 -1.2765  1.0358
 7479SOL    HW233900   1.043   0.755   2.735  0.2109  0.3671 -0.2657
 7480SOL     OW33901   4.285   0.009   6.047 -0.5426 -0.7042  0.1753
 7480SOL    HW133902   4.365   4.682   6.041 -1.7652 -2.4434 -0.7551
 7480SOL    HW233903   4.299   0.080   5.984 -2.2922 -1.3125 -0.8909
 7481SOL     OW33904   0.896   2.798   4.873 -0.3311  0.0543  0.5369
 7481SOL    HW133905   0.982   2.772   4.906  0.0271  3.7508  2.5697
 7481SOL    HW233906   0.878   2.737   4.802 -3.1014  1.8684 -0.3302
 7482SOL     OW33907   1.235   1.709   8.301  0.7485 -0.9532  0.4030
 7482SOL    HW133908   1.327   1.735   8.305  0.0136  1.9446 -1.2999
 7482SOL    HW233909   1.249   1.626   8.346  0.4272 -1.2140  0.0208
 7483SOL     OW33910   2.008   1.642   8.334 -0.0438  0.4758 -0.3606
 7483SOL    HW133911   1.934   1.694   8.304 -0.6633  0.5398  1.2976
 7483SOL    HW233912   2.078   1.707   8.347 -1.3906  1.5547  1.4874
 7484SOL     OW33913   3.950   2.222   2.992 -0.1008  0.0939 -0.1138
 7484SOL    HW133914   3.997   2.224   3.075 -2.7982  0.4414  1.3976
 7484SOL    HW233915   3.974   2.133   2.968  2.5881  0.5844  0.7504
 7485SOL     OW33916   1.467   3.586   7.897  0.5667 -0.1881 -0.0149
 7485SOL    HW133917   1.535   3.654   7.896 -1.4566  1.8162 -0.0133
 7485SOL    HW233918   1.477   3.567   7.991 -0.8270  0.4220  0.2553
 7486SOL     OW33919   2.293   0.902  11.133  0.4252  0.3013 -0.3021
 7486SOL    HW133920   2.372   0.894  11.186  0.3596  0.7370 -0.1440
 7486SOL    HW233921   2.221   0.897  11.196 -0.1102 -1.1867 -1.0131
 7487SOL     OW33922   4.138   0.406   4.894 -0.3784 -0.3935  0.2147
 7487SOL    HW133923   4.108   0.419   4.804  0.6468 -0.7533 -0.1881
 7487SOL    HW233924   4.175   0.493   4.910 -0.2467 -0.3325 -0.4213
 7488SOL     OW33925   3.576   1.836   2.273 -0.3643 -0.7077 -0.0096
 7488SOL    HW133926   3.532   1.752   2.265  3.9874 -3.0714  1.1314
 7488SOL    HW233927   3.621   1.844   2.189  0.8915 -1.7976  0.5617
 7489SOL     OW33928   0.599   2.394   7.079  0.3999 -0.2238 -0.1299
 7489SOL    HW133929   0.544   2.447   7.136 -0.9891  0.0838 -1.7412
 7489SOL    HW233930   0.624   2.464   7.019 -2.7128  0.6735 -0.4117
 7490SOL     OW33931   2.444   1.621   6.896  0.3806 -0.9302  0.2817
 7490SOL    HW133932   2.363   1.570   6.885  0.4703 -0.3132 -3.3491
 7490SOL    HW233933   2.416   1.653   6.982  0.2528  0.5847 -0.3164
 7491SOL     OW33934   1.582   4.125   8.428  0.0780  0.6248 -0.1722
 7491SOL    HW133935   1.494   4.163   8.427 -1.0076 -1.8916 -1.2598
 7491SOL    HW233936   1.577   4.092   8.518 -0.2162 -1.1835 -0.8590
 7492SOL     OW33937   1.987   4.225   6.590  0.2356 -0.4260 -0.0431
 7492SOL    HW133938   1.958   4.220   6.681 -0.7994  1.1751 -0.2798
 7492SOL    HW233939   1.963   4.315   6.568 -0.4496 -0.5394  0.2439
 7493SOL     OW33940   2.278   2.578   9.327 -0.4118 -0.3148 -0.1261
 7493SOL    HW133941   2.357   2.592   9.380  1.0474 -0.2312 -2.3270
 7493SOL    HW233942   2.283   2.647   9.261  0.1506  0.1010  0.3468
 7494SOL     OW33943   1.109   3.712  13.340 -0.3910 -0.3151 -0.3508
 7494SOL    HW133944   1.174   3.782  13.333 -0.7412  0.0914  0.5185
 7494SOL    HW233945   1.032   3.747  13.295  1.7907  3.6245 -1.0278
 7495SOL     OW33946   0.845   2.744  13.439 -0.2921 -0.4196  0.4439
 7495SOL    HW133947   0.805   2.662  13.409  2.5498 -0.4165 -3.3480
 7495SOL    HW233948   0.876   2.724  13.527  1.4038 -0.4636 -0.1636
 7496SOL     OW33949   2.982   1.941   3.138  0.4056  0.3238  0.1210
 7496SOL    HW133950   2.969   1.900   3.223 -0.2296 -0.1614 -0.2130
 7496SOL    HW233951   3.076   1.960   3.131  0.0828  1.7116 -0.4323
 7497SOL     OW33952   2.686   3.649   1.793  0.0711 -0.5690 -0.0808
 7497SOL    HW133953   2.628   3.691   1.730  1.1212  1.4747  0.3484
 7497SOL    HW233954   2.765   3.694   1.765 -1.4140  2.2519  0.3135
 7498SOL     OW33955   4.279   4.148   6.797  0.1440 -0.0413  0.3028
 7498SOL    HW133956   4.262   4.225   6.743  1.0527  0.3417  0.5621
 7498SOL    HW233957   4.247   4.178   6.882 -0.6349 -0.2105  0.0660
 7499SOL     OW33958   3.798   1.682   1.462  0.0942 -0.2809 -0.1521
 7499SOL    HW133959   3.823   1.624   1.534  1.7043 -1.4064 -1.6451
 7499SOL    HW233960   3.782   1.616   1.395  0.6744 -0.4823 -0.0886
 7500SOL     OW33961   4.420   3.933  12.556  0.3376  0.4005 -0.3150
 7500SOL    HW133962   4.458   4.015  12.524 -1.8053  2.0716  1.3585
 7500SOL    HW233963   4.409   3.953  12.649 -2.7775  4.6838 -1.6137
 7501SOL     OW33964   3.216   3.370   7.291 -0.0643  0.2551 -0.3055
 7501SOL    HW133965   3.206   3.356   7.197  1.2654  1.0527 -0.5677
 7501SOL    HW233966   3.276   3.444   7.297  0.5146 -0.3578  1.5079
 7502SOL     OW33967   2.747   0.425  10.135  0.2907  0.5194  0.1873
 7502SOL    HW133968   2.807   0.497  10.154 -0.6606  1.3563  0.0057
 7502SOL    HW233969   2.667   0.465  10.100  0.1256  1.0113  1.1176
 7503SOL     OW33970   0.490   4.386   7.509 -0.1689 -0.1296 -0.7001
 7503SOL    HW133971   0.398   4.399   7.489 -0.9235  0.7497  3.3033
 7503SOL    HW233972   0.534   4.396   7.424  2.8320  1.6907  1.0389
 7504SOL     OW33973   1.889   2.599   8.587  0.3729  0.5402 -0.6612
 7504SOL    HW133974   1.975   2.608   8.546  0.5346 -0.9378 -0.6392
 7504SOL    HW233975   1.852   2.684   8.563 -1.7345 -0.3635 -0.5900
 7505SOL     OW33976   4.064   3.072  16.038 -0.3669 -0.3777 -0.1252
 7505SOL    HW133977   4.098   2.994  16.082 -0.4317 -0.6552 -0.5651
 7505SOL    HW233978   3.974   3.049  16.013 -0.0753 -0.4565 -1.0941
 7506SOL     OW33979   2.793   1.949  10.912 -0.1717  0.0224 -0.6719
 7506SOL    HW133980   2.879   1.923  10.944 -0.7831  2.2968  2.9119
 7506SOL    HW233981   2.739   1.892  10.967 -0.4243 -0.5087 -1.4772
 7507SOL     OW33982   3.757   1.765   0.010  0.6663  0.2199  0.8774
 7507SOL    HW133983   3.806   1.689   0.040 -1.2476 -1.6635 -0.7734
 7507SOL    HW233984   3.827   1.814  17.672 -2.2057  3.3600 -0.2197
 7508SOL     OW33985   1.445   3.155   6.816 -0.0680  0.1126 -0.1122
 7508SOL    HW133986   1.362   3.164   6.771 -0.5181  0.7074  0.8270
 7508SOL    HW233987   1.490   3.235   6.788 -0.0861 -0.1770 -0.9549
 7509SOL     OW33988   3.790   3.950   5.572 -0.6865 -0.2123  0.3304
 7509SOL    HW133989   3.808   3.875   5.629  0.8986  0.6077  0.9316
 7509SOL    HW233990   3.698   3.938   5.550 -1.0160  0.6150  1.2552
 7510SOL     OW33991   2.839   1.482   6.928  0.1564 -0.1629 -0.3661
 7510SOL    HW133992   2.836   1.500   7.022 -1.7190 -1.9241 -0.0984
 7510SOL    HW233993   2.932   1.484   6.907 -0.0496 -1.4310 -1.3904
 7511SOL     OW33994   0.306   3.250   3.631 -0.0091  0.3204 -0.1106
 7511SOL    HW133995   0.246   3.317   3.597  0.4929  0.5102 -0.6112
 7511SOL    HW233996   0.252   3.191   3.684 -0.6453  1.3478  0.3993
 7512SOL     OW33997   0.426   4.147  10.944 -0.3338  0.1190 -0.2100
 7512SOL    HW133998   0.383   4.209  10.884 -1.0855 -0.9832 -0.8191
 7512SOL    HW233999   0.513   4.185  10.940  0.0721 -0.7313  0.6915
 7513SOL     OW34000   3.174   1.696  13.464 -0.1959  0.0385  0.8591
 7513SOL    HW134001   3.082   1.715  13.483 -0.9379  0.4720 -3.1532
 7513SOL    HW234002   3.203   1.784  13.487 -2.0517  1.0962 -0.8615
 7514SOL     OW34003   2.733   0.878   7.363 -0.3223  0.0596  0.0146
 7514SOL    HW134004   2.800   0.811   7.373  1.2736  1.6397 -0.0564
 7514SOL    HW234005   2.778   0.957   7.333  0.2106 -0.2148  0.0897
 7515SOL     OW34006   2.498   1.559   8.424 -0.4924 -0.8092  0.0251
 7515SOL    HW134007   2.483   1.565   8.330  1.3988  1.6029 -0.1296
 7515SOL    HW234008   2.593   1.545   8.425 -0.6417 -1.9578 -1.9770
 7516SOL     OW34009   2.718   2.438   7.108  0.3757 -0.5490  0.3803
 7516SOL    HW134010   2.743   2.412   7.020 -0.4179 -0.2332  0.0589
 7516SOL    HW234011   2.712   2.534   7.101 -1.3789 -0.7419 -0.7316
 7517SOL     OW34012   0.685   1.552   5.188  0.2283  0.2481 -0.2828
 7517SOL    HW134013   0.598   1.514   5.177  0.5140 -0.3865 -0.3745
 7517SOL    HW234014   0.731   1.492   5.246  1.2276  0.3311 -0.9844
 7518SOL     OW34015   0.681   2.594   4.746  0.2150 -0.3350 -0.4810
 7518SOL    HW134016   0.776   2.585   4.759  0.1371 -0.4729  0.0273
 7518SOL    HW234017   0.669   2.532   4.674  1.4259 -0.9548 -0.1533
 7519SOL     OW34018   1.070   2.733   4.182 -0.3245  0.7526 -0.2614
 7519SOL    HW134019   0.985   2.689   4.188  1.2997 -2.2395  0.9127
 7519SOL    HW234020   1.087   2.723   4.088  1.8530 -0.3461  0.2555
 7520SOL     OW34021   3.064   2.373  15.769 -0.2951 -0.5763  0.6216
 7520SOL    HW134022   2.993   2.426  15.804 -0.1617 -0.1783  0.2883
 7520SOL    HW234023   3.117   2.367  15.848  1.0693 -0.8934 -0.3142
 7521SOL     OW34024   0.604   3.273   5.110 -0.1324 -0.0294  0.0884
 7521SOL    HW134025   0.521   3.232   5.134 -0.4820  0.1992 -0.7183
 7521SOL    HW234026   0.611   3.262   5.015 -0.4498  0.3337  0.0245
 7522SOL     OW34027   2.643   4.551   4.087 -0.0166 -0.2899 -0.3233
 7522SOL    HW134028   2.641   4.570   3.993  1.7411  1.2634 -0.0321
 7522SOL    HW234029   2.549   4.543   4.104  0.2942 -1.9088  0.5571
 7523SOL     OW34030   0.871   2.436   8.829  0.5337 -0.1419  0.4898
 7523SOL    HW134031   0.815   2.459   8.903 -0.8321 -0.2640 -0.5080
 7523SOL    HW234032   0.953   2.475   8.859 -0.5209  2.8815 -0.5679
 7524SOL     OW34033   4.638   3.086  12.658 -0.0899  0.0818  0.2769
 7524SOL    HW134034   4.632   3.155  12.591 -0.4194 -0.2566 -0.0408
 7524SOL    HW234035   4.563   3.094  12.716  1.3618  2.1494  1.8583
 7525SOL     OW34036   4.206   0.132   3.229 -0.0084 -0.0025  0.1638
 7525SOL    HW134037   4.155   0.188   3.288 -1.6710 -1.4625  0.1418
 7525SOL    HW234038   4.276   0.100   3.285 -2.7931 -4.2526  1.2719
 7526SOL     OW34039   4.130   0.236  10.862 -0.5742 -0.0004  0.1092
 7526SOL    HW134040   4.197   0.238  10.793 -1.0099 -0.9566 -0.3434
 7526SOL    HW234041   4.146   0.159  10.915  1.1066  0.3667  0.1314
 7527SOL     OW34042   4.195   0.620   6.482 -0.3761  0.3382  0.3858
 7527SOL    HW134043   4.254   0.575   6.421 -1.0324  0.6565 -0.4827
 7527SOL    HW234044   4.165   0.553   6.544  0.5487  0.6052  1.1185
 7528SOL     OW34045   0.269   4.035  12.492  0.2973 -0.5443  0.0720
 7528SOL    HW134046   0.214   3.958  12.480 -1.6519  1.0188 -1.0362
 7528SOL    HW234047   0.223   4.087  12.558  1.3866  0.3700  0.1193
 7529SOL     OW34048   3.288   3.108   1.538  0.3055 -0.4991 -0.1226
 7529SOL    HW134049   3.261   3.161   1.463  2.0703  1.3065  0.5114
 7529SOL    HW234050   3.211   3.051   1.532  1.2977 -1.7659 -0.8983
 7530SOL     OW34051   3.493   1.813   2.552  0.2026  0.9398 -1.0866
 7530SOL    HW134052   3.545   1.892   2.565  1.3328 -0.0428  0.3304
 7530SOL    HW234053   3.494   1.808   2.456 -0.8205  0.0056 -1.0511
 7531SOL     OW34054   1.014   2.119  14.623 -0.1775 -0.0033 -0.2892
 7531SOL    HW134055   0.999   2.191  14.561  1.1580  0.9384  0.4765
 7531SOL    HW234056   1.039   2.046  14.567  1.0933 -0.8022  1.3209
 7532SOL     OW34057   2.882   0.226   7.815  0.1745 -0.0512 -0.8812
 7532SOL    HW134058   2.885   0.155   7.879  3.3001 -0.3044 -1.3345
 7532SOL    HW234059   2.875   0.299   7.877 -0.1126 -1.6256  0.9458
 7533SOL     OW34060   3.909   3.503   7.550 -0.5490  0.4175 -0.0224
 7533SOL    HW134061   3.875   3.577   7.500  1.0687  1.2679  0.1387
 7533SOL    HW234062   3.990   3.483   7.502  0.4995 -1.3075  2.4414
 7534SOL     OW34063   0.629   2.783   3.823 -0.0801  0.4094  0.2356
 7534SOL    HW134064   0.682   2.705   3.806  1.1347  0.9324  1.6094
 7534SOL    HW234065   0.655   2.791   3.914  1.2842 -0.0125 -0.1249
 7535SOL     OW34066   0.377   2.824   6.154 -0.1103  0.3277  0.3516
 7535SOL    HW134067   0.296   2.793   6.113  0.0806 -0.8927  0.8994
 7535SOL    HW234068   0.443   2.777   6.103  0.3989 -0.2637  1.5526
 7536SOL     OW34069   3.313   1.432   5.585  0.0831  0.3687 -0.4888
 7536SOL    HW134070   3.403   1.463   5.577 -0.4430  1.9238 -0.3114
 7536SOL    HW234071   3.325   1.347   5.628 -0.3569  1.6391  2.1315
 7537SOL     OW34072   4.341   1.921   3.124  0.1462  0.3355 -0.5686
 7537SOL    HW134073   4.268   1.889   3.178  0.5610  1.0043  0.3810
 7537SOL    HW234074   4.323   1.869   3.046  0.6455 -2.5750  1.2523
 7538SOL     OW34075   2.656   3.755   8.641 -0.2955  0.0567  0.1961
 7538SOL    HW134076   2.577   3.761   8.588  0.0685  1.2217 -0.2091
 7538SOL    HW234077   2.650   3.709   8.725  1.1747  1.1299  0.8985
 7539SOL     OW34078   0.926   3.394   9.526  0.1083  0.4255 -0.3624
 7539SOL    HW134079   0.904   3.371   9.435 -0.1029  1.3394 -0.5477
 7539SOL    HW234080   0.989   3.322   9.526 -0.3266  0.0558  0.5245
 7540SOL     OW34081   0.474   3.574   7.967  0.1081 -0.1481 -0.2325
 7540SOL    HW134082   0.390   3.612   7.939 -0.5372 -0.7165  0.9243
 7540SOL    HW234083   0.436   3.511   8.028  3.0565 -0.3740  1.3387
 7541SOL     OW34084   4.657   4.453   8.466  0.2489  0.4611 -0.4374
 7541SOL    HW134085   4.650   4.396   8.390 -0.8061 -0.2954  0.2359
 7541SOL    HW234086   4.571   4.493   8.452 -0.5426 -0.8565  0.7961
 7542SOL     OW34087   0.892   1.623   6.249  0.1228 -0.1020 -0.2551
 7542SOL    HW134088   0.841   1.565   6.305 -1.9837  0.7704 -1.2787
 7542SOL    HW234089   0.848   1.708   6.258  2.2893  0.6501  3.0942
 7543SOL     OW34090   2.191   1.471   3.755  0.0455  0.2426 -0.2714
 7543SOL    HW134091   2.283   1.493   3.739 -0.0225 -0.8688 -2.1638
 7543SOL    HW234092   2.200   1.381   3.785  1.2225  0.0890 -1.0733
 7544SOL     OW34093   2.238   4.577  16.097 -0.1962  0.2333  0.4568
 7544SOL    HW134094   2.324   4.618  16.092 -0.9964  1.7712 -0.6328
 7544SOL    HW234095   2.206   4.599  16.010  0.2669  0.1784  0.2737
 7545SOL     OW34096   2.941   4.498   7.119  0.2838  0.6274  0.9863
 7545SOL    HW134097   2.946   4.462   7.208 -0.9754 -0.1245  0.7634
 7545SOL    HW234098   2.862   4.451   7.091  0.4741  0.9168 -0.0304
 7546SOL     OW34099   2.835   1.259   2.803 -0.2971  0.1032  0.3845
 7546SOL    HW134100   2.862   1.317   2.731  0.0747  0.8933  1.1611
 7546SOL    HW234101   2.842   1.324   2.873  0.7506  1.0479 -0.5910
 7547SOL     OW34102   3.865   3.653   3.752 -0.0688 -0.3006  0.5595
 7547SOL    HW134103   3.904   3.575   3.712 -0.6595  0.1106 -0.8243
 7547SOL    HW234104   3.780   3.658   3.707 -0.5844  0.2949  1.6247
 7548SOL     OW34105   2.992   1.040  12.416 -0.0934 -0.4707 -0.5599
 7548SOL    HW134106   3.023   1.117  12.463  1.2943 -1.9532  0.9582
 7548SOL    HW234107   2.992   0.970  12.482 -1.4992 -0.6781 -0.7810
 7549SOL     OW34108   4.090   4.039   7.191 -0.6298  0.3798  0.3910
 7549SOL    HW134109   4.182   4.035   7.220 -1.0539 -1.4066  1.4560
 7549SOL    HW234110   4.041   4.020   7.271 -1.4269 -0.9898 -0.4436
 7550SOL     OW34111   3.126   1.956  17.694  0.5998 -0.5062  0.3626
 7550SOL    HW134112   3.044   1.991  17.659  0.6716 -0.9563 -0.2684
 7550SOL    HW234113   3.172   1.999  17.621  1.5992 -1.1649  0.6027
 7551SOL     OW34114   2.479   0.756   2.488  0.2025 -0.1472 -0.8117
 7551SOL    HW134115   2.456   0.722   2.401  0.3295 -0.6372 -0.6539
 7551SOL    HW234116   2.464   0.677   2.540  2.4464  1.0052  1.5816
 7552SOL     OW34117   4.175   3.773   4.366  0.6444  0.4120 -0.0983
 7552SOL    HW134118   4.230   3.825   4.425  0.1951  0.2440  0.4669
 7552SOL    HW234119   4.203   3.682   4.369  0.0142  0.1426 -2.4057
 7553SOL     OW34120   1.220   3.738  15.495  0.3559  0.4009 -0.3465
 7553SOL    HW134121   1.205   3.674  15.426  0.2981  1.9028 -1.7303
 7553SOL    HW234122   1.146   3.719  15.553 -1.2677  0.1825 -2.4960
 7554SOL     OW34123   3.545   2.848   1.877 -0.1613 -0.0098  0.1199
 7554SOL    HW134124   3.626   2.849   1.928 -1.3456 -1.5319  2.0257
 7554SOL    HW234125   3.562   2.918   1.813 -0.5806 -0.6581 -0.7023
 7555SOL     OW34126   3.226   0.145   5.221 -0.2015 -0.1178  0.0248
 7555SOL    HW134127   3.137   0.180   5.224  0.0226  0.3248  1.3971
 7555SOL    HW234128   3.282   0.212   5.261  0.2896  0.7989 -2.1638
 7556SOL     OW34129   0.396   0.547   3.775 -0.0391  0.6497 -0.2450
 7556SOL    HW134130   0.323   0.486   3.778  0.9065 -0.5088 -0.5771
 7556SOL    HW234131   0.456   0.499   3.717 -0.9483 -1.0855  0.2511
 7557SOL     OW34132   4.096   0.719   3.299 -0.8728 -0.5645  0.4098
 7557SOL    HW134133   4.063   0.633   3.325 -1.7059 -0.2754  0.3119
 7557SOL    HW234134   4.165   0.724   3.365  2.1281 -1.0614 -2.6898
 7558SOL     OW34135   0.664   0.953   0.207 -0.1305  0.6641 -0.5284
 7558SOL    HW134136   0.666   0.885   0.139 -1.7240 -1.1523  1.2383
 7558SOL    HW234137   0.752   0.938   0.242 -0.7192 -1.1984  0.1511
 7559SOL     OW34138   2.379   2.267   8.213 -0.1637 -0.3393  0.1667
 7559SOL    HW134139   2.460   2.262   8.162 -0.0321 -1.4170  0.4827
 7559SOL    HW234140   2.362   2.359   8.193  1.7694  0.2265  1.1731
 7560SOL     OW34141   2.569   3.916   7.280  0.0779  0.8450  0.2522
 7560SOL    HW134142   2.527   3.848   7.228 -1.3464  2.6169 -0.9030
 7560SOL    HW234143   2.596   3.868   7.358  0.1425 -0.1827 -0.4034
 7561SOL     OW34144   3.536   3.022   1.630  0.3732  0.2666 -0.1828
 7561SOL    HW134145   3.578   2.993   1.549  1.4545 -1.7062  1.0894
 7561SOL    HW234146   3.477   3.092   1.601  0.4748  0.2912 -0.3239
 7562SOL     OW34147   2.806   2.978  12.614 -0.0642 -0.6643 -0.4491
 7562SOL    HW134148   2.881   2.957  12.669 -0.3573 -2.0916 -0.5836
 7562SOL    HW234149   2.856   3.001  12.535 -0.8311  0.4666 -0.6036
 7563SOL     OW34150   3.597   4.166   4.024  0.7197 -0.2099 -0.0338
 7563SOL    HW134151   3.554   4.248   4.047  1.6357  0.0790  0.6494
 7563SOL    HW234152   3.530   4.118   3.976 -1.0683  0.8670  1.4106
 7564SOL     OW34153   1.844   1.166   2.916 -0.1078 -0.3229  0.3374
 7564SOL    HW134154   1.911   1.104   2.888 -0.0856 -0.8276  1.5417
 7564SOL    HW234155   1.851   1.168   3.011  2.7794 -0.5360  0.1278
 7565SOL     OW34156   2.249   2.648   8.186  0.3458 -0.3033 -0.0581
 7565SOL    HW134157   2.307   2.618   8.116  0.5165 -0.3214  0.0909
 7565SOL    HW234158   2.177   2.696   8.146 -0.6871  0.0522  2.2535
 7566SOL     OW34159   0.802   1.827   4.215 -0.0200  0.1496  0.3415
 7566SOL    HW134160   0.807   1.772   4.137  0.5678 -1.6058  1.6069
 7566SOL    HW234161   0.809   1.765   4.288 -0.1110 -0.6087 -0.2932
 7567SOL     OW34162   0.103   0.291   5.272  0.3681  0.1373  0.4917
 7567SOL    HW134163   0.070   0.358   5.212  1.1534 -0.5897 -0.7611
 7567SOL    HW234164   0.054   0.218   5.233  0.3329  0.3735  0.0846
 7568SOL     OW34165   2.081   0.581   7.724  0.0684 -0.2812 -0.2422
 7568SOL    HW134166   2.135   0.581   7.646  0.1599 -0.6816 -0.1800
 7568SOL    HW234167   2.051   0.491   7.715 -0.9050  0.0057  0.1262
 7569SOL     OW34168   3.611   1.736   4.296  0.1440  0.2674 -0.1403
 7569SOL    HW134169   3.540   1.695   4.247 -0.0840 -0.1889  0.5666
 7569SOL    HW234170   3.607   1.825   4.261 -0.2699  0.2480 -0.1465
 7570SOL     OW34171   0.599   0.211  15.667 -0.5177 -0.0387 -0.3830
 7570SOL    HW134172   0.550   0.130  15.681 -0.3395 -0.1878 -0.6305
 7570SOL    HW234173   0.561   0.242  15.585 -0.4461  0.2869 -0.2938
 7571SOL     OW34174   3.732   1.789   7.389 -0.0385  0.1357  0.0358
 7571SOL    HW134175   3.797   1.786   7.319  0.7468  1.1893  0.7358
 7571SOL    HW234176   3.672   1.861   7.373 -0.4144 -0.1382  0.2218
 7572SOL     OW34177   3.637   1.112   4.220 -0.3840 -0.3986 -0.5880
 7572SOL    HW134178   3.716   1.093   4.169  0.5688 -1.0872  1.1525
 7572SOL    HW234179   3.570   1.127   4.153 -0.4135 -1.2452 -0.7450
 7573SOL     OW34180   2.509   1.513   5.245 -0.3796  0.2336  0.4170
 7573SOL    HW134181   2.416   1.493   5.248 -0.4691  0.3799 -1.2898
 7573SOL    HW234182   2.509   1.584   5.180 -0.8965 -2.3672 -2.3736
 7574SOL     OW34183   2.361   3.587   2.700  0.3411  0.6748  0.5493
 7574SOL    HW134184   2.269   3.615   2.698  0.7939  2.0741 -1.3975
 7574SOL    HW234185   2.403   3.628   2.624  0.2587  1.0668  0.7144
 7575SOL     OW34186   1.509   0.208   5.199 -0.2566  0.0345 -0.0836
 7575SOL    HW134187   1.507   0.113   5.190 -0.8916 -0.1709  2.2040
 7575SOL    HW234188   1.418   0.237   5.202 -0.4385 -0.4721 -0.6331
 7576SOL     OW34189   1.259   1.840   3.280 -0.8900 -0.0338 -0.2367
 7576SOL    HW134190   1.310   1.779   3.335  2.1642  2.5881 -0.1589
 7576SOL    HW234191   1.266   1.790   3.198  1.8191 -0.7775  0.4542
 7577SOL     OW34192   2.145   1.265   8.787  0.1740 -0.2452  0.6304
 7577SOL    HW134193   2.216   1.219   8.743  0.1142  0.2339  0.0319
 7577SOL    HW234194   2.184   1.261   8.874 -0.4167 -0.7404  0.8647
 7578SOL     OW34195   4.493   4.716  15.422 -0.2419 -0.1355  1.0554
 7578SOL    HW134196   4.521   0.014  15.333  1.1375 -1.4465  1.1420
 7578SOL    HW234197   4.580   4.702  15.458  0.5320  0.0103 -0.7785
 7579SOL     OW34198   0.384   3.481   3.035 -0.5404 -0.1089  0.6822
 7579SOL    HW134199   0.441   3.492   2.959  1.4941  1.6971  2.4459
 7579SOL    HW234200   0.306   3.535   3.019  0.6435  1.4220  0.0649
 7580SOL     OW34201   3.070   2.642   5.169  0.1801  0.1800 -0.1770
 7580SOL    HW134202   3.137   2.709   5.182 -0.0919  0.0378  1.9339
 7580SOL    HW234203   3.093   2.580   5.239 -0.8771  0.1665  0.1686
 7581SOL     OW34204   0.581   0.261   4.486  0.1528 -0.8175 -0.6068
 7581SOL    HW134205   0.545   0.332   4.539  2.9174 -0.9902  1.4927
 7581SOL    HW234206   0.657   0.236   4.539  0.4489  1.3791  0.0010
 7582SOL     OW34207   4.703   1.244  17.221 -0.4534  0.1462 -0.7543
 7582SOL    HW134208   4.638   1.314  17.226 -0.8873 -0.5159  2.2823
 7582SOL    HW234209   0.058   1.289  17.245 -1.5167  0.8946  1.3811
 7583SOL     OW34210   0.527   1.360   5.864 -0.1136 -0.0598  0.1631
 7583SOL    HW134211   0.465   1.373   5.793  2.6739 -1.5654 -2.5332
 7583SOL    HW234212   0.610   1.330   5.826 -0.6136  1.1372 -1.8683
 7584SOL     OW34213   2.163   4.537   3.836  0.1647  0.4882  0.1012
 7584SOL    HW134214   2.148   4.540   3.741  1.0957 -0.0540 -0.0652
 7584SOL    HW234215   2.195   4.448   3.848 -0.1334  0.5950  1.7118
 7585SOL     OW34216   4.462   0.800   4.213  0.2988 -0.4384  0.4978
 7585SOL    HW134217   4.456   0.745   4.291 -0.3987 -0.0504  0.7241
 7585SOL    HW234218   4.384   0.856   4.217 -0.0404 -0.9845  1.5232
 7586SOL     OW34219   3.533   4.213   4.398  0.0651 -0.2500 -0.1459
 7586SOL    HW134220   3.577   4.237   4.316  0.6268 -2.4297 -0.5039
 7586SOL    HW234221   3.605   4.160   4.433  1.5349  1.4318 -0.6480
 7587SOL     OW34222   3.528   4.334  11.388  0.5746  0.2118  0.0578
 7587SOL    HW134223   3.607   4.288  11.359  0.0844 -0.2104 -0.6185
 7587SOL    HW234224   3.474   4.287  11.324  0.8386  2.4378 -1.8331
 7588SOL     OW34225   0.230   1.046   9.031 -0.0967  0.0976 -0.0589
 7588SOL    HW134226   0.300   1.108   9.009  0.9717 -0.6439  1.2248
 7588SOL    HW234227   0.282   0.971   9.061  0.7734  1.4099  1.7134
 7589SOL     OW34228   4.053   3.071   0.955  0.1857 -0.3745 -0.2296
 7589SOL    HW134229   4.023   3.161   0.947 -0.0313 -0.7025 -2.9355
 7589SOL    HW234230   4.045   3.042   0.864 -1.6071  0.2862 -0.2825
 7590SOL     OW34231   1.079   2.851   8.306 -0.2223  0.1488  0.1619
 7590SOL    HW134232   1.078   2.787   8.377  0.2510  0.6538  0.6322
 7590SOL    HW234233   1.143   2.913   8.342 -1.4450  1.2477  0.4473
 7591SOL     OW34234   0.794   1.688   4.982  0.2576  0.5906  0.1338
 7591SOL    HW134235   0.747   1.620   5.031  0.4395  1.2886  1.2563
 7591SOL    HW234236   0.857   1.724   5.045 -0.6678 -1.5067  2.2670
 7592SOL     OW34237   4.537   4.673   0.056  0.6342  0.1375  0.5582
 7592SOL    HW134238   4.459   4.726   0.038  0.0055 -0.4141  1.6525
 7592SOL    HW234239   4.540   4.630  17.676 -0.0226  0.5394  0.3313
 7593SOL     OW34240   3.120   3.865   4.719  0.5215 -0.0513  0.0002
 7593SOL    HW134241   3.203   3.849   4.675  1.3896  3.4619  0.4093
 7593SOL    HW234242   3.088   3.947   4.681 -0.7896  0.1571  1.5164
 7594SOL     OW34243   2.355   1.245   2.225  0.1604  0.6861 -0.4194
 7594SOL    HW134244   2.380   1.220   2.314 -1.2044  2.5228  0.4846
 7594SOL    HW234245   2.267   1.279   2.244  1.1673  1.7702  2.2734
 7595SOL     OW34246   3.360   1.078   7.803 -0.6426 -0.3335 -0.0357
 7595SOL    HW134247   3.311   1.008   7.847 -0.5896 -1.3599 -1.6288
 7595SOL    HW234248   3.414   1.121   7.870 -2.6364  1.0167  0.7135
 7596SOL     OW34249   2.631   0.515   0.760  0.0196  0.3078 -0.4411
 7596SOL    HW134250   2.691   0.544   0.829 -2.4579  0.3579  1.7241
 7596SOL    HW234251   2.597   0.433   0.795  0.7830 -0.6627 -2.0147
 7597SOL     OW34252   2.471   2.733   8.510 -0.0997  0.2665  0.6671
 7597SOL    HW134253   2.516   2.751   8.593 -1.1443  0.8882  1.0895
 7597SOL    HW234254   2.523   2.665   8.467  1.3387  2.2083 -0.6497
 7598SOL     OW34255   1.092   0.476   5.330  0.2335 -0.1598  0.4595
 7598SOL    HW134256   1.085   0.538   5.258  0.7058  0.7456  1.1820
 7598SOL    HW234257   1.174   0.486   5.380  2.0860  0.5373 -2.7406
 7599SOL     OW34258   4.120   0.344   7.248 -0.2254 -0.1376  0.3021
 7599SOL    HW134259   4.216   0.345   7.243 -0.1809  0.9546  1.2596
 7599SOL    HW234260   4.108   0.297   7.331 -0.5397 -1.7055 -0.6397
 7600SOL     OW34261   0.408   1.505   5.109  0.3177 -0.0099 -0.0366
 7600SOL    HW134262   0.319   1.469   5.112 -0.3934  1.8650  0.8830
 7600SOL    HW234263   0.395   1.599   5.100  1.7024  0.1719 -0.2015
 7601SOL     OW34264   1.850   0.886   4.634  0.2151 -0.5823 -0.5141
 7601SOL    HW134265   1.852   0.900   4.728  0.5440 -1.0378 -0.4515
 7601SOL    HW234266   1.940   0.912   4.615  0.7566 -0.9482  1.6399
 7602SOL     OW34267   1.370   1.017   2.730 -0.7462 -0.1304  0.5662
 7602SOL    HW134268   1.440   1.037   2.793 -1.1310 -1.1271  1.3040
 7602SOL    HW234269   1.344   1.099   2.687 -3.9855 -0.8135  1.2607
 7603SOL     OW34270   2.292   3.953   4.452 -0.8606  0.1943 -0.5622
 7603SOL    HW134271   2.257   3.912   4.531 -0.4021 -0.9531 -0.9631
 7603SOL    HW234272   2.316   4.036   4.494 -0.7176  0.8357 -1.9239
 7604SOL     OW34273   4.587   2.336  11.508 -0.0681  0.4933 -0.1772
 7604SOL    HW134274   4.604   2.383  11.426 -1.0612  2.1412  0.5731
 7604SOL    HW234275   4.550   2.396  11.572  0.0301  0.2801  0.0784
 7605SOL     OW34276   2.067   2.235   8.827  0.4708  0.0109  0.3025
 7605SOL    HW134277   2.097   2.205   8.741 -1.2654 -3.5375  0.9342
 7605SOL    HW234278   2.143   2.270   8.874  1.0872  0.5202 -1.0786
 7606SOL     OW34279   0.013   0.064   9.243 -0.5170  0.3346 -0.0655
 7606SOL    HW134280   0.022   4.695   9.242 -0.0644  0.3919 -1.2479
 7606SOL    HW234281   0.081   0.086   9.179 -0.2948 -1.3571 -0.3960
 7607SOL     OW34282   1.500   1.401  10.231  0.1637 -0.4519 -0.5441
 7607SOL    HW134283   1.576   1.344  10.229  0.6881  0.1812  1.6576
 7607SOL    HW234284   1.487   1.401  10.326  2.2923 -1.3422 -0.2505
 7608SOL     OW34285   2.989   2.327   1.481 -0.8669 -0.8618  0.1266
 7608SOL    HW134286   3.079   2.358   1.466 -1.5307  1.1624  0.4236
 7608SOL    HW234287   2.951   2.354   1.398  1.0631  0.1111 -0.4525
 7609SOL     OW34288   3.833   0.090   6.913 -0.5684 -0.0611 -0.9695
 7609SOL    HW134289   3.911   0.048   6.950 -1.8254 -0.4555  1.2478
 7609SOL    HW234290   3.770   0.019   6.916 -2.2462  1.3756 -2.5240
 7610SOL     OW34291   2.045   3.086   9.036  0.0981  0.0280  0.1763
 7610SOL    HW134292   2.031   3.181   9.042 -1.2360 -0.0902 -1.1786
 7610SOL    HW234293   1.998   3.057   9.114  0.0054  0.3337  0.2357
 7611SOL     OW34294   1.435   0.565   6.242 -0.2197 -0.1044 -0.1424
 7611SOL    HW134295   1.469   0.590   6.156  0.9216  0.4499  0.4668
 7611SOL    HW234296   1.513   0.583   6.294 -0.2154 -1.0486  0.1810
 7612SOL     OW34297   0.876   4.116   3.713  0.2613  0.3621  0.6771
 7612SOL    HW134298   0.920   4.165   3.644 -0.8679  1.4910  0.7578
 7612SOL    HW234299   0.948   4.113   3.776  0.3371 -0.5587  0.5356
 7613SOL     OW34300   3.957   2.547   8.666  0.3441 -1.0570 -0.5199
 7613SOL    HW134301   3.982   2.551   8.759 -0.3109 -0.1776 -0.3842
 7613SOL    HW234302   3.868   2.582   8.672  0.4587 -1.0009  0.8704
 7614SOL     OW34303   2.717   3.533   4.352  0.5481  0.3632  0.1040
 7614SOL    HW134304   2.763   3.617   4.358  0.3367  0.6117 -1.8104
 7614SOL    HW234305   2.754   3.495   4.273  1.5591  0.4497  0.5402
 7615SOL     OW34306   3.515   1.303   7.604  0.2698 -0.1160  0.0877
 7615SOL    HW134307   3.431   1.320   7.647 -1.9394 -0.7370 -3.9945
 7615SOL    HW234308   3.527   1.376   7.544  0.2282 -0.1448  0.0442
 7616SOL     OW34309   3.952   0.633  15.319  0.4203 -0.3817  0.5639
 7616SOL    HW134310   3.996   0.551  15.341 -0.2555 -0.4517  1.6243
 7616SOL    HW234311   3.871   0.602  15.278  0.4914  1.8320 -1.2662
 7617SOL     OW34312   3.772   4.059   4.531 -1.0150  0.1938  0.2346
 7617SOL    HW134313   3.809   4.090   4.449 -0.7436 -0.9402 -0.0769
 7617SOL    HW234314   3.848   4.027   4.579 -1.2102 -2.5227 -1.2747
 7618SOL     OW34315   3.699   3.936   4.812 -0.5613 -0.2982 -0.0435
 7618SOL    HW134316   3.686   3.971   4.724  0.4759 -1.5938 -0.7123
 7618SOL    HW234317   3.767   3.999   4.837  0.0708 -1.4816  1.2603
 7619SOL     OW34318   0.933   4.681   6.174 -0.4252 -0.5952 -0.4250
 7619SOL    HW134319   0.947   0.025   6.111 -2.5128  1.0024  0.8688
 7619SOL    HW234320   0.863   4.630   6.134 -0.4212 -0.0189 -1.1578
 7620SOL     OW34321   2.769   4.110   4.643 -0.4954  0.1192  0.0809
 7620SOL    HW134322   2.859   4.126   4.614 -0.6073 -1.0413 -0.8976
 7620SOL    HW234323   2.725   4.073   4.566 -1.9577  0.6483  0.6474
 7621SOL     OW34324   2.403   3.455  13.462  0.2290 -0.0995  0.6972
 7621SOL    HW134325   2.365   3.442  13.375  0.1853  0.4351  0.6400
 7621SOL    HW234326   2.456   3.530  13.435 -0.0049  0.3215  1.4089
 7622SOL     OW34327   4.060   2.756  15.909 -0.0252 -0.1057 -0.0939
 7622SOL    HW134328   4.103   2.789  15.989 -1.3576 -1.3699  1.1495
 7622SOL    HW234329   3.969   2.764  15.935  0.4345  1.0677  1.2037
 7623SOL     OW34330   1.142   3.719   2.327  0.1868  0.0715  0.0382
 7623SOL    HW134331   1.218   3.664   2.346 -1.1232 -1.3530  1.2180
 7623SOL    HW234332   1.068   3.662   2.306 -0.1151  0.1942  0.7656
 7624SOL     OW34333   1.272   0.632   1.816 -0.7376 -0.2068  0.1683
 7624SOL    HW134334   1.247   0.717   1.851 -1.3030 -1.2324  2.2598
 7624SOL    HW234335   1.333   0.656   1.746 -1.4112  1.4555  0.1642
 7625SOL     OW34336   1.632   3.187  11.658 -0.1610  0.1881 -0.2790
 7625SOL    HW134337   1.699   3.223  11.716  0.2751 -0.7158 -0.2080
 7625SOL    HW234338   1.607   3.260  11.602  0.5451  0.9654  0.4142
 7626SOL     OW34339   0.478   2.889   1.819 -0.0211  0.0281  0.2727
 7626SOL    HW134340   0.415   2.849   1.760  0.9089  0.5230 -1.0571
 7626SOL    HW234341   0.467   2.840   1.900 -0.3185 -1.9909 -0.9822
 7627SOL     OW34342   2.482   3.410   8.060 -0.3269 -0.4406 -0.0521
 7627SOL    HW134343   2.563   3.388   8.106 -0.6272 -0.2349  0.5820
 7627SOL    HW234344   2.429   3.454   8.127  0.6814 -0.2860  0.6575
 7628SOL     OW34345   0.396   1.812   3.236  0.0595  0.0179  0.0463
 7628SOL    HW134346   0.339   1.746   3.276 -2.1016  1.9348  0.1681
 7628SOL    HW234347   0.474   1.821   3.290  1.6662  0.3059 -2.3002
 7629SOL     OW34348   3.917   2.558  16.712 -0.3038  0.0789 -0.3193
 7629SOL    HW134349   3.844   2.610  16.744  0.5126  1.6352 -1.0011
 7629SOL    HW234350   3.876   2.526  16.631 -0.2044  1.4827 -0.9233
 7630SOL     OW34351   3.628   2.308   9.588  0.4685 -0.3946  0.0641
 7630SOL    HW134352   3.631   2.224   9.633  1.5734  0.4199  1.5142
 7630SOL    HW234353   3.687   2.292   9.515 -1.3216  0.1668 -1.4856
 7631SOL     OW34354   0.963   0.162   9.159 -0.3654 -0.2246  0.3507
 7631SOL    HW134355   0.963   0.069   9.133  1.1993  0.0909 -0.8612
 7631SOL    HW234356   0.946   0.154   9.252  1.0317  0.5899  0.6720
 7632SOL     OW34357   2.589   1.022   6.827 -0.3928  0.2984  0.1593
 7632SOL    HW134358   2.601   1.054   6.737  0.4346 -3.1347 -0.9616
 7632SOL    HW234359   2.663   1.052   6.880  0.2685  0.0624 -0.6210
 7633SOL     OW34360   2.469   1.167  17.628 -0.4381 -0.0865  0.3568
 7633SOL    HW134361   2.382   1.133  17.650 -0.2582 -1.2116 -0.7045
 7633SOL    HW234362   2.521   1.088  17.634  1.1247  0.8633 -0.7899
 7634SOL     OW34363   1.581   3.332   1.513 -0.1528  0.3122  0.4296
 7634SOL    HW134364   1.536   3.255   1.478  0.5598  0.5448 -1.0118
 7634SOL    HW234365   1.589   3.388   1.436 -0.1964  1.1525  1.0334
 7635SOL     OW34366   1.444   2.251   6.132  0.2503 -0.1870 -0.2795
 7635SOL    HW134367   1.424   2.211   6.216  0.8401  1.2207  0.5179
 7635SOL    HW234368   1.367   2.226   6.081  1.2575 -1.8351 -0.9956
 7636SOL     OW34369   2.617   2.157  12.148  0.2756  0.0513  0.1454
 7636SOL    HW134370   2.597   2.070  12.184 -0.2945  0.0464 -0.1813
 7636SOL    HW234371   2.526   2.185  12.138  0.6748  0.9736 -0.9251
 7637SOL     OW34372   2.640   2.631  11.326  0.4866 -0.2497  0.0921
 7637SOL    HW134373   2.580   2.703  11.305 -0.2529 -1.0127 -0.4052
 7637SOL    HW234374   2.710   2.680  11.368 -0.7832  1.2481  0.4548
 7638SOL     OW34375   0.414   2.431  15.692  0.4002 -0.9091  0.2927
 7638SOL    HW134376   0.331   2.467  15.661  1.1913 -0.6501 -1.5631
 7638SOL    HW234377   0.387   2.339  15.693  2.1627 -1.4220  1.0539
 7639SOL     OW34378   2.300   0.400   9.015  0.2035  0.8261 -0.1893
 7639SOL    HW134379   2.278   0.390   9.108 -0.0011 -1.5736 -0.4855
 7639SOL    HW234380   2.374   0.340   9.017 -0.2314  0.3597  2.4659
 7640SOL     OW34381   0.233   0.204  14.213 -0.1926 -0.2689  0.3548
 7640SOL    HW134382   0.311   0.222  14.267 -0.8923  0.1266  1.2445
 7640SOL    HW234383   0.195   0.291  14.226 -0.0905 -0.1350 -0.2648
 7641SOL     OW34384   1.946   0.916   3.999  0.0345 -0.2676  0.4696
 7641SOL    HW134385   1.985   0.911   3.911 -0.3982  0.8448  0.2069
 7641SOL    HW234386   1.932   1.010   4.013 -1.3502 -0.0906 -1.9666
 7642SOL     OW34387   4.444   4.163  15.991  0.3135  0.5385  0.4049
 7642SOL    HW134388   4.419   4.181  16.081  0.2417 -1.5528  0.7976
 7642SOL    HW234389   4.411   4.074  15.978 -1.1227  1.1381 -0.0250
 7643SOL     OW34390   0.161   1.559   8.512  0.5327  0.1410  0.7155
 7643SOL    HW134391   0.228   1.493   8.495  2.0952  2.2627 -1.2332
 7643SOL    HW234392   0.080   1.523   8.473  1.1800 -0.3862 -0.1475
 7644SOL     OW34393   3.234   1.822   2.944  0.5092  0.3280 -0.6141
 7644SOL    HW134394   3.264   1.912   2.939  1.2174  0.0171 -1.9333
 7644SOL    HW234395   3.258   1.790   2.857 -1.2169  0.0691 -0.9971
 7645SOL     OW34396   1.235   0.183  12.217 -0.1231  0.1040 -0.5535
 7645SOL    HW134397   1.182   0.186  12.138  0.3010 -0.7996 -0.8732
 7645SOL    HW234398   1.290   0.261  12.207  1.1923 -0.8166 -0.5078
 7646SOL     OW34399   1.097   2.345  17.387 -0.6020  0.3477  0.4784
 7646SOL    HW134400   1.100   2.332  17.482 -0.0337 -0.0700  0.4028
 7646SOL    HW234401   1.004   2.321  17.380 -0.9039  1.1760  1.6430
 7647SOL     OW34402   4.001   0.798   0.420 -0.1322  0.2110 -0.1250
 7647SOL    HW134403   4.072   0.855   0.390  0.5741 -0.7741 -0.3444
 7647SOL    HW234404   3.937   0.801   0.350  0.1074 -5.8534 -0.6300
 7648SOL     OW34405   2.278   3.223   6.817  0.5461 -0.1795 -0.5190
 7648SOL    HW134406   2.339   3.291   6.789  0.5228 -0.4816 -1.3151
 7648SOL    HW234407   2.300   3.216   6.910 -1.1883 -3.2772 -0.3523
 7649SOL     OW34408   1.868   2.234  11.230  0.6570  0.1969  0.0284
 7649SOL    HW134409   1.806   2.227  11.157  0.3646  4.7324 -0.1917
 7649SOL    HW234410   1.849   2.153  11.278 -0.3415 -0.4228 -1.4056
 7650SOL     OW34411   2.879   2.768   8.398 -0.1473  0.0454 -0.0805
 7650SOL    HW134412   2.975   2.766   8.395 -0.1805 -1.7657 -0.1395
 7650SOL    HW234413   2.869   2.848   8.346  0.1880 -0.8378 -1.5257
 7651SOL     OW34414   0.383   3.964   6.427  0.3930  0.0320  0.1497
 7651SOL    HW134415   0.331   3.981   6.349  1.7732  5.0978  0.3470
 7651SOL    HW234416   0.334   3.897   6.474  1.7927 -0.5424  0.8140
 7652SOL     OW34417   3.549   3.173   0.486  0.0869 -0.3114  0.0712
 7652SOL    HW134418   3.468   3.121   0.480 -0.4275  0.4866  0.1227
 7652SOL    HW234419   3.537   3.235   0.414 -0.8135 -0.1138  0.3865
 7653SOL     OW34420   1.276   3.948   9.309 -0.1240 -0.4020 -0.3930
 7653SOL    HW134421   1.265   3.934   9.215  1.6520  1.3924 -0.8732
 7653SOL    HW234422   1.364   3.984   9.299  0.4111 -0.8355  2.7543
 7654SOL     OW34423   1.781   1.514   8.649 -0.7228 -0.2296  0.2268
 7654SOL    HW134424   1.751   1.604   8.661 -1.2753 -0.6263  1.9199
 7654SOL    HW234425   1.869   1.521   8.686 -0.4628 -1.5425 -0.1165
 7655SOL     OW34426   2.199   1.562  13.356  0.3703 -0.3681  0.7516
 7655SOL    HW134427   2.127   1.584  13.415 -2.5031 -1.6016 -2.2852
 7655SOL    HW234428   2.189   1.624  13.283 -0.5135 -0.7107  0.5843
 7656SOL     OW34429   3.669   3.158   2.822 -0.1326  0.0409  0.6083
 7656SOL    HW134430   3.652   3.064   2.833 -0.8394 -0.0825 -1.6231
 7656SOL    HW234431   3.603   3.200   2.878  0.8695 -0.7444  2.3773
 7657SOL     OW34432   1.060   4.207  15.631 -0.2498 -0.5289  0.6910
 7657SOL    HW134433   1.107   4.190  15.713  0.1767  0.5303  0.6681
 7657SOL    HW234434   1.099   4.127  15.596 -0.7831 -0.1196 -0.8322
 7658SOL     OW34435   1.308   2.555  16.410  0.7037  0.1971 -0.1532
 7658SOL    HW134436   1.255   2.521  16.338 -3.4910  0.6124  2.7248
 7658SOL    HW234437   1.247   2.607  16.463 -1.0333  0.2869 -2.2259
 7659SOL     OW34438   2.212   0.855   2.178  0.8365  0.0955 -0.2014
 7659SOL    HW134439   2.136   0.815   2.221  0.4864  0.2680 -0.6648
 7659SOL    HW234440   2.187   0.947   2.167  0.4653 -0.0742 -0.7386
 7660SOL     OW34441   0.501   0.689   1.857 -0.0135  0.1914  0.2350
 7660SOL    HW134442   0.428   0.714   1.914 -1.2876 -1.8811 -0.4753
 7660SOL    HW234443   0.574   0.726   1.906  0.1672 -0.3216  0.3500
 7661SOL     OW34444   0.392   3.623   5.891  0.0605  0.6527  0.5005
 7661SOL    HW134445   0.481   3.587   5.901  0.0587  0.9471  1.5546
 7661SOL    HW234446   0.408   3.680   5.815 -0.2415  2.4980  1.8153
 7662SOL     OW34447   1.924   1.361  15.207 -0.5795  0.0322 -0.0935
 7662SOL    HW134448   1.924   1.309  15.287  0.7185 -0.5435 -0.4666
 7662SOL    HW234449   1.978   1.308  15.148 -0.4605 -2.0843  1.9148
 7663SOL     OW34450   0.272   3.395   2.753 -0.5530 -0.2193  0.0492
 7663SOL    HW134451   0.256   3.486   2.780 -3.4728 -0.2931 -1.4310
 7663SOL    HW234452   0.230   3.390   2.667  1.7812  2.4165 -1.2622
 7664SOL     OW34453   2.620   2.164   1.870 -0.1968  0.1482  0.3566
 7664SOL    HW134454   2.600   2.119   1.788  3.7574 -2.7422  0.9538
 7664SOL    HW234455   2.705   2.123   1.886 -0.9825 -2.0094 -1.0113
 7665SOL     OW34456   2.767   1.900   2.630 -0.3886 -0.3225 -0.2380
 7665SOL    HW134457   2.832   1.939   2.689 -2.0806  1.6534  0.2716
 7665SOL    HW234458   2.768   1.967   2.562 -0.5954  0.6490  0.7195
 7666SOL     OW34459   1.867   0.384   8.317 -0.0565  0.4555  0.1647
 7666SOL    HW134460   1.918   0.314   8.358  0.4331  0.9394  0.3831
 7666SOL    HW234461   1.840   0.431   8.396  0.6529 -0.7528  1.1375
 7667SOL     OW34462   3.812   4.335   4.340  0.0705  0.6884 -0.0930
 7667SOL    HW134463   3.895   4.313   4.383 -0.9797  1.8029  2.4979
 7667SOL    HW234464   3.849   4.338   4.251 -0.5169  0.4260 -0.3509
 7668SOL     OW34465   1.919   1.842  13.813 -0.8094 -0.5200 -0.1173
 7668SOL    HW134466   1.909   1.897  13.735  1.9165 -0.4448 -0.3828
 7668SOL    HW234467   1.825   1.824  13.823 -1.1381  0.3860 -1.5200
 7669SOL     OW34468   2.580   4.653   5.287  0.6024 -0.3657 -0.2039
 7669SOL    HW134469   2.563   4.655   5.193  1.9247 -1.0615 -0.4616
 7669SOL    HW234470   2.547   4.566   5.309 -0.1642  0.2166  0.9287
 7670SOL     OW34471   1.435   4.561   4.595 -0.2429 -0.2412  0.2638
 7670SOL    HW134472   1.385   4.639   4.619 -2.3032 -1.5680  0.2798
 7670SOL    HW234473   1.493   4.550   4.670  0.1091 -0.8574 -0.0976
 7671SOL     OW34474   3.391   4.060   9.738  0.0124  0.0634 -0.2352
 7671SOL    HW134475   3.309   4.084   9.781  1.2023  1.4602  1.2736
 7671SOL    HW234476   3.359   3.974   9.711  1.4750 -0.2845 -0.8625
 7672SOL     OW34477   3.239   2.651   3.455 -0.6415 -0.2753 -0.0430
 7672SOL    HW134478   3.183   2.659   3.532 -0.9901 -0.8947 -0.2272
 7672SOL    HW234479   3.181   2.677   3.384 -1.9516 -1.8420  0.4460
 7673SOL     OW34480   3.254   0.858   9.194  0.2306  0.2356  0.7273
 7673SOL    HW134481   3.255   0.896   9.282  2.4570  1.2764  0.2281
 7673SOL    HW234482   3.337   0.891   9.161 -1.0128  1.0774 -1.5252
 7674SOL     OW34483   0.024   0.838   0.885  0.4165 -0.1439  0.0271
 7674SOL    HW134484   4.721   0.758   0.840 -0.8694  0.3138  0.0673
 7674SOL    HW234485   0.037   0.804   0.974 -0.2682 -1.4737 -0.3748
 7675SOL     OW34486   2.726   3.401   6.215 -0.6716  0.2323  0.1414
 7675SOL    HW134487   2.686   3.406   6.129 -1.1630  0.7751  0.4026
 7675SOL    HW234488   2.818   3.384   6.195 -0.4599 -0.2024  1.4381
 7676SOL     OW34489   3.227   1.169   6.693  0.0706 -0.3500  0.7476
 7676SOL    HW134490   3.234   1.106   6.765  0.0613 -0.4194  0.6867
 7676SOL    HW234491   3.202   1.119   6.616  1.4009  1.2955 -0.7722
 7677SOL     OW34492   0.556   0.923   2.655 -0.2213 -0.2217 -0.5691
 7677SOL    HW134493   0.468   0.898   2.681  0.1572 -0.5853  0.3314
 7677SOL    HW234494   0.601   0.846   2.690  0.0968  0.0812 -0.3069
 7678SOL     OW34495   2.889   0.891   8.767 -0.3310 -0.5758 -0.2011
 7678SOL    HW134496   2.879   0.888   8.862  2.2404  0.4368  0.1025
 7678SOL    HW234497   2.948   0.818   8.746 -0.9457 -1.1323  0.0255
 7679SOL     OW34498   2.241   4.593   7.341 -0.4904  0.2346  0.1800
 7679SOL    HW134499   2.283   4.655   7.400  0.8278  0.1967 -0.7238
 7679SOL    HW234500   2.265   4.512   7.387 -0.4719  0.4113  0.4856
 7680SOL     OW34501   3.826   4.669   5.972 -0.3590 -0.0087  0.0337
 7680SOL    HW134502   3.749   4.653   5.917  0.3690  0.7782 -1.1968
 7680SOL    HW234503   3.900   4.640   5.920 -1.3415  0.0055 -1.3608
 7681SOL     OW34504   0.380   1.372   1.879  0.1066 -0.0050  0.3768
 7681SOL    HW134505   0.454   1.317   1.905 -0.9427 -0.5679  2.1191
 7681SOL    HW234506   0.407   1.447   1.931 -1.7422  0.5422  0.5481
 7682SOL     OW34507   0.555   3.926   4.819 -0.4036 -0.1261  0.3636
 7682SOL    HW134508   0.549   3.851   4.878  1.6165  0.0356  0.7815
 7682SOL    HW234509   0.647   3.934   4.794 -1.2214 -1.2970 -2.9056
 7683SOL     OW34510   0.946   4.138  15.009 -0.9798 -0.3676 -0.2053
 7683SOL    HW134511   1.006   4.082  15.059  0.1271  0.8049 -0.2189
 7683SOL    HW234512   0.947   4.117  14.916 -0.0467  0.5197 -0.3944
 7684SOL     OW34513   2.565   1.702   7.325 -0.4661 -0.0324  0.4382
 7684SOL    HW134514   2.585   1.612   7.347 -1.1032 -0.4706 -0.7524
 7684SOL    HW234515   2.639   1.737   7.375 -1.7103  1.1054  1.4935
 7685SOL     OW34516   2.696   0.422  16.809  0.4509 -0.0493  0.1652
 7685SOL    HW134517   2.606   0.452  16.804  1.1618  2.5342  2.7347
 7685SOL    HW234518   2.685   0.329  16.831 -1.0488  0.1724  0.3228
 7686SOL     OW34519   0.446   2.877  12.307 -0.5228 -0.0665 -0.7113
 7686SOL    HW134520   0.359   2.889  12.270 -1.4645 -2.0245  0.8426
 7686SOL    HW234521   0.500   2.951  12.282 -0.9432  0.4259 -0.1653
 7687SOL     OW34522   2.086   3.747  12.261  0.2888 -0.0912 -0.6852
 7687SOL    HW134523   2.018   3.796  12.308  1.1478 -0.3510  0.8011
 7687SOL    HW234524   2.111   3.824  12.209 -2.0171  1.6728  0.7596
 7688SOL     OW34525   2.364   4.437   8.105 -0.5613  0.3435 -0.3444
 7688SOL    HW134526   2.338   4.501   8.039 -0.2529  1.4922  0.6339
 7688SOL    HW234527   2.282   4.408   8.145  0.3657 -3.1065 -0.9071
 7689SOL     OW34528   1.730   0.853  14.098 -0.5583  0.3107  0.0610
 7689SOL    HW134529   1.672   0.805  14.040 -0.8066 -0.5291  1.0028
 7689SOL    HW234530   1.813   0.819  14.066 -2.2411 -0.8367 -3.0614
 7690SOL     OW34531   1.245   2.966   5.336 -0.5915 -0.7834 -0.1608
 7690SOL    HW134532   1.324   3.012   5.364  0.4021 -1.5488 -1.7030
 7690SOL    HW234533   1.180   3.036   5.333  2.1088  1.6812 -0.6813
 7691SOL     OW34534   3.941   2.870   3.225 -0.2351 -0.0180 -0.0971
 7691SOL    HW134535   3.971   2.779   3.226 -1.4604 -0.4283  0.0324
 7691SOL    HW234536   3.856   2.875   3.269 -0.5977 -1.9515 -0.5949
 7692SOL     OW34537   2.917   3.639   6.649 -0.4525 -0.0369 -0.2706
 7692SOL    HW134538   2.827   3.607   6.661 -0.2244 -0.3445  0.6588
 7692SOL    HW234539   2.925   3.626   6.555 -0.1125  3.1251 -0.6484
 7693SOL     OW34540   4.243   3.118   5.593  0.5141 -0.4014  0.6056
 7693SOL    HW134541   4.288   3.081   5.517 -0.3741 -0.7900  0.2806
 7693SOL    HW234542   4.309   3.179   5.628  0.4289  0.1388 -0.1784
 7694SOL     OW34543   3.780   2.133   1.047  0.1324 -0.6488 -1.2001
 7694SOL    HW134544   3.803   2.040   1.045 -0.3280 -0.7817 -0.2609
 7694SOL    HW234545   3.859   2.169   1.086  0.0791 -1.0382 -0.7307
 7695SOL     OW34546   3.905   3.804   6.325 -0.0169  0.4145  0.0685
 7695SOL    HW134547   3.818   3.841   6.340 -0.8116 -0.6775 -1.9057
 7695SOL    HW234548   3.897   3.720   6.370 -0.3647  0.5116  0.1861
 7696SOL     OW34549   4.513   0.380  12.978  0.7176 -0.4188  0.1297
 7696SOL    HW134550   4.577   0.367  13.049 -1.4158 -1.9650  1.7769
 7696SOL    HW234551   4.554   0.434  12.910  0.9489 -0.6669  0.0717
 7697SOL     OW34552   1.105   4.661  13.369 -0.0597 -0.3895  0.6987
 7697SOL    HW134553   1.072   4.621  13.289 -2.1040  2.0315  0.3155
 7697SOL    HW234554   1.189   4.699  13.343  0.9234 -1.4518  2.3367
 7698SOL     OW34555   2.046   1.374   6.920 -0.1257  0.5364  0.0876
 7698SOL    HW134556   2.066   1.325   7.000 -0.8723 -0.0373 -0.0748
 7698SOL    HW234557   2.134   1.382   6.885 -0.1016  2.3393  0.5922
 7699SOL     OW34558   0.920   0.946  14.133  0.0840 -0.5022 -0.3017
 7699SOL    HW134559   0.944   0.946  14.041 -2.9037 -0.6027 -1.0815
 7699SOL    HW234560   0.853   0.877  14.130 -0.8192  0.3155  1.0284
 7700SOL     OW34561   2.492   3.093   4.054  0.4234  0.1559  1.0328
 7700SOL    HW134562   2.499   3.111   3.960  0.6796  2.2518  1.4565
 7700SOL    HW234563   2.485   3.185   4.080 -0.0577 -0.0518  1.6330
 7701SOL     OW34564   2.662   2.468   4.258  0.2256 -0.3094 -0.7299
 7701SOL    HW134565   2.703   2.538   4.207  1.3211 -0.4775 -0.0588
 7701SOL    HW234566   2.572   2.498   4.275 -0.4067 -1.5069 -1.8998
 7702SOL     OW34567   0.199   2.172   4.449  0.2227  0.0287 -0.2289
 7702SOL    HW134568   0.142   2.102   4.417 -0.7079  0.7951 -0.2592
 7702SOL    HW234569   0.133   2.236   4.477 -1.4522 -0.7210 -2.4268
 7703SOL     OW34570   2.097   2.878   8.031 -0.1432  0.1983  0.0850
 7703SOL    HW134571   2.039   2.801   8.028 -0.0212  0.0035  3.2653
 7703SOL    HW234572   2.033   2.946   8.054 -0.4353  0.4224 -1.4105
 7704SOL     OW34573   0.672   2.751   7.348  0.2679 -0.2740  0.3548
 7704SOL    HW134574   0.671   2.812   7.422  1.4508  2.4692 -1.9189
 7704SOL    HW234575   0.585   2.754   7.308  1.1588 -0.0775 -1.5548
 7705SOL     OW34576   0.248   4.044   1.734  0.8370 -0.2645 -0.6800
 7705SOL    HW134577   0.153   4.043   1.731  0.8780 -0.5381 -1.6848
 7705SOL    HW234578   0.279   4.103   1.666 -0.6742  1.2072 -0.0873
 7706SOL     OW34579   0.102   0.707   2.883  0.5595 -0.3604  0.0250
 7706SOL    HW134580   0.164   0.662   2.941  2.4972  1.1593 -0.8459
 7706SOL    HW234581   0.075   0.627   2.839 -1.5705 -0.4424  1.4917
 7707SOL     OW34582   2.130   3.089   5.234  0.0922  0.5215 -0.9506
 7707SOL    HW134583   2.109   3.016   5.292  0.6853  1.0284 -0.1032
 7707SOL    HW234584   2.194   3.042   5.180 -2.5863 -1.5242 -2.3729
 7708SOL     OW34585   0.227   4.480   7.556 -0.0291 -0.3197 -0.2628
 7708SOL    HW134586   0.226   4.494   7.651  0.8249 -1.7017 -0.0519
 7708SOL    HW234587   0.285   4.553   7.534  0.6185 -0.3459  1.3167
 7709SOL     OW34588   2.829   3.743   8.280  0.4095 -0.2189  0.0128
 7709SOL    HW134589   2.764   3.684   8.320  0.4301 -0.0828  0.2492
 7709SOL    HW234590   2.902   3.684   8.297  0.1312 -1.0101 -1.5558
 7710SOL     OW34591   1.550   0.220   6.246 -0.4815  0.1780 -0.0975
 7710SOL    HW134592   1.508   0.148   6.200  0.2851 -0.0760 -0.3905
 7710SOL    HW234593   1.507   0.289   6.196 -1.5167 -0.0654  0.4494
 7711SOL     OW34594   1.585   2.504   8.958  0.3124 -0.3990  0.1839
 7711SOL    HW134595   1.556   2.584   9.002  3.5023  0.8160  0.0987
 7711SOL    HW234596   1.673   2.528   8.929 -0.1659  0.0672 -0.8427
 7712SOL     OW34597   1.203   1.341   6.522  0.2442 -0.0760 -0.1462
 7712SOL    HW134598   1.199   1.250   6.551 -0.3381 -0.3096 -0.9384
 7712SOL    HW234599   1.275   1.343   6.459 -1.1756 -0.3282 -1.7948
 7713SOL     OW34600   1.611   2.103   9.389  0.3270 -0.1755 -0.3138
 7713SOL    HW134601   1.576   2.099   9.300 -1.5815 -0.0301  0.4339
 7713SOL    HW234602   1.706   2.102   9.378  0.2467 -0.1332 -1.0559
 7714SOL     OW34603   0.731   2.669   2.527  0.5791  0.3727  0.1628
 7714SOL    HW134604   0.702   2.710   2.609  0.8382  0.9964 -0.0609
 7714SOL    HW234605   0.661   2.608   2.505 -0.1890  1.8497 -1.3819
 7715SOL     OW34606   2.482   4.448   5.589 -0.2024  0.2757  0.1978
 7715SOL    HW134607   2.444   4.366   5.557  0.8565 -0.4998  0.9372
 7715SOL    HW234608   2.418   4.459   5.660 -0.5168 -2.7492  0.3845
 7716SOL     OW34609   3.337   1.404   2.665  0.4763  0.2012  0.5573
 7716SOL    HW134610   3.289   1.423   2.745  0.8900  0.0624  0.8376
 7716SOL    HW234611   3.384   1.485   2.644  1.6034 -0.7356 -0.5826
 7717SOL     OW34612   2.932   1.531   5.982  0.0137 -0.3264  0.6476
 7717SOL    HW134613   2.987   1.567   5.912 -1.4985  0.1505 -0.3087
 7717SOL    HW234614   2.851   1.578   5.965 -1.0441 -2.0008  1.0355
 7718SOL     OW34615   1.735   2.348   3.863 -0.3405  0.1403 -0.4568
 7718SOL    HW134616   1.701   2.322   3.949 -1.3204 -0.7392 -1.1096
 7718SOL    HW234617   1.750   2.263   3.824 -0.7583 -1.1006  2.0455
 7719SOL     OW34618   2.305   3.355  13.229 -0.3580 -0.6341 -0.2890
 7719SOL    HW134619   2.210   3.355  13.218 -0.2047 -1.0596 -1.6881
 7719SOL    HW234620   2.341   3.372  13.142  2.4310 -1.7951  0.6196
 7720SOL     OW34621   0.635   3.371   3.308 -0.3702  0.1982 -0.8569
 7720SOL    HW134622   0.693   3.383   3.234 -1.6130 -0.3912 -1.9229
 7720SOL    HW234623   0.554   3.347   3.263  0.9112 -1.2412 -2.3685
 7721SOL     OW34624   1.560   2.917   7.704 -0.2478  0.6210  0.5558
 7721SOL    HW134625   1.570   2.842   7.763  0.6246  1.4494  1.4492
 7721SOL    HW234626   1.650   2.939   7.681  0.1950 -4.1199 -2.2508
 7722SOL     OW34627   3.517   2.908   3.675 -0.1108  0.2838  0.1609
 7722SOL    HW134628   3.446   2.972   3.665 -0.0200  0.4287  0.4593
 7722SOL    HW234629   3.547   2.909   3.584 -0.6872 -3.1437 -0.0698
 7723SOL     OW34630   1.829   0.777   2.765  0.1563  0.5606 -0.2288
 7723SOL    HW134631   1.781   0.735   2.695 -2.0317  1.4097  0.7724
 7723SOL    HW234632   1.887   0.821   2.702  0.4696  2.5393  1.4380
 7724SOL     OW34633   1.348   3.112   4.310  0.3669 -0.3258  0.2628
 7724SOL    HW134634   1.253   3.102   4.314  0.1513  0.3858 -3.3733
 7724SOL    HW234635   1.369   3.082   4.222 -0.3964  2.0853 -0.7470
 7725SOL     OW34636   1.126   4.677   3.313 -0.5633 -0.1472 -0.0994
 7725SOL    HW134637   1.177   0.013   3.260  0.0958 -0.0076  0.6946
 7725SOL    HW234638   1.056   4.652   3.252 -1.2305  2.6284 -0.4853
 7726SOL     OW34639   3.678   1.591   5.436  0.2796 -0.3037  0.4238
 7726SOL    HW134640   3.729   1.514   5.410 -0.8392 -1.1917  0.8330
 7726SOL    HW234641   3.639   1.578   5.522 -0.4945  0.0453  0.1317
 7727SOL     OW34642   2.674   1.738   3.000  0.4180 -0.4372 -0.3159
 7727SOL    HW134643   2.620   1.817   2.992  0.6299 -0.4755 -2.2207
 7727SOL    HW234644   2.688   1.716   2.907  0.8947 -1.8137  0.0694
 7728SOL     OW34645   3.516   2.545   3.063 -0.3827 -0.2182  0.5960
 7728SOL    HW134646   3.479   2.520   2.979  1.5837  0.0799 -0.3585
 7728SOL    HW234647   3.602   2.504   3.070 -1.0845 -1.8455 -0.2457
 7729SOL     OW34648   3.504   0.506   1.793  0.1885 -0.3046  0.7532
 7729SOL    HW134649   3.517   0.439   1.725 -0.3498 -1.3085  1.6443
 7729SOL    HW234650   3.550   0.473   1.869 -0.9235 -1.8320  0.7544
 7730SOL     OW34651   2.729   1.680   4.109  0.3348 -0.2153  0.0660
 7730SOL    HW134652   2.639   1.691   4.080  0.2694  0.0529  0.3789
 7730SOL    HW234653   2.732   1.741   4.182 -1.1949 -2.6359  2.1366
 7731SOL     OW34654   0.595   1.023   7.827 -0.1282  0.0360 -0.0122
 7731SOL    HW134655   0.606   0.968   7.750 -2.7913  0.9206 -1.0186
 7731SOL    HW234656   0.685   1.048   7.846  0.2606 -2.7707  1.8780
 7732SOL     OW34657   4.585   1.469   3.754 -0.0615  0.0938  0.3883
 7732SOL    HW134658   4.498   1.437   3.780 -0.5845  1.1550 -0.0438
 7732SOL    HW234659   4.545   1.539   3.702 -0.2336 -1.9223 -2.2015
 7733SOL     OW34660   2.066   2.702   6.668 -0.5576  0.0565 -0.6178
 7733SOL    HW134661   2.039   2.648   6.743 -1.0056  2.2437  0.7820
 7733SOL    HW234662   2.131   2.639   6.636  0.7528  0.8324  0.5514
 7734SOL     OW34663   2.649   2.519   9.766 -0.3744  0.5355  0.0338
 7734SOL    HW134664   2.641   2.493   9.857  3.1649  1.9225  0.7329
 7734SOL    HW234665   2.560   2.503   9.734  0.0247 -0.7228 -0.4342
 7735SOL     OW34666   1.397   1.909   2.592  0.2392 -0.0447  0.1353
 7735SOL    HW134667   1.371   1.947   2.509  0.0330  3.2526  1.7132
 7735SOL    HW234668   1.481   1.954   2.603 -0.3328  1.1493 -0.4077
 7736SOL     OW34669   4.466   2.177   7.570  0.5022  0.2834 -0.1250
 7736SOL    HW134670   4.451   2.198   7.478  0.6124 -1.2575 -0.4883
 7736SOL    HW234671   4.478   2.260   7.616  0.9196 -0.0554  0.3797
 7737SOL     OW34672   2.198   4.356   8.816 -0.4851 -0.3752 -0.0793
 7737SOL    HW134673   2.219   4.290   8.749 -1.4467 -0.2172 -0.5447
 7737SOL    HW234674   2.170   4.432   8.765  0.4420 -0.3877 -0.6015
 7738SOL     OW34675   1.228   0.926  15.290  0.1684  0.4906  0.4795
 7738SOL    HW134676   1.190   0.985  15.356  1.9024 -1.9114  3.6364
 7738SOL    HW234677   1.290   0.987  15.251  0.3455 -0.1067 -0.1719
 7739SOL     OW34678   3.765   3.406   1.998 -0.0215 -0.0751 -0.4098
 7739SOL    HW134679   3.786   3.456   2.076 -1.4522  0.3612 -0.2984
 7739SOL    HW234680   3.726   3.475   1.944 -0.3580 -1.3913 -1.8523
 7740SOL     OW34681   2.025   0.158   5.218 -0.1712  0.2975 -0.0550
 7740SOL    HW134682   2.100   0.174   5.276 -0.7825  0.3266  0.7246
 7740SOL    HW234683   1.979   0.081   5.249 -0.1433 -0.6640 -2.3968
 7741SOL     OW34684   1.164   0.966   9.432  0.6122 -0.2673 -0.2951
 7741SOL    HW134685   1.088   0.947   9.488  0.9265  0.1669  0.2688
 7741SOL    HW234686   1.236   0.915   9.470  0.1583 -1.0689 -0.4945
 7742SOL     OW34687   0.256   3.159   5.449  0.3447 -0.3303  0.1910
 7742SOL    HW134688   0.283   3.247   5.425  1.1218 -0.1839  1.5644
 7742SOL    HW234689   0.285   3.159   5.540 -1.4803 -3.2036  0.7813
 7743SOL     OW34690   0.887   1.769   3.479 -0.3254  0.3192  0.1742
 7743SOL    HW134691   0.953   1.837   3.489 -0.3972  0.3780  0.2437
 7743SOL    HW234692   0.900   1.708   3.551 -0.9551 -0.9778 -0.8165
 7744SOL     OW34693   2.405   3.241   1.987 -0.1942  0.6074  0.1574
 7744SOL    HW134694   2.321   3.269   2.025 -0.2387  2.3922 -1.2143
 7744SOL    HW234695   2.406   3.148   2.008 -0.1500  0.4623 -0.4852
 7745SOL     OW34696   0.508   0.665  16.665  0.1510 -0.2213 -0.0902
 7745SOL    HW134697   0.449   0.599  16.702  1.8803 -1.7226 -0.0512
 7745SOL    HW234698   0.496   0.735  16.729 -0.2279  1.4835 -2.0202
 7746SOL     OW34699   4.191   4.062   4.607 -0.8260 -0.1606  0.1458
 7746SOL    HW134700   4.105   4.026   4.627 -0.2439  0.2606  3.3795
 7746SOL    HW234701   4.247   3.985   4.607  0.0085  0.4477 -0.0502
 7747SOL     OW34702   3.173   2.609   4.337  0.0510  0.4054  0.4126
 7747SOL    HW134703   3.262   2.588   4.366  0.3769 -0.4600 -1.2409
 7747SOL    HW234704   3.166   2.591   4.244 -0.9297  1.4997  0.2822
 7748SOL     OW34705   0.602   4.315   5.788  0.9436  0.1321  0.5833
 7748SOL    HW134706   0.666   4.360   5.843  0.9418  0.0810  0.6264
 7748SOL    HW234707   0.560   4.259   5.853 -0.5887  0.8780  0.2238
 7749SOL     OW34708   2.867   4.409   3.869 -0.8976 -0.3541  0.1488
 7749SOL    HW134709   2.842   4.476   3.806 -0.3794  0.1344  0.4618
 7749SOL    HW234710   2.889   4.460   3.947  2.5864 -0.1317 -0.9717
 7750SOL     OW34711   3.931   0.178   1.547 -0.4270 -0.0155  0.3764
 7750SOL    HW134712   3.863   0.135   1.599  1.0669  0.2903  2.5601
 7750SOL    HW234713   3.877   0.240   1.497  1.3714  1.6826  0.5660
 7751SOL     OW34714   1.836   1.876   5.486  0.2862  0.6805  0.4291
 7751SOL    HW134715   1.818   1.858   5.393  0.8368  0.4583  0.3678
 7751SOL    HW234716   1.931   1.886   5.485  0.4190 -0.8516 -2.1380
 7752SOL     OW34717   4.393   1.431   2.095 -0.3692 -0.2659 -0.4455
 7752SOL    HW134718   4.352   1.417   2.010  1.0017 -0.0586 -1.1410
 7752SOL    HW234719   4.417   1.342   2.123 -1.2066  0.1170  1.5346
 7753SOL     OW34720   2.175   2.072  10.427  0.0263 -0.5306 -0.6409
 7753SOL    HW134721   2.177   2.083  10.332  1.9496  3.4241 -0.1744
 7753SOL    HW234722   2.269   2.053  10.438 -0.2010 -0.9278  0.5892
 7754SOL     OW34723   1.425   2.438  13.881  0.2042 -0.0116  0.0970
 7754SOL    HW134724   1.433   2.370  13.814 -0.9777  0.5182 -0.5752
 7754SOL    HW234725   1.515   2.450  13.911  0.5789 -0.9760 -0.6418
 7755SOL     OW34726   1.326   1.964   6.052 -0.0433  0.0780  0.2501
 7755SOL    HW134727   1.259   2.032   6.056  1.0040  1.1118  0.2563
 7755SOL    HW234728   1.333   1.947   6.146 -1.5749 -0.0625  0.3371
 7756SOL     OW34729   0.450   4.657   8.672  0.3911 -0.4182  0.0457
 7756SOL    HW134730   0.495   4.707   8.739 -1.6062  1.1306  0.2506
 7756SOL    HW234731   0.369   4.635   8.719 -0.0437 -0.6578 -0.8059
 7757SOL     OW34732   3.069   1.867  11.329  0.4669  0.3237  0.1570
 7757SOL    HW134733   3.127   1.806  11.373  0.7103  1.0539  0.8512
 7757SOL    HW234734   2.991   1.836  11.375  0.6100 -1.2650 -0.7013
 7758SOL     OW34735   4.348   0.687  17.691  0.3105 -0.1109 -0.3863
 7758SOL    HW134736   4.399   0.672  17.611 -1.9612  1.9461 -2.2074
 7758SOL    HW234737   4.288   0.761  17.680  1.7348  1.2659  0.9182
 7759SOL     OW34738   2.792   4.110   7.116 -0.0917 -1.1401 -0.2553
 7759SOL    HW134739   2.864   4.126   7.178 -2.9623 -0.4949  2.8899
 7759SOL    HW234740   2.711   4.103   7.166 -0.7048  1.3395 -0.9218
 7760SOL     OW34741   2.377   2.140   4.978  0.3455  0.0982  0.2724
 7760SOL    HW134742   2.440   2.200   4.938  0.6225  1.5022  2.8296
 7760SOL    HW234743   2.418   2.121   5.062 -0.2784  1.4333  0.8706
 7761SOL     OW34744   0.202   1.736  14.821 -0.4133  0.2967  0.7074
 7761SOL    HW134745   0.143   1.810  14.834 -0.2976  0.4950  0.0973
 7761SOL    HW234746   0.158   1.659  14.857  1.7972 -0.2976  2.1615
 7762SOL     OW34747   3.680   3.346   6.371 -0.5244 -0.1751  0.0729
 7762SOL    HW134748   3.634   3.275   6.327  0.5301 -0.5220 -0.4843
 7762SOL    HW234749   3.603   3.401   6.381 -1.1299 -0.4962 -2.6200
 7763SOL     OW34750   3.446   0.236  10.203 -0.3458  0.2370 -0.3006
 7763SOL    HW134751   3.460   0.215  10.111 -0.4725  2.2633 -0.7832
 7763SOL    HW234752   3.365   0.288  10.202  0.1399  0.9626 -1.9927
 7764SOL     OW34753   0.070   3.207   4.095 -0.7649 -0.0150 -0.2553
 7764SOL    HW134754   0.064   3.111   4.095 -0.2296 -0.0463  1.4834
 7764SOL    HW234755   0.097   3.222   4.004  1.3753  1.5308  0.6374
 7765SOL     OW34756   2.930   2.348   2.059  0.3348 -0.4206 -0.1547
 7765SOL    HW134757   3.004   2.383   2.010  0.7923 -0.8761  0.2068
 7765SOL    HW234758   2.879   2.426   2.081 -0.5959 -1.1741  0.3680
 7766SOL     OW34759   0.163   0.077   1.924  0.3599 -0.6545  0.0821
 7766SOL    HW134760   0.177   0.003   1.982  0.9877  0.0603  0.8361
 7766SOL    HW234761   0.232   0.135   1.955 -0.3508 -0.0463  0.5237
 7767SOL     OW34762   2.196   3.254  11.449 -0.0954  0.7326 -0.0356
 7767SOL    HW134763   2.208   3.220  11.537  0.9232  1.0434 -0.0505
 7767SOL    HW234764   2.108   3.228  11.423  0.5427 -0.3116 -1.1322
 7768SOL     OW34765   3.656   2.048   2.826  0.0193 -0.2652  0.6204
 7768SOL    HW134766   3.702   1.965   2.838 -1.9092 -1.0835  2.3689
 7768SOL    HW234767   3.645   2.055   2.732  1.0767  1.1769  0.5963
 7769SOL     OW34768   0.474   3.550   9.181  0.3285 -0.2040 -0.4598
 7769SOL    HW134769   0.391   3.528   9.140  0.5509  1.1087 -1.6036
 7769SOL    HW234770   0.455   3.644   9.179 -0.7910 -0.4259  0.1148
 7770SOL     OW34771   4.575   1.414  14.937 -0.0223  0.1340 -0.1935
 7770SOL    HW134772   4.640   1.344  14.930  0.2966  0.5222 -1.0331
 7770SOL    HW234773   4.566   1.414  15.032 -0.7034 -1.6974 -0.2511
 7771SOL     OW34774   3.593   2.615  10.218 -0.0635  0.0085  0.7682
 7771SOL    HW134775   3.517   2.672  10.204  1.8529  2.2582 -0.5570
 7771SOL    HW234776   3.558   2.532  10.249 -2.3826  0.4204 -0.6946
 7772SOL     OW34777   0.327   3.315  13.271 -0.5049  0.0936 -0.2084
 7772SOL    HW134778   0.342   3.254  13.344  0.2944 -1.4986 -1.6943
 7772SOL    HW234779   0.335   3.255  13.197 -2.0449 -1.1485  0.6334
 7773SOL     OW34780   4.611   1.830  14.267 -0.6758 -0.2135  0.1832
 7773SOL    HW134781   4.541   1.887  14.299  1.1007  0.9972  1.8945
 7773SOL    HW234782   4.583   1.754  14.318  0.0594 -0.4468  0.2392
 7774SOL     OW34783   3.092   2.573   7.840 -0.0508  0.4719 -0.5900
 7774SOL    HW134784   3.086   2.599   7.748  0.7348 -1.2415 -1.1304
 7774SOL    HW234785   3.187   2.571   7.857 -0.0794 -0.8171 -0.6079
 7775SOL     OW34786   3.240   2.334   9.427 -0.0491  0.0240 -0.4523
 7775SOL    HW134787   3.292   2.293   9.496  1.1601  1.4630 -0.5128
 7775SOL    HW234788   3.180   2.260   9.421 -0.2543  0.2549 -1.2619
 7776SOL     OW34789   2.391   0.983   3.290  0.4141 -0.0773 -0.6971
 7776SOL    HW134790   2.428   0.895   3.298 -4.5609 -2.0639  0.2443
 7776SOL    HW234791   2.468   1.037   3.272  0.4237 -0.2156 -1.0731
 7777SOL     OW34792   1.939   2.329   5.892  0.2837  0.0544 -0.1311
 7777SOL    HW134793   1.877   2.282   5.948 -0.6185  0.5737 -0.6929
 7777SOL    HW234794   1.994   2.368   5.960 -1.8822 -0.4243  1.8988
 7778SOL     OW34795   1.714   2.763   2.507 -0.2679 -0.4799 -0.4347
 7778SOL    HW134796   1.777   2.783   2.577  0.0661  0.1542 -0.9198
 7778SOL    HW234797   1.770   2.711   2.450 -2.3775 -0.5012 -2.4922
 7779SOL     OW34798   3.226   4.361   8.029 -0.3363  0.0856 -0.2168
 7779SOL    HW134799   3.238   4.273   7.993  0.6716 -0.3437  1.2101
 7779SOL    HW234800   3.301   4.377   8.086 -0.9547 -0.2724  0.6979
 7780SOL     OW34801   4.284   1.705   2.946  0.1238  0.1673 -0.0100
 7780SOL    HW134802   4.353   1.649   2.979 -0.1287 -0.9362 -1.3424
 7780SOL    HW234803   4.260   1.655   2.868  0.0310 -0.4452  0.4077
 7781SOL     OW34804   2.645   4.002   4.385  0.1239  0.2797  0.1515
 7781SOL    HW134805   2.655   3.907   4.371  0.2053  0.1211  1.2650
 7781SOL    HW234806   2.633   4.036   4.296  1.6040 -0.0972 -0.1985
 7782SOL     OW34807   2.228   2.534  12.741  0.1108 -0.4631 -0.5043
 7782SOL    HW134808   2.303   2.582  12.706  0.6164 -1.4354 -0.7724
 7782SOL    HW234809   2.263   2.446  12.758  0.7179 -0.0120  0.5839
 7783SOL     OW34810   0.405   4.194   5.908 -0.1702  0.1569  0.2515
 7783SOL    HW134811   0.346   4.225   5.840  0.3327  0.4825 -0.0333
 7783SOL    HW234812   0.352   4.199   5.987 -1.2509  3.9378 -0.7605
 7784SOL     OW34813   3.861   1.029   5.887 -0.2953  0.1725 -0.2314
 7784SOL    HW134814   3.846   0.947   5.933  2.1438 -0.2492 -0.1503
 7784SOL    HW234815   3.956   1.037   5.893 -0.3524 -0.1078  1.0042
 7785SOL     OW34816   4.394   3.124  12.193  0.0468 -0.1223 -0.2877
 7785SOL    HW134817   4.336   3.123  12.270  0.0710 -2.4005 -0.3064
 7785SOL    HW234818   4.476   3.103  12.237 -0.6558  1.4765  1.8060
 7786SOL     OW34819   1.482   3.992  13.144  0.7436  0.0242 -0.5136
 7786SOL    HW134820   1.431   3.939  13.083  1.9657 -3.0453  1.1632
 7786SOL    HW234821   1.547   3.930  13.177 -0.3676 -1.6851 -1.5136
 7787SOL     OW34822   2.993   1.301  12.555 -0.3215 -0.2549 -0.4009
 7787SOL    HW134823   2.942   1.371  12.515  2.5656  1.0829 -1.7475
 7787SOL    HW234824   3.082   1.332  12.540 -0.0680 -0.8106 -0.0644
 7788SOL     OW34825   3.616   1.405   4.200 -0.2948  0.1762  0.2467
 7788SOL    HW134826   3.543   1.449   4.242 -0.8687 -0.0991 -0.4449
 7788SOL    HW234827   3.586   1.315   4.214 -2.7114  0.6395 -1.9166
 7789SOL     OW34828   0.669   2.937   4.948  0.6534 -0.5199  0.2644
 7789SOL    HW134829   0.745   2.879   4.946 -0.5458 -2.0463 -0.7966
 7789SOL    HW234830   0.609   2.886   5.002 -0.3489 -0.5770 -0.8914
 7790SOL     OW34831   1.151   3.589  13.966  0.5165 -0.3630  0.0899
 7790SOL    HW134832   1.195   3.674  13.955 -0.1015 -0.0791 -0.1965
 7790SOL    HW234833   1.198   3.543  14.035 -0.3247  0.1447  1.0001
 7791SOL     OW34834   1.845   2.102   2.812 -0.7437  0.1724  0.2231
 7791SOL    HW134835   1.815   2.186   2.845 -0.9052  0.5991 -1.0200
 7791SOL    HW234836   1.878   2.069   2.896 -0.3191  0.1430  0.0479
 7792SOL     OW34837   2.881   4.547   9.232  0.0843  0.5383 -0.0099
 7792SOL    HW134838   2.948   4.484   9.259  2.6313  2.6036 -1.5667
 7792SOL    HW234839   2.822   4.493   9.181 -0.2174  1.4750 -0.6474
 7793SOL     OW34840   0.744   3.439  14.280 -0.2370  0.4403 -0.1316
 7793SOL    HW134841   0.717   3.503  14.214  0.4344  1.8204  0.9381
 7793SOL    HW234842   0.832   3.471  14.299 -1.0319  0.9212  2.7398
 7794SOL     OW34843   2.748   1.322  15.323  0.0538 -0.1486  0.1707
 7794SOL    HW134844   2.820   1.385  15.322 -0.9572  1.0049 -0.5357
 7794SOL    HW234845   2.742   1.297  15.415  1.1205  0.2253  0.3453
 7795SOL     OW34846   0.793   1.663   2.338 -0.0394  0.5579 -1.0825
 7795SOL    HW134847   0.801   1.594   2.272 -1.9130 -0.6424 -0.0360
 7795SOL    HW234848   0.699   1.664   2.357 -0.3437  0.0304 -2.5434
 7796SOL     OW34849   3.810   2.367   1.356 -0.4954 -0.4213 -0.4039
 7796SOL    HW134850   3.786   2.278   1.330 -0.9611  0.1157 -1.8076
 7796SOL    HW234851   3.736   2.412   1.317 -1.2925 -0.1689  1.4329
 7797SOL     OW34852   0.827   0.505   4.782 -0.5818 -0.0784  0.0364
 7797SOL    HW134853   0.830   0.452   4.703  2.6377 -2.3467  1.6278
 7797SOL    HW234854   0.741   0.481   4.815 -1.4790  1.5408 -1.1665
 7798SOL     OW34855   2.194   2.075   3.405 -0.2752 -0.7236 -0.4526
 7798SOL    HW134856   2.121   2.136   3.395 -0.7947 -1.6064 -1.9935
 7798SOL    HW234857   2.198   2.085   3.500  1.6374  1.5056 -0.7552
 7799SOL     OW34858   3.758   3.682  17.249 -0.2243  0.0269 -0.4612
 7799SOL    HW134859   3.826   3.678  17.182  0.7741 -2.3262  0.6978
 7799SOL    HW234860   3.731   3.774  17.240  2.0148  0.6067 -1.3184
 7800SOL     OW34861   2.188   0.361   2.387 -0.7642 -0.2255 -0.3250
 7800SOL    HW134862   2.197   0.281   2.335 -3.0142  1.0914 -2.7497
 7800SOL    HW234863   2.191   0.426   2.317  1.7077 -0.2390 -0.2639
 7801SOL     OW34864   1.444   1.334   9.425 -0.4263 -0.0819 -0.0689
 7801SOL    HW134865   1.507   1.405   9.436  0.8917 -1.0364 -1.4068
 7801SOL    HW234866   1.482   1.296   9.346 -0.3350 -1.8208  0.8077
 7802SOL     OW34867   3.870   1.381   1.083  0.0912  0.0443 -0.2712
 7802SOL    HW134868   3.922   1.301   1.089  2.9919  2.0360  1.3753
 7802SOL    HW234869   3.839   1.392   1.173  1.5368 -2.3940  0.5129
 7803SOL     OW34870   1.493   3.632  14.892  0.2827 -0.3405 -0.3411
 7803SOL    HW134871   1.418   3.574  14.904  0.1872 -0.0591  0.4379
 7803SOL    HW234872   1.566   3.572  14.907 -0.0983 -0.8115 -0.3551
 7804SOL     OW34873   1.513   1.364   8.454 -0.3796  0.4103 -0.0945
 7804SOL    HW134874   1.567   1.339   8.529 -0.0063  1.3739 -0.0416
 7804SOL    HW234875   1.562   1.333   8.378 -1.2104  0.7729 -0.7828
 7805SOL     OW34876   2.293   0.796   0.599  0.6810 -0.7809  0.6390
 7805SOL    HW134877   2.334   0.799   0.685 -0.7466 -4.2745  1.4406
 7805SOL    HW234878   2.254   0.709   0.589  2.2261 -1.8740  3.9032
 7806SOL     OW34879   0.130   1.514   0.055 -0.3752 -0.0977  0.2261
 7806SOL    HW134880   0.094   1.596   0.088  2.5314  0.9696  0.6726
 7806SOL    HW234881   0.067   1.448   0.087  1.3586 -2.2092 -0.7210
 7807SOL     OW34882   1.466   4.304   3.107  0.2324 -0.0949  0.4776
 7807SOL    HW134883   1.449   4.235   3.043  0.8735 -0.9684  1.2562
 7807SOL    HW234884   1.539   4.347   3.061  0.1082 -0.3204  0.0745
 7808SOL     OW34885   4.522   1.154   1.128  0.1557 -0.6393  0.3783
 7808SOL    HW134886   4.478   1.229   1.169  1.8837 -0.1838  1.4560
 7808SOL    HW234887   4.602   1.194   1.092  0.0532  0.6312  1.5253
 7809SOL     OW34888   4.491   1.063   0.380  0.3220  0.1874  0.3029
 7809SOL    HW134889   4.506   1.122   0.454 -1.7829  1.3338 -0.1865
 7809SOL    HW234890   4.471   1.122   0.307 -0.3272  3.2119  2.9255
 7810SOL     OW34891   1.942   2.640   8.070 -0.3793 -0.2471  0.1874
 7810SOL    HW134892   1.949   2.551   8.104  0.5375 -1.0697 -2.1162
 7810SOL    HW234893   1.885   2.608   8.000 -0.8782  0.8503  0.0890
 7811SOL     OW34894   3.750   2.223  15.502 -0.4521  0.5554 -0.9380
 7811SOL    HW134895   3.765   2.204  15.409  0.8711 -2.8946 -0.0194
 7811SOL    HW234896   3.682   2.291  15.502  0.5097  1.5026 -0.2323
 7812SOL     OW34897   2.522   4.213   7.237 -0.1654  0.0331  0.5743
 7812SOL    HW134898   2.578   4.155   7.289 -0.2738 -0.4512  0.1500
 7812SOL    HW234899   2.516   4.285   7.299 -0.2305  1.1720 -0.7515
 7813SOL     OW34900   4.103   0.979   8.174  0.1895 -0.1102  0.1608
 7813SOL    HW134901   4.068   0.995   8.261  0.7999  1.1068  0.1882
 7813SOL    HW234902   4.109   1.067   8.137  1.3218 -0.6825 -1.0248
 7814SOL     OW34903   2.318   0.551   8.444 -0.2723  0.1139 -0.2102
 7814SOL    HW134904   2.258   0.605   8.393  0.8246 -0.1398 -1.7918
 7814SOL    HW234905   2.377   0.527   8.371 -1.4349  1.1966 -1.5074
 7815SOL     OW34906   0.066   1.175  16.057 -0.3003  0.0057 -0.2790
 7815SOL    HW134907   0.156   1.162  16.028  0.4803  2.5189  1.0113
 7815SOL    HW234908   0.030   1.102  16.006 -1.0396  0.9433 -1.1166
 7816SOL     OW34909   2.515   1.131  11.953 -0.7050  0.1665 -0.1458
 7816SOL    HW134910   2.518   1.187  11.875  1.3903 -0.7079 -0.7106
 7816SOL    HW234911   2.590   1.074  11.935 -0.1070  1.8237 -2.8808
 7817SOL     OW34912   2.990   2.410   9.120  0.0482 -0.3889 -0.2598
 7817SOL    HW134913   3.077   2.439   9.147  2.0717 -2.3717 -4.6365
 7817SOL    HW234914   2.991   2.406   9.024  0.6131 -0.0951 -0.2648
 7818SOL     OW34915   4.485   4.381   4.278  0.3214 -0.5855  0.5101
 7818SOL    HW134916   4.544   4.308   4.259 -1.8779 -1.9924 -1.0415
 7818SOL    HW234917   4.543   4.440   4.324 -1.3873  0.8061  0.8676
 7819SOL     OW34918   2.852   2.754   6.684  0.0483 -0.2413  0.3412
 7819SOL    HW134919   2.801   2.752   6.765  0.2329 -1.2368  0.4323
 7819SOL    HW234920   2.788   2.797   6.628  1.4276  2.3628  0.7874
 7820SOL     OW34921   2.517   0.477   1.152  0.1046  0.5309  0.0121
 7820SOL    HW134922   2.588   0.530   1.115 -0.2226  1.0410  0.1251
 7820SOL    HW234923   2.548   0.456   1.240  0.8391 -3.9474 -1.2668
 7821SOL     OW34924   3.779   3.270   7.640  0.2796  0.0637 -0.5043
 7821SOL    HW134925   3.846   3.328   7.603  1.6749  0.4987  2.7443
 7821SOL    HW234926   3.724   3.268   7.561 -0.2788  1.2295 -0.1471
 7822SOL     OW34927   1.426   0.608   2.786 -0.2847 -0.1857  0.4760
 7822SOL    HW134928   1.503   0.565   2.822 -1.2095 -1.5717  0.8042
 7822SOL    HW234929   1.357   0.542   2.797 -0.5504 -0.3644 -2.1385
 7823SOL     OW34930   2.324   4.365  17.224  0.3505 -0.2564  0.3488
 7823SOL    HW134931   2.370   4.359  17.307  2.4752  1.2482 -0.7340
 7823SOL    HW234932   2.285   4.453  17.231  3.3421  1.0087  0.9868
 7824SOL     OW34933   4.276   0.235  14.961 -0.1545 -0.2634  0.4593
 7824SOL    HW134934   4.228   0.173  15.016 -0.3574 -0.4605  0.0574
 7824SOL    HW234935   4.215   0.308  14.974  0.1661 -0.0920  1.0124
 7825SOL     OW34936   2.166   3.765   5.038  0.3817 -0.4823 -0.2339
 7825SOL    HW134937   2.199   3.777   5.127  0.2520  3.0815 -0.6924
 7825SOL    HW234938   2.227   3.821   4.990  2.7402 -1.4583  1.5896
 7826SOL     OW34939   0.916   2.783   9.989 -0.2083  0.7730  0.2374
 7826SOL    HW134940   0.998   2.833  10.001  0.7638 -1.1596  1.5620
 7826SOL    HW234941   0.881   2.786  10.078  1.0013  0.1082  0.7341
 7827SOL     OW34942   3.259   1.610   4.511  0.3984  0.2361  0.2888
 7827SOL    HW134943   3.248   1.696   4.551  1.0259  0.9162 -1.0541
 7827SOL    HW234944   3.327   1.561   4.558  0.5546  0.8049  0.6599
 7828SOL     OW34945   4.436   3.352   7.501 -0.4182 -0.0099 -0.0162
 7828SOL    HW134946   4.466   3.272   7.546  1.6307  1.2870  0.8947
 7828SOL    HW234947   4.514   3.371   7.450  0.0768  0.1428  0.8012
 7829SOL     OW34948   1.706   1.173   9.682  0.0059 -0.1528 -0.0177
 7829SOL    HW134949   1.676   1.199   9.769  1.6454 -3.0893  1.4266
 7829SOL    HW234950   1.631   1.128   9.643  0.3023 -0.3007 -0.4165
 7830SOL     OW34951   2.015   1.981   8.073 -0.0974 -0.5263 -0.6649
 7830SOL    HW134952   1.975   2.031   8.144 -1.1355  1.3182 -2.5481
 7830SOL    HW234953   1.938   1.939   8.036 -0.0503  0.9074 -2.3863
 7831SOL     OW34954   3.791   1.863   3.206  0.0115 -0.3969  0.0577
 7831SOL    HW134955   3.753   1.825   3.285  1.2468  1.0643  1.3663
 7831SOL    HW234956   3.882   1.863   3.235  0.0804 -0.4403 -0.1644
 7832SOL     OW34957   1.696   0.232  10.667 -0.0977  0.8546 -0.1305
 7832SOL    HW134958   1.718   0.202  10.756 -0.1335 -0.2159 -0.4843
 7832SOL    HW234959   1.780   0.223  10.623 -0.2415 -0.4450 -0.1476
 7833SOL     OW34960   0.404   2.621   2.706 -0.2967 -0.3685  0.1646
 7833SOL    HW134961   0.375   2.712   2.712 -0.5606 -0.3563 -1.2739
 7833SOL    HW234962   0.483   2.608   2.758  1.4613 -0.7057 -2.5651
 7834SOL     OW34963   3.245   0.920   2.774 -0.4282  0.0038 -0.1875
 7834SOL    HW134964   3.156   0.944   2.747 -0.2739 -0.5502 -1.1602
 7834SOL    HW234965   3.244   0.825   2.779 -1.1080  0.0800  1.3454
 7835SOL     OW34966   1.792   3.151   1.809  0.5685  0.4628  0.4122
 7835SOL    HW134967   1.800   3.241   1.841 -0.4790  1.7705 -2.9509
 7835SOL    HW234968   1.803   3.166   1.715 -1.8052  0.1421  0.0853
 7836SOL     OW34969   1.552   3.597   5.076 -0.3327 -0.0656 -0.3986
 7836SOL    HW134970   1.500   3.670   5.043 -1.7656 -1.6964 -1.7631
 7836SOL    HW234971   1.540   3.617   5.169 -0.0080  2.4182 -0.8980
 7837SOL     OW34972   0.503   2.581  10.954  0.7312 -0.4174  0.5151
 7837SOL    HW134973   0.581   2.553  11.002  1.5531  0.1714 -0.4478
 7837SOL    HW234974   0.484   2.660  11.005  0.8842 -0.0172 -0.0388
 7838SOL     OW34975   1.250   2.195  15.980  0.9252  0.3281 -0.1595
 7838SOL    HW134976   1.331   2.245  15.981  0.9494  0.2864 -0.0873
 7838SOL    HW234977   1.189   2.264  16.008 -0.5059 -1.1527  0.3637
 7839SOL     OW34978   3.570   4.478   6.748 -0.1391  0.2671  0.1111
 7839SOL    HW134979   3.587   4.543   6.679  0.9443  0.3469  0.4529
 7839SOL    HW234980   3.602   4.531   6.821 -1.4100 -0.2533  1.0404
 7840SOL     OW34981   0.273   2.409   2.897  0.2415  0.3585  0.1541
 7840SOL    HW134982   0.224   2.360   2.831 -0.7692  0.5323  0.7728
 7840SOL    HW234983   0.308   2.482   2.846  1.6576 -1.4870 -1.5181
 7841SOL     OW34984   2.686   4.218  14.197  0.5640  0.1472  0.2855
 7841SOL    HW134985   2.644   4.192  14.279 -0.4456 -1.9831 -0.9083
 7841SOL    HW234986   2.681   4.313  14.185  0.0648  0.1856  0.7632
 7842SOL     OW34987   1.434   4.292   6.386  0.5046 -0.1110 -0.0009
 7842SOL    HW134988   1.427   4.384   6.359  2.6720 -0.4703 -1.7962
 7842SOL    HW234989   1.463   4.315   6.474  4.2339 -0.7792 -1.0369
 7843SOL     OW34990   4.386   1.603   5.231 -0.0568 -0.5649 -0.8785
 7843SOL    HW134991   4.297   1.629   5.208  0.5930  2.6427  0.1365
 7843SOL    HW234992   4.389   1.509   5.246  0.6132 -0.4155 -0.0936
 7844SOL     OW34993   2.758   1.114   5.395  0.1916 -0.0083 -0.7599
 7844SOL    HW134994   2.773   1.045   5.330  2.8014  0.1278 -0.3116
 7844SOL    HW234995   2.752   1.190   5.336  0.7898  1.4416  1.0527
 7845SOL     OW34996   1.360   1.848  15.358  0.0459 -0.0312 -0.0468
 7845SOL    HW134997   1.426   1.875  15.422 -0.3920  0.0950  0.3493
 7845SOL    HW234998   1.394   1.765  15.325  2.2039  0.6734  0.3711
 7846SOL     OW34999   4.378   0.366   0.333 -0.2841 -0.0612 -0.0877
 7846SOL    HW135000   4.319   0.373   0.258 -0.2374 -0.0485 -0.1233
 7846SOL    HW235001   4.440   0.439   0.323 -0.4235 -0.0175 -0.6405
 7847SOL     OW35002   0.008   1.087   5.482 -0.5412  0.2681  0.3026
 7847SOL    HW135003   4.674   1.074   5.409  0.5967 -1.3523 -0.3492
 7847SOL    HW235004   0.004   0.999   5.521  1.8464 -0.3340 -0.7785
 7848SOL     OW35005   0.848   0.648   1.219 -0.1215 -0.1105  0.0130
 7848SOL    HW135006   0.755   0.664   1.209  0.2493  0.3445 -2.4951
 7848SOL    HW235007   0.842   0.561   1.261 -0.0646 -0.6291 -1.0634
 7849SOL     OW35008   2.888   4.126  12.679  0.2489  0.8199 -0.3421
 7849SOL    HW135009   2.940   4.148  12.757 -1.0125 -0.4280  0.8665
 7849SOL    HW235010   2.818   4.191  12.681  1.0001  1.6029  0.6057
 7850SOL     OW35011   3.814   4.413   2.974  0.0470  0.4729 -0.5851
 7850SOL    HW135012   3.856   4.449   3.051  0.1340 -0.3910 -0.2257
 7850SOL    HW235013   3.889   4.402   2.916  0.8107  0.4578  0.4138
 7851SOL     OW35014   2.731   0.234   9.906  0.0573  0.5957  0.1152
 7851SOL    HW135015   2.759   0.301   9.968  2.2900  0.8955 -1.2481
 7851SOL    HW235016   2.660   0.195   9.956 -0.1270 -2.0102 -2.1814
 7852SOL     OW35017   1.257   3.086   6.629  0.0894  0.4382 -0.3363
 7852SOL    HW135018   1.176   3.036   6.636  1.3421 -1.4045  1.0093
 7852SOL    HW235019   1.321   3.016   6.640  0.3628  0.5955 -0.9330
 7853SOL     OW35020   3.516   3.452   2.939  0.1065  0.7411 -0.0505
 7853SOL    HW135021   3.482   3.472   3.026 -2.2428 -1.2916 -0.5195
 7853SOL    HW235022   3.601   3.492   2.955  0.2316 -0.1755  1.4865
 7854SOL     OW35023   0.369   1.029   5.818  0.4535 -0.0044 -0.0798
 7854SOL    HW135024   0.462   1.019   5.797  0.1607 -2.7847 -0.0335
 7854SOL    HW235025   0.338   1.062   5.734  1.5578  1.1342 -0.0410
 7855SOL     OW35026   2.382   1.366   0.844  0.0933 -1.0220 -0.0474
 7855SOL    HW135027   2.389   1.277   0.877  2.0905  0.0360  2.3845
 7855SOL    HW235028   2.475   1.383   0.832 -0.5140  2.3084 -0.0005
 7856SOL     OW35029   1.741   4.592  13.329  0.0726 -0.1684  0.5966
 7856SOL    HW135030   1.652   4.572  13.359 -0.3281  0.6425 -0.0624
 7856SOL    HW235031   1.771   4.508  13.292  1.3188  1.1508 -1.4032
 7857SOL     OW35032   2.255   3.867   1.098 -0.2356  0.4273  0.0199
 7857SOL    HW135033   2.228   3.870   1.190 -2.3576 -0.5481 -0.5650
 7857SOL    HW235034   2.194   3.924   1.052  1.1753  0.4064 -1.8593
 7858SOL     OW35035   0.892   2.681   3.077 -0.1456 -0.2647  0.3483
 7858SOL    HW135036   0.920   2.750   3.137 -0.7182  0.1175  0.1732
 7858SOL    HW235037   0.968   2.686   3.018 -1.6153 -2.9000 -1.7822
 7859SOL     OW35038   0.218   1.845   5.357 -0.0698  0.4147  0.1296
 7859SOL    HW135039   0.284   1.844   5.427  0.6190  0.6730 -0.5080
 7859SOL    HW235040   0.264   1.879   5.280  1.0523  2.8963  1.8864
 7860SOL     OW35041   1.349   2.903  12.149  0.2381 -0.5736 -0.3452
 7860SOL    HW135042   1.307   2.950  12.221 -0.8559 -1.1572 -0.5984
 7860SOL    HW235043   1.424   2.958  12.125 -0.9472  0.7459 -1.0100
 7861SOL     OW35044   3.717   0.897   5.255  0.0867  0.1258  0.0903
 7861SOL    HW135045   3.723   0.872   5.163  0.3179  1.2887 -0.2123
 7861SOL    HW235046   3.799   0.940   5.279 -1.5096  3.3574 -0.1841
 7862SOL     OW35047   2.564   3.652   5.101  0.5783 -0.5753  0.5931
 7862SOL    HW135048   2.541   3.627   5.191 -4.0332  0.9351 -0.1546
 7862SOL    HW235049   2.508   3.728   5.089  1.3600  0.2530  2.1993
 7863SOL     OW35050   1.704   0.734  12.283  0.4303  0.4775  0.5501
 7863SOL    HW135051   1.664   0.714  12.368 -1.4569  1.0267 -0.2275
 7863SOL    HW235052   1.794   0.725  12.315  1.2228 -0.7062 -2.0387
 7864SOL     OW35053   2.997   3.952   2.984  0.8881 -0.0186 -0.0992
 7864SOL    HW135054   2.937   3.878   2.972  0.9668 -0.5545  2.8270
 7864SOL    HW235055   2.955   3.987   3.062 -0.3930 -0.7184 -0.4780
 7865SOL     OW35056   0.226   0.732   2.020  0.1269 -0.5541  0.1920
 7865SOL    HW135057   0.236   0.647   2.063 -0.8778 -0.0390  1.4676
 7865SOL    HW235058   0.137   0.760   2.040  1.1855  0.8659  2.9449
 7866SOL     OW35059   2.096   0.263  13.495  0.2692 -0.4239  0.4845
 7866SOL    HW135060   2.040   0.260  13.417 -0.8050  1.0546  1.1866
 7866SOL    HW235061   2.079   0.170  13.512  0.5361 -0.6954 -0.7853
 7867SOL     OW35062   1.044   1.894   2.990 -0.5022 -0.2143  0.5641
 7867SOL    HW135063   1.016   1.947   3.065 -0.7875  2.2151 -1.2698
 7867SOL    HW235064   1.044   1.807   3.029  2.4547 -1.3654 -1.9827
 7868SOL     OW35065   4.625   0.956   1.304  0.3803 -0.2652  0.4996
 7868SOL    HW135066   4.649   1.033   1.355 -4.8983  1.7814 -0.1184
 7868SOL    HW235067   4.548   0.986   1.256  0.2705 -2.0221 -0.4388
 7869SOL     OW35068   0.181   2.428   8.335  0.1921 -0.0846  0.2249
 7869SOL    HW135069   0.243   2.500   8.318  0.0019  0.1312  0.4489
 7869SOL    HW235070   0.171   2.406   8.242  1.3231  0.4018 -0.0115
 7870SOL     OW35071   4.273   1.032  16.512 -0.2253  0.2798  0.1632
 7870SOL    HW135072   4.349   1.018  16.456 -0.1496 -0.3651  0.4364
 7870SOL    HW235073   4.209   1.065  16.448 -1.7197 -2.1992  0.3977
 7871SOL     OW35074   1.184   2.478   5.198 -0.2699 -0.1050 -0.3583
 7871SOL    HW135075   1.241   2.471   5.122 -1.0800 -1.0047 -0.8948
 7871SOL    HW235076   1.236   2.526   5.261 -0.5962 -2.0019  1.3581
 7872SOL     OW35077   2.577   4.706   4.993  0.6601  0.3075 -0.2569
 7872SOL    HW135078   2.537   4.672   4.913  3.1169 -1.7398 -0.6322
 7872SOL    HW235079   2.667   4.714   4.961 -0.3585 -0.9656 -3.4292
 7873SOL     OW35080   1.053   0.913  14.380  0.8026  0.4234  0.0416
 7873SOL    HW135081   1.020   0.933  14.293  1.0919 -0.4695 -0.2754
 7873SOL    HW235082   0.974   0.920  14.434  1.0006 -1.5510  0.6076
 7874SOL     OW35083   0.879   4.590   8.783  0.2580 -0.9993 -0.2234
 7874SOL    HW135084   0.795   4.577   8.739  0.5801  1.6100 -1.5943
 7874SOL    HW235085   0.934   4.629   8.715  0.6514 -0.4111  0.4337
 7875SOL     OW35086   1.942   3.945   0.085  0.0479  0.7258 -0.1280
 7875SOL    HW135087   1.980   3.956   0.173 -1.3041  0.7231  0.4484
 7875SOL    HW235088   1.853   3.980   0.092  0.4184  1.5629  0.4268
 7876SOL     OW35089   2.825   0.134   1.831 -0.0743  0.1874  0.0125
 7876SOL    HW135090   2.796   0.102   1.917  0.7425 -1.4103 -0.3013
 7876SOL    HW235091   2.760   0.087   1.779  0.4671  0.8488 -1.2326
 7877SOL     OW35092   3.287   0.755   6.760  0.3534  0.3260 -0.3689
 7877SOL    HW135093   3.340   0.676   6.753 -0.6160 -0.2511 -1.0739
 7877SOL    HW235094   3.308   0.804   6.680 -1.0183  1.1253 -0.2466
 7878SOL     OW35095   1.701   0.186   1.301 -0.0669 -0.2349 -0.0826
 7878SOL    HW135096   1.668   0.130   1.370  0.8717 -0.2545  0.3478
 7878SOL    HW235097   1.707   0.124   1.229  2.7274 -1.6214  1.3623
 7879SOL     OW35098   0.728   4.447   2.863  0.2999  0.0826 -0.3522
 7879SOL    HW135099   0.730   4.405   2.949  0.4734 -0.5561 -0.6703
 7879SOL    HW235100   0.798   4.513   2.861 -0.2526  0.6830 -0.0480
 7880SOL     OW35101   1.780   2.475   4.303 -0.1273 -0.8463  0.0357
 7880SOL    HW135102   1.851   2.536   4.286 -2.3410  0.7739 -3.5306
 7880SOL    HW235103   1.699   2.521   4.283  3.0715  4.3068 -1.0635
 7881SOL     OW35104   3.504   0.968   9.312  0.3794 -0.1323 -0.2484
 7881SOL    HW135105   3.572   0.917   9.267 -0.0530  0.0723 -1.1290
 7881SOL    HW235106   3.505   0.915   9.392 -0.4710 -1.3678 -1.0512
 7882SOL     OW35107   0.768   3.321  15.589 -0.0480  0.0116  0.4327
 7882SOL    HW135108   0.693   3.302  15.533  1.0207  0.1900 -1.0475
 7882SOL    HW235109   0.754   3.273  15.671  0.6180 -1.4568 -0.3215
 7883SOL     OW35110   4.675   2.031   4.395  0.5886 -0.5543  0.1500
 7883SOL    HW135111   4.614   2.024   4.322  0.3156 -0.4839  0.3716
 7883SOL    HW235112   4.682   1.937   4.411 -1.5203 -0.0731  3.8852
 7884SOL     OW35113   2.964   3.990   3.704  0.3711  0.2932  0.2184
 7884SOL    HW135114   2.871   3.971   3.719  1.1967 -4.0696 -0.2054
 7884SOL    HW235115   2.965   4.036   3.620  1.2162  1.9095  1.1181
 7885SOL     OW35116   1.236   1.311   7.863 -0.0052  0.3244  0.1866
 7885SOL    HW135117   1.315   1.282   7.908  0.0716 -1.9166 -1.4203
 7885SOL    HW235118   1.248   1.406   7.860 -1.8023  0.5326 -0.2030
 7886SOL     OW35119   0.800   1.608   1.236 -0.0505  0.4476  0.0761
 7886SOL    HW135120   0.716   1.584   1.275 -1.0111  0.6529 -1.9116
 7886SOL    HW235121   0.846   1.526   1.252  0.7174  0.3634 -2.5187
 7887SOL     OW35122   0.102   2.207   2.473 -0.1308 -0.5646  0.3044
 7887SOL    HW135123   0.108   2.113   2.485  1.5652 -0.3238  1.3977
 7887SOL    HW235124   0.162   2.223   2.400 -1.2616 -0.2558 -0.5528
 7888SOL     OW35125   2.620   2.379  14.944 -0.6633 -0.1759 -0.1733
 7888SOL    HW135126   2.579   2.338  15.020 -0.6122  1.3816  0.6872
 7888SOL    HW235127   2.653   2.301  14.898 -1.1183  1.0825 -2.5916
 7889SOL     OW35128   3.270   0.114   2.534 -0.7689  0.2361 -0.2441
 7889SOL    HW135129   3.314   0.075   2.458 -2.1175 -1.3475 -0.1946
 7889SOL    HW235130   3.327   0.091   2.608  0.3679  0.9046 -0.9004
 7890SOL     OW35131   0.526   1.896  17.619  0.2297  0.3891  0.1099
 7890SOL    HW135132   0.517   1.854  17.534 -1.6053  1.4117 -0.1979
 7890SOL    HW235133   0.474   1.834  17.671 -1.0481  1.0815 -0.3448
 7891SOL     OW35134   4.027   2.739  11.241  0.0670 -0.9562 -0.0510
 7891SOL    HW135135   3.935   2.741  11.268  0.4592  5.3462  0.7932
 7891SOL    HW235136   4.039   2.646  11.221 -0.1882 -0.5500 -2.1240
 7892SOL     OW35137   3.022   2.121   9.204  0.2134 -0.2608 -0.1196
 7892SOL    HW135138   3.048   2.117   9.112 -1.2903  0.5283 -0.5767
 7892SOL    HW235139   2.989   2.209   9.219 -0.0087 -0.4228  0.3571
 7893SOL     OW35140   4.603   1.323   4.578 -0.3842 -0.3959  0.8209
 7893SOL    HW135141   4.617   1.239   4.535  0.1274 -0.6927  1.5732
 7893SOL    HW235142   4.691   1.359   4.590  1.3743 -4.2403 -0.7282
 7894SOL     OW35143   3.581   3.026  10.105 -0.0153 -0.0617 -0.1718
 7894SOL    HW135144   3.644   2.954  10.113  0.0670 -0.1865 -2.0534
 7894SOL    HW235145   3.579   3.069  10.191 -1.7932  0.8788 -0.6968
 7895SOL     OW35146   4.673   4.458  14.078  0.2893  0.4368  0.0305
 7895SOL    HW135147   0.023   4.429  14.128  2.0996  3.1084 -1.2130
 7895SOL    HW235148   4.659   4.544  14.118  0.0218 -0.2085  1.3406
 7896SOL     OW35149   4.341   4.098   1.519  0.2231  0.4464 -0.2372
 7896SOL    HW135150   4.333   4.179   1.569 -0.7876 -0.3508  0.8982
 7896SOL    HW235151   4.436   4.085   1.507 -0.1425 -1.5460 -1.0208
 7897SOL     OW35152   0.918   0.311   3.394  0.1029 -0.3042  0.2196
 7897SOL    HW135153   0.992   0.371   3.401 -0.6100  0.6404 -0.4565
 7897SOL    HW235154   0.885   0.325   3.483  1.0954 -1.6770  0.8125
 7898SOL     OW35155   1.000   0.618  14.923  0.1663 -0.0826 -0.7515
 7898SOL    HW135156   0.964   0.669  14.851  1.0519 -0.5035 -1.4935
 7898SOL    HW235157   1.008   0.674  15.001  0.5649  0.8059 -1.4389
 7899SOL     OW35158   3.253   2.433   1.560 -0.2777 -0.3369 -0.0577
 7899SOL    HW135159   3.298   2.510   1.595 -2.0831  1.1444 -0.9461
 7899SOL    HW235160   3.315   2.362   1.575  0.4627  0.4072  0.4462
 7900SOL     OW35161   4.129   0.159   1.749  0.1210  0.2568 -0.3520
 7900SOL    HW135162   4.156   0.251   1.750  0.1931  0.2268  0.7630
 7900SOL    HW235163   4.091   0.156   1.661  0.9277  0.0188 -0.6980
 7901SOL     OW35164   0.426   4.682   7.532 -0.0779  0.2345  0.6946
 7901SOL    HW135165   0.495   4.701   7.468  0.6312  1.1800  1.7340
 7901SOL    HW235166   0.360   0.019   7.504  0.3161  0.8171  1.0879
 7902SOL     OW35167   1.822   1.131  17.247  0.0985  0.1584  0.4080
 7902SOL    HW135168   1.909   1.159  17.274 -1.0735  1.2395  3.0839
 7902SOL    HW235169   1.771   1.209  17.266  0.3120  0.6349 -0.9674
 7903SOL     OW35170   4.566   0.175   7.609 -0.0964  0.5822  0.0695
 7903SOL    HW135171   4.590   0.141   7.696  1.2659  2.0690  0.2784
 7903SOL    HW235172   4.512   0.248   7.638 -3.3461 -1.8233  0.0733
 7904SOL     OW35173   3.096   2.034  13.877  0.0767 -0.3397 -0.1013
 7904SOL    HW135174   3.029   2.073  13.933  2.0746  1.5967  0.8888
 7904SOL    HW235175   3.051   2.036  13.792 -0.7954 -0.1515  0.3650
 7905SOL     OW35176   1.850   3.938   3.188  0.1687 -0.4147  0.1599
 7905SOL    HW135177   1.776   3.936   3.128  0.1585  1.6043  0.1045
 7905SOL    HW235178   1.842   4.030   3.215 -0.5953 -0.1054 -1.1308
 7906SOL     OW35179   2.099   1.850   4.615  0.4461  0.2678 -0.0711
 7906SOL    HW135180   2.020   1.854   4.668 -0.4795 -1.4139 -1.3404
 7906SOL    HW235181   2.142   1.928   4.651  1.0487 -0.3656  0.5866
 7907SOL     OW35182   4.121   3.627  16.816 -0.3542 -0.1921  0.1001
 7907SOL    HW135183   4.107   3.620  16.721 -1.3484  2.3493  0.0761
 7907SOL    HW235184   4.191   3.691  16.824 -0.8814  0.2559  1.1178
 7908SOL     OW35185   3.816   3.496   3.966 -0.1730 -0.3775 -0.3464
 7908SOL    HW135186   3.802   3.419   3.911 -0.9065 -0.6279  0.1968
 7908SOL    HW235187   3.842   3.563   3.903 -0.3861  0.3229  0.3105
 7909SOL     OW35188   1.716   1.667   4.134  0.5264  0.0594 -0.1790
 7909SOL    HW135189   1.684   1.669   4.224  0.5549  0.4848 -0.1810
 7909SOL    HW235190   1.652   1.718   4.084 -1.1411 -1.1380  0.7454
 7910SOL     OW35191   2.307   2.464   4.470  0.6997  0.1548  0.2561
 7910SOL    HW135192   2.246   2.395   4.447  1.2340 -0.4516  0.6539
 7910SOL    HW235193   2.361   2.429   4.541 -1.8426 -0.1821  2.0082
 7911SOL     OW35194   0.010   4.620   5.405 -0.1650 -0.0708 -0.9664
 7911SOL    HW135195   0.084   4.665   5.445 -2.4318  2.4544  0.3668
 7911SOL    HW235196   4.689   4.700   5.380  1.1131  0.0609 -2.9686
 7912SOL     OW35197   2.052   3.894   4.259 -0.1958 -0.7064 -0.7932
 7912SOL    HW135198   2.093   3.885   4.172 -2.0447 -1.1214 -1.6184
 7912SOL    HW235199   2.114   3.959   4.293 -1.5408 -0.6340  1.5079
 7913SOL     OW35200   2.469   3.458   7.336  0.5979 -0.1476 -0.3987
 7913SOL    HW135201   2.533   3.453   7.406  0.9383  1.1043 -0.6101
 7913SOL    HW235202   2.420   3.376   7.345 -0.2170  0.3734 -0.0353
 7914SOL     OW35203   4.307   3.191   2.615 -0.1246 -0.2480 -0.5342
 7914SOL    HW135204   4.326   3.284   2.613  1.0227 -0.4434  1.3579
 7914SOL    HW235205   4.398   3.158   2.617  0.1414  0.7095  2.0869
 7915SOL     OW35206   2.869   2.163  13.810  0.3473  0.0414  0.0699
 7915SOL    HW135207   2.804   2.116  13.861 -0.8954  1.9004  0.2207
 7915SOL    HW235208   2.827   2.249  13.809  0.5337  0.1141 -1.2488
 7916SOL     OW35209   0.678   4.539   7.084  0.3267  0.7758  0.1311
 7916SOL    HW135210   0.696   4.616   7.029  0.4595  1.0664  0.5794
 7916SOL    HW235211   0.754   4.542   7.141  0.9777 -0.2312 -0.6931
 7917SOL     OW35212   4.426   3.816   3.899 -0.2680  0.5067 -0.3164
 7917SOL    HW135213   4.468   3.755   3.960 -0.4840  1.2198  0.5574
 7917SOL    HW235214   4.508   3.853   3.867 -0.1660 -0.2063 -0.8757
 7918SOL     OW35215   4.112   2.578   3.665  0.0456 -0.4049  0.5376
 7918SOL    HW135216   4.022   2.546   3.678 -0.2090 -0.0498 -0.3881
 7918SOL    HW235217   4.169   2.522   3.718  0.8061 -1.8346 -1.7835
 7919SOL     OW35218   2.507   0.628  10.673  0.3686  0.1499  0.0583
 7919SOL    HW135219   2.474   0.717  10.684  0.4360  0.4759 -2.2869
 7919SOL    HW235220   2.452   0.578  10.734  0.9356  1.7436  1.8654
 7920SOL     OW35221   2.370   0.345  11.459  0.0098 -0.2011  0.1448
 7920SOL    HW135222   2.359   0.250  11.464 -2.9436  0.3623  3.9556
 7920SOL    HW235223   2.277   0.369  11.454 -0.5201 -2.2809 -0.0023
 7921SOL     OW35224   1.590   3.396   8.987  0.2176 -0.0510 -1.0543
 7921SOL    HW135225   1.626   3.309   8.971  1.0161  0.0351  0.2530
 7921SOL    HW235226   1.535   3.370   9.061 -0.2955 -0.2672 -1.5121
 7922SOL     OW35227   1.498   2.136   5.661 -0.4717  0.0046  0.3364
 7922SOL    HW135228   1.508   2.175   5.748 -1.0443 -2.6897  1.6095
 7922SOL    HW235229   1.438   2.064   5.679 -1.1015  0.9949  2.2422
 7923SOL     OW35230   2.470   2.094   0.074 -0.2470 -0.1093 -0.3598
 7923SOL    HW135231   2.518   2.043   0.139 -0.3938  0.3925  0.1440
 7923SOL    HW235232   2.542   2.150   0.046 -1.6888  1.9288  0.0461
 7924SOL     OW35233   1.277   0.096   6.400 -0.0049 -0.1440  0.3001
 7924SOL    HW135234   1.275   0.186   6.366  0.1727  0.0824  0.8842
 7924SOL    HW235235   1.190   0.084   6.437  0.5260 -0.5149  1.4359
 7925SOL     OW35236   0.477   4.716   4.186  0.1042 -0.3165 -0.0459
 7925SOL    HW135237   0.469   0.009   4.092 -1.9689 -0.3750  0.1307
 7925SOL    HW235238   0.549   0.052   4.199  1.2430 -1.3899 -1.2267
 7926SOL     OW35239   2.926   1.521   5.326 -0.3355  0.1484  0.0376
 7926SOL    HW135240   3.004   1.554   5.370  0.4065  0.7912 -1.7451
 7926SOL    HW235241   2.902   1.593   5.268  0.5537  0.9411  0.6749
 7927SOL     OW35242   1.191   1.592   7.855  0.6028 -0.1416  0.1627
 7927SOL    HW135243   1.187   1.674   7.905 -2.4837  0.0894 -0.4495
 7927SOL    HW235244   1.252   1.618   7.786  2.1809  1.1774  2.0341
 7928SOL     OW35245   0.736   0.898  16.656  0.3906  0.2004  0.2010
 7928SOL    HW135246   0.684   0.978  16.657 -0.0759 -0.0772 -1.8592
 7928SOL    HW235247   0.668   0.842  16.618 -1.5974  1.7533  1.4640
 7929SOL     OW35248   1.607   3.069   3.938  0.1871 -0.7300  0.0442
 7929SOL    HW135249   1.619   2.974   3.934 -2.1451 -1.0039 -0.2751
 7929SOL    HW235250   1.654   3.080   4.021  1.3642  1.3738 -0.8907
 7930SOL     OW35251   0.193   3.979   3.242  0.3488 -0.3076  0.2371
 7930SOL    HW135252   0.228   4.040   3.177 -2.1726 -0.2133 -1.0502
 7930SOL    HW235253   0.260   3.966   3.309  0.3422  1.4422  0.5803
 7931SOL     OW35254   0.090   0.930  10.676  0.2312 -0.2736 -0.1060
 7931SOL    HW135255   0.069   0.907  10.767  0.4483 -0.8286 -0.1929
 7931SOL    HW235256   0.145   1.006  10.692 -2.8971  1.3861  2.7936
 7932SOL     OW35257   0.270   4.443  12.517 -0.0783  0.0179  0.1674
 7932SOL    HW135258   0.325   4.504  12.565  0.4099 -0.1839 -0.1352
 7932SOL    HW235259   0.327   4.366  12.520 -1.0915 -0.7817 -0.6105
 7933SOL     OW35260   0.658   4.109   3.525 -0.2751  0.4721 -0.0240
 7933SOL    HW135261   0.654   4.028   3.575 -1.4398  0.1140 -0.7042
 7933SOL    HW235262   0.750   4.130   3.542 -0.1471  0.7493 -1.0776
 7934SOL     OW35263   2.430   1.630   3.124 -0.4274  0.3956  0.2359
 7934SOL    HW135264   2.376   1.669   3.056 -0.2019 -0.8267 -0.6314
 7934SOL    HW235265   2.517   1.630   3.084  0.4934 -0.0752  2.2079
 7935SOL     OW35266   1.398   1.650   9.413  0.8782  0.5566  0.1150
 7935SOL    HW135267   1.433   1.736   9.437 -1.0639  1.5300 -0.5835
 7935SOL    HW235268   1.476   1.596   9.428  1.7490  1.4181 -1.3116
 7936SOL     OW35269   1.576   3.971   9.727  0.0829 -0.1102 -0.3323
 7936SOL    HW135270   1.635   3.940   9.796 -1.1065  0.8648  1.1052
 7936SOL    HW235271   1.542   4.047   9.774  4.0100  1.7381 -0.4631
 7937SOL     OW35272   1.470   1.846   4.062 -0.2962 -0.3005  0.5171
 7937SOL    HW135273   1.413   1.875   4.134  1.5510  0.4045  1.7027
 7937SOL    HW235274   1.489   1.932   4.026 -0.8521 -0.3381  0.1284
 7938SOL     OW35275   2.662   0.390   9.320  0.3050 -0.1311  0.3936
 7938SOL    HW135276   2.748   0.428   9.301  0.2693  0.1755  0.8526
 7938SOL    HW235277   2.614   0.462   9.278  2.5062  1.0576 -0.1327
 7939SOL     OW35278   3.471   2.017   1.299  0.2921 -0.1584  0.3766
 7939SOL    HW135279   3.469   1.936   1.350 -0.4606  0.6906  1.7077
 7939SOL    HW235280   3.480   1.968   1.217 -1.9323 -0.4586  0.3055
 7940SOL     OW35281   1.578   4.574   7.710 -0.0655 -0.0219  0.2291
 7940SOL    HW135282   1.523   4.496   7.699  0.3562 -0.3023  0.1219
 7940SOL    HW235283   1.580   4.605   7.619 -0.8539  0.0955  0.2526
 7941SOL     OW35284   4.040   0.706   0.154  0.2290 -0.3184  0.4594
 7941SOL    HW135285   4.103   0.710   0.225  0.4689  1.2428  0.1679
 7941SOL    HW235286   3.955   0.738   0.185 -0.4519 -1.7139  0.0398
 7942SOL     OW35287   0.135   4.441   3.045  0.2659 -0.0990  0.1015
 7942SOL    HW135288   0.059   4.469   3.096  0.6242 -2.0245  1.6969
 7942SOL    HW235289   0.097   4.386   2.976 -0.3639 -0.0195  0.3895
 7943SOL     OW35290   2.629   1.462   9.674 -0.4043 -0.6114  0.3565
 7943SOL    HW135291   2.607   1.477   9.582  1.5172  0.3599  0.0733
 7943SOL    HW235292   2.541   1.468   9.712 -0.9122  1.2266 -1.1108
 7944SOL     OW35293   1.068   0.875   9.873  0.0899 -0.0343 -0.0619
 7944SOL    HW135294   0.998   0.935   9.895  0.1559  0.4420 -1.1683
 7944SOL    HW235295   1.099   0.900   9.787 -1.3630  2.2459  0.0938
 7945SOL     OW35296   3.409   2.716  17.625  0.1677 -0.1920  0.5018
 7945SOL    HW135297   3.349   2.720  17.699  0.7355 -0.8724  1.0091
 7945SOL    HW235298   3.351   2.713  17.550  1.1552 -0.5047 -0.2578
 7946SOL     OW35299   1.717   3.863   1.965 -0.4774  0.5996  0.5333
 7946SOL    HW135300   1.782   3.794   1.977 -0.5447  0.0111 -2.4764
 7946SOL    HW235301   1.767   3.916   1.903 -0.5842 -1.2125 -1.1364
 7947SOL     OW35302   4.042   3.761   9.011  0.0841 -0.0325 -0.0149
 7947SOL    HW135303   3.978   3.808   8.956 -0.4639 -0.0405  0.6150
 7947SOL    HW235304   4.109   3.755   8.943 -0.2165 -0.9355 -0.2279
 7948SOL     OW35305   4.477   2.882  11.503  0.0331 -0.0887 -0.6115
 7948SOL    HW135306   4.545   2.816  11.488 -1.1471 -1.0797 -1.5959
 7948SOL    HW235307   4.454   2.865  11.594  0.1150  1.1041 -0.3658
 7949SOL     OW35308   1.277   0.991   0.268 -0.1457 -0.0976 -0.2099
 7949SOL    HW135309   1.254   1.059   0.205  1.2169  0.2053 -0.3865
 7949SOL    HW235310   1.259   0.909   0.223  0.3600 -1.0237  1.2616
 7950SOL     OW35311   4.254   1.618  15.040  0.6044  0.5978  0.0668
 7950SOL    HW135312   4.187   1.550  15.038  1.1922  0.0323 -0.8886
 7950SOL    HW235313   4.323   1.592  15.101 -1.7346 -0.0957  2.3784
 7951SOL     OW35314   0.935   3.442  13.781  0.2219 -0.4088 -0.5618
 7951SOL    HW135315   0.949   3.502  13.708 -0.7301  3.4804  2.4530
 7951SOL    HW235316   1.020   3.460  13.821 -1.3188  2.4356  1.4096
 7952SOL     OW35317   1.783   3.407   4.484 -0.3499 -0.2059  0.2401
 7952SOL    HW135318   1.803   3.497   4.459 -2.6529  0.0650 -0.6399
 7952SOL    HW235319   1.696   3.400   4.444 -0.4438 -0.7014  0.5314
 7953SOL     OW35320   0.070   2.664   4.668 -0.5495 -0.5241 -0.4379
 7953SOL    HW135321   4.712   2.694   4.635 -0.2640  0.6500 -0.0987
 7953SOL    HW235322   0.127   2.739   4.683 -0.6367 -0.4457 -0.5000
 7954SOL     OW35323   0.742   0.884   6.680  0.4374  0.2072 -0.1451
 7954SOL    HW135324   0.721   0.964   6.729  0.4826  0.3489 -0.3574
 7954SOL    HW235325   0.671   0.827   6.709  0.3023  1.1295  1.3507
 7955SOL     OW35326   1.946   4.000  14.465  0.1243 -0.1051 -0.6101
 7955SOL    HW135327   2.014   3.959  14.518 -3.6929 -1.7645  3.0026
 7955SOL    HW235328   1.979   4.085  14.437  0.0635  0.4282  0.8925
 7956SOL     OW35329   2.511   2.884   5.269 -0.0248 -0.2055  0.2786
 7956SOL    HW135330   2.552   2.827   5.204  1.9468  1.0978  0.3518
 7956SOL    HW235331   2.544   2.974   5.257 -1.7936  0.5592  1.1204
 7957SOL     OW35332   0.480   2.203   2.159  0.3413 -0.0640  0.1401
 7957SOL    HW135333   0.441   2.280   2.200  1.6422  1.3326 -1.2323
 7957SOL    HW235334   0.571   2.235   2.159  0.3330 -0.0440  0.0032
 7958SOL     OW35335   1.264   2.675  13.905  0.2949  0.1765  0.0301
 7958SOL    HW135336   1.198   2.617  13.944  0.9515  0.3318  1.3858
 7958SOL    HW235337   1.328   2.605  13.894 -0.9505 -0.7279 -1.5437
 7959SOL     OW35338   1.404   1.280  12.697  0.4799  0.1693 -0.4002
 7959SOL    HW135339   1.424   1.230  12.777 -1.2885 -1.0691 -0.7233
 7959SOL    HW235340   1.487   1.328  12.702  1.0539 -0.9493  0.9393
 7960SOL     OW35341   0.001   0.050   1.113  0.0017  0.2128  0.3501
 7960SOL    HW135342   0.073   0.082   1.168  1.0003 -0.6013 -0.4756
 7960SOL    HW235343   0.048   0.018   1.036 -0.2383 -2.8857  1.5050
 7961SOL     OW35344   0.920   4.260   9.973  0.4736  0.8650 -0.4448
 7961SOL    HW135345   1.002   4.306   9.991  1.2096 -0.8868  0.5651
 7961SOL    HW235346   0.929   4.214   9.890  1.0740  1.3944 -0.6675
 7962SOL     OW35347   3.952   3.978   1.677 -0.1439  0.3585  0.4635
 7962SOL    HW135348   3.899   3.965   1.755 -1.5262 -2.2273 -0.9004
 7962SOL    HW235349   3.885   4.023   1.624 -0.4141 -1.9167 -1.1292
 7963SOL     OW35350   2.031   0.614   7.989  0.7567  0.6874  0.3063
 7963SOL    HW135351   1.986   0.590   7.908  0.5989 -0.7231  0.8113
 7963SOL    HW235352   1.965   0.610   8.058 -0.7651 -0.0826 -1.2049
 7964SOL     OW35353   0.739   2.643   6.928 -0.2322  0.2949 -0.4906
 7964SOL    HW135354   0.767   2.717   6.983 -1.0865  1.2197 -1.2954
 7964SOL    HW235355   0.700   2.700   6.862 -2.0678  0.4154  0.6897
 7965SOL     OW35356   0.356   2.968   3.765 -0.1217 -0.3178  0.2312
 7965SOL    HW135357   0.314   3.035   3.819  0.2002  0.6408 -0.7012
 7965SOL    HW235358   0.293   2.900   3.787 -0.7138  0.0184 -0.4356
 7966SOL     OW35359   1.445   2.498  11.402  0.0019 -0.0301  0.1728
 7966SOL    HW135360   1.483   2.410  11.408  1.6791  0.8470  2.5227
 7966SOL    HW235361   1.382   2.488  11.331  0.0391 -0.4662  0.2023
 7967SOL     OW35362   4.627   2.421   7.135  0.5799  0.7348 -0.3641
 7967SOL    HW135363   4.714   2.411   7.096  0.1548  0.7858 -1.3124
 7967SOL    HW235364   4.581   2.354   7.086  0.3276  0.1577  0.6610
 7968SOL     OW35365   4.231   2.785   3.232 -0.2687 -0.9928 -0.2583
 7968SOL    HW135366   4.246   2.870   3.273  0.1749 -0.5528 -1.3238
 7968SOL    HW235367   4.287   2.725   3.281  0.9730  1.3547  1.1671
 7969SOL     OW35368   1.879   3.335   2.265 -0.2716  0.0182  0.2755
 7969SOL    HW135369   1.846   3.379   2.186  3.0432 -1.3623 -1.8562
 7969SOL    HW235370   1.938   3.271   2.226 -2.5425 -1.0767 -1.4121
 7970SOL     OW35371   0.602   2.362   8.457  0.1713 -0.3150 -0.8092
 7970SOL    HW135372   0.580   2.390   8.546  0.8291 -1.2672 -0.3526
 7970SOL    HW235373   0.621   2.271   8.479  1.8442 -0.1021 -1.3445
 7971SOL     OW35374   3.949   0.996  14.002 -0.2947  0.5407  0.4283
 7971SOL    HW135375   3.891   1.072  13.994 -0.3728  0.4264 -0.1110
 7971SOL    HW235376   4.022   1.021  13.946  1.2989  0.1935  2.3714
 7972SOL     OW35377   4.701   3.351   9.503  1.0450 -0.0409  0.5727
 7972SOL    HW135378   0.025   3.343   9.422 -1.0035  1.3353 -0.8285
 7972SOL    HW235379   0.041   3.379   9.568 -0.3500  0.8700  1.5965
 7973SOL     OW35380   4.444   1.479   2.992  0.2353 -0.5971 -0.0600
 7973SOL    HW135381   4.536   1.465   3.012  0.3924 -0.2403 -0.5458
 7973SOL    HW235382   4.440   1.446   2.903  2.3425 -1.1322  0.0530
 7974SOL     OW35383   3.913   0.728   7.731  0.2459  0.7153 -0.1771
 7974SOL    HW135384   3.933   0.742   7.638 -0.4361 -2.0573 -0.7504
 7974SOL    HW235385   3.869   0.808   7.757 -2.0094 -1.4096  2.5085
 7975SOL     OW35386   3.409   0.739   7.280  0.6107 -0.5548  0.8507
 7975SOL    HW135387   3.367   0.759   7.197  1.4436 -0.7852  0.3777
 7975SOL    HW235388   3.502   0.754   7.265  0.3359  1.5911  1.1444
 7976SOL     OW35389   4.638   4.704   8.264 -0.1978  0.1665  0.3094
 7976SOL    HW135390   4.597   0.058   8.299  1.6643  0.3863  2.0088
 7976SOL    HW235391   4.642   4.651   8.344 -1.1819 -0.5779 -0.1352
 7977SOL     OW35392   2.870   2.184   6.566  0.4608  0.0879 -0.3005
 7977SOL    HW135393   2.877   2.274   6.598 -0.2999  0.0395 -0.0197
 7977SOL    HW235394   2.822   2.156   6.644 -0.4012 -0.3170 -0.9837
 7978SOL     OW35395   0.136   1.433   4.581 -0.0076 -0.0228  0.3513
 7978SOL    HW135396   0.147   1.390   4.666 -2.1535 -1.9928 -0.3387
 7978SOL    HW235397   0.222   1.417   4.542 -0.6135  0.3915 -1.1776
 7979SOL     OW35398   1.402   1.183  12.135 -0.3207 -0.1162  0.4063
 7979SOL    HW135399   1.343   1.195  12.061  1.5755  0.9793 -0.9358
 7979SOL    HW235400   1.332   1.189  12.200 -1.2645 -1.7086 -0.4747
 7980SOL     OW35401   2.043   1.575   0.120  0.5631 -0.0357 -0.3594
 7980SOL    HW135402   2.008   1.503   0.068 -2.6181  1.3499 -0.1421
 7980SOL    HW235403   1.996   1.648   0.079 -1.7231 -1.2140  0.1332
 7981SOL     OW35404   0.871   2.186   4.681 -0.5271  0.2002  0.3562
 7981SOL    HW135405   0.931   2.241   4.630 -0.3063  0.4461  0.8718
 7981SOL    HW235406   0.930   2.122   4.720 -0.5600  0.7089  1.2355
 7982SOL     OW35407   1.305   2.056  13.835 -0.2980 -0.2356 -0.4925
 7982SOL    HW135408   1.386   2.010  13.857 -0.6814 -1.1639 -0.9730
 7982SOL    HW235409   1.237   1.989  13.831 -0.2864 -0.3336  1.2823
 7983SOL     OW35410   0.665   1.741   2.636  0.2640 -0.1290  0.0188
 7983SOL    HW135411   0.628   1.749   2.548  1.5531 -2.1568 -0.7119
 7983SOL    HW235412   0.641   1.653   2.666  1.6700 -0.9542 -1.3076
 7984SOL     OW35413   0.545   1.967   6.822 -0.0578 -0.0373 -0.1915
 7984SOL    HW135414   0.495   1.892   6.853 -1.8059  0.7426 -1.1563
 7984SOL    HW235415   0.484   2.034   6.854  0.2075 -0.6321  1.5837
 7985SOL     OW35416   1.586   1.634  13.268  0.5662  0.3232 -0.2640
 7985SOL    HW135417   1.549   1.609  13.353 -0.0095  0.2497 -0.5387
 7985SOL    HW235418   1.675   1.640  13.303  0.7548 -3.8339 -0.0194
 7986SOL     OW35419   2.792   3.490   7.732  0.3749 -0.2913  0.2034
 7986SOL    HW135420   2.838   3.421   7.683 -0.4719 -0.1242 -0.8270
 7986SOL    HW235421   2.757   3.436   7.802  1.5203 -2.4419 -0.8615
 7987SOL     OW35422   0.752   3.199   6.193  0.0510 -0.1248  0.0631
 7987SOL    HW135423   0.817   3.139   6.155 -1.4581 -1.1775 -0.8524
 7987SOL    HW235424   0.669   3.167   6.157 -0.1684 -1.4093  1.6782
 7988SOL     OW35425   2.761   0.356   6.005 -0.2163 -0.2399 -0.3524
 7988SOL    HW135426   2.778   0.270   5.965  0.0530 -0.3325 -0.0444
 7988SOL    HW235427   2.669   0.338   6.025 -0.7058 -0.6711 -2.9593
 7989SOL     OW35428   2.486   2.825   2.418 -0.5621  0.6942  0.6038
 7989SOL    HW135429   2.489   2.871   2.502  1.8423  1.2805  0.1965
 7989SOL    HW235430   2.495   2.896   2.355  0.0354 -0.3712 -0.5158
 7990SOL     OW35431   3.923   2.094   2.572  0.2034 -0.5784 -0.4050
 7990SOL    HW135432   3.985   2.029   2.605  1.7003  2.0014  1.9262
 7990SOL    HW235433   3.984   2.145   2.518 -1.3421  0.0136 -1.5699
 7991SOL     OW35434   1.968   2.430   3.608 -0.1528 -0.3687  0.1284
 7991SOL    HW135435   1.986   2.475   3.691 -0.2077 -0.8965  0.4246
 7991SOL    HW235436   1.879   2.458   3.587  0.2298 -0.2110 -1.2915
 7992SOL     OW35437   3.249   4.684   9.214  0.0787  0.0316  0.3085
 7992SOL    HW135438   3.217   0.041   9.176 -0.3094 -0.7351 -1.0385
 7992SOL    HW235439   3.206   4.630   9.148  3.3205 -0.3883 -1.4677
 7993SOL     OW35440   4.009   2.997   4.326  0.3688  0.3095 -0.2050
 7993SOL    HW135441   3.948   2.984   4.399 -1.7650  0.9085 -1.8747
 7993SOL    HW235442   3.998   2.912   4.283 -0.4420  0.0679  0.4790
 7994SOL     OW35443   2.160   0.472   1.730 -0.2161 -0.0450 -0.6711
 7994SOL    HW135444   2.201   0.461   1.645  0.9523 -0.1488 -0.0944
 7994SOL    HW235445   2.166   0.567   1.742 -0.0486 -0.1919  0.4110
 7995SOL     OW35446   0.949   0.784  11.492 -0.7905 -0.1990 -0.7156
 7995SOL    HW135447   1.042   0.761  11.486 -1.2859 -2.5771  0.4344
 7995SOL    HW235448   0.924   0.717  11.556  0.4606  1.3537  1.4178
 7996SOL     OW35449   0.767   3.539   7.920 -0.2073 -0.3784  0.2501
 7996SOL    HW135450   0.787   3.515   8.010  0.7644  2.0561  0.6749
 7996SOL    HW235451   0.679   3.574   7.936  1.0036  1.9762  1.6596
 7997SOL     OW35452   2.193   2.838  15.520  0.3686  0.0988 -0.6775
 7997SOL    HW135453   2.250   2.891  15.575  1.0208 -0.0234 -1.2310
 7997SOL    HW235454   2.248   2.763  15.498  0.0547 -0.3799  0.1944
 7998SOL     OW35455   2.300   1.591   7.185  0.4797 -0.4980  0.5782
 7998SOL    HW135456   2.273   1.503   7.211  1.0138 -0.7224  0.3704
 7998SOL    HW235457   2.313   1.635   7.269  1.1912  1.1352 -0.3783
 7999SOL     OW35458   1.910   3.753   8.737  0.2965  0.0602 -0.4280
 7999SOL    HW135459   1.945   3.816   8.799 -1.3610  0.6699 -0.1114
 7999SOL    HW235460   1.850   3.814   8.694  0.4577 -0.2351 -1.0705
 8000SOL     OW35461   2.595   1.442   1.694  0.4136  0.4847 -0.8363
 8000SOL    HW135462   2.506   1.414   1.672  0.6838 -1.5174  0.5549
 8000SOL    HW235463   2.621   1.466   1.605 -0.4472  0.0713 -1.2056
 8001SOL     OW35464   4.089   1.288   1.962 -0.0262 -0.0115  0.3697
 8001SOL    HW135465   4.181   1.298   1.935  0.0204 -2.7076 -0.5528
 8001SOL    HW235466   4.048   1.362   1.917  0.3396 -0.4254 -0.6677
 8002SOL     OW35467   0.160   2.686   7.057 -0.2379 -0.1825  0.1095
 8002SOL    HW135468   0.077   2.693   7.105 -0.8581 -0.3870 -0.9473
 8002SOL    HW235469   0.163   2.590   7.054  0.8969 -0.0962 -1.3883
 8003SOL     OW35470   3.541   2.443   2.284 -0.1457 -0.0246 -0.0162
 8003SOL    HW135471   3.567   2.415   2.371 -2.0990  0.5001  0.7396
 8003SOL    HW235472   3.585   2.528   2.296 -1.9614  1.1400 -1.5903
 8004SOL     OW35473   3.876   1.750   8.173  0.0020 -0.3406  0.5100
 8004SOL    HW135474   3.925   1.826   8.141  1.7598 -0.7416  2.2777
 8004SOL    HW235475   3.923   1.731   8.254  0.4846 -0.0356  0.3064
 8005SOL     OW35476   2.893   1.317   8.336 -0.1203 -0.2816 -0.6076
 8005SOL    HW135477   2.970   1.267   8.363 -0.9187 -0.5448  1.2134
 8005SOL    HW235478   2.846   1.247   8.291 -1.2036 -0.0889  0.2113
 8006SOL     OW35479   0.512   3.599   2.750 -0.0290  0.4572 -0.1907
 8006SOL    HW135480   0.469   3.571   2.669 -1.1472  0.3765  0.4369
 8006SOL    HW235481   0.494   3.692   2.747  2.3721  0.8933 -1.4159
 8007SOL     OW35482   0.803   2.902  16.681  0.3841 -0.1451 -0.5949
 8007SOL    HW135483   0.783   2.825  16.628  1.9456 -0.3715 -0.8636
 8007SOL    HW235484   0.716   2.939  16.670  0.7615  0.5427 -1.2731
 8008SOL     OW35485   0.333   1.950   9.072 -0.5018 -0.0525 -0.1334
 8008SOL    HW135486   0.266   1.891   9.104 -1.2260  3.2646  4.4806
 8008SOL    HW235487   0.416   1.903   9.084 -0.1039  0.5485 -0.4625
 8009SOL     OW35488   4.615   0.995   8.314 -0.2476  0.7774  0.3236
 8009SOL    HW135489   4.688   0.938   8.337  0.1226  1.9709  2.0742
 8009SOL    HW235490   4.572   0.976   8.397 -0.9654 -1.7020 -0.5821
 8010SOL     OW35491   3.335   1.257   8.593 -0.1104  0.0830 -1.0477
 8010SOL    HW135492   3.361   1.200   8.520 -0.2785  1.5049 -2.2264
 8010SOL    HW235493   3.407   1.246   8.654 -0.5661 -0.1565 -0.5566
 8011SOL     OW35494   1.725   4.531  11.041  0.2405 -0.1347 -0.6044
 8011SOL    HW135495   1.694   4.518  11.131  0.1836  1.2110 -0.4273
 8011SOL    HW235496   1.818   4.511  11.048  0.1537  0.9347  3.8694
 8012SOL     OW35497   1.029   1.623   0.184  0.7113 -0.2932 -0.0404
 8012SOL    HW135498   1.113   1.660   0.157 -0.3318  2.3157  0.2989
 8012SOL    HW235499   0.966   1.663   0.124  0.2438 -1.1673 -0.1220
 8013SOL     OW35500   4.591   2.679   2.773  0.3430  0.1369 -0.2681
 8013SOL    HW135501   4.627   2.633   2.698  0.4476 -1.1166  0.5421
 8013SOL    HW235502   4.513   2.719   2.735 -1.0459 -0.7436  1.6401
 8014SOL     OW35503   1.343   4.455  13.357  0.7160 -0.1005  0.6564
 8014SOL    HW135504   1.328   4.527  13.296 -0.8224  0.8659  2.1740
 8014SOL    HW235505   1.395   4.393  13.306  1.5659  1.5188 -0.4462
 8015SOL     OW35506   2.587   3.438  17.393 -0.1969  1.1913 -0.5727
 8015SOL    HW135507   2.658   3.378  17.368  0.2505  0.1555  3.2244
 8015SOL    HW235508   2.625   3.502  17.452  2.3406 -0.2044 -0.6987
 8016SOL     OW35509   4.529   0.270  14.252  0.0805  0.4767  0.1398
 8016SOL    HW135510   4.472   0.266  14.329  1.2445 -2.0770  0.8837
 8016SOL    HW235511   4.548   0.363  14.241 -0.2653  0.5088 -0.1535
 8017SOL     OW35512   1.299   4.216  15.085 -0.4118 -0.4602 -0.3860
 8017SOL    HW135513   1.256   4.249  15.006 -0.4043  1.2725  0.3322
 8017SOL    HW235514   1.388   4.252  15.083 -0.0860 -1.2696 -0.3450
 8018SOL     OW35515   1.839   0.619   7.302 -0.0328 -0.1130 -0.1826
 8018SOL    HW135516   1.851   0.713   7.291  2.9952 -0.2734  1.6139
 8018SOL    HW235517   1.930   0.589   7.311  1.1086  3.1308 -1.0283
 8019SOL     OW35518   1.603   3.260   7.786  0.2457  0.1067 -0.5963
 8019SOL    HW135519   1.652   3.177   7.780 -1.9938 -1.1682 -1.4393
 8019SOL    HW235520   1.652   3.313   7.847 -1.3848 -2.2014  2.7294
 8020SOL     OW35521   0.540   4.447  10.672  0.1069 -0.1974 -0.2971
 8020SOL    HW135522   0.591   4.453  10.753 -1.4714  0.1963  0.6836
 8020SOL    HW235523   0.585   4.371  10.634  2.1101  0.1878  1.3379
 8021SOL     OW35524   2.487   1.817   9.576 -0.1999  0.2298  0.1565
 8021SOL    HW135525   2.570   1.857   9.601  0.0726 -0.7594  0.8388
 8021SOL    HW235526   2.445   1.901   9.559  1.7933  1.4694  1.5316
 8022SOL     OW35527   1.675   1.486   4.570 -0.2114  0.1418  0.8815
 8022SOL    HW135528   1.752   1.533   4.537 -1.1365  2.0370  1.4341
 8022SOL    HW235529   1.690   1.399   4.535 -0.4567  0.7663 -0.7766
 8023SOL     OW35530   1.154   0.772   1.461 -0.4735 -0.4014 -0.4302
 8023SOL    HW135531   1.083   0.825   1.424 -0.7967 -0.4923  0.0731
 8023SOL    HW235532   1.207   0.827   1.519  0.9019 -1.6887 -0.4788
 8024SOL     OW35533   2.143   3.904   3.728  0.0215 -0.3682 -0.0231
 8024SOL    HW135534   2.074   3.958   3.766  0.0848  0.8012 -1.5774
 8024SOL    HW235535   2.109   3.917   3.639 -0.3368  1.9099  0.4474
 8025SOL     OW35536   0.588   2.845   1.358  0.1164  0.0604 -0.5234
 8025SOL    HW135537   0.588   2.751   1.339 -1.1262 -0.2474  1.0191
 8025SOL    HW235538   0.670   2.870   1.315  0.5553  1.1087  0.9144
 8026SOL     OW35539   1.034   3.854   5.558  0.2126 -0.4372 -0.2802
 8026SOL    HW135540   1.056   3.778   5.611  0.5733 -0.9062 -1.0971
 8026SOL    HW235541   1.004   3.911   5.629 -0.7628 -1.5685  0.2084
 8027SOL     OW35542   2.537   0.438   0.418 -0.2400 -0.2566  0.3216
 8027SOL    HW135543   2.630   0.439   0.441  0.2085 -0.8804 -1.4249
 8027SOL    HW235544   2.529   0.524   0.375 -1.6531  0.0797  1.2825
 8028SOL     OW35545   0.397   0.607   4.495  0.5759  0.0340  0.1899
 8028SOL    HW135546   0.343   0.536   4.529  2.8570 -2.2059 -0.8632
 8028SOL    HW235547   0.440   0.636   4.575  0.6981  0.5688 -0.0685
 8029SOL     OW35548   4.110   2.713   1.252 -0.3218  0.1916  0.7060
 8029SOL    HW135549   4.025   2.739   1.217  0.7603 -0.4261 -2.3599
 8029SOL    HW235550   4.089   2.708   1.345 -0.0534 -1.8390  0.6663
 8030SOL     OW35551   1.275   3.933   7.875  1.1023  0.9088  0.7701
 8030SOL    HW135552   1.221   3.995   7.826  2.9853  1.6293 -0.3894
 8030SOL    HW235553   1.341   3.901   7.814 -2.4845 -2.0299 -1.5410
 8031SOL     OW35554   1.151   4.150  15.893 -0.1201 -0.2008  0.2990
 8031SOL    HW135555   1.210   4.102  15.951 -0.7755 -0.0013  1.1248
 8031SOL    HW235556   1.133   4.216  15.960 -1.6623 -0.2914 -0.0481
 8032SOL     OW35557   4.584   0.552   6.835  0.1969  0.9558 -0.4375
 8032SOL    HW135558   4.501   0.597   6.850 -1.3053 -1.8893 -0.1252
 8032SOL    HW235559   4.650   0.621   6.827  0.8220  0.6163  1.8739
 8033SOL     OW35560   3.805   2.204   4.853  0.1421 -0.0004  0.0596
 8033SOL    HW135561   3.882   2.241   4.809  2.0172 -0.6087  2.8954
 8033SOL    HW235562   3.762   2.168   4.774 -1.2879 -1.8188  1.6709
 8034SOL     OW35563   2.320   0.351   0.248 -0.1148 -0.5905 -0.3298
 8034SOL    HW135564   2.378   0.357   0.172 -0.5060 -0.5009 -0.6251
 8034SOL    HW235565   2.387   0.338   0.315 -1.1728 -2.8681  0.2883
 8035SOL     OW35566   0.255   4.333   3.969  0.3275  0.1446 -0.1725
 8035SOL    HW135567   0.272   4.289   3.886 -1.3701  0.0210 -0.4543
 8035SOL    HW235568   0.170   4.376   3.959  1.2225  1.7129 -0.8889
 8036SOL     OW35569   3.644   3.524  12.358  0.6343 -0.9202  0.6961
 8036SOL    HW135570   3.609   3.518  12.446  1.1860 -2.1509  0.8207
 8036SOL    HW235571   3.567   3.506  12.304 -0.5102  0.2157  1.9506
 8037SOL     OW35572   0.991   2.727   5.861  0.4464  0.0539 -0.3296
 8037SOL    HW135573   0.976   2.636   5.836 -3.2333  0.7100 -0.5685
 8037SOL    HW235574   0.994   2.773   5.777 -1.4008  0.2715 -0.2740
 8038SOL     OW35575   4.492   1.953   7.078 -0.1793  0.6842 -0.1765
 8038SOL    HW135576   4.560   2.010   7.114  0.1385  0.9580 -1.1922
 8038SOL    HW235577   4.551   1.901   7.025 -3.1997 -1.0435 -1.8537
 8039SOL     OW35578   4.566   1.945   7.662 -0.0093  0.1169 -0.1561
 8039SOL    HW135579   4.494   1.884   7.645  0.6283 -0.4782 -0.7626
 8039SOL    HW235580   4.532   2.032   7.642 -0.2950 -0.0723 -0.4902
 8040SOL     OW35581   4.582   4.454   4.944  0.0963  0.5281 -0.0466
 8040SOL    HW135582   4.556   4.383   5.002 -1.3049 -0.2818 -1.6782
 8040SOL    HW235583   4.564   4.420   4.857 -1.1694  1.7887 -0.2734
 8041SOL     OW35584   0.886   1.175   9.663 -0.7476 -0.3092  0.2120
 8041SOL    HW135585   0.912   1.150   9.752  1.2211 -1.0504 -0.5630
 8041SOL    HW235586   0.902   1.269   9.661 -2.3424  0.0490  4.8351
 8042SOL     OW35587   3.343   1.302   4.189  0.0146 -0.6674  0.2824
 8042SOL    HW135588   3.344   1.243   4.114 -1.5795  0.4093 -0.5829
 8042SOL    HW235589   3.315   1.245   4.260 -1.2754 -1.1509 -0.6331
 8043SOL     OW35590   0.351   0.873  13.270 -0.2873  0.4661  0.0441
 8043SOL    HW135591   0.313   0.947  13.222 -0.6077  0.8122  0.8188
 8043SOL    HW235592   0.417   0.914  13.327  2.0241 -2.6892 -0.4040
 8044SOL     OW35593   3.032   3.088  12.984  0.1228  0.2665 -0.1655
 8044SOL    HW135594   3.039   3.052  13.073  0.3003  1.2795  0.2266
 8044SOL    HW235595   2.988   3.167  13.013  0.9262  0.8475 -0.5354
 8045SOL     OW35596   3.612   1.904   6.057  0.0558  0.0546 -0.8710
 8045SOL    HW135597   3.641   1.827   6.007 -1.8880 -2.8329  2.4264
 8045SOL    HW235598   3.519   1.895   6.076  0.7514  2.9562  3.7844
 8046SOL     OW35599   0.394   2.670   9.103  0.3844 -0.7411  0.2637
 8046SOL    HW135600   0.402   2.740   9.167  2.4761 -2.6949  2.1210
 8046SOL    HW235601   0.341   2.605   9.148 -0.4678 -0.5500 -0.4525
 8047SOL     OW35602   0.941   3.933   6.479 -0.2189 -0.0491  0.3601
 8047SOL    HW135603   0.917   3.926   6.387 -0.4301 -0.7685  0.4719
 8047SOL    HW235604   0.989   4.016   6.475  0.5385 -0.3393  3.4044
 8048SOL     OW35605   2.673   0.811   2.772 -0.2263  0.0134  0.1422
 8048SOL    HW135606   2.722   0.761   2.837 -0.8884  0.2695  0.8392
 8048SOL    HW235607   2.611   0.741   2.751  1.5065 -0.8675 -1.9812
 8049SOL     OW35608   0.325   1.720   9.778 -0.4787  0.4088  0.2948
 8049SOL    HW135609   0.270   1.762   9.844  0.0587 -0.3900  1.2581
 8049SOL    HW235610   0.265   1.661   9.732  1.7866 -1.6633  0.0280
 8050SOL     OW35611   4.048   2.218   6.711  0.0954  0.0289  0.1030
 8050SOL    HW135612   4.069   2.174   6.793  1.1776 -0.5866 -0.4940
 8050SOL    HW235613   4.076   2.154   6.645 -0.1908 -0.0514  0.0610
 8051SOL     OW35614   1.312   3.007   7.937 -0.0222 -0.3992  0.1513
 8051SOL    HW135615   1.264   3.084   7.968 -1.7823 -1.3112 -0.3423
 8051SOL    HW235616   1.272   2.934   7.983 -1.5264  0.6957  0.5853
 8052SOL     OW35617   0.926   3.612   4.830  0.1561 -0.3426 -0.1014
 8052SOL    HW135618   0.995   3.658   4.877 -0.1948  0.4736 -0.3871
 8052SOL    HW235619   0.929   3.528   4.877 -0.6757 -1.3239 -1.7800
 8053SOL     OW35620   3.045   0.452   6.938  0.2768 -0.1961  0.0476
 8053SOL    HW135621   3.087   0.366   6.928  0.0120 -0.4901  1.4680
 8053SOL    HW235622   3.043   0.457   7.033  1.7700 -1.7499  0.1762
 8054SOL     OW35623   3.585   3.835   6.703  0.3663 -0.1227 -0.0925
 8054SOL    HW135624   3.637   3.897   6.755  0.5644 -0.1764 -0.2253
 8054SOL    HW235625   3.602   3.756   6.754 -1.7043  0.2527  1.1396
 8055SOL     OW35626   4.121   3.408   7.147  0.3823 -0.3329 -0.2083
 8055SOL    HW135627   4.184   3.478   7.164  2.5476 -2.0652 -1.1081
 8055SOL    HW235628   4.042   3.436   7.193  1.1852 -0.3335  1.1706
 8056SOL     OW35629   0.207   2.979   5.007  0.3621 -0.1680 -0.6129
 8056SOL    HW135630   0.118   3.013   5.004  0.9520  1.5744  1.1997
 8056SOL    HW235631   0.247   3.051   5.056 -1.8775  1.0935 -0.6349
 8057SOL     OW35632   0.808   0.657   2.171 -0.0627 -0.5220  0.1713
 8057SOL    HW135633   0.829   0.703   2.252 -1.0596  1.2489 -0.5785
 8057SOL    HW235634   0.817   0.723   2.102 -0.0988 -0.9848 -0.2782
 8058SOL     OW35635   4.449   0.830   3.932  0.0643 -0.5852  0.5137
 8058SOL    HW135636   4.458   0.853   4.025  1.9165  3.0045 -0.5234
 8058SOL    HW235637   4.493   0.746   3.923 -1.2858 -1.3649  1.1907
 8059SOL     OW35638   3.786   2.739   7.062  0.3511  0.1626 -0.4509
 8059SOL    HW135639   3.782   2.779   6.975 -1.4137  2.8962  0.8623
 8059SOL    HW235640   3.747   2.652   7.054 -1.2836  0.7077  1.5135
 8060SOL     OW35641   1.748   3.629  10.918 -0.2761 -0.1396 -0.3451
 8060SOL    HW135642   1.688   3.582  10.976 -1.6579  0.4339 -1.3150
 8060SOL    HW235643   1.799   3.560  10.875 -1.0083 -0.1098 -1.2543
 8061SOL     OW35644   1.064   2.333   8.058 -1.0368 -0.3707  0.2043
 8061SOL    HW135645   1.022   2.251   8.084 -2.1711 -0.0888 -0.7188
 8061SOL    HW235646   1.118   2.354   8.134 -1.6910 -0.8832  0.8237
 8062SOL     OW35647   2.141   3.053   8.577  0.1777  0.4513  0.2522
 8062SOL    HW135648   2.134   3.136   8.531  0.1023  0.5619  0.4610
 8062SOL    HW235649   2.190   3.003   8.512 -2.0793  0.3233 -1.3548
 8063SOL     OW35650   0.125   2.580   4.127  0.5305 -0.1621 -0.1029
 8063SOL    HW135651   0.099   2.493   4.155  1.6218 -0.5987 -0.4528
 8063SOL    HW235652   0.052   2.642   4.136  1.4778  1.1538 -1.3703
 8064SOL     OW35653   4.629   2.379   5.215 -0.4302 -0.0490 -0.3406
 8064SOL    HW135654   4.554   2.365   5.272  2.1081  0.3535  3.1179
 8064SOL    HW235655   4.588   2.400   5.131  0.4117 -3.4793 -1.6223
 8065SOL     OW35656   3.498   0.140   7.562  0.0866 -0.2021  0.0433
 8065SOL    HW135657   3.572   0.200   7.577  1.7432 -2.0916 -0.6133
 8065SOL    HW235658   3.539   0.054   7.550 -0.3223 -0.4395  0.3581
 8066SOL     OW35659   3.140   2.386  10.270  0.2574 -0.1319  0.4441
 8066SOL    HW135660   3.057   2.429  10.290 -0.1347 -0.6356 -0.1170
 8066SOL    HW235661   3.143   2.311  10.329 -1.7000 -0.4853  0.0880
 8067SOL     OW35662   1.585   1.629  10.107 -0.6077  0.1562 -0.1428
 8067SOL    HW135663   1.569   1.536  10.123  1.6786  0.0295  1.3668
 8067SOL    HW235664   1.612   1.659  10.194 -0.1809 -1.8125  0.3956
 8068SOL     OW35665   1.189   2.652   3.392 -0.4178 -0.6323  0.2524
 8068SOL    HW135666   1.208   2.673   3.484  2.4868 -2.8895  0.1569
 8068SOL    HW235667   1.146   2.733   3.363  1.9680  1.2070  1.8666
 8069SOL     OW35668   1.203   0.136  16.665  0.3419 -0.5817 -0.2456
 8069SOL    HW135669   1.273   0.177  16.613  1.2280 -0.7655  0.8084
 8069SOL    HW235670   1.246   0.139  16.750 -0.9161  1.1412  0.3307
 8070SOL     OW35671   0.024   4.213  15.006  0.1117  0.0853  0.3502
 8070SOL    HW135672   4.723   4.288  14.953 -1.5754 -0.4994  0.3778
 8070SOL    HW235673   4.688   4.145  14.976  0.4526 -1.6411  3.5562
 8071SOL     OW35674   1.486   2.510   6.020 -0.4040 -0.4397  0.2355
 8071SOL    HW135675   1.549   2.513   6.092 -0.3812  1.1211  0.1372
 8071SOL    HW235676   1.449   2.422   6.022 -0.4408 -0.3805  1.8159
 8072SOL     OW35677   1.602   0.676   7.064  0.1126 -0.6231  0.3343
 8072SOL    HW135678   1.627   0.706   6.977  0.5217  0.4248  0.8088
 8072SOL    HW235679   1.516   0.638   7.045 -1.3884  2.6425  0.5013
 8073SOL     OW35680   3.414   0.636   4.262 -0.3808 -0.1759 -0.2485
 8073SOL    HW135681   3.449   0.677   4.183 -1.5349  1.6337  0.1922
 8073SOL    HW235682   3.415   0.540   4.262  1.6851 -0.1572 -0.3652
 8074SOL     OW35683   3.316   0.160   1.750  0.1743 -0.3934  0.1091
 8074SOL    HW135684   3.356   0.186   1.834 -1.1144 -0.0382  0.6121
 8074SOL    HW235685   3.248   0.098   1.773 -1.5821  1.2631 -0.6291
 8075SOL     OW35686   2.479   2.028   3.506  0.4524  0.1482 -0.4567
 8075SOL    HW135687   2.529   2.104   3.478  1.1609 -0.2083 -0.1635
 8075SOL    HW235688   2.396   2.049   3.464  0.6744  1.1848 -0.3785
 8076SOL     OW35689   3.870   2.319   2.288  0.1619  0.5929  0.1334
 8076SOL    HW135690   3.928   2.268   2.232 -0.8105  0.2025 -0.5081
 8076SOL    HW235691   3.800   2.257   2.308 -0.0185  1.5314  2.4753
 8077SOL     OW35692   4.615   0.452   8.899 -0.2826 -0.1606 -0.4399
 8077SOL    HW135693   4.552   0.389   8.933  1.2596 -1.4243  0.0628
 8077SOL    HW235694   4.580   0.535   8.933  1.0254  0.5969 -0.9671
 8078SOL     OW35695   3.910   2.268   8.236  0.2308  0.1004 -0.0558
 8078SOL    HW135696   3.968   2.257   8.312  1.5410  1.5879 -0.8452
 8078SOL    HW235697   3.826   2.284   8.278 -0.7154  0.3993 -2.0785
 8079SOL     OW35698   2.753   2.951   0.746  0.1579 -0.4566 -0.1718
 8079SOL    HW135699   2.823   2.947   0.812  0.6403 -0.5518 -0.6912
 8079SOL    HW235700   2.748   3.044   0.725  0.6824  0.2377  2.6881
 8080SOL     OW35701   2.583   0.405  17.147 -0.3914 -0.5696 -0.1832
 8080SOL    HW135702   2.667   0.449  17.163 -1.2828  0.6959  1.1137
 8080SOL    HW235703   2.608   0.358  17.068  1.3905  0.7180 -0.3867
 8081SOL     OW35704   1.967   2.085  15.082  0.2363 -0.3694  0.3148
 8081SOL    HW135705   1.901   2.022  15.051  2.1154 -0.8435 -2.7680
 8081SOL    HW235706   2.046   2.037  15.105 -1.1924 -4.2171 -2.7656
 8082SOL     OW35707   0.753   1.356   5.696  0.4495  0.2092 -0.0061
 8082SOL    HW135708   0.790   1.445   5.687  2.6735 -0.6935  0.1539
 8082SOL    HW235709   0.779   1.318   5.612 -0.3607 -0.6591  0.1395
 8083SOL     OW35710   2.707   1.362   0.051 -0.1436 -0.1977 -0.1431
 8083SOL    HW135711   2.642   1.297   0.024 -1.9967  2.3415 -1.8403
 8083SOL    HW235712   2.679   1.438  17.705 -1.5112 -0.7432 -0.2092
 8084SOL     OW35713   0.550   1.497  15.708 -0.0348 -0.1499  0.2227
 8084SOL    HW135714   0.615   1.507  15.778 -1.0860 -2.0568  1.5097
 8084SOL    HW235715   0.606   1.459  15.640  2.1333  2.6654  0.4500
 8085SOL     OW35716   3.281   2.221  16.970  0.2118  0.1909 -0.2013
 8085SOL    HW135717   3.241   2.183  17.048  3.4603  0.5121  1.6016
 8085SOL    HW235718   3.369   2.225  17.006  0.5042 -0.2242 -0.8604
 8086SOL     OW35719   3.277   0.294   5.494  0.4634 -0.1412  0.2777
 8086SOL    HW135720   3.337   0.333   5.430 -2.0561 -1.3850 -2.8247
 8086SOL    HW235721   3.239   0.371   5.536  1.1182  0.8104 -0.8773
 8087SOL     OW35722   3.357   1.155  14.084  0.1242 -0.2502 -0.4393
 8087SOL    HW135723   3.369   1.250  14.083  0.3561 -0.2731  0.7435
 8087SOL    HW235724   3.424   1.131  14.020  2.1535  1.0280  1.2045
 8088SOL     OW35725   4.195   0.901   4.271 -0.8418  0.4423  0.2133
 8088SOL    HW135726   4.114   0.880   4.224 -0.8573 -1.5086  1.1085
 8088SOL    HW235727   4.156   0.934   4.352 -2.9499  0.9140 -1.0058
 8089SOL     OW35728   3.810   2.527   1.877  0.0506  0.0062 -0.3215
 8089SOL    HW135729   3.758   2.466   1.929  0.1363  0.0801 -0.1480
 8089SOL    HW235730   3.773   2.510   1.790 -1.5608  0.4441  0.2989
 8090SOL     OW35731   4.623   4.495   3.148  0.0382  0.1099 -0.3045
 8090SOL    HW135732   4.577   4.571   3.114 -0.0234  0.5638  0.7728
 8090SOL    HW235733   4.559   4.467   3.214  0.6563  1.3583  0.8291
 8091SOL     OW35734   3.478   1.267   7.279 -0.5668  0.2395  0.5543
 8091SOL    HW135735   3.512   1.216   7.205 -2.9082  0.0622 -0.3828
 8091SOL    HW235736   3.541   1.234   7.342  0.6913  0.9844 -0.2899
 8092SOL     OW35737   1.008   0.591   1.840  0.3277 -0.1520 -0.0698
 8092SOL    HW135738   0.998   0.545   1.924 -0.4311 -1.4346 -0.8596
 8092SOL    HW235739   1.103   0.607   1.839  0.1200  1.0745 -0.2189
 8093SOL     OW35740   0.373   3.317   6.777  0.0424  0.1973  0.3803
 8093SOL    HW135741   0.338   3.405   6.789 -0.4271 -0.0703  1.0095
 8093SOL    HW235742   0.414   3.308   6.691 -0.9303  1.3747 -0.1998
 8094SOL     OW35743   4.120   0.672   8.713  0.0937  0.3520  0.6927
 8094SOL    HW135744   4.196   0.630   8.752  0.9300  0.0921 -1.2241
 8094SOL    HW235745   4.165   0.745   8.670 -2.1411  2.2627  1.6203
 8095SOL     OW35746   3.274   4.364   7.405  0.3695 -0.2456 -0.1800
 8095SOL    HW135747   3.346   4.406   7.453 -0.1183 -1.3050  1.4723
 8095SOL    HW235748   3.215   4.435   7.429  1.5416  0.8410 -0.5294
 8096SOL     OW35749   0.944   2.975   6.138  0.3401 -0.1204  0.2541
 8096SOL    HW135750   1.020   2.980   6.195 -0.0628  1.1893  0.6930
 8096SOL    HW235751   0.971   3.012   6.054  0.5131 -1.5080 -0.2967
 8097SOL     OW35752   1.442   0.983   6.227 -0.0905 -0.6166 -0.5496
 8097SOL    HW135753   1.535   0.983   6.206  0.1928 -0.4947  0.7001
 8097SOL    HW235754   1.426   0.912   6.289  3.6455 -0.4055  0.6371
 8098SOL     OW35755   3.767   4.392   5.381 -0.3118 -0.1043  0.0953
 8098SOL    HW135756   3.679   4.391   5.344  0.8456  1.0693 -2.6962
 8098SOL    HW235757   3.748   4.325   5.447  0.8492  1.2904  1.8359
 8099SOL     OW35758   4.187   3.078   2.860  0.4245  0.3229  0.5174
 8099SOL    HW135759   4.108   3.129   2.875 -0.1989 -0.4850 -0.0128
 8099SOL    HW235760   4.219   3.108   2.775 -0.9797 -1.1328 -0.5143
 8100SOL     OW35761   4.288   0.544   1.942  0.0170 -0.4167 -0.0943
 8100SOL    HW135762   4.343   0.605   1.991 -2.0589  1.2237  0.1922
 8100SOL    HW235763   4.212   0.544   2.000 -0.9560  0.2071 -1.3955
 8101SOL     OW35764   2.352   1.049   7.262  0.8394 -0.2132 -0.4153
 8101SOL    HW135765   2.394   1.123   7.217  1.4522  0.4187  1.2205
 8101SOL    HW235766   2.317   1.093   7.339  2.2316 -0.3161  0.2624
 8102SOL     OW35767   0.750   0.081   3.980  0.4658  0.3399 -0.2211
 8102SOL    HW135768   0.752   0.171   4.011  0.3485  0.6447 -1.1124
 8102SOL    HW235769   0.800   0.092   3.899  0.9734 -0.5075 -0.0282
 8103SOL     OW35770   4.306   0.790   4.538 -0.2309  0.1267 -0.0757
 8103SOL    HW135771   4.306   0.805   4.443 -0.3718  1.8789  0.2007
 8103SOL    HW235772   4.326   0.880   4.566  2.8863 -1.2973  2.1716
 8104SOL     OW35773   3.690   3.669   4.826 -0.1040 -0.0926  0.4376
 8104SOL    HW135774   3.783   3.684   4.810 -0.4541  0.4893 -1.0671
 8104SOL    HW235775   3.667   3.761   4.833  1.3559  0.3899 -0.9151
 8105SOL     OW35776   0.163   3.836   6.507  0.2903 -0.0442 -0.3268
 8105SOL    HW135777   0.088   3.785   6.539  0.0643 -0.4789 -1.5628
 8105SOL    HW235778   0.145   3.826   6.414 -0.2347  0.1751 -0.2527
 8106SOL     OW35779   4.386   4.555   8.390 -0.4813 -0.9723  0.6072
 8106SOL    HW135780   4.309   4.507   8.421 -0.7579 -0.7446  0.2815
 8106SOL    HW235781   4.353   4.574   8.302 -0.3137  1.0418  0.9635
 8107SOL     OW35782   3.724   1.172   6.266 -0.3222 -0.5597  0.0673
 8107SOL    HW135783   3.729   1.252   6.318  0.1176 -1.7740  1.8870
 8107SOL    HW235784   3.816   1.150   6.259  0.7674  3.7014  0.9020
 8108SOL     OW35785   2.677   2.394  12.910 -0.3481  0.2059 -0.1184
 8108SOL    HW135786   2.629   2.327  12.961 -2.6407  2.4057  0.6079
 8108SOL    HW235787   2.629   2.384  12.828 -1.6241 -1.2203  0.7936
 8109SOL     OW35788   2.217   1.335   1.970 -0.1636 -0.3135  0.2617
 8109SOL    HW135789   2.210   1.423   2.007 -2.7759  0.7042 -2.6684
 8109SOL    HW235790   2.131   1.323   1.929  0.0297  0.3475 -0.3399
 8110SOL     OW35791   1.748   2.183  12.326  0.4836  0.0529 -0.4114
 8110SOL    HW135792   1.763   2.221  12.239 -1.7851  0.3088 -0.6900
 8110SOL    HW235793   1.822   2.123  12.334 -0.5113 -1.4434 -2.4233
 8111SOL     OW35794   4.096   2.712   6.836 -0.2606  0.1163 -0.6860
 8111SOL    HW135795   4.029   2.777   6.813 -1.8520 -1.0189  0.7485
 8111SOL    HW235796   4.050   2.631   6.819  1.3010 -0.9837  0.3037
 8112SOL     OW35797   0.689   1.218   5.196  0.3606  0.1429 -0.2923
 8112SOL    HW135798   0.726   1.281   5.259 -0.3623 -0.3535  0.6072
 8112SOL    HW235799   0.775   1.183   5.170  0.2488  0.0827 -0.5754
 8113SOL     OW35800   2.319   1.968   4.089 -0.0923  0.3190 -0.0268
 8113SOL    HW135801   2.235   1.966   4.044 -0.7552  1.0190  1.1691
 8113SOL    HW235802   2.297   1.946   4.179 -2.7982  0.4717 -0.6676
 8114SOL     OW35803   0.585   1.071  12.470  0.3623  0.1821 -0.0877
 8114SOL    HW135804   0.528   1.044  12.543  0.4581  0.5033  0.1027
 8114SOL    HW235805   0.589   0.991  12.418  0.5844 -1.2730  2.1589
 8115SOL     OW35806   3.164   2.633   0.099  0.3545  0.2605  0.0423
 8115SOL    HW135807   3.215   2.690   0.156  0.6652  1.5070 -1.4826
 8115SOL    HW235808   3.205   2.547   0.107 -1.3220 -0.5087  0.4245
 8116SOL     OW35809   3.396   2.227   6.124 -0.3235  0.0258 -0.0684
 8116SOL    HW135810   3.407   2.140   6.164 -2.1445 -0.0379  0.3188
 8116SOL    HW235811   3.407   2.280   6.202  0.7664  2.7640 -2.1053
 8117SOL     OW35812   2.332   4.121   4.192 -0.0609 -0.0668  0.3215
 8117SOL    HW135813   2.308   4.071   4.269 -1.3801 -0.0410 -0.0669
 8117SOL    HW235814   2.416   4.086   4.163 -1.5564 -1.6045 -2.1352
 8118SOL     OW35815   3.626   1.207  11.473  0.4051  0.7031  0.4538
 8118SOL    HW135816   3.598   1.253  11.394 -2.6252  1.2686  1.8272
 8118SOL    HW235817   3.556   1.142  11.479  0.9595  0.0305 -0.4216
 8119SOL     OW35818   0.212   2.125   7.759  0.3653  0.1427 -0.0590
 8119SOL    HW135819   0.141   2.161   7.811  1.1404 -1.6309  2.2560
 8119SOL    HW235820   0.278   2.191   7.779 -0.8445  1.0904  0.7357
 8120SOL     OW35821   1.392   0.000  10.368 -0.0510 -0.0423 -0.2768
 8120SOL    HW135822   1.309   0.048  10.368  0.9736  1.7497  0.2762
 8120SOL    HW235823   1.437   0.030  10.289 -0.8555 -0.2542 -0.8076
 8121SOL     OW35824   1.875   3.668   4.096  0.0849 -0.9016  0.3051
 8121SOL    HW135825   1.950   3.657   4.155  1.3608  1.5935 -0.8504
 8121SOL    HW235826   1.875   3.763   4.087 -0.9723 -0.7278  2.1163
 8122SOL     OW35827   0.526   0.753   4.934 -0.1139  0.5182 -0.7927
 8122SOL    HW135828   0.545   0.713   5.019 -0.3862  1.3435 -0.3437
 8122SOL    HW235829   0.569   0.838   4.943 -2.7724  1.5645  2.0449
 8123SOL     OW35830   0.883   4.652   9.374  0.5678 -0.0773 -0.0432
 8123SOL    HW135831   0.853   4.578   9.321 -1.8451  0.3584  0.6888
 8123SOL    HW235832   0.844   4.637   9.460  0.7591 -2.3794 -0.3572
 8124SOL     OW35833   0.673   4.098  12.617  0.0451  0.0112  0.0600
 8124SOL    HW135834   0.732   4.150  12.563 -0.9840  1.1090  0.0022
 8124SOL    HW235835   0.706   4.112  12.706 -2.5002 -3.0620  1.5252
 8125SOL     OW35836   1.228   1.244  15.888 -0.5369  0.2330  0.0032
 8125SOL    HW135837   1.157   1.240  15.952 -0.8497  0.0934 -0.3535
 8125SOL    HW235838   1.288   1.292  15.945  0.6379 -1.5681  0.2949
 8126SOL     OW35839   1.577   1.547  16.857 -0.4056  0.8606  0.0354
 8126SOL    HW135840   1.664   1.577  16.885  0.6636 -1.0445 -1.2811
 8126SOL    HW235841   1.524   1.584  16.928  1.5910  0.2510  1.8571
 8127SOL     OW35842   0.339   1.033  16.757  0.5779 -0.5805 -0.0743
 8127SOL    HW135843   0.420   1.073  16.728  1.7087 -3.1197 -0.4438
 8127SOL    HW235844   0.279   1.087  16.706  1.3850 -0.9557 -1.4234
 8128SOL     OW35845   0.135   2.650  17.060  0.1281  0.1153 -0.6265
 8128SOL    HW135846   0.088   2.568  17.044 -0.6440  1.0122 -2.9713
 8128SOL    HW235847   0.059   2.702  17.086  1.1846  1.5277 -0.3781
 8129SOL     OW35848   3.111   1.462  14.521 -0.5398 -0.3635 -0.4392
 8129SOL    HW135849   3.078   1.380  14.557 -2.7023  1.3451  1.5030
 8129SOL    HW235850   3.045   1.519  14.562 -0.4467 -2.4173  2.5269
 8130SOL     OW35851   3.384   1.078  11.542  0.0132  0.4262  0.3550
 8130SOL    HW135852   3.371   1.004  11.602  1.3590  0.1545  0.3048
 8130SOL    HW235853   3.329   1.141  11.589  1.9382  1.0620  1.7635
 8131SOL     OW35854   3.761   4.218  11.311 -0.0898  0.3763 -0.3767
 8131SOL    HW135855   3.757   4.188  11.220 -3.5511 -0.3195  0.0158
 8131SOL    HW235856   3.782   4.138  11.359  1.2243  0.5389 -0.6749
 8132SOL     OW35857   3.782   1.006   9.597  0.4168  0.9233 -0.0420
 8132SOL    HW135858   3.740   0.937   9.648  2.1867 -1.2469 -1.5026
 8132SOL    HW235859   3.834   0.963   9.529  0.4444  1.1721 -0.1781
 8133SOL     OW35860   2.625   4.148   4.156 -0.0167  0.2973  0.2476
 8133SOL    HW135861   2.690   4.090   4.116 -0.9372 -2.3027  2.5772
 8133SOL    HW235862   2.615   4.213   4.086  3.4813  1.5934  0.9410
 8134SOL     OW35863   1.378   1.839   4.500 -0.4072 -0.0061  0.3664
 8134SOL    HW135864   1.373   1.873   4.411  0.6524  0.9379  0.6761
 8134SOL    HW235865   1.336   1.907   4.553 -0.3726 -0.6001  1.1735
 8135SOL     OW35866   3.843   3.744   2.760 -0.8586  0.2866  0.2280
 8135SOL    HW135867   3.813   3.829   2.791  0.5300  0.7822  0.2292
 8135SOL    HW235868   3.782   3.713   2.693 -1.0491  0.2269  0.4331
 8136SOL     OW35869   4.205   1.595   3.599 -0.3422  0.9047 -0.3621
 8136SOL    HW135870   4.176   1.666   3.542 -1.3177 -0.9257 -2.1712
 8136SOL    HW235871   4.210   1.536   3.523  1.0170  1.2022 -0.4863
 8137SOL     OW35872   3.131   1.197   8.416 -0.1321  0.1567  0.2817
 8137SOL    HW135873   3.192   1.251   8.465 -1.0642  1.6955 -0.2738
 8137SOL    HW235874   3.084   1.152   8.486 -0.5764  0.2073  0.0158
 8138SOL     OW35875   2.559   0.689   6.374  0.0449  0.7220 -0.1153
 8138SOL    HW135876   2.534   0.778   6.398  0.2683  1.3026 -2.0803
 8138SOL    HW235877   2.505   0.677   6.296 -2.5376  3.1138  1.3095
 8139SOL     OW35878   4.530   1.710   6.027  0.3659 -0.3876  0.1040
 8139SOL    HW135879   4.610   1.678   6.068 -0.0696 -0.7988  0.6172
 8139SOL    HW235880   4.508   1.631   5.977 -0.9325 -0.3973  0.6806
 8140SOL     OW35881   0.565   0.873   7.289 -0.4607 -0.5983 -0.3271
 8140SOL    HW135882   0.530   0.785   7.273 -1.7597 -0.3554  1.1275
 8140SOL    HW235883   0.640   0.862   7.231 -0.4377 -2.3127  0.0195
 8141SOL     OW35884   3.255   4.405   1.308 -0.2987  0.2938 -0.1995
 8141SOL    HW135885   3.318   4.463   1.266  0.2129 -0.0054  0.1508
 8141SOL    HW235886   3.178   4.461   1.299 -0.1307  0.8690  1.9959
 8142SOL     OW35887   0.891   3.975   2.575 -0.3935 -0.0075 -0.1545
 8142SOL    HW135888   0.982   3.973   2.548 -0.1845 -2.1359  0.7126
 8142SOL    HW235889   0.854   4.050   2.527  0.7174 -1.8572 -3.8586
 8143SOL     OW35890   2.938   3.919   1.374 -0.9536  0.2211 -0.1144
 8143SOL    HW135891   2.959   4.007   1.404 -1.0278 -0.6121  2.3626
 8143SOL    HW235892   2.910   3.935   1.284 -0.3800  1.1906 -0.1170
 8144SOL     OW35893   3.456   1.842  11.268  0.1372  0.8235 -0.7519
 8144SOL    HW135894   3.401   1.919  11.259  1.2285  1.8352  1.2372
 8144SOL    HW235895   3.443   1.837  11.363 -2.0438  3.9252 -0.9272
 8145SOL     OW35896   2.978   1.749  15.206  0.3413 -0.2094  0.1622
 8145SOL    HW135897   3.021   1.742  15.121 -1.2396 -1.2912 -0.5360
 8145SOL    HW235898   3.048   1.777  15.265  1.2715 -0.7751 -0.6740
 8146SOL     OW35899   3.637   0.673  17.367 -0.4811 -0.0890 -0.0736
 8146SOL    HW135900   3.594   0.661  17.452  0.0003  1.3341  0.3721
 8146SOL    HW235901   3.608   0.600  17.314  0.3684 -0.5336  0.0662
 8147SOL     OW35902   3.814   3.404   3.623 -0.0208  0.3941 -0.0364
 8147SOL    HW135903   3.803   3.331   3.685 -2.5020 -1.3041 -2.4942
 8147SOL    HW235904   3.910   3.397   3.620  0.0747  0.9545  1.3498
 8148SOL     OW35905   2.878   1.129   4.275 -0.0657  0.3245  0.7324
 8148SOL    HW135906   2.919   1.216   4.279  1.6043 -0.4599  0.4471
 8148SOL    HW235907   2.829   1.134   4.193 -0.4800 -0.6438  0.9238
 8149SOL     OW35908   1.834   0.773   3.426 -0.3104 -0.3603  0.6347
 8149SOL    HW135909   1.929   0.786   3.435 -0.1410 -0.6512 -0.7080
 8149SOL    HW235910   1.806   0.852   3.379  2.6231 -0.2122 -0.8929
 8150SOL     OW35911   3.658   0.659  15.248 -0.4053  0.3896 -0.0384
 8150SOL    HW135912   3.635   0.641  15.339 -1.4724  0.8855 -0.2145
 8150SOL    HW235913   3.580   0.667  15.193  1.6013  4.0389 -2.3731
 8151SOL     OW35914   3.088   0.823   5.603  0.4092 -0.5092  0.7631
 8151SOL    HW135915   3.172   0.829   5.557  0.1822 -2.0718  0.1541
 8151SOL    HW235916   3.107   0.879   5.678 -1.9298  1.7808 -0.3533
 8152SOL     OW35917   0.426   0.213  14.955 -0.4604  0.1577  0.0218
 8152SOL    HW135918   0.358   0.190  14.891  1.8939 -2.1412 -1.6307
 8152SOL    HW235919   0.488   0.254  14.895 -0.9528 -0.6381 -1.0413
 8153SOL     OW35920   3.907   3.798   4.335  0.5125 -0.3192 -0.3586
 8153SOL    HW135921   3.889   3.720   4.283  2.4111  0.3910 -2.0731
 8153SOL    HW235922   4.003   3.795   4.341  0.5310  0.7478 -0.0264
 8154SOL     OW35923   2.610   4.404   8.324 -0.8408  0.9216  0.2915
 8154SOL    HW135924   2.521   4.405   8.286 -2.3132  0.4623  3.7620
 8154SOL    HW235925   2.660   4.392   8.244 -0.9703  1.3901  0.1350
 8155SOL     OW35926   3.594   4.492  15.751  0.6284 -0.4434  0.1199
 8155SOL    HW135927   3.546   4.544  15.687 -0.1070 -0.7877  0.3883
 8155SOL    HW235928   3.624   4.420  15.695  0.0827  1.0973 -2.1512
 8156SOL     OW35929   1.402   2.776   6.074  0.1830 -0.0741 -0.4430
 8156SOL    HW135930   1.314   2.748   6.097  0.7246 -2.6164 -1.4847
 8156SOL    HW235931   1.444   2.694   6.049  1.2280  0.3430 -0.0635
 8157SOL     OW35932   3.663   0.655   5.674  0.1718  0.5285 -0.4529
 8157SOL    HW135933   3.639   0.637   5.583  2.0920 -0.6747 -0.7208
 8157SOL    HW235934   3.731   0.592   5.698 -0.6249  0.7564  2.4742
 8158SOL     OW35935   2.923   0.119   4.010  0.4432  0.1221  0.0127
 8158SOL    HW135936   2.863   0.135   3.937 -1.1784  0.0971  1.3464
 8158SOL    HW235937   2.975   0.198   4.001 -0.9639  0.7769 -2.2982
 8159SOL     OW35938   1.955   1.839   2.258  0.4961 -0.4284 -0.9711
 8159SOL    HW135939   1.980   1.862   2.169 -0.2570 -0.2929 -1.1484
 8159SOL    HW235940   2.025   1.885   2.303 -0.4422 -0.1939  0.2484
 8160SOL     OW35941   1.262   2.486  11.183  0.8939 -0.3318  0.2197
 8160SOL    HW135942   1.196   2.463  11.248  1.5953 -0.9257  0.7263
 8160SOL    HW235943   1.251   2.421  11.114 -0.2656  0.5891 -0.4683
 8161SOL     OW35944   3.624   2.769   5.809 -0.7719  0.4763 -0.0600
 8161SOL    HW135945   3.699   2.751   5.752  0.9752  1.8234  1.7997
 8161SOL    HW235946   3.625   2.691   5.863 -2.3702 -0.4493 -1.4000
 8162SOL     OW35947   0.938   3.636  13.574 -0.8279 -0.5197 -0.1577
 8162SOL    HW135948   0.996   3.638  13.497 -0.0545  1.6925  0.4762
 8162SOL    HW235949   0.992   3.695  13.627 -0.8254  0.4683 -1.2565
 8163SOL     OW35950   3.691   0.927   3.743  0.6878 -0.4678 -0.2408
 8163SOL    HW135951   3.605   0.888   3.724  1.6763 -1.8775 -1.8371
 8163SOL    HW235952   3.669   1.018   3.758  1.6580 -0.6399  2.1897
 8164SOL     OW35953   0.298   0.460   0.566 -0.1778  0.3596  0.4478
 8164SOL    HW135954   0.287   0.407   0.486  1.2252  4.6011 -2.5593
 8164SOL    HW235955   0.310   0.385   0.624  0.2337  1.3104  1.5793
 8165SOL     OW35956   2.071   2.841   3.126 -0.6259  0.7121 -0.8211
 8165SOL    HW135957   2.143   2.780   3.106 -1.6934 -0.0719 -2.1912
 8165SOL    HW235958   2.122   2.919   3.150  0.5191 -0.6429  1.2096
 8166SOL     OW35959   0.285   0.873   2.746 -0.1782  0.3151 -0.2803
 8166SOL    HW135960   0.225   0.824   2.802 -1.1305 -2.1074 -3.4633
 8166SOL    HW235961   0.258   0.846   2.658  2.0907 -2.2486 -0.1981
 8167SOL     OW35962   0.387   0.772   3.899 -0.2288  0.4773  0.2374
 8167SOL    HW135963   0.446   0.763   3.974  0.3054  1.9043 -0.0110
 8167SOL    HW235964   0.404   0.686   3.861 -0.7152 -0.3290  1.8311
 8168SOL     OW35965   1.467   4.460   5.574  0.2902  0.4610 -0.0923
 8168SOL    HW135966   1.487   4.527   5.509  1.2093  0.8647  0.6090
 8168SOL    HW235967   1.523   4.387   5.549 -1.0883  0.1919 -2.3550
 8169SOL     OW35968   0.985   1.699  15.179  0.7521 -0.6619 -0.5033
 8169SOL    HW135969   1.046   1.752  15.129  0.5720 -0.4845 -0.5358
 8169SOL    HW235970   0.970   1.761  15.251  2.6472 -0.4100 -0.3353
 8170SOL     OW35971   1.691   2.990   2.256  0.4880 -0.2692 -0.3468
 8170SOL    HW135972   1.673   3.054   2.326  0.6697 -1.0073  0.3706
 8170SOL    HW235973   1.605   2.970   2.219 -0.0936 -0.3956  1.0503
 8171SOL     OW35974   0.108   3.939   4.136  0.3855 -0.5473 -0.3916
 8171SOL    HW135975   0.055   3.957   4.214  0.1624  0.7264 -0.8376
 8171SOL    HW235976   0.138   4.030   4.133 -2.1192  0.2003 -2.2977
 8172SOL     OW35977   3.927   3.430   1.370  0.2744 -0.1903  0.8612
 8172SOL    HW135978   3.996   3.489   1.399  1.9663 -0.6402 -2.3016
 8172SOL    HW235979   3.866   3.498   1.342 -0.0852 -0.6826  0.4440
 8173SOL     OW35980   2.580   3.636   9.769  0.7870 -0.0704 -0.4526
 8173SOL    HW135981   2.659   3.622   9.820  1.0192  2.4552 -0.1116
 8173SOL    HW235982   2.531   3.555   9.786  0.6077  0.0217 -0.5281
 8174SOL     OW35983   4.630   2.996  12.280  0.0892 -0.6265  0.0387
 8174SOL    HW135984   4.693   3.021  12.348 -2.1478  1.4483  1.3398
 8174SOL    HW235985   4.580   2.930  12.328 -1.6120  0.5320 -0.1377
 8175SOL     OW35986   2.988   4.533  14.036  0.5973  0.0740 -0.2627
 8175SOL    HW135987   3.041   4.524  13.957 -2.2337  0.6060 -2.1949
 8175SOL    HW235988   3.003   4.625  14.057  0.8367 -0.1183  0.4238
 8176SOL     OW35989   0.007   1.894   4.681  0.0008 -0.1472  0.5867
 8176SOL    HW135990   4.715   1.985   4.655  2.1601  0.5702  1.5615
 8176SOL    HW235991   4.658   1.868   4.734 -0.9605 -2.0300 -1.7340
 8177SOL     OW35992   0.259   0.582   5.217 -0.0272  0.2694 -0.4557
 8177SOL    HW135993   0.223   0.559   5.132 -2.0617  1.3571  0.0903
 8177SOL    HW235994   0.336   0.525   5.213  0.6137  1.1686 -1.0373
 8178SOL     OW35995   4.625   4.078   7.692  0.0606  0.1829 -0.4132
 8178SOL    HW135996   4.541   4.050   7.728 -0.4195  1.0104 -0.9057
 8178SOL    HW235997   4.665   4.128   7.763 -1.2868 -2.6534  2.3814
 8179SOL     OW35998   2.163   1.689  17.534 -0.6536  0.1504 -0.5082
 8179SOL    HW135999   2.121   1.636  17.467  1.0138  0.8962 -2.1430
 8179SOL    HW236000   2.090   1.726  17.583 -0.4326 -0.7918  0.5358
 8180SOL     OW36001   1.534   0.114   9.705  0.3415 -0.1767 -0.1341
 8180SOL    HW136002   1.516   0.038   9.650  1.8264 -1.5720  1.2962
 8180SOL    HW236003   1.550   0.183   9.642  0.2146  1.6640  1.8333
 8181SOL     OW36004   3.302   3.870   1.534 -1.0918  0.2794 -0.1779
 8181SOL    HW136005   3.329   3.936   1.598  0.5855 -0.6265  0.0648
 8181SOL    HW236006   3.263   3.809   1.596 -2.4069 -0.1820 -1.4718
 8182SOL     OW36007   3.268   2.761   1.112  0.7116  0.5499  0.7610
 8182SOL    HW136008   3.255   2.682   1.061 -0.9258 -0.1915  2.3260
 8182SOL    HW236009   3.301   2.723   1.194  2.6766  1.0440  0.2064
 8183SOL     OW36010   0.005   2.083   6.956  0.2465 -0.4318  0.3323
 8183SOL    HW136011   0.064   2.123   6.892  1.1378  1.8743  2.5896
 8183SOL    HW236012   0.066   2.061   7.026 -0.7287 -0.3089  1.2195
 8184SOL     OW36013   2.014   4.725   6.934 -0.1959 -0.0540 -0.2300
 8184SOL    HW136014   1.949   4.722   7.004  1.0634 -1.6043  0.8585
 8184SOL    HW236015   2.101   4.715   6.973 -1.3025 -2.4033  1.6159
 8185SOL     OW36016   1.386   3.979   3.908  0.5781  0.2775  0.0396
 8185SOL    HW136017   1.398   4.033   3.985  1.9702 -0.8451  0.6109
 8185SOL    HW236018   1.478   3.969   3.883  0.1479 -2.8447 -0.3000
 8186SOL     OW36019   0.499   0.449   5.163  0.8283  0.2548  0.2852
 8186SOL    HW136020   0.528   0.526   5.213  2.1874  1.4325 -2.3556
 8186SOL    HW236021   0.554   0.383   5.206  0.1898 -0.6977 -0.3643
 8187SOL     OW36022   2.992   0.719   6.905  0.2869 -0.2849 -0.2956
 8187SOL    HW136023   3.032   0.632   6.905  1.5159  0.2783 -0.0393
 8187SOL    HW236024   2.902   0.699   6.932 -0.4908  3.4263 -0.1491
 8188SOL     OW36025   0.060   0.203   3.619 -0.5348 -0.3952 -0.4396
 8188SOL    HW136026   0.074   0.283   3.669  1.5766  0.5517 -2.5289
 8188SOL    HW236027   0.005   0.150   3.677  0.6299 -0.8117  0.2870
 8189SOL     OW36028   0.339   1.968  13.982 -0.0843 -0.4172  0.2151
 8189SOL    HW136029   0.390   1.964  14.064 -0.2440  0.1972  0.3448
 8189SOL    HW236030   0.248   1.948  14.002 -0.9192  3.6403  0.4394
 8190SOL     OW36031   0.005   4.186  14.358  0.2713  0.2707 -0.6609
 8190SOL    HW136032   0.090   4.152  14.330 -0.6863 -0.1953 -3.0139
 8190SOL    HW236033   4.669   4.127  14.315 -0.4641 -0.4228  1.3125
 8191SOL     OW36034   1.346   2.802   3.197  0.2808 -0.1676  0.1650
 8191SOL    HW136035   1.328   2.745   3.271 -0.2351  0.4218  0.4926
 8191SOL    HW236036   1.408   2.746   3.151  0.0420  0.4654 -0.9432
 8192SOL     OW36037   4.632   2.111  14.537 -0.0760  0.1816 -0.0512
 8192SOL    HW136038   4.713   2.067  14.509 -0.4034 -2.1845  2.6964
 8192SOL    HW236039   4.566   2.044  14.521 -0.6136  0.7455 -0.1881
 8193SOL     OW36040   4.525   3.439   0.434 -0.2902 -0.1855 -1.2427
 8193SOL    HW136041   4.509   3.377   0.363 -2.5134 -1.7246  0.5960
 8193SOL    HW236042   4.588   3.502   0.398 -0.0642  0.3772  0.1304
 8194SOL     OW36043   2.711   4.558   3.176  0.3962  0.0699  0.2024
 8194SOL    HW136044   2.718   4.650   3.204 -0.9797  0.9624 -2.4228
 8194SOL    HW236045   2.628   4.556   3.129  0.3287  1.3047  0.2595
 8195SOL     OW36046   3.322   3.314   6.097  0.2122 -0.0920  0.3651
 8195SOL    HW136047   3.237   3.357   6.108  0.1044 -0.3621  0.5816
 8195SOL    HW236048   3.308   3.256   6.023  0.1726  1.9286 -1.2159
 8196SOL     OW36049   2.982   1.217   1.822 -1.1084  1.0083  0.6438
 8196SOL    HW136050   2.921   1.247   1.891 -1.3753 -0.1241  0.9011
 8196SOL    HW236051   2.913   1.189   1.762  0.3815 -0.7563 -0.2231
 8197SOL     OW36052   1.562   3.664   4.403  0.3593  0.5589 -0.4575
 8197SOL    HW136053   1.590   3.725   4.334  0.0165 -1.4990 -2.4230
 8197SOL    HW236054   1.509   3.607   4.347 -0.9971 -0.6682  2.1094
 8198SOL     OW36055   4.410   1.185   8.132 -0.0018 -0.4515  0.2228
 8198SOL    HW136056   4.330   1.237   8.142 -0.9406 -1.8794  0.1659
 8198SOL    HW236057   4.414   1.143   8.217  2.1677  0.8625  0.7666
 8199SOL     OW36058   2.708   2.478   8.708 -0.0096 -0.3851 -0.1540
 8199SOL    HW136059   2.659   2.560   8.712  1.5218  0.4523  1.4214
 8199SOL    HW236060   2.792   2.507   8.672  1.1021 -1.9806  1.1286
 8200SOL     OW36061   3.813   4.108   5.817  0.1196  0.0888  0.1875
 8200SOL    HW136062   3.813   4.034   5.756  0.7197  1.4105 -1.4269
 8200SOL    HW236063   3.719   4.110   5.832  0.0445  0.7571 -0.3612
 8201SOL     OW36064   1.084   3.940   4.115 -0.3295 -0.1747  0.2714
 8201SOL    HW136065   1.073   4.034   4.135  0.2231 -0.2996  1.1406
 8201SOL    HW236066   1.144   3.913   4.184  1.7270  0.7501 -1.1426
 8202SOL     OW36067   0.825   1.795   5.783 -0.1424  0.2673  0.7072
 8202SOL    HW136068   0.831   1.728   5.850  2.8337 -2.1623 -2.0136
 8202SOL    HW236069   0.840   1.874   5.834  2.1596  0.7582 -0.7192
 8203SOL     OW36070   2.619   2.619   6.467  0.2779 -0.2874 -0.2499
 8203SOL    HW136071   2.557   2.692   6.462 -1.7277 -1.8718  1.2383
 8203SOL    HW236072   2.691   2.649   6.412  1.0444  0.8786  1.3628
 8204SOL     OW36073   0.692   2.779   0.193 -0.0167 -0.5851 -0.0040
 8204SOL    HW136074   0.647   2.754   0.274 -0.5815  0.3602 -0.0211
 8204SOL    HW236075   0.658   2.712   0.133 -0.7544 -0.0792 -0.1553
 8205SOL     OW36076   0.195   2.791   3.917  0.0121  0.1903  0.5867
 8205SOL    HW136077   0.274   2.740   3.937  0.0386 -0.2523 -0.6659
 8205SOL    HW236078   0.177   2.835   4.000  1.9660  2.3827 -0.1567
 8206SOL     OW36079   0.023   3.803   3.903 -0.1366 -0.1905 -0.4377
 8206SOL    HW136080   0.068   3.719   3.905 -0.6014 -0.4614 -1.1972
 8206SOL    HW236081   0.053   3.843   3.984 -1.7755  1.9518 -0.8885
 8207SOL     OW36082   4.081   0.449   2.101 -0.0524 -0.4394  0.5443
 8207SOL    HW136083   4.073   0.362   2.061  0.5276 -0.3710  0.2753
 8207SOL    HW236084   4.073   0.429   2.194  0.1629 -1.1188  0.4182
 8208SOL     OW36085   2.775   1.134   3.983  0.2265 -0.1742 -0.3074
 8208SOL    HW136086   2.726   1.214   3.963 -0.5687 -0.0957  1.9898
 8208SOL    HW236087   2.707   1.075   4.013  0.5774  0.1889  1.1983
 8209SOL     OW36088   1.103   2.115   3.687  0.0672 -0.1761  0.0233
 8209SOL    HW136089   1.148   2.066   3.617 -0.6919  0.9174 -1.2322
 8209SOL    HW236090   1.019   2.124   3.642 -0.7825  1.2480  1.9153
 8210SOL     OW36091   4.511   0.980  11.043  0.4020  0.1753  0.0729
 8210SOL    HW136092   4.444   1.026  11.093 -0.0684  0.9698 -1.2913
 8210SOL    HW236093   4.542   1.052  10.989 -0.3127  0.8174  0.5289
 8211SOL     OW36094   0.216   4.719   5.838  0.6218  0.6581  0.2232
 8211SOL    HW136095   0.210   0.085   5.865  0.6268  0.3210  1.3815
 8211SOL    HW236096   0.304   4.697   5.869  0.3275 -1.1878 -0.2484
 8212SOL     OW36097   1.404   1.165   5.674 -0.1123  0.5210  0.0635
 8212SOL    HW136098   1.395   1.119   5.757 -0.1431 -0.1622 -0.3152
 8212SOL    HW236099   1.401   1.092   5.613  1.5969  1.0141 -0.6128
 8213SOL     OW36100   4.559   1.753  10.023 -0.0515  0.3183 -0.0302
 8213SOL    HW136101   4.542   1.680  10.083 -4.1203 -0.3867 -2.0146
 8213SOL    HW236102   4.585   1.817  10.089 -1.9669  1.9719 -0.8784
 8214SOL     OW36103   1.774   1.693  16.283  0.3303 -0.0608  0.2473
 8214SOL    HW136104   1.689   1.715  16.245  1.1376  0.0976 -1.4784
 8214SOL    HW236105   1.775   1.713  16.377  0.5783 -0.1347  0.2625
 8215SOL     OW36106   0.704   2.989   5.761 -0.0575  0.3104  0.2297
 8215SOL    HW136107   0.702   2.923   5.829 -5.1588  0.3186  0.0903
 8215SOL    HW236108   0.760   2.946   5.696  0.3344  1.0026  0.1059
 8216SOL     OW36109   0.711   2.620   9.257  0.3521  0.4530  0.5698
 8216SOL    HW136110   0.678   2.578   9.177  1.7060  1.6787 -0.6490
 8216SOL    HW236111   0.806   2.610   9.256  0.2492 -0.6186  5.0050
 8217SOL     OW36112   0.435   2.519   7.246 -0.2063  0.1171  0.0411
 8217SOL    HW136113   0.393   2.494   7.328  2.9370 -1.5095  1.1320
 8217SOL    HW236114   0.452   2.612   7.254  1.4913 -0.2679  0.8483
 8218SOL     OW36115   1.663   1.217   3.457 -0.5756  0.6596  0.3594
 8218SOL    HW136116   1.703   1.283   3.514  1.3389 -0.2480  0.0733
 8218SOL    HW236117   1.721   1.226   3.381 -1.3286 -2.3401 -0.5778
 8219SOL     OW36118   3.017   2.930   3.393 -0.0536 -0.4145  0.1436
 8219SOL    HW136119   3.090   2.971   3.347 -0.4826  0.0385 -0.1330
 8219SOL    HW236120   2.967   3.005   3.425 -2.1121 -1.7772  0.0912
 8220SOL     OW36121   1.231   0.252   5.205  0.1976 -0.2129  0.0194
 8220SOL    HW136122   1.187   0.186   5.152 -1.3201  0.6942  0.1561
 8220SOL    HW236123   1.162   0.312   5.233 -0.3015 -0.9782  0.4107
 8221SOL     OW36124   4.037   3.916   7.723 -0.2326  0.0952  0.0896
 8221SOL    HW136125   4.113   3.973   7.716 -0.5255  0.4469 -0.2504
 8221SOL    HW236126   4.030   3.895   7.816  0.7605  0.8033  0.3233
 8222SOL     OW36127   2.705   3.309   7.142 -0.2967  0.1157 -0.2212
 8222SOL    HW136128   2.734   3.263   7.221 -0.6326 -0.1411 -0.2458
 8222SOL    HW236129   2.758   3.387   7.156  0.2148 -0.6164  1.9658
 8223SOL     OW36130   4.612   2.009   1.226 -0.1453  0.4250  0.0512
 8223SOL    HW136131   4.700   1.974   1.219 -1.8917 -3.5986 -1.9448
 8223SOL    HW236132   4.632   2.102   1.232  1.6558  0.1219 -1.4782
 8224SOL     OW36133   3.548   4.469   2.885  0.9996 -0.7640 -0.3126
 8224SOL    HW136134   3.644   4.467   2.888  0.8944 -0.2223  3.0530
 8224SOL    HW236135   3.524   4.455   2.794  0.3514 -0.1447 -0.2357
 8225SOL     OW36136   3.237   2.627   6.821  0.2361 -0.1116 -0.0877
 8225SOL    HW136137   3.317   2.678   6.833 -0.3568  0.3762  1.7498
 8225SOL    HW236138   3.187   2.691   6.769  0.3908 -0.4650 -0.6713
 8226SOL     OW36139   3.136   1.620   9.308  0.2655  0.2356  0.3181
 8226SOL    HW136140   3.204   1.685   9.290  0.2675 -0.0508 -0.6896
 8226SOL    HW236141   3.191   1.542   9.307  1.0701  0.8063  0.0251
 8227SOL     OW36142   1.173   3.207   8.042  0.3487  0.1121 -0.4192
 8227SOL    HW136143   1.179   3.292   7.998 -0.4455  0.5568  0.3543
 8227SOL    HW236144   1.092   3.227   8.089  0.3497 -1.6212  0.3023
 8228SOL     OW36145   2.414   3.840  15.926  0.1742 -0.5935  0.0891
 8228SOL    HW136146   2.325   3.823  15.896  0.6640 -2.0020 -0.5286
 8228SOL    HW236147   2.461   3.759  15.910 -1.0606 -1.4728  0.8562
 8229SOL     OW36148   0.884   2.452   9.703  0.1180  0.1188  0.0176
 8229SOL    HW136149   0.908   2.425   9.792  0.8982 -1.5084 -0.6915
 8229SOL    HW236150   0.810   2.511   9.721  1.3281  1.7805 -0.4582
 8230SOL     OW36151   0.399   0.829   9.063 -0.5102  0.4622 -0.5812
 8230SOL    HW136152   0.412   0.736   9.043  0.0295 -0.0038  2.0263
 8230SOL    HW236153   0.490   0.852   9.081 -0.1226  0.6032 -2.6130
 8231SOL     OW36154   0.785   1.723   4.481  0.6211 -0.4637  0.0720
 8231SOL    HW136155   0.766   1.747   4.572 -0.5501  1.4178 -0.6676
 8231SOL    HW236156   0.696   1.713   4.448  0.1194 -0.4974  1.4411
 8232SOL     OW36157   3.990   0.514   0.456  0.0221  0.0002 -0.1986
 8232SOL    HW136158   4.011   0.606   0.442  0.6868 -0.2653 -0.9722
 8232SOL    HW236159   4.032   0.494   0.540 -0.4773  0.1113  0.0737
 8233SOL     OW36160   2.584   3.974   3.207  0.5407  0.3685 -0.7082
 8233SOL    HW136161   2.604   4.065   3.187  0.1486  0.4955 -0.5359
 8233SOL    HW236162   2.493   3.977   3.178 -0.6765  0.8301  3.0735
 8234SOL     OW36163   2.146   2.107  13.815 -0.3180  0.0388 -0.2170
 8234SOL    HW136164   2.177   2.191  13.781  0.2660  0.3842  1.1642
 8234SOL    HW236165   2.081   2.084  13.748 -0.5438  1.7802 -0.5926
 8235SOL     OW36166   3.100   3.302   8.706 -0.2975  0.6149 -0.4024
 8235SOL    HW136167   3.046   3.380   8.688 -0.2078  0.5278 -1.0496
 8235SOL    HW236168   3.094   3.254   8.623  1.7415 -0.2453 -0.0328
 8236SOL     OW36169   2.452   0.948   2.233 -0.4581  0.0078  0.1675
 8236SOL    HW136170   2.510   0.872   2.230  1.3428  1.4471 -1.3665
 8236SOL    HW236171   2.367   0.904   2.232 -1.2624  1.5573  0.6240
 8237SOL     OW36172   0.153   3.834   7.373 -0.1701 -0.0876  0.2643
 8237SOL    HW136173   0.179   3.784   7.296  1.1170 -0.3345  0.8598
 8237SOL    HW236174   0.164   3.922   7.337 -1.7925 -2.2198 -5.3177
 8238SOL     OW36175   2.099   4.243   2.783 -0.1791 -0.0794  0.0094
 8238SOL    HW136176   2.012   4.263   2.749 -0.3754 -0.5212  0.2478
 8238SOL    HW236177   2.119   4.322   2.834  0.7849  1.3047 -2.4877
 8239SOL     OW36178   0.303   1.068   5.567 -0.2173 -0.0958  0.2333
 8239SOL    HW136179   0.349   1.149   5.543  0.7980 -0.6306  0.3844
 8239SOL    HW236180   0.218   1.071   5.524 -0.3311 -0.1060  0.4533
 8240SOL     OW36181   0.254   1.147  12.552  0.1682 -0.0946 -0.0927
 8240SOL    HW136182   0.250   1.138  12.457 -0.3788  3.1832 -0.3723
 8240SOL    HW236183   0.266   1.054  12.570 -1.4642 -0.0146  1.3783
 8241SOL     OW36184   2.253   2.606   5.588  0.3841  0.4964 -0.7672
 8241SOL    HW136185   2.260   2.643   5.500 -0.1505  0.7250 -0.7087
 8241SOL    HW236186   2.268   2.513   5.571 -0.9394  0.0605  0.5024
 8242SOL     OW36187   3.864   0.737   8.382 -0.1219 -0.0514  0.4330
 8242SOL    HW136188   3.888   0.824   8.412 -2.5194  1.1065 -1.0189
 8242SOL    HW236189   3.949   0.693   8.373  0.2261  0.9275 -1.0408
 8243SOL     OW36190   0.803   1.632   5.568 -0.0687  0.5997  0.0435
 8243SOL    HW136191   0.717   1.645   5.608 -0.0778  1.8320 -0.3539
 8243SOL    HW236192   0.840   1.711   5.609 -0.4363  0.6213  0.3328
 8244SOL     OW36193   1.714   1.024   3.707  0.1156 -0.8793 -0.4577
 8244SOL    HW136194   1.736   1.117   3.701  1.1819 -0.9863  1.9847
 8244SOL    HW236195   1.698   1.005   3.799  0.2811  2.4121  0.2393
 8245SOL     OW36196   0.030   2.462   4.483 -0.0815  0.3758  0.2279
 8245SOL    HW136197   4.664   2.488   4.487  0.5522  2.1312  4.3611
 8245SOL    HW236198   0.066   2.513   4.556  1.5349  0.7604 -0.8618
 8246SOL     OW36199   2.373   4.109   3.706 -0.5221 -0.2937 -0.5166
 8246SOL    HW136200   2.339   4.030   3.663  0.4267  0.4075 -2.5414
 8246SOL    HW236201   2.450   4.123   3.651 -0.3469 -1.2446 -0.5146
 8247SOL     OW36202   2.975   1.690   0.964  0.5853 -0.0135 -0.2064
 8247SOL    HW136203   2.972   1.614   0.906  3.3517  1.5605 -2.4309
 8247SOL    HW236204   2.892   1.734   0.947 -0.0592 -1.2264 -0.2070
 8248SOL     OW36205   4.499   4.113   4.784 -0.2620 -0.1821 -0.1008
 8248SOL    HW136206   4.578   4.093   4.834 -0.4080 -0.3175  0.0763
 8248SOL    HW236207   4.460   4.026   4.776  0.9287 -0.7575  0.3378
 8249SOL     OW36208   1.245   4.324  14.846 -0.3472  0.3779  0.9107
 8249SOL    HW136209   1.155   4.294  14.836 -0.1297 -0.5588  1.7595
 8249SOL    HW236210   1.272   4.320  14.754  0.6767  1.3739  1.1666
 8250SOL     OW36211   3.212   2.862   4.840 -0.0112 -0.1392  0.1070
 8250SOL    HW136212   3.185   2.931   4.900  2.9752  0.4909  0.7460
 8250SOL    HW236213   3.147   2.793   4.852 -1.4096  1.3462  1.0040
 8251SOL     OW36214   0.132   1.342   2.015  0.2020 -0.3100 -0.0271
 8251SOL    HW136215   0.153   1.317   2.105  0.6342 -1.2210 -0.3842
 8251SOL    HW236216   0.214   1.334   1.965 -1.4907  0.4349 -2.8896
 8252SOL     OW36217   4.090   3.919   6.939  0.0573  0.3912 -0.5195
 8252SOL    HW136218   4.081   3.989   7.004  1.3210  0.0203  0.0639
 8252SOL    HW236219   4.008   3.931   6.893 -0.5596  0.1185  0.5087
 8253SOL     OW36220   3.322   2.064   2.387  0.8707 -0.6746  0.4043
 8253SOL    HW136221   3.330   2.095   2.297 -0.4693  2.9209  1.5173
 8253SOL    HW236222   3.228   2.049   2.397  0.5763  0.7806 -0.1992
 8254SOL     OW36223   2.332   1.128   6.070 -0.1143  0.4844 -0.1402
 8254SOL    HW136224   2.402   1.152   6.131 -0.5394 -0.0336  0.5487
 8254SOL    HW236225   2.354   1.187   5.998  1.7370  0.3336  0.3109
 8255SOL     OW36226   1.416   0.591   0.865  0.1021 -0.0065  0.3271
 8255SOL    HW136227   1.422   0.504   0.905  0.9409 -0.9075 -1.7496
 8255SOL    HW236228   1.396   0.643   0.943  0.2091 -0.6256  0.7675
 8256SOL     OW36229   2.014   1.540   3.012 -0.4570 -0.0330 -0.4748
 8256SOL    HW136230   1.943   1.476   3.013 -0.4928  0.0173  0.2142
 8256SOL    HW236231   1.997   1.587   2.931  1.8516 -2.1109 -2.1817
 8257SOL     OW36232   4.562   2.120  14.114 -0.4110 -0.0924 -0.6219
 8257SOL    HW136233   4.502   2.187  14.145 -0.0081 -0.5597  1.1395
 8257SOL    HW236234   4.510   2.042  14.132 -1.2754  0.1919 -1.8373
 8258SOL     OW36235   0.281   4.287   6.665 -0.3955 -0.0623  0.0170
 8258SOL    HW136236   0.279   4.376   6.630 -0.5708 -0.0541  0.0469
 8258SOL    HW236237   0.327   4.231   6.603  1.2544  0.1796  1.0231
 8259SOL     OW36238   0.948   0.609  11.709  0.0230 -0.5264  0.0409
 8259SOL    HW136239   1.041   0.615  11.686 -0.3984  2.0056 -0.9835
 8259SOL    HW236240   0.931   0.519  11.682  1.0190 -0.8377  0.4514
 8260SOL     OW36241   1.115   3.946  14.631  0.1251 -0.4456 -0.0553
 8260SOL    HW136242   1.148   3.861  14.603 -1.6933 -0.9018 -0.8128
 8260SOL    HW236243   1.143   3.951  14.722 -1.6993  0.3799  0.4636
 8261SOL     OW36244   0.230   4.685   6.679  0.4658 -0.2843 -0.3845
 8261SOL    HW136245   0.264   4.637   6.604  1.8916  0.7580 -0.4125
 8261SOL    HW236246   0.182   4.620   6.729  0.3431  0.7049  0.7765
 8262SOL     OW36247   4.159   4.708   6.289 -0.2247 -0.4872  1.0671
 8262SOL    HW136248   4.165   4.725   6.195  0.6996  0.6173  1.3285
 8262SOL    HW236249   4.066   4.686   6.288 -0.1319 -0.8137 -0.0099
 8263SOL     OW36250   1.175   2.635   9.543  0.0283  0.1338 -0.1957
 8263SOL    HW136251   1.175   2.643   9.639  1.5578 -0.7702 -0.1284
 8263SOL    HW236252   1.102   2.576   9.528  0.8544 -1.4209  1.8385
 8264SOL     OW36253   1.953   1.907  10.257  0.1421 -0.0243 -1.2392
 8264SOL    HW136254   2.044   1.924  10.231  1.2107 -0.6108  2.0703
 8264SOL    HW236255   1.969   1.891  10.350 -2.3782  2.0694 -0.4457
 8265SOL     OW36256   0.674   1.071  16.107  0.2549  0.6730  0.2573
 8265SOL    HW136257   0.649   0.992  16.154  1.3076 -0.5917 -1.3069
 8265SOL    HW236258   0.645   1.044  16.020 -2.0313 -1.6668  1.7500
 8266SOL     OW36259   0.625   4.668   0.754  0.6375 -0.4230  0.0048
 8266SOL    HW136260   0.533   4.643   0.759  0.8907 -0.9151  2.2604
 8266SOL    HW236261   0.662   4.585   0.722 -1.9071 -2.8099  3.3216
 8267SOL     OW36262   0.262   0.893   4.525  0.3082 -0.7033  0.0797
 8267SOL    HW136263   0.254   0.903   4.620  1.9922  0.0145  0.1375
 8267SOL    HW236264   0.343   0.843   4.519  1.5837  1.5145 -0.9490
 8268SOL     OW36265   4.362   1.428   2.459 -0.4505 -0.0088 -0.1844
 8268SOL    HW136266   4.310   1.507   2.449  2.0578  1.6075 -0.4862
 8268SOL    HW236267   4.297   1.359   2.444 -0.2351 -0.1782 -0.3505
 8269SOL     OW36268   3.972   0.983   8.871  0.2130  0.0098  0.1689
 8269SOL    HW136269   4.067   0.993   8.864  0.0909  0.8683 -0.2530
 8269SOL    HW236270   3.962   0.962   8.964 -2.4287  0.7948  0.0745
 8270SOL     OW36271   3.608   3.644   1.066 -0.1684 -0.0427 -0.3544
 8270SOL    HW136272   3.542   3.582   1.094 -0.5573  0.0908 -0.9762
 8270SOL    HW236273   3.581   3.664   0.976 -1.5174  0.5216  0.1750
 8271SOL     OW36274   1.157   4.463   6.649 -0.0892  0.2407 -0.9258
 8271SOL    HW136275   1.200   4.389   6.692  1.4133  1.2926 -0.6584
 8271SOL    HW236276   1.082   4.488   6.704  0.6204  0.3346 -0.0136
 8272SOL     OW36277   3.815   1.043  10.107  0.1972 -0.0918 -0.1067
 8272SOL    HW136278   3.792   1.028  10.199  0.3670  0.6761  0.0598
 8272SOL    HW236279   3.733   1.091  10.094  1.6075  1.9605 -1.2591
 8273SOL     OW36280   0.541   0.615   8.941  0.6631  0.4250 -0.6372
 8273SOL    HW136281   0.636   0.619   8.949  0.5944 -0.4005  0.7226
 8273SOL    HW236282   0.527   0.522   8.928  1.9263  0.2585 -0.8367
 8274SOL     OW36283   3.840   2.813   9.337 -0.2917 -0.8264 -0.3447
 8274SOL    HW136284   3.769   2.874   9.316 -1.1552 -1.8619 -0.4588
 8274SOL    HW236285   3.900   2.845   9.404 -2.7902  1.5513  0.7614
 8275SOL     OW36286   3.654   2.350   2.523  0.2207 -0.0467 -0.0605
 8275SOL    HW136287   3.671   2.263   2.559 -0.1732 -0.5851 -1.1794
 8275SOL    HW236288   3.639   2.408   2.598  0.7159  0.9793 -0.7430
 8276SOL     OW36289   4.184   3.585   8.304  0.3482 -0.3500  0.2970
 8276SOL    HW136290   4.200   3.526   8.377  0.0159 -0.5973  0.1680
 8276SOL    HW236291   4.126   3.530   8.251 -0.0416  0.0244  0.3331
 8277SOL     OW36292   2.930   0.013   7.426 -0.1570  0.0961  0.2611
 8277SOL    HW136293   2.858   0.015   7.364 -1.8478  1.7099  2.2857
 8277SOL    HW236294   2.905   0.076   7.493  2.2717  0.8851  0.4312
 8278SOL     OW36295   2.472   0.447   8.252 -0.2950  0.6171 -0.0149
 8278SOL    HW136296   2.565   0.432   8.267  0.2739  3.2932 -0.8781
 8278SOL    HW236297   2.483   0.516   8.187 -0.6666  0.8859  0.2055
 8279SOL     OW36298   0.958   3.621   8.361  1.1264 -0.7531  0.1008
 8279SOL    HW136299   0.900   3.584   8.427 -1.9990  0.0634 -2.1965
 8279SOL    HW236300   0.924   3.596   8.275  3.0956  1.2758 -1.2759
 8280SOL     OW36301   2.908   3.106   8.589  0.1060 -0.0880  0.7779
 8280SOL    HW136302   2.917   3.016   8.621  0.6343 -0.2636  0.1325
 8280SOL    HW236303   2.894   3.143   8.677  0.0598 -0.1982  0.8174
 8281SOL     OW36304   4.162   1.115   6.809 -0.3306 -0.0427  0.0350
 8281SOL    HW136305   4.154   1.210   6.817  1.1120  0.1432 -0.8357
 8281SOL    HW236306   4.255   1.109   6.787  0.1082 -1.7569  2.3484
 8282SOL     OW36307   4.385   0.490   3.592 -0.1588  0.1686 -0.0492
 8282SOL    HW136308   4.468   0.538   3.601  0.0359 -0.4811  1.6339
 8282SOL    HW236309   4.396   0.396   3.606  1.1271  0.3286  0.0291
 8283SOL     OW36310   4.028   3.469   8.081  0.7806 -0.3951  0.1974
 8283SOL    HW136311   3.986   3.508   8.005 -1.4009 -3.8747 -0.3582
 8283SOL    HW236312   4.114   3.442   8.047  0.9989 -1.7394  1.7723
 8284SOL     OW36313   3.588   1.678   8.821 -0.7812  0.4643 -0.0333
 8284SOL    HW136314   3.523   1.672   8.890  2.2662  0.0652  2.8145
 8284SOL    HW236315   3.663   1.720   8.863  0.6973 -2.1282 -0.0653
 8285SOL     OW36316   2.480   0.582   7.074 -0.1076  0.3612 -0.0027
 8285SOL    HW136317   2.553   0.617   7.023 -1.0237  0.5151 -1.2122
 8285SOL    HW236318   2.465   0.649   7.141 -0.7965  0.4034 -0.1977
 8286SOL     OW36319   4.706   0.840  10.939  0.1639 -0.7260 -0.3427
 8286SOL    HW136320   4.620   0.869  10.971  0.1710 -0.2138 -0.7713
 8286SOL    HW236321   0.038   0.850  11.015 -1.6590 -0.1786  0.9765
 8287SOL     OW36322   1.322   0.518   8.267  0.5916 -0.2120  0.0567
 8287SOL    HW136323   1.332   0.599   8.217 -1.8423 -0.8499 -1.4793
 8287SOL    HW236324   1.279   0.477   8.192 -2.3227  0.6532  1.2550
 8288SOL     OW36325   1.005   1.858   8.221  0.1991 -0.2654 -0.0454
 8288SOL    HW136326   1.085   1.819   8.258 -0.5022 -1.7954 -0.1515
 8288SOL    HW236327   0.964   1.873   8.306  0.6311  1.0358 -0.0609
 8289SOL     OW36328   2.701   0.223  16.592  0.5593  0.2185  0.4853
 8289SOL    HW136329   2.707   0.290  16.524 -0.9913  0.3781  0.4967
 8289SOL    HW236330   2.778   0.168  16.585  0.2568  0.0536 -1.4773
 8290SOL     OW36331   2.015   4.509   9.677  0.0197 -0.0299 -0.1397
 8290SOL    HW136332   2.071   4.493   9.753  2.5663  3.2912 -1.2758
 8290SOL    HW236333   2.080   4.526   9.609 -1.5382 -0.1188 -1.6363
 8291SOL     OW36334   4.718   0.562   3.316  0.0239 -0.1905 -0.1906
 8291SOL    HW136335   4.676   0.636   3.359  1.4976 -0.3939  1.5833
 8291SOL    HW236336   4.639   0.539   3.267  0.0752  1.1992 -0.9116
 8292SOL     OW36337   3.292   1.925   7.902  0.4752 -0.0613 -0.2053
 8292SOL    HW136338   3.299   2.015   7.871  0.9607 -0.0807 -0.1490
 8292SOL    HW236339   3.322   1.931   7.993 -0.6115 -1.4152  0.2414
 8293SOL     OW36340   3.991   0.402   0.196 -0.0206  0.1660 -0.1684
 8293SOL    HW136341   3.979   0.445   0.281  1.0268 -1.9784  1.0252
 8293SOL    HW236342   3.943   0.320   0.209  0.8310 -0.6911 -2.4492
 8294SOL     OW36343   1.561   4.570   9.643  0.2571  0.1910 -0.7184
 8294SOL    HW136344   1.636   4.619   9.676  0.1343 -1.3711  1.8797
 8294SOL    HW236345   1.571   4.506   9.713  0.6755  1.9945  0.8839
 8295SOL     OW36346   4.101   3.214  13.089 -0.0549  0.6380  0.2267
 8295SOL    HW136347   4.016   3.234  13.050  0.1519 -0.1652 -0.6592
 8295SOL    HW236348   4.061   3.159  13.156 -0.1722  1.2806  0.6860
 8296SOL     OW36349   0.768   0.405   9.410  0.0667  0.0391  0.1655
 8296SOL    HW136350   0.711   0.470   9.450  0.1992  1.5327 -2.0474
 8296SOL    HW236351   0.826   0.463   9.361 -0.7378 -0.2769 -1.1588
 8297SOL     OW36352   4.273   0.376  17.425  0.2056 -0.2434  0.1224
 8297SOL    HW136353   4.241   0.351  17.339  0.3336 -0.1590  0.0502
 8297SOL    HW236354   4.272   0.293  17.473 -2.1029  1.1706  2.5417
 8298SOL     OW36355   1.076   2.066  12.243 -0.1579  0.1049  0.1300
 8298SOL    HW136356   0.986   2.099  12.248 -0.4500 -0.5635 -0.8613
 8298SOL    HW236357   1.087   2.065  12.148  0.0621  1.0036  0.1484
 8299SOL     OW36358   0.507   3.071   1.517  0.1541  0.4489 -0.5974
 8299SOL    HW136359   0.595   3.070   1.553  0.0989 -1.4328 -0.5094
 8299SOL    HW236360   0.512   2.993   1.462  1.1921  0.1974 -0.1479
 8300SOL     OW36361   0.038   4.447  10.745 -0.2838 -0.5091 -0.3848
 8300SOL    HW136362   0.064   4.361  10.778  1.6616 -0.3334 -1.4019
 8300SOL    HW236363   0.125   4.487  10.743  0.0092 -1.2730 -3.4232
 8301SOL     OW36364   2.263   0.499   0.537 -0.4601  0.0395  0.1744
 8301SOL    HW136365   2.209   0.422   0.518  0.0483  0.1232 -1.6252
 8301SOL    HW236366   2.324   0.503   0.464 -0.1877  1.1225  0.4667
 8302SOL     OW36367   0.051   3.144   8.043  0.1830 -0.9129  0.1407
 8302SOL    HW136368   0.100   3.204   7.986 -1.6441  1.1701  0.8060
 8302SOL    HW236369   0.043   3.078   7.974 -0.5310 -0.6454 -0.0301
 8303SOL     OW36370   4.327   2.885   5.963 -0.1822  0.4030  0.4088
 8303SOL    HW136371   4.243   2.860   6.001 -0.1179 -1.8984 -0.9527
 8303SOL    HW236372   4.366   2.921   6.042 -3.2253 -0.2276  2.1949
 8304SOL     OW36373   3.394   3.163   2.057 -0.2463 -0.4877 -0.0060
 8304SOL    HW136374   3.345   3.205   1.986  0.8708 -1.0951 -1.1310
 8304SOL    HW236375   3.344   3.081   2.061 -0.8235 -0.2610 -2.4399
 8305SOL     OW36376   1.802   2.197   5.258  0.1159  0.3452  0.2826
 8305SOL    HW136377   1.797   2.162   5.169 -0.1248  0.5257  0.2239
 8305SOL    HW236378   1.722   2.157   5.293 -0.4185  2.4151  1.4612
 8306SOL     OW36379   1.289   2.695   7.783 -0.0456 -0.0088  0.2357
 8306SOL    HW136380   1.198   2.673   7.805 -0.1728 -1.0843 -1.4195
 8306SOL    HW236381   1.337   2.620   7.818 -0.0294  0.7126  1.7732
 8307SOL     OW36382   0.598   2.688  17.243  0.3210  0.2173  0.5538
 8307SOL    HW136383   0.605   2.699  17.148 -1.4167 -0.2649  0.3627
 8307SOL    HW236384   0.504   2.700  17.255  0.0326 -0.3890 -1.1174
 8308SOL     OW36385   1.229   0.009   4.616  0.1074 -0.4250  0.2711
 8308SOL    HW136386   1.166   0.024   4.546 -0.9013  1.6011  1.6203
 8308SOL    HW236387   1.179   0.033   4.694  1.1100 -2.1542  1.4676
 8309SOL     OW36388   3.326   0.428   6.050  0.1347  0.1068 -0.3247
 8309SOL    HW136389   3.285   0.482   6.118  0.0908  0.4650 -0.6354
 8309SOL    HW236390   3.310   0.493   5.981 -0.2240  0.7882  0.4003
 8310SOL     OW36391   2.938   1.068  16.028 -0.1706 -0.2472  0.1599
 8310SOL    HW136392   2.969   1.154  16.054  1.1246 -0.2781 -1.2685
 8310SOL    HW236393   2.870   1.088  15.964 -0.3888 -0.0987  0.4422
 8311SOL     OW36394   3.082   3.795   4.968 -0.1929 -0.4002 -0.0046
 8311SOL    HW136395   3.097   3.837   4.884  1.1184 -0.1590  0.3465
 8311SOL    HW236396   3.128   3.712   4.957  0.4359  0.0161 -0.5138
 8312SOL     OW36397   1.936   0.100   8.970 -0.0371 -0.4802  0.1750
 8312SOL    HW136398   1.931   0.110   9.065 -1.0539  0.2825  0.0406
 8312SOL    HW236399   2.015   0.152   8.958  1.6255 -2.5741  2.0490
 8313SOL     OW36400   4.547   1.266   6.482  0.0421 -0.0527 -0.7065
 8313SOL    HW136401   4.499   1.189   6.450 -2.0623  1.2456 -0.6743
 8313SOL    HW236402   4.486   1.336   6.504  0.2484 -0.3542  0.8293
 8314SOL     OW36403   2.569   4.177   5.924  0.5699  0.0403  0.0430
 8314SOL    HW136404   2.620   4.137   5.995  0.7873  3.3370  1.7212
 8314SOL    HW236405   2.481   4.170   5.961  0.3755 -1.3583 -0.6787
 8315SOL     OW36406   4.301   3.387   5.387 -0.8311 -0.0157  0.5502
 8315SOL    HW136407   4.390   3.391   5.422  0.6262  1.2117 -3.3508
 8315SOL    HW236408   4.316   3.364   5.295 -0.9230 -1.1190  0.8068
 8316SOL     OW36409   3.616   4.070  11.120  0.1234  0.5232 -0.8836
 8316SOL    HW136410   3.590   4.137  11.056 -1.1118  0.7132 -0.1778
 8316SOL    HW236411   3.529   4.045  11.150  0.6908 -1.5362 -0.9522
 8317SOL     OW36412   3.778   4.362  11.650 -0.3391  0.5655  0.6034
 8317SOL    HW136413   3.869   4.362  11.679 -0.0320 -3.5744 -0.3651
 8317SOL    HW236414   3.777   4.456  11.632 -0.3791 -0.3183 -3.9436
 8318SOL     OW36415   1.688   4.577   3.807 -0.1470  0.1030 -0.1658
 8318SOL    HW136416   1.655   4.622   3.729 -1.0177 -0.7958 -0.3285
 8318SOL    HW236417   1.750   4.642   3.837  0.2798 -0.6148  0.5126
 8319SOL     OW36418   4.252   3.322   6.129  0.0941  0.0476 -0.0155
 8319SOL    HW136419   4.186   3.278   6.076 -0.8534  1.5854 -0.1087
 8319SOL    HW236420   4.249   3.416   6.108  1.2143  0.2143  0.5278
 8320SOL     OW36421   0.609   1.654  16.439  0.1336  0.1029 -0.1364
 8320SOL    HW136422   0.677   1.652  16.371 -1.0944 -2.1501 -1.2989
 8320SOL    HW236423   0.619   1.563  16.467 -1.9710 -0.0521  0.0710
 8321SOL     OW36424   3.861   2.460   7.334 -0.1748  0.4176  0.0045
 8321SOL    HW136425   3.928   2.407   7.377  1.1472  1.2681 -0.9663
 8321SOL    HW236426   3.814   2.499   7.408 -2.9736 -0.7265 -1.1687
 8322SOL     OW36427   1.412   3.952   3.611  0.0704  0.2519  0.5235
 8322SOL    HW136428   1.372   3.897   3.678  2.7260 -2.5070 -0.1825
 8322SOL    HW236429   1.345   3.964   3.543  1.6065 -0.4247 -1.1136
 8323SOL     OW36430   1.777   0.133   7.691 -0.1497 -0.3338  0.1764
 8323SOL    HW136431   1.809   0.120   7.780  2.0559 -1.3070 -0.7550
 8323SOL    HW236432   1.792   0.047   7.652  2.5060 -0.0234  0.4897
 8324SOL     OW36433   3.668   0.429   4.353  0.4699 -0.0843 -0.6338
 8324SOL    HW136434   3.577   0.461   4.353  0.0234 -1.3724 -0.9164
 8324SOL    HW236435   3.687   0.421   4.260  0.4897  0.2521 -0.6605
 8325SOL     OW36436   0.169   1.762   7.071 -0.1019  0.1883 -0.3315
 8325SOL    HW136437   0.219   1.810   7.137 -0.2080 -0.0584 -0.0702
 8325SOL    HW236438   0.182   1.670   7.095  0.9456  0.4161 -0.0390
 8326SOL     OW36439   1.053   2.688   2.107  0.2534  0.6405 -0.0818
 8326SOL    HW136440   1.118   2.721   2.045 -0.0723 -0.7298 -1.1623
 8326SOL    HW236441   1.093   2.685   2.193 -0.4812  0.8349  0.2675
 8327SOL     OW36442   0.193   1.685  15.560  0.2526  0.4531  0.6909
 8327SOL    HW136443   0.157   1.597  15.573  2.4238 -0.8132 -1.9068
 8327SOL    HW236444   0.132   1.740  15.608 -0.1701 -0.0843  0.7658
 8328SOL     OW36445   3.776   2.338   6.618 -0.5577 -0.7298  0.6226
 8328SOL    HW136446   3.828   2.276   6.567  0.3281  0.7227 -0.2241
 8328SOL    HW236447   3.738   2.280   6.684 -1.2763  0.1859  1.0115
 8329SOL     OW36448   2.109   1.222   5.249  0.5657 -0.1087 -0.1377
 8329SOL    HW136449   2.020   1.244   5.277 -0.2375 -1.8818 -1.2411
 8329SOL    HW236450   2.110   1.126   5.250 -0.1162 -0.1215 -0.7447
 8330SOL     OW36451   1.600   2.688  10.112  0.6633  0.1178  0.8266
 8330SOL    HW136452   1.687   2.648  10.110  0.6777  0.2765 -1.0980
 8330SOL    HW236453   1.587   2.721  10.201  2.7022  1.4719  0.6252
 8331SOL     OW36454   4.528   0.524   3.131  0.0241 -0.1591  0.1680
 8331SOL    HW136455   4.524   0.446   3.076  1.2196  0.2704 -0.5244
 8331SOL    HW236456   4.441   0.558   3.109  0.5591 -1.0588 -3.3736
 8332SOL     OW36457   0.436   3.188   4.669  0.3287  0.5670 -0.8310
 8332SOL    HW136458   0.413   3.263   4.613 -1.5245  1.0899  0.6376
 8332SOL    HW236459   0.468   3.116   4.615 -3.2022 -0.2737 -1.8377
 8333SOL     OW36460   0.203   1.346   4.020  0.6487  0.3890  0.1980
 8333SOL    HW136461   0.167   1.420   3.970  0.2402  0.4337  0.5554
 8333SOL    HW236462   0.218   1.285   3.947  2.0651 -0.1121  0.9021
 8334SOL     OW36463   0.284   2.877   2.761 -0.1986 -0.4694  0.1933
 8334SOL    HW136464   0.261   2.970   2.758 -1.3489 -0.7658 -0.2363
 8334SOL    HW236465   0.230   2.845   2.689  2.5636 -0.3868 -1.9031
 8335SOL     OW36466   2.321   1.569   5.695  0.1704 -0.1907  0.0987
 8335SOL    HW136467   2.416   1.553   5.699  0.3973  1.2902  0.5053
 8335SOL    HW236468   2.281   1.489   5.659 -0.0750  1.1619 -2.6341
 8336SOL     OW36469   3.111   3.981   5.972 -0.2280 -0.0495  0.4432
 8336SOL    HW136470   3.060   4.052   6.011 -0.6311  0.2520 -0.6292
 8336SOL    HW236471   3.042   3.920   5.949  0.1645 -0.1389 -0.4899
 8337SOL     OW36472   0.728   0.435  17.207  0.1925  0.2324 -0.0692
 8337SOL    HW136473   0.713   0.527  17.231 -0.6585  0.4057 -1.2860
 8337SOL    HW236474   0.807   0.405  17.253 -0.2038 -0.2938  0.2665
 8338SOL     OW36475   4.100   2.928  13.602 -0.4630  0.2163  0.6379
 8338SOL    HW136476   4.090   2.833  13.592  2.5096  0.1947 -1.9573
 8338SOL    HW236477   4.051   2.942  13.683 -0.4004 -2.6958  1.1845
 8339SOL     OW36478   2.735   4.458  13.928  0.7118 -0.0521  0.7695
 8339SOL    HW136479   2.738   4.492  14.017  1.0693  1.1712  0.2797
 8339SOL    HW236480   2.790   4.527  13.893  0.8801 -0.5373  0.0850
 8340SOL     OW36481   3.769   0.974   4.971 -0.1736  0.3921 -0.7072
 8340SOL    HW136482   3.781   1.047   4.911  1.5661  0.6509 -0.0655
 8340SOL    HW236483   3.709   0.913   4.929  2.4929 -0.7798 -2.7716
 8341SOL     OW36484   3.042   3.194   8.944  0.0286  0.6269 -0.4201
 8341SOL    HW136485   3.078   3.240   8.868 -1.2978 -1.1129 -2.0989
 8341SOL    HW236486   2.954   3.182   8.907 -0.2834 -2.7768  1.4139
 8342SOL     OW36487   0.914   3.002  10.435  0.1369 -0.0471 -0.6614
 8342SOL    HW136488   0.864   2.954  10.501 -2.1202  0.7919 -1.7671
 8342SOL    HW236489   0.877   3.091  10.438  1.8126  0.7029 -2.0592
 8343SOL     OW36490   0.798   1.236  12.344  0.4462  0.0621  0.1150
 8343SOL    HW136491   0.742   1.166  12.378 -1.2876  1.7054  0.6077
 8343SOL    HW236492   0.817   1.288  12.422  0.6224  1.5205 -0.9003
 8344SOL     OW36493   3.691   0.576   7.368  0.2347 -0.5412  0.1241
 8344SOL    HW136494   3.673   0.620   7.451 -2.1734  1.8449 -1.6461
 8344SOL    HW236495   3.614   0.522   7.349 -0.6991  0.4472  1.0808
 8345SOL     OW36496   1.008   3.120   8.747 -0.0038 -0.3807  0.1633
 8345SOL    HW136497   0.941   3.106   8.814 -1.3719 -1.0190 -1.3286
 8345SOL    HW236498   0.994   3.212   8.726  0.0159 -0.8303 -1.8780
 8346SOL     OW36499   2.837   2.107   0.674 -0.3951 -0.5096 -0.6042
 8346SOL    HW136500   2.876   2.152   0.749 -0.1024 -3.3931  0.9779
 8346SOL    HW236501   2.869   2.018   0.687  2.9175  0.8366  0.5032
 8347SOL     OW36502   4.547   3.661   4.071 -0.1643  0.0643 -0.5283
 8347SOL    HW136503   4.630   3.661   4.023 -1.9382  0.8885 -3.5875
 8347SOL    HW236504   4.558   3.580   4.120 -1.9966 -0.0065 -0.2454
 8348SOL     OW36505   0.845   0.585   5.482 -0.2680 -0.2501  0.5045
 8348SOL    HW136506   0.919   0.525   5.470 -0.5952 -0.9691  2.1507
 8348SOL    HW236507   0.896   0.664   5.465 -1.7122  0.5703 -0.0110
 8349SOL     OW36508   3.909   4.624   2.762  0.3200 -0.6758 -0.2498
 8349SOL    HW136509   3.943   4.539   2.789  0.4644  0.4213  2.9805
 8349SOL    HW236510   3.842   4.601   2.697 -1.0265  1.5518  0.3377
 8350SOL     OW36511   4.482   2.749   5.073 -0.3501  0.3425 -0.1347
 8350SOL    HW136512   4.561   2.720   5.027 -1.8435 -1.2268 -1.6657
 8350SOL    HW236513   4.419   2.701   5.021 -0.3409  0.4051 -0.2028
 8351SOL     OW36514   0.770   0.091   4.654  0.3158  0.7971 -0.0694
 8351SOL    HW136515   0.712   0.030   4.608 -0.2595  1.4461 -0.1987
 8351SOL    HW236516   0.857   0.064   4.623  1.1557  1.6293  1.5703
 8352SOL     OW36517   1.831   0.222  12.238  0.2854 -0.2303  0.7604
 8352SOL    HW136518   1.871   0.139  12.213  0.1469  0.0194 -0.2752
 8352SOL    HW236519   1.875   0.236  12.322 -1.5773  0.0743  1.6761
 8353SOL     OW36520   1.095   0.502   7.262 -0.1524  0.0929 -0.3135
 8353SOL    HW136521   1.173   0.557   7.271 -1.1670  1.3317  1.0776
 8353SOL    HW236522   1.132   0.424   7.221  1.2416  1.1551 -1.0972
 8354SOL     OW36523   4.470   1.862  14.613 -0.1660  0.7647  0.1054
 8354SOL    HW136524   4.464   1.776  14.653 -0.3574  0.0622 -1.4446
 8354SOL    HW236525   4.419   1.905  14.682 -1.7193 -0.3324 -0.3428
 8355SOL     OW36526   0.628   1.620   3.992  0.4729  0.3600 -1.1021
 8355SOL    HW136527   0.724   1.621   3.999  0.2541  2.0827  1.6635
 8355SOL    HW236528   0.614   1.566   4.070  1.9545 -0.1758 -1.2158
 8356SOL     OW36529   0.354   3.599  10.010 -0.6691  0.1340 -0.4367
 8356SOL    HW136530   0.266   3.570   9.989 -1.5905  2.6941 -0.0778
 8356SOL    HW236531   0.340   3.681  10.056  1.4011  0.6362 -0.6650
 8357SOL     OW36532   1.986   3.386   2.784 -0.3084 -0.0679  0.1217
 8357SOL    HW136533   1.984   3.403   2.689  0.9183 -1.0724 -0.0822
 8357SOL    HW236534   1.894   3.365   2.802  0.1887 -1.2326  1.2587
 8358SOL     OW36535   0.240   3.798   2.678  0.1564 -0.3563  0.2051
 8358SOL    HW136536   0.311   3.827   2.620  1.5469 -3.4832  0.3671
 8358SOL    HW236537   0.182   3.874   2.675 -1.0275 -1.2214  1.2505
 8359SOL     OW36538   1.762   3.215   3.419 -0.1508  0.6256  0.5354
 8359SOL    HW136539   1.701   3.287   3.405  1.2991  1.7441 -0.1226
 8359SOL    HW236540   1.833   3.249   3.475 -0.9867  1.0555  1.3362
 8360SOL     OW36541   4.647   0.003  14.173  0.3114 -0.0374 -0.3252
 8360SOL    HW136542   4.591   0.060  14.226  1.8845  2.2359 -1.1024
 8360SOL    HW236543   4.678   0.069  14.111 -1.5373  0.2526 -0.9400
 8361SOL     OW36544   1.863   3.953   4.031 -0.0984 -0.0406  0.5310
 8361SOL    HW136545   1.927   3.995   3.974  2.0955 -2.4818  1.2030
 8361SOL    HW236546   1.854   4.015   4.104  1.1600 -1.2266  1.7044
 8362SOL     OW36547   0.525   0.269   7.510 -0.7875  0.4483  0.1020
 8362SOL    HW136548   0.576   0.239   7.585  0.1591  0.0670 -0.6973
 8362SOL    HW236549   0.583   0.329   7.464  0.5535 -0.4202  0.6704
 8363SOL     OW36550   3.910   4.492   3.232 -0.2339  0.1834 -0.1730
 8363SOL    HW136551   3.980   4.451   3.284  0.1978 -0.7498 -1.4946
 8363SOL    HW236552   3.831   4.464   3.278 -0.2029  1.7802  0.8633
 8364SOL     OW36553   0.873   2.492   6.697  0.2667  0.6703 -0.1293
 8364SOL    HW136554   0.848   2.544   6.773  1.4975  0.1026  0.6722
 8364SOL    HW236555   0.922   2.423   6.742 -0.3027  1.4448  1.6874
 8365SOL     OW36556   1.425   0.719  13.159 -0.5918 -0.2135  0.1857
 8365SOL    HW136557   1.426   0.795  13.218  0.5294  0.4319 -0.6665
 8365SOL    HW236558   1.352   0.743  13.102 -0.5825 -0.3247  0.1282
 8366SOL     OW36559   1.364   0.290   5.854 -0.2376 -0.2257 -0.3225
 8366SOL    HW136560   1.368   0.233   5.777  1.8258 -0.9187  0.2937
 8366SOL    HW236561   1.314   0.234   5.914 -0.7699  0.6344  0.0363
 8367SOL     OW36562   2.701   3.119   9.176 -0.0577 -0.6711 -0.2511
 8367SOL    HW136563   2.700   3.213   9.158 -0.5609 -0.8836 -1.3559
 8367SOL    HW236564   2.793   3.111   9.202 -0.2612 -0.9256  0.3847
 8368SOL     OW36565   4.274   0.722   9.899  0.3461 -0.2136 -0.0351
 8368SOL    HW136566   4.327   0.791   9.858 -0.7302  2.3370  2.8178
 8368SOL    HW236567   4.343   0.660   9.922  1.0831 -0.0142 -1.7241
 8369SOL     OW36568   2.241   2.494   3.526  0.4217 -0.1615 -0.3986
 8369SOL    HW136569   2.151   2.462   3.529  0.3213  0.1561  0.0185
 8369SOL    HW236570   2.278   2.490   3.614 -0.0907  1.1147 -0.1195
 8370SOL     OW36571   0.680   4.323   5.183  0.3050  0.2838  0.2025
 8370SOL    HW136572   0.710   4.266   5.113 -0.1519  1.0404 -0.6151
 8370SOL    HW236573   0.705   4.406   5.141  1.9003 -0.2681  0.0522
 8371SOL     OW36574   3.024   2.711   5.634 -0.4948  0.1304  0.0621
 8371SOL    HW136575   3.045   2.804   5.648 -0.6550  0.0630  0.7442
 8371SOL    HW236576   2.969   2.692   5.710  0.5104 -1.5084  0.3793
 8372SOL     OW36577   0.851   0.429   1.481 -0.1293  0.0180 -0.1713
 8372SOL    HW136578   0.872   0.350   1.530  1.8050  0.3808 -0.4465
 8372SOL    HW236579   0.838   0.387   1.396 -0.3456 -0.1787 -0.0393
 8373SOL     OW36580   3.097   1.038   6.159  0.2326  0.0832 -0.3260
 8373SOL    HW136581   3.119   1.065   6.070  0.1815 -1.4540 -0.8128
 8373SOL    HW236582   3.002   1.050   6.161  0.5348  2.0708  1.8965
 8374SOL     OW36583   3.746   3.595   8.788 -0.4611  0.1259 -0.4052
 8374SOL    HW136584   3.707   3.589   8.875 -0.6781  3.4236 -0.2744
 8374SOL    HW236585   3.672   3.554   8.741  1.1994 -2.3140 -0.8910
 8375SOL     OW36586   3.967   2.561   6.060 -0.1831 -0.5345 -0.1151
 8375SOL    HW136587   4.057   2.534   6.077  0.4861  2.7170  1.4066
 8375SOL    HW236588   3.957   2.571   5.965  2.2629  1.5433 -0.1422
 8376SOL     OW36589   2.278   2.121   8.683 -0.0178  0.1878 -0.3936
 8376SOL    HW136590   2.355   2.091   8.636 -1.5258  0.4905 -3.0609
 8376SOL    HW236591   2.283   2.061   8.757 -0.5924 -0.4344 -0.8521
 8377SOL     OW36592   1.495   3.941   6.558  0.1270 -0.0911 -0.8819
 8377SOL    HW136593   1.530   4.027   6.580  1.9955 -0.7824 -1.2139
 8377SOL    HW236594   1.533   3.882   6.623  0.4485  0.7554 -0.3099
 8378SOL     OW36595   2.397   3.922   2.450 -0.2631 -0.1903  0.3582
 8378SOL    HW136596   2.322   3.957   2.499 -1.1416  2.1549 -2.6950
 8378SOL    HW236597   2.360   3.895   2.366 -0.1642  0.7577  0.0075
 8379SOL     OW36598   3.876   1.497  16.281 -0.1921 -0.1666  0.9605
 8379SOL    HW136599   3.832   1.502  16.365  1.4551 -0.6472  1.8492
 8379SOL    HW236600   3.966   1.481  16.312 -0.7584 -1.4534  1.9473
 8380SOL     OW36601   4.126   2.314  12.421 -0.4261  0.1377 -0.1800
 8380SOL    HW136602   4.057   2.282  12.480 -0.1484  0.0616  0.1049
 8380SOL    HW236603   4.177   2.237  12.397 -0.2244  0.7227 -1.6119
 8381SOL     OW36604   0.340   0.254   0.739  0.0291 -0.5543 -1.0382
 8381SOL    HW136605   0.422   0.226   0.779  0.0686  1.7273  0.4426
 8381SOL    HW236606   0.297   0.269   0.823  1.7219  1.1859 -0.5009
 8382SOL     OW36607   2.273   4.725   5.963  0.1804 -0.1264  0.0280
 8382SOL    HW136608   2.227   0.012   6.046  0.3641  0.6749  0.0118
 8382SOL    HW236609   2.261   0.083   5.917 -2.0977 -0.2874  0.3294
 8383SOL     OW36610   1.912   1.489   9.588 -0.2117  0.1119 -0.3886
 8383SOL    HW136611   1.938   1.581   9.588  3.4523 -0.9353 -1.7682
 8383SOL    HW236612   1.846   1.500   9.657  0.2917 -1.4718  0.3510
 8384SOL     OW36613   4.034   3.290   3.412  0.2797  0.4153 -0.1422
 8384SOL    HW136614   4.021   3.221   3.348  1.5088 -1.7950  2.0035
 8384SOL    HW236615   4.114   3.251   3.446  0.5503  0.6740 -0.4867
 8385SOL     OW36616   0.561   0.958   0.717  0.2611 -0.2574 -0.4690
 8385SOL    HW136617   0.611   0.897   0.772 -1.3585  1.2574  2.7196
 8385SOL    HW236618   0.641   0.999   0.684  1.1711 -0.7080  1.1682
 8386SOL     OW36619   3.142   2.676   8.458 -0.0920 -0.4475  0.2205
 8386SOL    HW136620   3.166   2.679   8.365 -1.4337 -1.4919 -0.1606
 8386SOL    HW236621   3.232   2.663   8.487  0.1692 -0.8829 -0.7543
 8387SOL     OW36622   2.465   3.525   3.973 -0.7775  0.6761 -0.0174
 8387SOL    HW136623   2.557   3.552   3.974 -0.9971  1.4285 -0.5070
 8387SOL    HW236624   2.472   3.474   4.054  0.9384  0.9698  0.0296
 8388SOL     OW36625   1.947   3.406   1.057  0.0212  0.4084  0.2858
 8388SOL    HW136626   1.885   3.387   0.987  1.0763  1.1797 -0.8523
 8388SOL    HW236627   1.893   3.432   1.132  0.7165 -0.1472  0.9765
 8389SOL     OW36628   4.681   3.638   2.413  0.4929  0.3054 -0.7079
 8389SOL    HW136629   4.699   3.719   2.461  0.1180 -2.1645  3.5548
 8389SOL    HW236630   4.707   3.661   2.323 -0.1880  3.2353 -0.1515
 8390SOL     OW36631   3.038   0.529   5.775  0.5909 -0.2500 -0.2625
 8390SOL    HW136632   3.115   0.549   5.830  0.5600  0.8497 -0.6204
 8390SOL    HW236633   3.011   0.444   5.809 -0.6576  1.5808  3.2990
 8391SOL     OW36634   1.013   0.873  13.440  0.0353  0.7939 -0.2459
 8391SOL    HW136635   1.096   0.838  13.408  0.8720  1.4315  1.2343
 8391SOL    HW236636   0.958   0.799  13.414 -0.5546  0.3869  2.1485
 8392SOL     OW36637   3.660   3.922   4.192 -0.3642 -0.1601  0.1172
 8392SOL    HW136638   3.675   3.975   4.114 -0.0149  1.2039  1.1150
 8392SOL    HW236639   3.730   3.855   4.188  0.6675  1.0043 -1.4326
 8393SOL     OW36640   1.906   2.224  10.875 -0.0498  0.6237  0.5391
 8393SOL    HW136641   1.993   2.263  10.885  0.8036 -1.0122 -0.5133
 8393SOL    HW236642   1.916   2.160  10.805 -0.0647 -0.1618  1.2576
 8394SOL     OW36643   2.679   3.959   2.089 -0.6206  0.0665 -0.3161
 8394SOL    HW136644   2.631   4.007   2.157 -0.2856 -0.4202  0.2658
 8394SOL    HW236645   2.652   4.018   2.019 -1.1020  1.9069  1.4370
 8395SOL     OW36646   1.095   2.728  16.517 -0.3986  0.6852  0.2789
 8395SOL    HW136647   1.115   2.815  16.552 -1.8218  1.4903 -0.9219
 8395SOL    HW236648   1.053   2.680  16.588  0.7880 -0.9473 -0.1161
 8396SOL     OW36649   4.720   3.633  11.674  0.2114 -0.5594 -0.1146
 8396SOL    HW136650   0.049   3.555  11.681 -0.8708 -1.4637 -1.6741
 8396SOL    HW236651   0.034   3.672  11.597 -0.5677  1.0425  0.2843
 8397SOL     OW36652   2.006   4.345   9.315  0.4005  0.3513  0.0840
 8397SOL    HW136653   2.019   4.268   9.372 -1.2762  0.3504  0.4525
 8397SOL    HW236654   2.087   4.332   9.265  0.9293  1.1912  0.7287
 8398SOL     OW36655   0.759   3.268   2.312 -0.1229  0.6329 -0.5862
 8398SOL    HW136656   0.716   3.286   2.395 -2.0873 -0.3213 -1.4097
 8398SOL    HW236657   0.698   3.305   2.248 -0.1201 -1.2354 -1.6844
 8399SOL     OW36658   0.190   0.872   5.062 -0.4022  0.0950  0.3047
 8399SOL    HW136659   0.112   0.916   5.097 -0.9974 -0.9264  0.2484
 8399SOL    HW236660   0.188   0.782   5.093 -3.3538 -0.3513 -1.1446
 8400SOL     OW36661   3.468   0.205   8.868  0.1710 -0.1312  0.4513
 8400SOL    HW136662   3.447   0.115   8.841 -0.2031  0.0124  0.2688
 8400SOL    HW236663   3.539   0.185   8.930 -1.5410  0.3977  2.5818
 8401SOL     OW36664   3.063   2.695  15.735 -0.2201 -0.2019 -0.0469
 8401SOL    HW136665   3.094   2.681  15.825  2.3562  2.0856 -0.5740
 8401SOL    HW236666   2.975   2.658  15.735 -0.7870  1.1638 -1.8928
 8402SOL     OW36667   1.966   1.769   3.203  0.0494 -0.1374 -0.0930
 8402SOL    HW136668   2.000   1.705   3.140  4.0071  0.1778  1.7032
 8402SOL    HW236669   2.035   1.759   3.269 -0.5441  1.0492  0.6953
 8403SOL     OW36670   0.650   3.612   4.353  0.1909 -0.6600 -0.0489
 8403SOL    HW136671   0.569   3.569   4.327  1.5984 -4.0232  1.1365
 8403SOL    HW236672   0.610   3.686   4.397 -2.2166 -2.4797  0.8223
 8404SOL     OW36673   1.725   0.953   3.290 -0.5966  0.3315  0.2759
 8404SOL    HW136674   1.710   0.935   3.197 -0.8235  1.6309  0.0619
 8404SOL    HW236675   1.772   1.036   3.281 -0.1587 -0.0813 -1.2940
 8405SOL     OW36676   2.302   4.119   5.716 -0.5365  0.3321  0.1321
 8405SOL    HW136677   2.313   4.149   5.806 -0.0471 -2.2892  0.9397
 8405SOL    HW236678   2.214   4.081   5.717 -0.2959 -0.2247 -0.0017
 8406SOL     OW36679   3.688   0.254   1.172  0.8073 -0.6082 -0.4729
 8406SOL    HW136680   3.780   0.231   1.183  0.3890 -2.2394 -0.3196
 8406SOL    HW236681   3.678   0.266   1.078  1.0905 -0.1697 -0.4458
 8407SOL     OW36682   1.659   2.004   2.647  0.7793 -0.0500  0.2326
 8407SOL    HW136683   1.728   2.006   2.714  1.1844 -1.3239 -0.1589
 8407SOL    HW236684   1.685   2.082   2.598  0.8440 -1.1621 -1.4799
 8408SOL     OW36685   3.387   0.759  11.492 -0.6520  0.2060 -0.0217
 8408SOL    HW136686   3.343   0.674  11.489  0.9417 -0.6389  0.3026
 8408SOL    HW236687   3.344   0.796  11.570  0.2119 -0.9494  1.0040
 8409SOL     OW36688   3.108   0.733   6.466 -0.0240 -0.1638 -0.6638
 8409SOL    HW136689   3.023   0.777   6.471  1.3158  2.5084 -1.6482
 8409SOL    HW236690   3.116   0.687   6.550  1.4068 -1.1566 -1.3432
 8410SOL     OW36691   1.842   2.785   4.503 -0.3128 -0.0857  0.1446
 8410SOL    HW136692   1.798   2.783   4.418 -1.8710 -2.1363  0.9948
 8410SOL    HW236693   1.934   2.761   4.494 -0.6201 -0.5492 -1.7232
 8411SOL     OW36694   3.083   1.526   9.032 -0.1291  0.1485 -0.3575
 8411SOL    HW136695   3.131   1.548   9.112 -1.3570  1.0601  0.1317
 8411SOL    HW236696   3.155   1.515   8.970 -0.3145  1.1449 -0.7380
 8412SOL     OW36697   2.290   2.220   5.664 -0.1694  0.0444  0.5981
 8412SOL    HW136698   2.208   2.268   5.677 -1.6954 -1.7415 -2.5418
 8412SOL    HW236699   2.351   2.294   5.672 -0.4024  0.4151 -1.0940
 8413SOL     OW36700   0.223   1.655   8.199  0.1098 -0.0297  0.0529
 8413SOL    HW136701   0.220   1.602   8.279  1.6444  0.6924  0.6034
 8413SOL    HW236702   0.197   1.597   8.127  0.6556 -1.4427  0.9985
 8414SOL     OW36703   2.304   0.291   1.883  0.6517  0.0749 -0.2174
 8414SOL    HW136704   2.308   0.230   1.809  1.1190 -0.2934  0.1147
 8414SOL    HW236705   2.255   0.361   1.839  1.0376  0.1645 -0.5143
 8415SOL     OW36706   3.071   2.177   3.775  0.4835  0.1102 -0.7232
 8415SOL    HW136707   3.051   2.089   3.806  2.3630 -0.0539  0.0289
 8415SOL    HW236708   2.992   2.181   3.721 -0.2765  0.3474  0.3997
 8416SOL     OW36709   3.901   3.618  17.028 -0.3389  0.2381 -0.1127
 8416SOL    HW136710   3.942   3.532  17.040  0.3743  0.7853  1.4189
 8416SOL    HW236711   3.970   3.662  16.979 -0.4757  0.2523 -0.2901
 8417SOL     OW36712   0.365   2.777  11.666 -0.1540  0.3270 -0.3924
 8417SOL    HW136713   0.411   2.853  11.631 -1.4895  0.5005 -1.7225
 8417SOL    HW236714   0.349   2.810  11.754 -0.6854  0.4989 -0.5581
 8418SOL     OW36715   1.600   3.982   9.080 -0.6735  0.4213  0.6417
 8418SOL    HW136716   1.654   3.963   9.156 -0.4902  0.5302  0.5388
 8418SOL    HW236717   1.669   4.008   9.019 -0.1431 -2.0875  0.1671
 8419SOL     OW36718   3.742   0.916  10.362 -0.0991  0.2078 -0.1277
 8419SOL    HW136719   3.776   0.947  10.446  0.4979  1.1854 -0.7336
 8419SOL    HW236720   3.725   0.826  10.389 -1.0855  0.1692 -0.8509
 8420SOL     OW36721   2.857   4.382   3.011 -0.2862 -0.1122  0.0476
 8420SOL    HW136722   2.941   4.421   3.038 -0.3800  1.0661 -1.3487
 8420SOL    HW236723   2.803   4.447   3.055  1.3731  0.6821  0.9479
 8421SOL     OW36724   3.890   3.001   7.965  0.0125  0.5204  0.5173
 8421SOL    HW136725   3.932   2.956   8.038  1.1756 -0.8148 -0.9588
 8421SOL    HW236726   3.819   3.053   8.002 -1.8550 -1.6204 -0.0580
 8422SOL     OW36727   2.859   2.131  14.463  0.6099  0.1540 -0.1697
 8422SOL    HW136728   2.768   2.156  14.448  0.0414 -1.9944 -0.3355
 8422SOL    HW236729   2.888   2.211  14.505 -1.3188  0.6373  0.2242
 8423SOL     OW36730   1.343   3.832   5.456  0.2934  0.7912  0.4025
 8423SOL    HW136731   1.340   3.863   5.547  0.2404  2.9060 -0.3437
 8423SOL    HW236732   1.436   3.840   5.437  0.2523  2.5949  0.9368
 8424SOL     OW36733   1.966   2.776  10.704 -0.7313  0.2272  0.8725
 8424SOL    HW136734   1.881   2.772  10.749 -1.3578  0.1667 -0.3116
 8424SOL    HW236735   1.974   2.686  10.673  1.3387 -0.0661  2.2574
 8425SOL     OW36736   3.660   4.577   8.558  1.0526  0.5025  0.3444
 8425SOL    HW136737   3.692   4.662   8.589 -3.8500  1.5414  2.6377
 8425SOL    HW236738   3.712   4.568   8.479  0.2030  0.4236 -0.2106
 8426SOL     OW36739   0.481   3.479  14.649 -0.0870 -0.0746 -0.9546
 8426SOL    HW136740   0.510   3.388  14.659 -0.2811 -0.0097  0.1829
 8426SOL    HW236741   0.550   3.523  14.699  0.7446  1.3028 -3.3324
 8427SOL     OW36742   2.395   2.757   4.942  0.4698 -0.8782  1.4144
 8427SOL    HW136743   2.432   2.752   4.854 -2.3702  0.2612  0.1932
 8427SOL    HW236744   2.333   2.828   4.926  1.3118 -1.2209 -3.2587
 8428SOL     OW36745   2.428   2.807   3.888 -0.4249  0.4360  0.0062
 8428SOL    HW136746   2.386   2.868   3.828  0.6889  0.9905 -0.1989
 8428SOL    HW236747   2.518   2.817   3.858 -0.4176 -1.2520 -0.5408
 8429SOL     OW36748   1.396   4.036   8.077  0.1858  0.9569 -0.3957
 8429SOL    HW136749   1.391   4.131   8.067  0.6318  0.7304 -2.7382
 8429SOL    HW236750   1.348   4.013   7.998 -0.1733  0.7637 -0.1241
 8430SOL     OW36751   3.492   4.339   3.280 -0.2908 -0.5723  0.3453
 8430SOL    HW136752   3.543   4.270   3.238  0.6576  0.2068  0.2110
 8430SOL    HW236753   3.404   4.303   3.292 -0.7083 -0.0106 -1.0111
 8431SOL     OW36754   1.410   2.672   7.187 -0.0608  0.1174 -0.7648
 8431SOL    HW136755   1.482   2.718   7.230  0.9652 -0.6005 -1.7143
 8431SOL    HW236756   1.345   2.734   7.220  0.1074 -0.4290  0.5751
 8432SOL     OW36757   4.460   3.734  13.400 -0.2007  0.2977 -0.2337
 8432SOL    HW136758   4.514   3.716  13.477  1.3148 -1.7614 -1.7799
 8432SOL    HW236759   4.411   3.654  13.384 -1.3871  0.9084  0.2804
 8433SOL     OW36760   3.826   2.444   7.076  0.6264  0.1521  0.1599
 8433SOL    HW136761   3.893   2.426   7.011 -0.6896 -1.0042 -0.8778
 8433SOL    HW236762   3.859   2.439   7.165  0.6420 -1.7023  0.0436
 8434SOL     OW36763   1.421   3.742   9.094  0.3162 -0.0559  0.6675
 8434SOL    HW136764   1.475   3.818   9.072  0.2591  0.1718  1.3003
 8434SOL    HW236765   1.477   3.678   9.137 -1.4515 -1.9165  0.2231
 8435SOL     OW36766   0.188   2.314   8.112  0.2449 -0.3159 -0.0601
 8435SOL    HW136767   0.255   2.251   8.088  0.0333 -0.5139 -0.1334
 8435SOL    HW236768   0.121   2.269   8.060 -0.8229  0.6759  0.4445
 8436SOL     OW36769   2.765   0.842   7.654 -0.2532  0.4444 -0.2503
 8436SOL    HW136770   2.757   0.859   7.560  3.1220  2.3758 -0.1590
 8436SOL    HW236771   2.782   0.748   7.648  0.3163  0.5709 -0.5473
 8437SOL     OW36772   0.003   3.406   6.869 -0.5070 -0.1593  0.6444
 8437SOL    HW136773   0.044   3.416   6.783  1.8410 -1.2431  1.6396
 8437SOL    HW236774   4.638   3.424   6.844 -0.8289  0.4260  2.2821
 8438SOL     OW36775   2.530   0.878  16.000 -0.0100  0.1407 -0.1570
 8438SOL    HW136776   2.497   0.866  15.911 -1.5909 -2.9999  0.8660
 8438SOL    HW236777   2.626   0.874  15.995 -0.1732 -1.4297 -1.9582
 8439SOL     OW36778   3.556   3.788   1.431  0.0688  0.0582 -0.3310
 8439SOL    HW136779   3.464   3.803   1.408  0.1498 -0.0904 -0.7446
 8439SOL    HW236780   3.594   3.875   1.445  0.0294  0.2022 -1.1237
 8440SOL     OW36781   4.656   2.966   4.322 -0.1327  0.5621 -0.2391
 8440SOL    HW136782   4.657   2.994   4.413 -0.9557 -2.0548  0.5917
 8440SOL    HW236783   4.570   2.997   4.293 -2.4493 -3.8042  1.8221
 8441SOL     OW36784   2.767   3.047   6.880 -0.2240 -0.2947 -0.4862
 8441SOL    HW136785   2.803   3.034   6.968  0.9392 -0.8042 -1.0479
 8441SOL    HW236786   2.837   3.104   6.850 -0.3765  0.7479  1.1140
 8442SOL     OW36787   0.439   2.851   7.793  0.1375  0.4676 -0.0053
 8442SOL    HW136788   0.439   2.944   7.818 -0.6581  0.7883 -1.2041
 8442SOL    HW236789   0.468   2.807   7.873  0.7137  1.7038  0.4689
 8443SOL     OW36790   0.209   0.330   0.960 -0.5086  0.4380 -0.4460
 8443SOL    HW136791   0.115   0.311   0.965 -0.3910  0.3465  1.2975
 8443SOL    HW236792   0.204   0.423   0.937 -0.0983  0.5908  0.0964
 8444SOL     OW36793   2.542   2.317   9.476  0.3391  0.4166 -0.4898
 8444SOL    HW136794   2.451   2.313   9.505  0.8195  0.5826  1.0308
 8444SOL    HW236795   2.584   2.299   9.560  1.1321  0.3287 -0.8953
 8445SOL     OW36796   1.424   3.653   3.853 -0.1189 -0.2304  0.0465
 8445SOL    HW136797   1.499   3.700   3.890 -0.2772  0.1580 -0.1174
 8445SOL    HW236798   1.354   3.679   3.912  0.6749 -0.6472  1.1758
 8446SOL     OW36799   4.587   3.291   8.506 -0.0282 -0.0565  0.3076
 8446SOL    HW136800   4.508   3.249   8.542  0.6464 -0.7620  0.9675
 8446SOL    HW236801   4.656   3.260   8.565 -0.1611 -0.3272  0.3213
 8447SOL     OW36802   3.287   0.684   1.689  0.1216 -0.3559  0.0189
 8447SOL    HW136803   3.223   0.642   1.746  0.6472 -0.8681  0.2283
 8447SOL    HW236804   3.365   0.643   1.728 -0.0807 -0.2566  0.5257
 8448SOL     OW36805   0.387   2.108   0.419 -0.6047 -0.3170 -0.2719
 8448SOL    HW136806   0.305   2.088   0.375 -0.8169  1.7443 -0.7970
 8448SOL    HW236807   0.418   2.182   0.368 -1.9330  1.0951  0.9547
 8449SOL     OW36808   3.399   1.981  15.561 -0.0185  0.0157  0.0618
 8449SOL    HW136809   3.415   2.060  15.509 -3.1848 -0.0152 -0.9742
 8449SOL    HW236810   3.370   2.020  15.644  0.1342 -1.6087  0.8712
 8450SOL     OW36811   4.127   1.245   4.473  0.7152 -0.1647  0.3503
 8450SOL    HW136812   4.076   1.268   4.395  0.7247  0.6730  0.5928
 8450SOL    HW236813   4.212   1.288   4.460  1.5934 -1.5363  1.5940
 8451SOL     OW36814   1.114   2.104   9.145  0.3997 -0.1761 -0.0862
 8451SOL    HW136815   1.045   2.156   9.186  0.6825  1.1328 -1.2425
 8451SOL    HW236816   1.095   2.113   9.052 -0.4235  0.1250  0.1095
 8452SOL     OW36817   2.127   3.991  11.315 -0.3946  0.2572 -0.6530
 8452SOL    HW136818   2.202   3.999  11.256  1.3315  3.0132  1.9093
 8452SOL    HW236819   2.061   4.005  11.247  0.6488  1.3460 -1.4517
 8453SOL     OW36820   0.385   3.503   4.295  0.5240 -0.8548 -0.3652
 8453SOL    HW136821   0.375   3.565   4.224  2.9912  0.9526  0.8539
 8453SOL    HW236822   0.301   3.458   4.304  1.9078 -3.4454 -0.2698
 8454SOL     OW36823   1.656   0.058  10.919  0.1182  0.6477 -0.1918
 8454SOL    HW136824   1.701   4.705  10.950 -1.5566  0.0395  0.6796
 8454SOL    HW236825   1.592   0.050  10.990  1.6711 -0.3614  1.1131
 8455SOL     OW36826   2.174   0.874   4.921  0.2694  0.0909 -0.7615
 8455SOL    HW136827   2.239   0.803   4.930  0.1378  0.1209  0.4324
 8455SOL    HW236828   2.207   0.924   4.995  1.7316 -0.3436 -1.0980
 8456SOL     OW36829   3.666   2.052   2.535 -0.3017  0.1894 -0.2139
 8456SOL    HW136830   3.660   2.099   2.452 -0.9732  1.1417  0.3589
 8456SOL    HW236831   3.761   2.043   2.536 -0.3270 -0.1709 -1.9913
 8457SOL     OW36832   1.471   1.388   4.048  0.5522  0.2740  0.6898
 8457SOL    HW136833   1.451   1.457   4.111 -0.0175  1.8793 -1.2478
 8457SOL    HW236834   1.413   1.413   3.975  2.4643  0.3329 -0.8040
 8458SOL     OW36835   0.419   0.192   7.164  0.4827 -0.1805 -0.0463
 8458SOL    HW136836   0.475   0.142   7.223  0.9626  0.4316  0.0243
 8458SOL    HW236837   0.449   0.151   7.083 -0.7258 -0.1597 -0.4898
 8459SOL     OW36838   0.163   2.063   0.283 -0.3740 -0.0007 -0.5985
 8459SOL    HW136839   0.151   2.151   0.319 -2.5049 -1.9454  3.4987
 8459SOL    HW236840   0.093   2.067   0.218  0.7313  0.7183 -1.7350
 8460SOL     OW36841   0.798   2.795  10.245 -0.4666 -0.1585 -0.6906
 8460SOL    HW136842   0.715   2.793  10.197 -0.0924 -0.8402 -1.3058
 8460SOL    HW236843   0.797   2.884  10.280 -1.4881 -0.3784 -0.1794
 8461SOL     OW36844   3.314   2.152   9.652  0.1924 -0.4101  0.7815
 8461SOL    HW136845   3.251   2.093   9.609 -0.9595  1.7720 -0.5301
 8461SOL    HW236846   3.261   2.180   9.727 -0.1365  2.6662 -0.6188
 8462SOL     OW36847   2.601   0.503   8.857  0.4968  0.0428 -0.4148
 8462SOL    HW136848   2.570   0.432   8.914 -0.2574  0.2719 -0.5427
 8462SOL    HW236849   2.642   0.444   8.794 -0.6912 -0.7810 -0.4135
 8463SOL     OW36850   1.436   4.045  16.027  0.2803  0.6574 -0.4153
 8463SOL    HW136851   1.475   4.032  15.941  0.1480 -1.6757 -0.1269
 8463SOL    HW236852   1.503   4.003  16.081  0.0665  0.0004 -0.6645
 8464SOL     OW36853   4.350   2.962   7.513  0.5000  0.1199  0.0737
 8464SOL    HW136854   4.286   2.897   7.483 -0.7865  1.2916  0.2838
 8464SOL    HW236855   4.386   2.994   7.431 -0.2137 -1.2782 -0.7841
 8465SOL     OW36856   3.840   1.612   0.929  0.4285 -0.1015  0.3545
 8465SOL    HW136857   3.833   1.530   0.978  1.8613 -0.4987 -0.0917
 8465SOL    HW236858   3.934   1.606   0.909  0.4307 -2.6985  1.0922
 8466SOL     OW36859   2.448   1.005  15.426 -0.1179  0.4027  0.1443
 8466SOL    HW136860   2.454   1.055  15.345 -0.9095 -0.9497 -0.7515
 8466SOL    HW236861   2.354   0.984  15.429  0.1299 -0.6800  0.2997
 8467SOL     OW36862   1.509   0.016   7.916 -0.1502 -0.0692 -0.0424
 8467SOL    HW136863   1.539   4.685   7.845 -0.6420 -0.0877 -0.2359
 8467SOL    HW236864   1.438   0.056   7.866 -0.0323  1.0006  0.6636
 8468SOL     OW36865   0.754   3.218   4.324 -0.1502  0.0027 -0.0984
 8468SOL    HW136866   0.678   3.223   4.266  0.7029 -2.0857 -1.3857
 8468SOL    HW236867   0.816   3.273   4.278 -1.3982 -1.0176 -3.0052
 8469SOL     OW36868   1.906   2.058   3.934  0.8825  0.3526 -0.2926
 8469SOL    HW136869   1.971   2.125   3.955  0.6137  0.7668 -0.7828
 8469SOL    HW236870   1.939   1.974   3.966 -2.2635 -1.8418 -2.8157
 8470SOL     OW36871   1.237   2.780   8.777 -0.4640  0.1732  0.3407
 8470SOL    HW136872   1.325   2.803   8.806 -0.3065  1.0294 -0.8057
 8470SOL    HW236873   1.196   2.782   8.864  0.7651  0.7803  0.9012
 8471SOL     OW36874   3.306   0.794  10.290  0.0258  0.1379  0.6157
 8471SOL    HW136875   3.217   0.809  10.257  0.7850  0.2877 -1.3010
 8471SOL    HW236876   3.359   0.861  10.247 -1.1459 -0.7833 -2.2413
 8472SOL     OW36877   4.002   1.623   2.113 -0.1942 -0.1804 -0.5824
 8472SOL    HW136878   3.998   1.570   2.033  1.0410 -2.3113  0.7977
 8472SOL    HW236879   3.922   1.597   2.159  0.3244  0.0222  0.4180
 8473SOL     OW36880   3.021   4.101   4.535 -0.1827 -0.0726  0.1165
 8473SOL    HW136881   2.978   4.075   4.453  0.4844  2.0897 -0.9181
 8473SOL    HW236882   3.107   4.113   4.495 -0.7737 -0.3519 -1.2556
 8474SOL     OW36883   2.454   0.890   9.161 -0.1350 -0.3091 -0.0755
 8474SOL    HW136884   2.491   0.970   9.198  0.3089 -1.2418  1.5050
 8474SOL    HW236885   2.400   0.928   9.091  1.2594  0.8353 -0.5220
 8475SOL     OW36886   4.102   1.899  11.797  0.0562  0.1607 -0.3426
 8475SOL    HW136887   4.070   1.878  11.709 -1.4293 -1.1192  0.5013
 8475SOL    HW236888   4.018   1.926  11.835 -0.7009 -0.5177 -1.5350
 8476SOL     OW36889   3.810   2.270  12.832  0.9185 -0.4255 -0.2577
 8476SOL    HW136890   3.820   2.180  12.863 -1.6653 -0.3382  0.7885
 8476SOL    HW236891   3.842   2.259  12.743  1.0985  0.1354 -0.2583
 8477SOL     OW36892   0.927   2.056   8.051  0.0361  0.1753 -0.0726
 8477SOL    HW136893   0.978   1.997   8.106 -1.8215  0.1047  1.5722
 8477SOL    HW236894   0.841   2.036   8.089  0.1857 -0.2845  0.0275
 8478SOL     OW36895   1.940   3.807   7.558  0.1796  0.7033  0.3825
 8478SOL    HW136896   1.871   3.858   7.600  1.1212  0.1913  2.5256
 8478SOL    HW236897   1.890   3.780   7.480 -0.1010  0.0471  0.7920
 8479SOL     OW36898   0.462   2.941   8.421 -0.2613 -0.3057 -0.1835
 8479SOL    HW136899   0.528   3.005   8.394  1.7333 -1.7527  1.2919
 8479SOL    HW236900   0.399   2.997   8.465  1.4211  1.7775 -0.4104
 8480SOL     OW36901   1.128   4.089   3.406  0.0135 -0.2222  0.3109
 8480SOL    HW136902   1.091   4.079   3.319  0.0401 -2.8197  0.5862
 8480SOL    HW236903   1.214   4.127   3.390 -0.4187 -0.0501 -1.5317
 8481SOL     OW36904   1.788   3.158   6.575 -0.6419 -0.5380  0.0878
 8481SOL    HW136905   1.810   3.065   6.580 -0.8846 -0.7655 -3.0076
 8481SOL    HW236906   1.803   3.178   6.668  0.3445  1.0103 -0.4114
 8482SOL     OW36907   1.808   1.604  17.035  0.0248 -0.5660  0.7154
 8482SOL    HW136908   1.881   1.587  16.976 -0.6884  0.4543 -0.4575
 8482SOL    HW236909   1.846   1.684  17.073 -2.0569  0.8840 -0.2276
 8483SOL     OW36910   0.636   4.666   4.470 -0.5660 -0.0593 -0.4032
 8483SOL    HW136911   0.687   4.673   4.390  1.7610  0.9522  1.1725
 8483SOL    HW236912   0.555   4.707   4.441 -0.9391 -0.1559  0.4871
 8484SOL     OW36913   2.072   1.861  11.493  0.5102  0.0625 -0.0904
 8484SOL    HW136914   2.024   1.890  11.570 -1.6055  1.2299 -1.8541
 8484SOL    HW236915   2.007   1.802  11.456 -1.3228  0.6800  2.1155
 8485SOL     OW36916   1.584   3.567   5.377  0.0380  0.0222  0.1835
 8485SOL    HW136917   1.537   3.501   5.428 -0.5685  0.4111  0.1274
 8485SOL    HW236918   1.629   3.627   5.436  0.3589 -0.5357  0.5055
 8486SOL     OW36919   3.638   1.874  14.362 -0.5388 -0.2959  0.5798
 8486SOL    HW136920   3.609   1.912  14.279 -0.8227 -0.2630  0.6943
 8486SOL    HW236921   3.627   1.949  14.420 -2.0659 -0.5944  0.6844
 8487SOL     OW36922   2.641   2.814   0.280 -0.3486  0.1985  0.1656
 8487SOL    HW136923   2.722   2.764   0.277  0.0008  0.5880  3.1347
 8487SOL    HW236924   2.596   2.745   0.328 -0.3482 -0.4121 -0.7105
 8488SOL     OW36925   1.258   3.754  10.405  0.2464 -0.3537  0.2098
 8488SOL    HW136926   1.256   3.702  10.324 -1.9402 -0.5721  0.4069
 8488SOL    HW236927   1.229   3.691  10.470 -0.2378 -0.7198 -0.3540
 8489SOL     OW36928   0.399   0.867   6.228 -0.2608  0.0791 -0.1173
 8489SOL    HW136929   0.477   0.894   6.275  0.0092  0.1318 -0.5943
 8489SOL    HW236930   0.420   0.910   6.145  0.2363 -0.0344 -0.0467
 8490SOL     OW36931   4.044   2.738   4.540 -0.1118  0.0466 -0.1402
 8490SOL    HW136932   4.026   2.649   4.508 -0.3445  0.1935 -0.4125
 8490SOL    HW236933   3.969   2.788   4.510 -0.6410 -0.7553 -0.1700
 8491SOL     OW36934   1.375   0.017   7.250  0.7424  0.2128  0.1553
 8491SOL    HW136935   1.293   4.717   7.290  0.6614 -0.5827 -0.5120
 8491SOL    HW236936   1.357   0.087   7.188 -1.5648  0.6280  1.3090
 8492SOL     OW36937   0.031   1.454  10.203 -0.1959 -0.6644  0.4837
 8492SOL    HW136938   4.671   1.448  10.245 -0.4916  0.0864 -0.0058
 8492SOL    HW236939   0.085   1.488  10.274  0.8923 -0.2792 -0.5291
 8493SOL     OW36940   4.287   1.865  12.462  1.0426  0.3674  0.4738
 8493SOL    HW136941   4.344   1.796  12.496  0.6146 -1.0491 -1.7139
 8493SOL    HW236942   4.243   1.817  12.392  0.6036  1.4132  0.0379
 8494SOL     OW36943   1.819   4.378   2.988 -0.1367 -0.3450 -0.6312
 8494SOL    HW136944   1.743   4.428   2.957 -0.8821 -0.4303  1.0814
 8494SOL    HW236945   1.825   4.324   2.909  0.2014 -0.1539 -0.7360
 8495SOL     OW36946   3.705   3.993   7.357  0.0667  0.3230  0.2724
 8495SOL    HW136947   3.658   4.038   7.427 -1.9754  0.0969 -0.9706
 8495SOL    HW236948   3.659   4.016   7.277 -0.5671  2.2653  1.2099
 8496SOL     OW36949   3.046   2.358   8.402 -0.0402  0.3978  0.0981
 8496SOL    HW136950   3.102   2.423   8.360  0.9772 -0.9270 -0.6150
 8496SOL    HW236951   2.987   2.330   8.331 -0.4089  4.0907 -1.0642
 8497SOL     OW36952   2.046   4.226   0.153  0.2808  0.3232  0.3123
 8497SOL    HW136953   2.108   4.200   0.086 -0.7532 -0.1395 -0.4590
 8497SOL    HW236954   2.022   4.149   0.203  2.0910 -0.7627 -0.5012
 8498SOL     OW36955   2.511   3.002   8.262  0.4514 -0.0400  0.9259
 8498SOL    HW136956   2.552   2.918   8.282  0.4549 -0.0303  0.9586
 8498SOL    HW236957   2.428   2.985   8.307  0.0680 -0.7552 -0.0437
 8499SOL     OW36958   0.862   0.813   3.206  0.0621  0.8197 -0.0102
 8499SOL    HW136959   0.832   0.817   3.296  3.1431 -3.4973  1.1805
 8499SOL    HW236960   0.821   0.889   3.164 -0.0118  0.6509 -0.2447
 8500SOL     OW36961   3.542   4.169   6.170  0.1405 -0.2642  0.0348
 8500SOL    HW136962   3.503   4.228   6.106 -0.2191  0.6148  1.0735
 8500SOL    HW236963   3.471   4.105   6.174  0.5267 -0.7364 -0.5935
 8501SOL     OW36964   1.590   2.255   8.069 -0.6246 -0.5838  0.9231
 8501SOL    HW136965   1.671   2.224   8.028 -0.3762  1.1080  0.1675
 8501SOL    HW236966   1.592   2.223   8.159 -1.8212 -1.6620  0.5822
 8502SOL     OW36967   0.159   3.369   7.923  0.0520 -0.3019  0.2251
 8502SOL    HW136968   0.180   3.433   7.990 -1.3130 -0.3556  0.7152
 8502SOL    HW236969   0.114   3.434   7.869  0.0197 -2.0020 -1.8142
 8503SOL     OW36970   4.074   2.415   6.353  0.2258 -0.7254 -0.1806
 8503SOL    HW136971   4.159   2.456   6.369 -0.9183  0.3552  3.1108
 8503SOL    HW236972   4.026   2.470   6.415  1.1547  0.7787 -0.7994
 8504SOL     OW36973   3.887   2.462  11.562 -0.1135 -0.4453 -0.1607
 8504SOL    HW136974   3.875   2.449  11.468  1.3592 -1.0593 -0.2658
 8504SOL    HW236975   3.796   2.459  11.591 -0.3087 -1.6923 -0.9221
 8505SOL     OW36976   4.603   4.304   3.505  0.1511 -0.2197  0.1773
 8505SOL    HW136977   4.690   4.305   3.545  0.2424  0.9255 -0.0539
 8505SOL    HW236978   4.579   4.211   3.507 -1.1338  0.1057  0.2808
 8506SOL     OW36979   2.901   4.170   3.480 -0.0547  0.1526  0.1408
 8506SOL    HW136980   2.877   4.221   3.403  1.7589  0.7841 -0.0057
 8506SOL    HW236981   2.952   4.234   3.530  2.5724  0.1175 -2.5204
 8507SOL     OW36982   1.669   2.343   4.520  0.0957  0.0880  0.3901
 8507SOL    HW136983   1.740   2.356   4.457 -0.9666  1.6727 -0.4749
 8507SOL    HW236984   1.600   2.396   4.480  1.5552  0.4396 -1.7016
 8508SOL     OW36985   1.355   1.800  14.977 -0.1684 -0.5071 -0.2940
 8508SOL    HW136986   1.359   1.733  14.908 -2.2740 -0.4452 -0.4926
 8508SOL    HW236987   1.314   1.749  15.047  2.3493  0.1612  1.6575
 8509SOL     OW36988   2.756   3.074   3.420  0.1248  0.1739  1.0358
 8509SOL    HW136989   2.679   3.125   3.445 -1.3456 -0.7918 -1.5481
 8509SOL    HW236990   2.730   2.983   3.432 -1.1397  0.3621 -0.2578
 8510SOL     OW36991   1.303   4.120   8.751 -0.0517  0.2771  0.6961
 8510SOL    HW136992   1.222   4.094   8.706  2.3469 -3.0069 -1.7705
 8510SOL    HW236993   1.277   4.154   8.836  0.2984 -3.3493  2.2596
 8511SOL     OW36994   0.419   2.476   3.785 -0.4399 -0.4557  0.3164
 8511SOL    HW136995   0.334   2.448   3.821 -3.0036  4.0138 -2.3179
 8511SOL    HW236996   0.395   2.492   3.694 -1.6555 -1.2184  0.5014
 8512SOL     OW36997   2.880   3.082   5.365 -0.3115 -0.2203 -0.4917
 8512SOL    HW136998   2.861   3.020   5.295 -1.4506 -0.3806 -0.0331
 8512SOL    HW236999   2.973   3.104   5.364 -0.7627  1.6806 -2.2226
 8513SOL     OW37000   1.504   2.423   7.872 -0.0018  0.1156 -0.0942
 8513SOL    HW137001   1.538   2.404   7.785 -1.7043  0.2092 -0.7782
 8513SOL    HW237002   1.555   2.361   7.925  0.0156  1.1940  1.1374
 8514SOL     OW37003   3.109   3.210  17.063  0.7754 -0.2549  0.5576
 8514SOL    HW137004   3.039   3.149  17.086  2.6308 -2.4846  0.3133
 8514SOL    HW237005   3.126   3.195  16.970  1.1944 -1.5805  0.8415
 8515SOL     OW37006   3.831   4.290   9.001  0.5383 -0.8401  0.3843
 8515SOL    HW137007   3.829   4.282   9.096  0.0186 -0.6194  0.3901
 8515SOL    HW237008   3.740   4.319   8.997  1.2733  1.6856  1.6194
 8516SOL     OW37009   0.141   2.139   6.182  0.8699 -0.0464  0.1677
 8516SOL    HW137010   0.062   2.173   6.141  0.4155 -1.1790  0.0985
 8516SOL    HW237011   0.109   2.066   6.236  0.6040  0.2584  0.4233
 8517SOL     OW37012   1.100   0.223  11.979  0.1372  0.5746  0.0886
 8517SOL    HW137013   1.128   0.213  11.888 -0.6592 -0.3904 -0.0526
 8517SOL    HW237014   1.014   0.183  11.976 -0.8266  2.5419  1.2624
 8518SOL     OW37015   0.176   1.719   6.137 -0.1109 -0.2739 -0.3943
 8518SOL    HW137016   0.114   1.792   6.132  1.9779  1.4186 -1.8493
 8518SOL    HW237017   0.127   1.649   6.180 -0.4075  1.5569  2.2522
 8519SOL     OW37018   3.913   1.879  14.226  0.3507 -0.2265  0.5857
 8519SOL    HW137019   3.938   1.799  14.180  2.4035  0.8229 -0.1537
 8519SOL    HW237020   3.829   1.858  14.265 -1.3795 -1.3580 -3.7532
 8520SOL     OW37021   1.119   2.809  13.395 -0.3714  0.6020 -0.0729
 8520SOL    HW137022   1.146   2.768  13.477  0.1502  2.5977  0.7560
 8520SOL    HW237023   1.028   2.781  13.405  0.0480 -0.6989  0.1274
 8521SOL     OW37024   1.812   2.816   6.657 -0.3092 -0.0984  0.4077
 8521SOL    HW137025   1.817   2.850   6.747  0.2973 -0.0493  0.3558
 8521SOL    HW237026   1.898   2.774   6.649 -0.2375  0.2782 -0.6761
 8522SOL     OW37027   2.124   2.424   9.487  0.4143  0.4144  0.4487
 8522SOL    HW137028   2.172   2.462   9.414 -0.3577 -1.4487 -1.0551
 8522SOL    HW237029   2.193   2.369   9.523  1.3175  2.9872  2.5992
 8523SOL     OW37030   2.581   2.838  12.653 -0.5003 -0.3633  0.2382
 8523SOL    HW137031   2.638   2.764  12.633  0.8958  0.5096  1.0217
 8523SOL    HW237032   2.634   2.913  12.625 -1.8217 -0.8955 -3.6747
 8524SOL     OW37033   2.909   2.619   7.258  0.6276  0.4018  0.2238
 8524SOL    HW137034   2.853   2.545   7.233  0.8896  1.0199 -2.1789
 8524SOL    HW237035   2.977   2.617   7.191 -0.3549  2.0211 -0.8205
 8525SOL     OW37036   0.675   1.407  13.228 -0.3327  0.4888 -0.1984
 8525SOL    HW137037   0.757   1.373  13.192  1.5940  3.8978  1.0423
 8525SOL    HW237038   0.699   1.427  13.318  0.5581 -0.4534 -0.2293
 8526SOL     OW37039   1.278   2.233  11.335  0.3270 -0.4170  0.0215
 8526SOL    HW137040   1.185   2.213  11.330 -0.6391  3.4797  1.9194
 8526SOL    HW237041   1.280   2.236  11.431  1.0279 -0.0771 -0.0041
 8527SOL     OW37042   0.492   3.969   8.624 -0.0646 -0.0086  0.1222
 8527SOL    HW137043   0.437   3.895   8.602  0.6339 -0.8049  1.0240
 8527SOL    HW237044   0.476   4.020   8.545  2.5950 -1.9865 -1.6749
 8528SOL     OW37045   4.618   1.456  17.585 -0.4916 -0.1872 -0.0189
 8528SOL    HW137046   4.700   1.410  17.600 -1.1675 -0.7682  1.8463
 8528SOL    HW237047   4.624   1.473  17.491  1.6392 -0.7703  0.0163
 8529SOL     OW37048   4.098   0.780   5.992 -0.1331  0.3593 -0.4937
 8529SOL    HW137049   4.012   0.786   6.032  0.5348  1.5897  0.7749
 8529SOL    HW237050   4.152   0.825   6.057 -1.1117  0.3936  0.2967
 8530SOL     OW37051   3.098   4.086   7.313 -0.3668  0.5641  0.5769
 8530SOL    HW137052   3.184   4.126   7.310 -0.3574  0.4160 -1.2039
 8530SOL    HW237053   3.119   3.993   7.299 -2.3178 -0.0005  1.3873
 8531SOL     OW37054   3.776   0.821  15.466  0.0512  0.3418 -0.1267
 8531SOL    HW137055   3.828   0.765  15.408  1.1904  0.4865  0.7753
 8531SOL    HW237056   3.828   0.818  15.546  1.1086  0.8500 -0.8028
 8532SOL     OW37057   2.929   3.635   9.659 -0.0839  0.1795 -0.3666
 8532SOL    HW137058   2.976   3.553   9.666 -1.7936 -0.8961 -1.4992
 8532SOL    HW237059   2.845   3.615   9.702  0.2540 -1.5345 -0.5122
 8533SOL     OW37060   2.759   0.259   4.990  0.0084  0.1140 -0.1587
 8533SOL    HW137061   2.814   0.243   4.913 -0.1596 -0.5729 -0.1363
 8533SOL    HW237062   2.783   0.179   5.036 -1.3078 -0.0729  0.2238
 8534SOL     OW37063   1.665   3.751  17.373  0.2864  0.1186  0.0269
 8534SOL    HW137064   1.744   3.696  17.369 -0.5105 -1.0129 -0.0887
 8534SOL    HW237065   1.596   3.685  17.367 -1.5447  2.3578 -3.5197
 8535SOL     OW37066   2.971   3.109   9.185 -1.2405  0.0902 -0.5476
 8535SOL    HW137067   3.041   3.127   9.247  1.5071 -2.5887 -2.8306
 8535SOL    HW237068   3.014   3.137   9.104 -1.2288  0.2379 -0.4903
 8536SOL     OW37069   1.421   0.313   6.854 -0.4939 -0.6493 -0.0130
 8536SOL    HW137070   1.361   0.387   6.858  1.2687  0.8340 -1.2166
 8536SOL    HW237071   1.440   0.293   6.946  1.2624 -0.7832 -0.4016
 8537SOL     OW37072   0.455   4.673   4.764  0.5017 -0.0315 -0.0647
 8537SOL    HW137073   0.419   4.686   4.677  1.5351 -1.0006 -0.6321
 8537SOL    HW237074   0.492   4.585   4.760  0.1532 -0.2234  0.8398
 8538SOL     OW37075   3.229   0.766   9.588 -0.3075 -0.4179  0.2364
 8538SOL    HW137076   3.183   0.846   9.563  0.9811  0.9844  2.3094
 8538SOL    HW237077   3.313   0.783   9.547 -0.3986  1.2650  0.7380
 8539SOL     OW37078   4.197   4.497   5.354  0.2898 -0.1713  0.0703
 8539SOL    HW137079   4.240   4.417   5.384  0.1307  1.2391  3.9415
 8539SOL    HW237080   4.138   4.459   5.288  1.0389  1.5696 -1.6067
 8540SOL     OW37081   2.694   2.811   6.127  0.0333  0.0807  0.2491
 8540SOL    HW137082   2.773   2.760   6.147 -1.0518 -1.6840  0.0498
 8540SOL    HW237083   2.630   2.740   6.117  0.8433 -0.4285 -1.4398
 8541SOL     OW37084   1.645   3.103   8.942  0.1046 -0.1014 -0.6621
 8541SOL    HW137085   1.708   3.031   8.938 -0.5010 -0.7208  0.7474
 8541SOL    HW237086   1.632   3.128   8.851  0.8779 -2.8459 -1.5287
 8542SOL     OW37087   0.657   3.569   8.821  0.0572 -0.1402 -0.2307
 8542SOL    HW137088   0.607   3.648   8.844 -1.0904 -0.4251 -1.6973
 8542SOL    HW237089   0.737   3.599   8.779  2.2807 -1.3816  3.0948
 8543SOL     OW37090   4.326   3.095   3.240  0.7349 -0.2746  0.0682
 8543SOL    HW137091   4.347   3.164   3.178 -1.7802 -0.0820 -0.5910
 8543SOL    HW237092   4.232   3.112   3.245  0.9343  1.4855 -2.3049
 8544SOL     OW37093   1.034   1.784   7.595 -0.1444  0.5173  0.1773
 8544SOL    HW137094   0.952   1.832   7.585  0.4683  1.7273  0.8780
 8544SOL    HW237095   1.029   1.775   7.691  0.1016  0.8060  0.2186
 8545SOL     OW37096   4.319   0.315   5.094 -0.1550  0.0950  0.1206
 8545SOL    HW137097   4.255   0.335   5.026  1.3865  0.3946 -1.2406
 8545SOL    HW237098   4.361   0.238   5.054  1.5638 -0.7916  3.6237
 8546SOL     OW37099   3.567   0.685   3.220  0.1689  0.3668  0.7843
 8546SOL    HW137100   3.560   0.752   3.151 -0.6541 -1.9369 -1.3673
 8546SOL    HW237101   3.604   0.609   3.175  1.7857  2.0954 -0.7671
 8547SOL     OW37102   2.914   0.498   7.195 -0.3566  0.2494 -0.3968
 8547SOL    HW137103   2.931   0.455   7.279 -1.4824  0.7434  0.0822
 8547SOL    HW237104   2.852   0.438   7.152  0.4924 -0.0464 -1.2104
 8548SOL     OW37105   0.245   3.190   6.135  0.8248 -0.0689  0.6152
 8548SOL    HW137106   0.180   3.250   6.171  0.5858  0.8830 -1.3823
 8548SOL    HW237107   0.203   3.172   6.050 -0.5243 -0.2098  1.3063
 8549SOL     OW37108   4.624   4.125   1.571  0.8442 -0.6754  0.0548
 8549SOL    HW137109   4.671   4.183   1.512 -0.0701  0.3752  0.3520
 8549SOL    HW237110   4.644   4.172   1.653 -2.0326 -1.0317  0.9590
 8550SOL     OW37111   4.179   2.230   1.709  0.8062  0.4397  0.1863
 8550SOL    HW137112   4.222   2.145   1.720  2.2635  0.8878 -2.1320
 8550SOL    HW237113   4.136   2.231   1.624 -1.0660  3.5028  1.1651
 8551SOL     OW37114   2.448   1.648   2.314 -0.2398 -0.2290  0.0406
 8551SOL    HW137115   2.353   1.652   2.330  0.2435 -0.7909  3.0516
 8551SOL    HW237116   2.472   1.576   2.373 -0.5087 -1.1323 -0.9431
 8552SOL     OW37117   3.135   4.388   3.560  0.2678  0.0730  0.3457
 8552SOL    HW137118   3.201   4.456   3.575 -1.0433  1.1121  1.4072
 8552SOL    HW237119   3.060   4.441   3.586 -0.1315  0.5392 -1.7912
 8553SOL     OW37120   2.706   1.761  10.036  0.4779 -0.2579  0.1534
 8553SOL    HW137121   2.732   1.672  10.012  0.6954 -0.3763  0.8380
 8553SOL    HW237122   2.763   1.792  10.106 -0.7481  1.4494  0.3912
 8554SOL     OW37123   3.354   0.865  15.594  0.4505  0.4021 -0.1580
 8554SOL    HW137124   3.305   0.921  15.654  0.0362 -0.6892  0.5262
 8554SOL    HW237125   3.346   0.915  15.513  1.5475 -0.3535 -0.7379
 8555SOL     OW37126   1.866   0.928  15.350 -0.4025 -0.1348  0.5364
 8555SOL    HW137127   1.855   0.992  15.420 -0.9075  0.5209 -0.1410
 8555SOL    HW237128   1.774   0.905  15.335  0.1033 -2.4598  0.9375
 8556SOL     OW37129   0.121   2.967  13.146  0.1501  0.0291  0.2378
 8556SOL    HW137130   0.202   3.019  13.145 -0.5571  1.0993 -0.9174
 8556SOL    HW237131   0.055   3.033  13.124  1.2415  0.3743 -1.9759
 8557SOL     OW37132   1.935   4.447   0.543 -0.6777  0.7753 -0.0110
 8557SOL    HW137133   1.855   4.453   0.491 -0.0796 -0.9955 -1.1264
 8557SOL    HW237134   1.907   4.456   0.634  0.6062  0.0268  0.4508
 8558SOL     OW37135   1.188   2.387   8.310  0.7291  0.4910  0.2444
 8558SOL    HW137136   1.273   2.416   8.345  0.4580  1.8616 -0.2341
 8558SOL    HW237137   1.164   2.313   8.365 -1.3448  0.6290 -0.5013
 8559SOL     OW37138   0.961   2.194   9.358 -1.0550  0.3440 -0.3140
 8559SOL    HW137139   1.025   2.145   9.410 -1.7145 -0.8400 -0.6237
 8559SOL    HW237140   0.882   2.144   9.378 -0.4434 -0.4957  0.0133
 8560SOL     OW37141   0.781   2.239   3.113  0.3216  0.3235  0.2072
 8560SOL    HW137142   0.763   2.154   3.154 -0.5691  0.7458  0.6681
 8560SOL    HW237143   0.782   2.226   3.018  0.2728 -0.2566  0.2832
 8561SOL     OW37144   0.905   0.693   8.381 -0.3808 -0.3069 -0.1229
 8561SOL    HW137145   0.955   0.621   8.422 -1.5341 -1.0715 -0.0659
 8561SOL    HW237146   0.904   0.747   8.460 -0.2158  0.0533 -0.3661
 8562SOL     OW37147   3.110   4.324   4.273  0.2475  0.4237  0.8260
 8562SOL    HW137148   3.034   4.327   4.332 -1.1102  0.7992 -0.9590
 8562SOL    HW237149   3.183   4.305   4.332 -0.6182 -1.1338  1.3909
 8563SOL     OW37150   1.873   3.730   9.208 -0.0757 -0.1750  0.2713
 8563SOL    HW137151   1.965   3.717   9.232 -0.3988 -2.8474  0.0322
 8563SOL    HW237152   1.832   3.645   9.226 -2.1051  1.4280  3.2404
 8564SOL     OW37153   0.875   3.205  16.586 -0.5465  0.2575 -0.3916
 8564SOL    HW137154   0.847   3.127  16.539 -1.2771  0.0277  0.4141
 8564SOL    HW237155   0.959   3.173  16.620 -0.0034  3.9115  1.7639
 8565SOL     OW37156   3.655   1.963   8.319 -0.6243 -0.3853 -0.6307
 8565SOL    HW137157   3.662   1.881   8.270  2.1429 -1.0921  0.9184
 8565SOL    HW237158   3.625   1.931   8.404 -5.1153  0.1505 -2.0358
 8566SOL     OW37159   3.295   0.496   4.028  0.4173  0.0514 -0.7752
 8566SOL    HW137160   3.285   0.480   4.122  0.5011  0.2735 -0.7276
 8566SOL    HW237161   3.366   0.439   3.998  1.7830  0.3257  1.8902
 8567SOL     OW37162   3.457   0.010   2.347  0.1570  0.4115  0.5416
 8567SOL    HW137163   3.544   0.021   2.309 -0.0967  1.6474  0.3225
 8567SOL    HW237164   3.401   0.007   2.269 -1.0806  2.8495  1.3386
 8568SOL     OW37165   4.181   3.228  12.685 -0.4124 -0.3753  0.5351
 8568SOL    HW137166   4.210   3.232  12.594 -0.0821  2.1099  0.7611
 8568SOL    HW237167   4.118   3.156  12.680  0.4926 -0.9985 -1.6313
 8569SOL     OW37168   3.464   4.277   2.181  0.5625 -0.8669 -0.1267
 8569SOL    HW137169   3.559   4.290   2.179  0.1782  1.7256 -1.1310
 8569SOL    HW237170   3.469   4.189   2.217 -1.5958 -2.2568 -3.2406
 8570SOL     OW37171   4.059   0.685   2.643  0.2999 -0.8071  0.6528
 8570SOL    HW137172   4.021   0.743   2.577  2.3254  2.0464  2.0311
 8570SOL    HW237173   4.037   0.720   2.729 -2.6682 -3.1373  0.8692
 8571SOL     OW37174   3.541   0.312   8.224 -0.5331  0.4505  0.2021
 8571SOL    HW137175   3.598   0.308   8.148 -2.9873 -1.7764 -1.5191
 8571SOL    HW237176   3.598   0.358   8.286 -0.9924  1.2258  0.0465
 8572SOL     OW37177   2.315   3.588   1.333 -0.2552 -0.2345  0.1423
 8572SOL    HW137178   2.278   3.597   1.421  0.1953 -0.6270  0.3706
 8572SOL    HW237179   2.270   3.664   1.295  0.9471  0.7017  0.5929
 8573SOL     OW37180   3.444   1.173   3.520 -0.5503  0.0308  0.0815
 8573SOL    HW137181   3.398   1.221   3.452  1.6449  1.4606 -0.3911
 8573SOL    HW237182   3.464   1.096   3.466 -2.6016 -1.0171  0.8074
 8574SOL     OW37183   4.537   3.573   6.247  0.3358 -0.2194  0.0409
 8574SOL    HW137184   4.459   3.600   6.295 -0.6256 -3.0708  0.0879
 8574SOL    HW237185   4.531   3.480   6.270  0.1668 -0.9489 -2.9675
 8575SOL     OW37186   1.592   4.094   2.738  0.2607 -0.1394 -0.1523
 8575SOL    HW137187   1.519   4.155   2.751  0.2269 -0.1194 -0.4334
 8575SOL    HW237188   1.563   4.043   2.663  0.8021 -0.2059 -0.3113
 8576SOL     OW37189   2.311   1.963   0.311  0.1176  0.3709 -0.4302
 8576SOL    HW137190   2.327   1.874   0.281 -0.2736  0.1575  0.0037
 8576SOL    HW237191   2.250   1.951   0.383  1.8778 -1.6858  0.7339
 8577SOL     OW37192   2.262   1.444   6.222 -0.1927 -0.4815  0.3168
 8577SOL    HW137193   2.237   1.371   6.279 -1.8701  0.4054  0.6983
 8577SOL    HW237194   2.260   1.391   6.142 -1.4601  0.2995 -0.1630
 8578SOL     OW37195   3.819   0.068   4.571 -0.8673 -0.0142  0.7022
 8578SOL    HW137196   3.751   0.027   4.517 -2.5874  3.1677  0.4365
 8578SOL    HW237197   3.822   0.159   4.543  3.1140  0.0811  1.4644
 8579SOL     OW37198   4.038   2.305   8.523  0.4709  0.5015  0.2104
 8579SOL    HW137199   3.976   2.242   8.559  1.4559  0.1773  1.3143
 8579SOL    HW237200   4.026   2.383   8.577 -0.4467  1.0073 -0.7176
 8580SOL     OW37201   0.860   4.591   5.754 -0.3357 -0.1121 -0.1827
 8580SOL    HW137202   0.918   4.515   5.761  0.5802  0.4563 -1.5464
 8580SOL    HW237203   0.926   4.659   5.744 -0.5872  0.1289 -0.1836
 8581SOL     OW37204   4.425   1.988   3.544  0.4583  0.2624  0.4521
 8581SOL    HW137205   4.465   2.005   3.459  1.9094 -0.1244  1.0688
 8581SOL    HW237206   4.476   2.041   3.605  0.0942 -0.5934  1.5208
 8582SOL     OW37207   0.092   3.628   4.183 -0.0049  0.1229  0.5175
 8582SOL    HW137208   0.145   3.683   4.124  1.2852  1.0336  2.5147
 8582SOL    HW237209   0.114   3.541   4.149 -0.1490  0.6715 -0.9775
 8583SOL     OW37210   1.210   3.351   5.187 -1.0643  0.0165  0.2722
 8583SOL    HW137211   1.293   3.358   5.140 -1.0356  0.3250  0.3680
 8583SOL    HW237212   1.197   3.445   5.201  2.6926  0.9178 -2.0102
 8584SOL     OW37213   2.599   0.109   6.439  0.4489 -0.1398 -0.2060
 8584SOL    HW137214   2.690   0.124   6.412  1.1215 -0.4688  1.8609
 8584SOL    HW237215   2.599   0.045   6.510 -1.5295 -0.7967 -0.8050
 8585SOL     OW37216   1.140   1.347   4.753 -0.1022 -0.1484  0.1048
 8585SOL    HW137217   1.065   1.288   4.742  0.3674 -0.3295 -1.9689
 8585SOL    HW237218   1.096   1.431   4.738  2.2666  0.9745 -0.5717
 8586SOL     OW37219   4.015   3.826  16.036 -0.3874  0.2892  0.5023
 8586SOL    HW137220   3.983   3.759  15.975 -0.0671 -1.0071  1.7703
 8586SOL    HW237221   3.939   3.835  16.093 -0.8736  0.5338 -0.1846
 8587SOL     OW37222   2.818   1.113   6.245  0.4610  0.1938  0.4477
 8587SOL    HW137223   2.815   1.207   6.230  0.0064  0.1228  0.1065
 8587SOL    HW237224   2.829   1.104   6.340 -2.6006  0.0815  0.7813
 8588SOL     OW37225   3.688   0.138   1.868  0.6907  0.4377 -0.0011
 8588SOL    HW137226   3.601   0.143   1.906 -0.8684  0.0700 -3.5070
 8588SOL    HW237227   3.724   0.079   1.934 -1.1524 -2.6574 -1.7134
 8589SOL     OW37228   0.189   3.296  13.826  0.5311 -0.8544  0.0183
 8589SOL    HW137229   0.142   3.301  13.910 -0.6583 -0.3406 -0.6662
 8589SOL    HW237230   0.278   3.316  13.853  1.1309 -2.5023 -0.7758
 8590SOL     OW37231   3.282   4.127   4.425  0.2651  0.3552 -0.1306
 8590SOL    HW137232   3.355   4.188   4.410 -0.2932  0.6919 -1.4545
 8590SOL    HW237233   3.323   4.047   4.391 -2.6401 -0.6086 -1.3788
 8591SOL     OW37234   2.819   0.928   7.006 -0.2053 -0.0008 -0.2927
 8591SOL    HW137235   2.851   0.998   6.949 -0.4052 -0.2196 -0.6785
 8591SOL    HW237236   2.781   0.971   7.083  1.8581 -0.2175  0.8332
 8592SOL     OW37237   1.181   4.411  13.568  0.4368 -0.4014 -0.0097
 8592SOL    HW137238   1.226   4.436  13.487  1.0387  0.5613  0.6186
 8592SOL    HW237239   1.229   4.452  13.640  0.3569 -1.6580  0.7504
 8593SOL     OW37240   1.917   4.168   5.921  0.2248  0.0517  0.1460
 8593SOL    HW137241   1.924   4.256   5.958  3.2673 -0.3192  0.4983
 8593SOL    HW237242   1.896   4.112   5.996 -0.0166  0.1079  0.1192
 8594SOL     OW37243   4.189   4.139   0.379 -0.4891  0.0408  0.4334
 8594SOL    HW137244   4.160   4.052   0.352 -0.3743  0.2600 -0.4154
 8594SOL    HW237245   4.220   4.117   0.467 -0.3535 -0.4528  0.2648
 8595SOL     OW37246   4.088   0.170   2.028 -0.0049 -0.4996 -0.5536
 8595SOL    HW137247   4.009   0.155   1.975 -1.4925  0.8903  1.2729
 8595SOL    HW237248   4.143   0.163   1.950  0.6586  0.0706 -0.1298
 8596SOL     OW37249   1.223   1.029  13.589 -0.3377 -0.2525  0.3087
 8596SOL    HW137250   1.238   1.123  13.581  0.5814 -0.4645 -0.4210
 8596SOL    HW237251   1.146   1.022  13.532 -0.0136 -0.1408 -0.1373
 8597SOL     OW37252   0.729   1.283  10.959  0.1238 -0.2067  0.1040
 8597SOL    HW137253   0.821   1.270  10.937  0.7612  0.1537  2.5184
 8597SOL    HW237254   0.697   1.205  11.004 -3.1760  1.7594  1.1675
 8598SOL     OW37255   1.348   2.283   5.506 -0.1075  0.4187  0.2715
 8598SOL    HW137256   1.271   2.320   5.548  0.5273  0.3651  1.4844
 8598SOL    HW237257   1.411   2.263   5.575 -1.4221 -0.2847  1.2571
 8599SOL     OW37258   3.998   3.697   4.721  0.3887 -0.2910  0.0051
 8599SOL    HW137259   3.932   3.633   4.696 -0.3630  0.4397  0.1124
 8599SOL    HW237260   4.077   3.643   4.722 -1.0375 -2.3931 -0.5565
 8600SOL     OW37261   0.737   4.129   3.951 -0.0635 -0.3594 -0.3500
 8600SOL    HW137262   0.678   4.204   3.949  0.2060 -0.2079 -2.4845
 8600SOL    HW237263   0.777   4.142   3.866 -0.7368 -3.9301 -1.1873
 8601SOL     OW37264   0.023   3.341   6.180  0.4503 -0.8337 -0.0795
 8601SOL    HW137265   4.672   3.286   6.195 -0.8026  0.6789 -0.9339
 8601SOL    HW237266   0.001   3.395   6.104  0.8385 -0.2468  0.2251
 8602SOL     OW37267   1.870   2.844   9.489 -0.0673  0.1129 -0.2360
 8602SOL    HW137268   1.859   2.939   9.493 -1.2707 -0.0936  1.3555
 8602SOL    HW237269   1.851   2.824   9.580  0.1559 -0.5212 -0.3268
 8603SOL     OW37270   1.833   0.287   4.895 -0.2185 -0.3318  0.5797
 8603SOL    HW137271   1.910   0.344   4.887 -1.2064  1.0620  1.0074
 8603SOL    HW237272   1.778   0.321   4.965  3.1053 -0.0967  3.0659
 8604SOL     OW37273   0.744   0.291   1.240  0.4542  0.0385 -0.0928
 8604SOL    HW137274   0.773   0.213   1.193 -3.5088 -0.3164 -1.8988
 8604SOL    HW237275   0.679   0.322   1.177 -0.3792  0.3376  0.9180
 8605SOL     OW37276   1.810   1.092   6.585  0.2269  0.6283 -0.0769
 8605SOL    HW137277   1.800   1.182   6.616  1.6774  0.6951  0.1712
 8605SOL    HW237278   1.743   1.039   6.628 -1.5390  3.1213  0.2447
 8606SOL     OW37279   2.734   0.299   4.150 -0.4709  0.2175  0.4915
 8606SOL    HW137280   2.672   0.264   4.214  0.8235  1.1090  2.2426
 8606SOL    HW237281   2.761   0.220   4.102 -1.6091 -0.6489  1.2917
 8607SOL     OW37282   2.554   0.930   9.878 -0.0877 -0.3622 -0.0389
 8607SOL    HW137283   2.496   0.860   9.848  0.1815  0.3035 -2.1071
 8607SOL    HW237284   2.639   0.890   9.860 -0.7397 -1.5768 -0.4470
 8608SOL     OW37285   3.312   0.008   5.927  0.1519  0.1853 -0.0645
 8608SOL    HW137286   3.227   4.707   5.893 -0.4521  0.6152  1.1129
 8608SOL    HW237287   3.317   4.689   6.011 -0.5027 -2.1695 -1.2777
 8609SOL     OW37288   3.140   2.961   5.676 -0.3286 -0.0714 -0.5889
 8609SOL    HW137289   3.182   3.031   5.727  0.1926  0.9779 -2.4555
 8609SOL    HW237290   3.201   2.943   5.605  0.7635  2.2254 -0.2426
 8610SOL     OW37291   4.709   4.236   1.807 -0.4129 -0.4351  0.2351
 8610SOL    HW137292   0.058   4.290   1.780  0.6399 -1.2144  1.6639
 8610SOL    HW237293   0.023   4.171   1.864 -1.1563  0.4804  1.8119
 8611SOL     OW37294   2.185   1.095   0.490 -0.4987  0.3427  0.1721
 8611SOL    HW137295   2.118   1.059   0.548  0.2279 -1.9205 -0.3877
 8611SOL    HW237296   2.171   1.036   0.416  0.1160  0.8203 -0.3271
 8612SOL     OW37297   0.127   2.603   7.910  0.0736 -0.0601  0.2786
 8612SOL    HW137298   0.034   2.621   7.923  0.0944  0.5368 -0.4271
 8612SOL    HW237299   0.150   2.573   7.999  2.4280 -0.9054 -0.6131
 8613SOL     OW37300   2.169   1.181  10.805  0.3538 -0.5180  0.3338
 8613SOL    HW137301   2.178   1.114  10.737 -0.3950  0.4720 -0.7408
 8613SOL    HW237302   2.213   1.261  10.775  0.3127  0.1136  1.9723
 8614SOL     OW37303   2.914   0.280   6.639 -0.2921  0.0229 -0.4219
 8614SOL    HW137304   2.941   0.247   6.725 -2.3662  0.9735  0.5878
 8614SOL    HW237305   2.992   0.253   6.591 -0.8727  0.6134 -1.7021
 8615SOL     OW37306   3.998   4.359   1.552 -0.9757  0.1646 -0.4665
 8615SOL    HW137307   3.907   4.334   1.536 -0.8134  0.8396 -2.4244
 8615SOL    HW237308   3.989   4.449   1.583  0.3518 -0.2366  1.0617
 8616SOL     OW37309   1.097   2.955   7.653  0.0132 -0.0408 -0.2752
 8616SOL    HW137310   1.022   3.007   7.682 -1.6522 -2.4178 -0.2939
 8616SOL    HW237311   1.085   2.931   7.561 -0.5085  1.3136 -0.5650
 8617SOL     OW37312   4.629   2.981   6.979 -0.0840 -0.4766 -0.1538
 8617SOL    HW137313   4.547   3.020   6.948 -0.0290 -0.5582 -0.3999
 8617SOL    HW237314   4.691   3.050   6.955  0.2334 -0.3126  1.1678
 8618SOL     OW37315   2.706   4.637   8.429  0.2455 -0.0336  0.2355
 8618SOL    HW137316   2.792   4.608   8.400  0.9348  0.6028  1.6374
 8618SOL    HW237317   2.660   4.557   8.404 -1.7133  1.5927 -1.3465
 8619SOL     OW37318   3.816   0.208   6.016  0.5613 -0.1950 -0.1493
 8619SOL    HW137319   3.816   0.115   5.992  0.9140  0.6404 -3.3263
 8619SOL    HW237320   3.726   0.238   6.005 -0.0156 -2.4347 -1.5814
 8620SOL     OW37321   0.738   4.041  17.226 -0.3755  0.1705  0.4633
 8620SOL    HW137322   0.813   4.010  17.175 -0.7231 -0.9459  0.6387
 8620SOL    HW237323   0.690   4.091  17.160  0.9426  1.7860  0.7515
 8621SOL     OW37324   3.897   2.342   7.719 -0.4096 -0.2573 -0.4891
 8621SOL    HW137325   3.849   2.258   7.718 -0.1884 -0.3750 -1.4632
 8621SOL    HW237326   3.926   2.351   7.810  0.2108 -0.0199 -0.7173
 8622SOL     OW37327   1.901   0.525  17.649 -0.1329 -0.3666  0.2167
 8622SOL    HW137328   1.809   0.551  17.659 -0.2450 -0.2812 -0.9994
 8622SOL    HW237329   1.899   0.491  17.559  0.4057 -0.9232  0.4260
 8623SOL     OW37330   2.960   1.098   8.609  0.2559 -0.1133 -0.5987
 8623SOL    HW137331   2.953   1.034   8.680 -0.2590 -0.3209 -0.8354
 8623SOL    HW237332   2.869   1.086   8.581  0.5005 -2.6058 -0.3398
 8624SOL     OW37333   3.686   0.352   7.014  0.1250  0.1539 -0.4369
 8624SOL    HW137334   3.661   0.443   6.994  1.5225  0.0910 -2.5343
 8624SOL    HW237335   3.776   0.353   6.980  0.0109 -1.2645 -0.7470
 8625SOL     OW37336   1.796   3.093   0.541  0.2888  0.3018  0.6725
 8625SOL    HW137337   1.745   3.034   0.486  0.3725  1.8106 -1.0354
 8625SOL    HW237338   1.868   3.112   0.480 -1.5227  1.4633 -1.1065
 8626SOL     OW37339   1.786   3.891   2.588 -0.1291  0.3432  0.0527
 8626SOL    HW137340   1.882   3.900   2.593 -0.2067  1.0255  0.3083
 8626SOL    HW237341   1.760   3.862   2.676 -1.3301  0.8927 -0.1320
 8627SOL     OW37342   2.812   0.784  16.021  0.0597 -0.4946  0.0823
 8627SOL    HW137343   2.864   0.853  16.061  0.5962 -1.4914  1.1241
 8627SOL    HW237344   2.784   0.725  16.091 -0.1227 -2.4588 -1.6222
 8628SOL     OW37345   0.591   0.160   5.033  0.1960  0.2316  0.2016
 8628SOL    HW137346   0.683   0.139   5.014 -0.5326 -0.8797 -2.0128
 8628SOL    HW237347   0.604   0.248   5.068 -1.2252  0.4455  0.1946
 8629SOL     OW37348   1.210   3.359   9.299  0.2457  0.7550  0.8041
 8629SOL    HW137349   1.169   3.288   9.250 -1.0132  0.9287  1.6298
 8629SOL    HW237350   1.305   3.344   9.295 -0.1149 -1.2714 -0.1296
 8630SOL     OW37351   3.704   4.726   1.614  0.0877 -0.1649 -0.1812
 8630SOL    HW137352   3.688   0.055   1.691  0.6999  2.2744 -1.8119
 8630SOL    HW237353   3.612   4.705   1.597 -0.2041  0.2142  0.8985
 8631SOL     OW37354   2.266   3.671   3.035 -0.4297  0.0378  0.0269
 8631SOL    HW137355   2.285   3.634   2.948 -1.6100  1.1862 -0.7315
 8631SOL    HW237356   2.336   3.732   3.059  0.7589 -1.6021  0.7757
 8632SOL     OW37357   0.826   0.068   3.692 -0.1428 -0.2472  0.0953
 8632SOL    HW137358   0.842   0.057   3.598 -1.2588 -0.3428 -0.0875
 8632SOL    HW237359   0.788   0.156   3.687 -0.1639 -0.3325 -1.5092
 8633SOL     OW37360   0.750   2.949   3.591 -0.4600 -0.1511  0.1611
 8633SOL    HW137361   0.789   2.991   3.515  0.3061 -0.2932  0.4715
 8633SOL    HW237362   0.710   2.872   3.550  0.6480 -1.3435  1.3259
 8634SOL     OW37363   4.357   3.453   2.637  0.1546  0.4523 -0.5964
 8634SOL    HW137364   4.342   3.533   2.586 -0.9866  1.1708  0.8431
 8634SOL    HW237365   4.430   3.471   2.696  0.2042  1.2064 -0.8869
 8635SOL     OW37366   0.086   4.490   7.814 -0.0224  0.0682  0.4092
 8635SOL    HW137367   0.146   4.431   7.860 -0.2270 -0.8941 -0.5752
 8635SOL    HW237368   0.036   4.519   7.891 -3.2923 -2.5571 -0.7263
 8636SOL     OW37369   2.024   0.576   1.089  0.1963 -0.8470 -0.1594
 8636SOL    HW137370   2.099   0.526   1.121  2.8413  2.6994 -0.8230
 8636SOL    HW237371   1.956   0.510   1.096 -0.2263 -0.3600  0.4030
 8637SOL     OW37372   0.334   0.473   7.448 -0.1858  0.1850  0.2126
 8637SOL    HW137373   0.370   0.518   7.525  1.3862 -0.9490  0.1287
 8637SOL    HW237374   0.391   0.396   7.449  1.3896  1.3454  0.5316
 8638SOL     OW37375   0.475   3.602   0.294  0.4188  0.2342  0.0685
 8638SOL    HW137376   0.414   3.672   0.316 -0.3081 -0.3515 -0.0710
 8638SOL    HW237377   0.489   3.633   0.205 -0.9692  0.2062 -0.1620
 8639SOL     OW37378   1.041   2.088  13.307 -0.1151  0.2758  0.2362
 8639SOL    HW137379   1.004   2.106  13.393  0.3788 -0.5144  0.6116
 8639SOL    HW237380   1.110   2.153  13.293 -1.0268  1.8556  3.0764
 8640SOL     OW37381   3.376   4.715  15.065 -0.1212  0.5593  0.0243
 8640SOL    HW137382   3.316   4.682  14.997 -0.6514 -1.1365  1.3097
 8640SOL    HW237383   3.381   4.645  15.130  0.0583  1.3616  0.8605
 8641SOL     OW37384   3.307   0.034   8.501  0.7223  0.1464 -0.4975
 8641SOL    HW137385   3.332   0.126   8.511  0.4358  0.1536  0.1497
 8641SOL    HW237386   3.273   0.022   8.589  2.1273 -0.6674 -0.0668
 8642SOL     OW37387   3.718   3.042  10.781 -0.3628  0.1052 -0.5382
 8642SOL    HW137388   3.766   3.037  10.699 -0.5999  0.7961 -0.7173
 8642SOL    HW237389   3.760   2.969  10.826 -0.4405  0.6983  0.5195
 8643SOL     OW37390   3.654   3.141  13.708 -0.2981 -0.3677  0.3909
 8643SOL    HW137391   3.678   3.206  13.774  1.9400 -0.1706 -0.6060
 8643SOL    HW237392   3.621   3.064  13.756 -0.1795 -1.6745 -1.6307
 8644SOL     OW37393   2.701   3.228   3.194 -0.1270 -0.4657  0.4715
 8644SOL    HW137394   2.742   3.184   3.119  0.6640  0.7210  0.2183
 8644SOL    HW237395   2.726   3.168   3.265  0.4682  2.4130  2.6859
 8645SOL     OW37396   0.335   3.596  14.448 -0.4504  0.5624  0.0084
 8645SOL    HW137397   0.380   3.597  14.363 -0.5296  0.6722 -0.0328
 8645SOL    HW237398   0.396   3.550  14.505 -0.7438 -0.2120 -0.2989
 8646SOL     OW37399   2.503   3.208   9.594  0.2737  0.3165  0.0648
 8646SOL    HW137400   2.501   3.113   9.603 -0.8191  0.3068 -0.1890
 8646SOL    HW237401   2.491   3.221   9.500  0.9247  0.6246  0.0305
 8647SOL     OW37402   3.295   4.700   2.141  0.1071  0.2044 -0.1867
 8647SOL    HW137403   3.288   4.630   2.077 -1.8007  0.4640 -0.2681
 8647SOL    HW237404   3.205   0.002   2.154 -0.0752  0.1302 -1.3617
 8648SOL     OW37405   3.927   0.921  15.126  0.6263  0.3600  0.4657
 8648SOL    HW137406   3.968   1.002  15.155  4.3224 -1.3080 -0.1707
 8648SOL    HW237407   3.929   0.877  15.211  0.7044 -2.2797 -0.8884
 8649SOL     OW37408   0.558   3.124   8.922  0.2003 -0.8543 -1.1320
 8649SOL    HW137409   0.563   3.188   8.851 -2.0026  1.0103  0.3844
 8649SOL    HW237410   0.516   3.051   8.877  0.3360 -2.3601  1.1854
 8650SOL     OW37411   2.232   1.808  16.784  0.1895 -0.4080  0.1846
 8650SOL    HW137412   2.293   1.773  16.849  0.8229  0.0110 -0.1788
 8650SOL    HW237413   2.199   1.887  16.827  0.4492 -0.0019 -0.3688
 8651SOL     OW37414   1.997   2.506   2.976  0.2512 -0.0771 -0.0055
 8651SOL    HW137415   2.046   2.523   2.896 -1.0671  0.7744 -0.6337
 8651SOL    HW237416   2.031   2.578   3.029 -1.5110  0.8883 -0.1756
 8652SOL     OW37417   4.690   0.757   4.748  0.4123 -0.2867 -1.2103
 8652SOL    HW137418   4.618   0.776   4.808  0.9491 -1.6162 -0.1715
 8652SOL    HW237419   4.722   0.845   4.728  1.9731 -0.7663 -0.7782
 8653SOL     OW37420   4.052   2.804   2.262 -0.7912 -0.0132 -0.4596
 8653SOL    HW137421   4.018   2.719   2.290  0.6473 -0.3644  0.2819
 8653SOL    HW237422   4.134   2.802   2.313  0.3576 -1.5936 -2.3844
 8654SOL     OW37423   4.116   3.608   1.498  0.3113 -0.0490 -0.9155
 8654SOL    HW137424   4.090   3.601   1.589  1.8170  0.3529 -0.4473
 8654SOL    HW237425   4.099   3.700   1.478 -0.0819 -0.1595 -1.0847
 8655SOL     OW37426   2.385   3.497   3.714  0.5308  0.2493  0.0936
 8655SOL    HW137427   2.385   3.488   3.810  1.6791  2.3356  0.2818
 8655SOL    HW237428   2.372   3.591   3.708 -0.5712  0.0070 -1.3243
 8656SOL     OW37429   2.088   4.635   2.128  0.3086 -0.0117  0.0526
 8656SOL    HW137430   2.133   4.661   2.209  0.0503  0.8686 -0.0854
 8656SOL    HW237431   2.150   4.672   2.065  0.1557 -0.8890 -0.6055
 8657SOL     OW37432   3.068   3.310   4.676 -0.4465 -0.1156  0.0284
 8657SOL    HW137433   3.015   3.358   4.613 -0.6524  0.9750  1.0383
 8657SOL    HW237434   3.049   3.221   4.647  1.6338 -0.6632  0.3514
 8658SOL     OW37435   4.317   2.890   2.969 -0.1645 -0.5666 -0.6338
 8658SOL    HW137436   4.271   2.867   3.049  0.9451  0.2820  0.2406
 8658SOL    HW237437   4.265   2.960   2.929  0.2300 -0.3084 -0.7038
 8659SOL     OW37438   1.067   0.881   2.111 -0.1318  0.0956 -0.4158
 8659SOL    HW137439   1.153   0.890   2.152 -0.2111  1.9142 -0.6692
 8659SOL    HW237440   1.013   0.896   2.189  0.1517  2.3121 -0.6469
 8660SOL     OW37441   1.049   3.076   1.915  0.1811 -0.2987  0.4854
 8660SOL    HW137442   1.120   3.013   1.918  1.2690  0.8706 -0.3983
 8660SOL    HW237443   1.092   3.159   1.892  1.4414 -1.4633 -1.3230
 8661SOL     OW37444   4.701   3.687   6.595 -1.0235 -0.0649  0.1251
 8661SOL    HW137445   4.617   3.727   6.576 -0.1238  0.9812 -1.6248
 8661SOL    HW237446   4.706   3.643   6.510  1.3615 -1.8720  1.1997
 8662SOL     OW37447   3.842   2.773  13.003  0.3092  0.4702  0.0729
 8662SOL    HW137448   3.761   2.724  12.994 -0.2602  1.4935 -0.2757
 8662SOL    HW237449   3.835   2.811  13.090  0.7718 -1.7677  1.1106
 8663SOL     OW37450   1.542   2.357   3.097  0.5235  0.1310 -0.0663
 8663SOL    HW137451   1.626   2.343   3.054 -0.6308 -1.4153 -1.8452
 8663SOL    HW237452   1.489   2.309   3.033  0.3580  1.5920 -1.0204
 8664SOL     OW37453   3.391   0.457   5.280  0.3417  0.6171 -0.3618
 8664SOL    HW137454   3.332   0.519   5.236 -1.7507 -1.1635 -0.1116
 8664SOL    HW237455   3.469   0.466   5.225  2.7185 -0.5376  2.8589
 8665SOL     OW37456   3.604   3.161   3.354  0.8086 -0.1358 -0.2244
 8665SOL    HW137457   3.539   3.182   3.421  0.4664  1.0320 -0.9362
 8665SOL    HW237458   3.628   3.250   3.329 -0.6481 -0.0030 -1.1232
 8666SOL     OW37459   2.025   0.424   8.964  0.1474  0.0585 -0.1766
 8666SOL    HW137460   2.115   0.389   8.961 -1.0993 -3.2810  1.4463
 8666SOL    HW237461   2.038   0.514   8.992  1.5310  0.2621 -1.4375
 8667SOL     OW37462   1.838   0.013  13.099  0.3172 -0.1916 -0.1283
 8667SOL    HW137463   1.799   4.684  13.031  1.0285  0.3648 -0.9837
 8667SOL    HW237464   1.788   4.711  13.175 -1.4442  0.0153 -1.2191
 8668SOL     OW37465   0.439   3.689  11.343  0.2727  0.1535  0.5571
 8668SOL    HW137466   0.363   3.743  11.320  1.5973  1.7250 -0.1088
 8668SOL    HW237467   0.479   3.734  11.417 -0.7493  3.1582 -0.6920
 8669SOL     OW37468   3.683   1.612   4.729  0.0467  0.2265  0.7385
 8669SOL    HW137469   3.615   1.553   4.694 -0.6959  2.3647 -1.4053
 8669SOL    HW237470   3.643   1.689   4.690  0.2269 -0.6901 -1.2703
 8670SOL     OW37471   2.212   2.396   7.969  0.3998 -0.9197  0.2365
 8670SOL    HW137472   2.145   2.359   8.027 -2.3905  0.5796 -2.0398
 8670SOL    HW237473   2.187   2.344   7.892 -1.6145  1.4814 -0.7221
 8671SOL     OW37474   0.136   1.752  13.377  0.1013  0.5065 -0.1590
 8671SOL    HW137475   0.090   1.670  13.361  1.4862 -0.7247  2.2022
 8671SOL    HW237476   0.228   1.724  13.374 -1.0625 -3.1440 -2.0453
 8672SOL     OW37477   2.437   3.954   8.542 -0.2377  0.1884 -0.3172
 8672SOL    HW137478   2.464   3.997   8.462 -0.3199 -1.9447 -1.4951
 8672SOL    HW237479   2.373   4.022   8.563  0.6116  0.9070 -0.1014
 8673SOL     OW37480   3.173   0.917   8.386 -0.8554 -0.5188 -0.6820
 8673SOL    HW137481   3.219   0.931   8.469 -0.2944 -0.6200 -0.9702
 8673SOL    HW237482   3.160   1.010   8.367  1.6793  0.5120  2.5489
 8674SOL     OW37483   2.721   0.197   0.302 -0.3670 -0.0570  0.0511
 8674SOL    HW137484   2.639   0.168   0.264 -0.7080 -2.1889  2.3900
 8674SOL    HW237485   2.698   0.182   0.394  0.8256 -1.8462  0.0699
 8675SOL     OW37486   1.669   3.203   6.350 -0.2017 -0.5696  0.3861
 8675SOL    HW137487   1.706   3.202   6.438 -0.2654  0.0184  0.4247
 8675SOL    HW237488   1.637   3.114   6.343 -1.7257  0.2105 -2.6977
 8676SOL     OW37489   4.001   1.684   8.414  0.0421 -0.9800  0.3884
 8676SOL    HW137490   4.088   1.689   8.454 -0.7709 -0.7210  2.1213
 8676SOL    HW237491   3.954   1.708   8.494  0.3320  0.4662  0.1231
 8677SOL     OW37492   2.664   2.257   8.879  0.3899 -0.1852 -0.4541
 8677SOL    HW137493   2.696   2.330   8.826  0.3542  0.6347  0.6453
 8677SOL    HW237494   2.676   2.180   8.823  1.6244  1.3065 -2.2318
 8678SOL     OW37495   2.135   2.687   7.055 -0.2229 -0.2795 -0.5979
 8678SOL    HW137496   2.119   2.713   7.146  0.7236 -0.9428 -0.2462
 8678SOL    HW237497   2.098   2.765   7.012 -0.1229  1.1467  1.9019
 8679SOL     OW37498   0.044   3.380  14.044  0.0394 -0.3922 -0.1287
 8679SOL    HW137499   0.057   3.381  14.139 -1.4534 -0.8182  0.0794
 8679SOL    HW237500   0.050   3.474  14.024  1.2995 -0.4602 -0.0719
 8680SOL     OW37501   3.653   0.145   9.044 -0.4962 -0.4105 -0.0222
 8680SOL    HW137502   3.670   0.063   9.091  2.5442  0.2390  0.0334
 8680SOL    HW237503   3.627   0.198   9.119  0.9337  1.0358 -0.5485
 8681SOL     OW37504   0.035   0.265   8.225  0.0494  0.4600 -0.0916
 8681SOL    HW137505   0.087   0.186   8.236 -0.8665  0.1630  2.0621
 8681SOL    HW237506   4.693   0.257   8.292  2.5371 -2.5646  2.0290
 8682SOL     OW37507   3.256   0.801   3.536 -0.2177 -0.4676  0.3928
 8682SOL    HW137508   3.232   0.870   3.473  0.1087 -0.1033  0.6667
 8682SOL    HW237509   3.170   0.774   3.569 -1.6117  0.8822 -2.1007
 8683SOL     OW37510   0.985   2.181   2.297 -0.1757 -0.5086 -0.4422
 8683SOL    HW137511   0.985   2.210   2.206 -1.0318 -0.4682 -0.4279
 8683SOL    HW237512   0.966   2.087   2.293 -0.2462 -0.5961  1.6395
 8684SOL     OW37513   3.256   0.578   4.701 -0.1815  0.2092 -0.3155
 8684SOL    HW137514   3.233   0.649   4.761  0.0743  0.0100  0.0257
 8684SOL    HW237515   3.274   0.526   4.780  0.1172 -0.5674 -0.8876
 8685SOL     OW37516   0.372   0.453   2.908  0.2945  0.1548  0.4496
 8685SOL    HW137517   0.319   0.500   2.972 -2.1370  0.1723 -1.5609
 8685SOL    HW237518   0.357   0.365   2.942  0.7445 -0.0423  0.1280
 8686SOL     OW37519   4.044   4.589   6.748  0.1732  0.2275  0.1925
 8686SOL    HW137520   3.956   4.593   6.787  0.1616  0.1974  0.1690
 8686SOL    HW237521   4.028   4.530   6.675 -1.9246 -0.0082  0.8350
 8687SOL     OW37522   0.355   3.498   3.780 -0.0711 -0.2004 -0.4470
 8687SOL    HW137523   0.403   3.574   3.746 -1.8353  1.6177  1.1771
 8687SOL    HW237524   0.373   3.424   3.721 -1.7180 -0.7280 -0.2917
 8688SOL     OW37525   4.271   1.468   6.236 -0.1291  0.3180  0.8063
 8688SOL    HW137526   4.236   1.386   6.270  0.6511  0.1706  1.2612
 8688SOL    HW237527   4.290   1.444   6.145 -0.5543 -0.4891  0.9361
 8689SOL     OW37528   1.669   0.777   9.289  0.3380  0.1914  0.5288
 8689SOL    HW137529   1.761   0.754   9.301  0.1384 -0.0371  1.6054
 8689SOL    HW237530   1.652   0.718   9.215  1.0093  0.2915  0.2917
 8690SOL     OW37531   4.460   4.101  13.242 -0.4486  0.0120 -0.7902
 8690SOL    HW137532   4.447   4.157  13.166  0.6737  1.0168 -0.2321
 8690SOL    HW237533   4.410   4.020  13.230  0.6124 -0.4073 -2.4339
 8691SOL     OW37534   2.633   1.553   1.165 -0.2353 -0.0989 -0.4610
 8691SOL    HW137535   2.593   1.631   1.126 -1.7995 -0.2211  0.9002
 8691SOL    HW237536   2.638   1.497   1.087 -0.3472 -0.1925 -0.3991
 8692SOL     OW37537   2.917   0.827   4.854 -0.4841  0.8019  0.1281
 8692SOL    HW137538   2.992   0.877   4.821 -1.1355  2.0289  0.4881
 8692SOL    HW237539   2.915   0.755   4.792  1.4791  0.1286  0.8520
 8693SOL     OW37540   0.725   3.609  15.571 -0.8791  0.9547  0.2526
 8693SOL    HW137541   0.747   3.516  15.578 -0.3662  1.0874  0.3870
 8693SOL    HW237542   0.695   3.632  15.659  0.7419  2.0239  0.5234
 8694SOL     OW37543   1.311   1.560   8.705 -0.2437 -0.2859  0.4558
 8694SOL    HW137544   1.380   1.626   8.699 -1.8907  1.4378  0.5657
 8694SOL    HW237545   1.282   1.552   8.614 -0.7460  0.1270  0.5812
 8695SOL     OW37546   2.936   2.047   2.801 -0.3223 -0.1456  0.5574
 8695SOL    HW137547   3.010   2.003   2.759  1.2619  2.4759  0.6627
 8695SOL    HW237548   2.929   2.012   2.890  0.5321 -0.1834  0.6143
 8696SOL     OW37549   3.356   1.269  11.891  0.3365 -0.0110  0.2851
 8696SOL    HW137550   3.447   1.239  11.880  0.3551  1.4959 -3.5984
 8696SOL    HW237551   3.326   1.229  11.972 -0.1924 -0.7802 -0.3009
 8697SOL     OW37552   3.083   3.750   2.680 -0.4610  0.1236 -0.4900
 8697SOL    HW137553   2.997   3.783   2.654 -1.3350 -2.1912 -0.6268
 8697SOL    HW237554   3.063   3.690   2.752  0.7411  1.0175  0.5818
 8698SOL     OW37555   1.411   0.793   6.439  0.0570  0.7548 -0.1071
 8698SOL    HW137556   1.404   0.772   6.532  1.0554  1.7506  0.1937
 8698SOL    HW237557   1.497   0.751   6.431 -0.3072  0.4651 -2.7046
 8699SOL     OW37558   3.568   2.070   9.728  0.0055 -0.6984 -0.0882
 8699SOL    HW137559   3.486   2.113   9.704 -0.4290 -1.0530  0.7812
 8699SOL    HW237560   3.554   2.039   9.817  0.8111  3.2331  1.4291
 8700SOL     OW37561   4.724   1.094   0.813 -0.0817  0.3093 -0.0590
 8700SOL    HW137562   0.008   1.005   0.849 -0.5754 -0.6421 -2.2866
 8700SOL    HW237563   0.005   1.143   0.895 -1.2256  1.4309 -0.6466
 8701SOL     OW37564   0.997   0.677   0.707  0.0670 -0.1277  0.7081
 8701SOL    HW137565   1.088   0.692   0.681 -0.4694  0.5212 -0.7741
 8701SOL    HW237566   1.007   0.582   0.705  1.7539  0.0469  0.4495
 8702SOL     OW37567   3.113   3.713  14.030 -0.2437  0.5436 -0.2805
 8702SOL    HW137568   3.115   3.760  13.947  1.4157 -1.2351 -1.2602
 8702SOL    HW237569   3.023   3.724  14.060 -0.2338  0.6603 -0.2943
 8703SOL     OW37570   3.914   2.858   1.492 -0.0314  0.6674 -0.8094
 8703SOL    HW137571   4.000   2.899   1.497  0.9150 -1.4100  0.3145
 8703SOL    HW237572   3.936   2.768   1.515 -2.3017  0.9684  2.5465
 8704SOL     OW37573   3.697   4.627   2.595 -0.4253  0.2626  0.0398
 8704SOL    HW137574   3.615   4.602   2.636  1.1405 -1.0554  2.3793
 8704SOL    HW237575   3.667   4.701   2.542  0.7120  0.2383 -0.6570
 8705SOL     OW37576   1.166   3.007   4.501 -0.2115 -0.1151  0.1432
 8705SOL    HW137577   1.083   3.054   4.506  0.5234  1.0452  1.5649
 8705SOL    HW237578   1.232   3.065   4.539  1.9483 -3.3675  1.3000
 8706SOL     OW37579   4.352   3.997   7.318 -0.1771 -0.4256  0.3156
 8706SOL    HW137580   4.310   3.928   7.370  0.8707  0.4502  2.3195
 8706SOL    HW237581   4.410   4.044   7.378 -0.4699  2.1650 -1.4272
 8707SOL     OW37582   0.117   0.155   6.519 -0.3814  0.2214  0.8498
 8707SOL    HW137583   0.065   0.227   6.555  1.2788  1.9622 -0.2287
 8707SOL    HW237584   0.100   0.081   6.578  0.5258 -0.0746  0.7360
 8708SOL     OW37585   0.093   1.964  15.009  0.2900 -0.0130 -0.4538
 8708SOL    HW137586   0.080   1.875  15.041  2.1331 -0.3797 -0.7539
 8708SOL    HW237587   0.042   1.956  14.928  1.4434  1.3208 -1.3124
 8709SOL     OW37588   2.006   2.071   2.598  0.3728  0.3439  0.5722
 8709SOL    HW137589   1.948   2.095   2.670  0.5933 -1.8668  1.4922
 8709SOL    HW237590   1.988   2.140   2.534 -0.6736 -1.3405 -0.9488
 8710SOL     OW37591   4.061   0.843   6.519  0.1199  0.1921  0.0798
 8710SOL    HW137592   4.077   0.755   6.486 -0.5846 -0.6857  2.0476
 8710SOL    HW237593   4.151   0.867   6.538  0.1036  0.2850  0.0384
 8711SOL     OW37594   0.608   2.162   7.278 -0.2691 -0.4419  0.0048
 8711SOL    HW137595   0.578   2.235   7.223  3.5633  0.7044 -0.5668
 8711SOL    HW237596   0.563   2.166   7.362  1.5238  0.9716  0.8893
 8712SOL     OW37597   0.410   0.217   9.984  0.0024 -0.2403  0.1943
 8712SOL    HW137598   0.485   0.203  10.042 -0.6932  0.4953  1.2581
 8712SOL    HW237599   0.350   0.146  10.005 -1.1827 -0.3993 -3.6256
 8713SOL     OW37600   4.154   4.615   8.093  0.6377  0.0825  0.2646
 8713SOL    HW137601   4.113   4.699   8.112  0.3533 -0.6513  2.9157
 8713SOL    HW237602   4.247   4.635   8.081  0.6768 -0.3715 -0.1688
 8714SOL     OW37603   1.059   3.052   0.046 -0.5293  0.1076 -0.5948
 8714SOL    HW137604   1.012   2.975   0.015  1.6428 -0.8501 -1.5260
 8714SOL    HW237605   0.985   3.080   0.100  0.7664  0.6974  0.8852
 8715SOL     OW37606   2.908   2.991   6.053  0.0616 -0.2644 -0.3569
 8715SOL    HW137607   2.956   2.910   6.068  2.0527  1.0757  0.5479
 8715SOL    HW237608   2.818   2.962   6.068  0.3886 -0.7179  0.7084
 8716SOL     OW37609   0.622   4.358   7.283 -0.0715 -0.0299  0.2116
 8716SOL    HW137610   0.714   4.337   7.267 -0.4473 -1.5713  0.0798
 8716SOL    HW237611   0.616   4.425   7.215 -0.8660  0.6844  0.9789
 8717SOL     OW37612   1.577   2.690  12.013  0.0041  0.4681  0.6088
 8717SOL    HW137613   1.485   2.716  12.000 -0.3802 -0.0833  2.1786
 8717SOL    HW237614   1.576   2.679  12.108  0.3759 -3.1340  0.1651
 8718SOL     OW37615   4.118   4.073  13.174  0.1559 -0.0999  0.0911
 8718SOL    HW137616   4.181   4.137  13.141  0.5118 -0.3479  0.2907
 8718SOL    HW237617   4.166   3.995  13.148  0.7467  0.0730  0.6484
 8719SOL     OW37618   3.625   2.067  16.930  0.2177  0.6533  0.7661
 8719SOL    HW137619   3.666   2.124  16.865 -3.2760  1.8358 -0.3933
 8719SOL    HW237620   3.702   2.028  16.972 -0.1145 -0.6171  0.2077
 8720SOL     OW37621   1.068   2.461   1.467 -0.0146  0.0373 -0.2158
 8720SOL    HW137622   0.978   2.437   1.447  0.9321 -3.3278 -0.5135
 8720SOL    HW237623   1.117   2.394   1.419  1.5053 -0.5745  2.1675
 8721SOL     OW37624   0.207   0.248   4.033  0.2325 -0.0672  0.0049
 8721SOL    HW137625   0.235   0.328   4.077 -0.6307  1.0171 -1.4595
 8721SOL    HW237626   0.112   0.254   4.028  0.4575  2.2797 -1.2468
 8722SOL     OW37627   2.251   3.185   6.295  0.4793 -0.3612  0.0868
 8722SOL    HW137628   2.163   3.179   6.333  0.9155  0.8241  1.2834
 8722SOL    HW237629   2.303   3.235   6.358  0.3514  0.5396 -0.5241
 8723SOL     OW37630   3.773   1.646   5.997 -0.2937  0.2855 -0.6231
 8723SOL    HW137631   3.816   1.611   6.075 -2.1460  0.2670  0.3915
 8723SOL    HW237632   3.827   1.637   5.919  0.1770  0.8811 -0.3669
 8724SOL     OW37633   0.416   2.510   2.222 -0.4920  0.1315 -0.1252
 8724SOL    HW137634   0.431   2.601   2.248 -1.9038  0.3272  0.0066
 8724SOL    HW237635   0.321   2.504   2.230 -0.4521  3.2086  2.4758
 8725SOL     OW37636   2.650   4.557  17.247 -0.0255  0.7056  0.1490
 8725SOL    HW137637   2.562   4.547  17.282 -0.7720  1.0589 -1.6455
 8725SOL    HW237638   2.665   4.651  17.236 -3.3607  1.2412  0.4201
 8726SOL     OW37639   2.470   1.086   0.932  0.1305 -0.0362 -0.1708
 8726SOL    HW137640   2.389   1.051   0.971  0.3719 -1.3571 -0.8369
 8726SOL    HW237641   2.471   1.049   0.844  0.4003 -1.4372  0.4160
 8727SOL     OW37642   1.119   3.458  10.880  0.4902 -0.1660  0.4735
 8727SOL    HW137643   1.206   3.419  10.868 -0.6249 -2.3613 -0.4566
 8727SOL    HW237644   1.082   3.397  10.944 -0.2849 -0.1233  0.0646
 8728SOL     OW37645   0.865   2.301   4.969 -0.7630 -0.2297 -0.4172
 8728SOL    HW137646   0.777   2.328   4.994 -0.4462  1.5166 -1.1804
 8728SOL    HW237647   0.866   2.264   4.880  2.9437 -1.9201  0.3059
 8729SOL     OW37648   3.965   3.957   2.464  0.2178 -0.0152 -0.2515
 8729SOL    HW137649   3.979   4.002   2.548 -2.5547  1.6339 -0.6862
 8729SOL    HW237650   3.873   3.934   2.477 -0.8589  1.9872 -4.4864
 8730SOL     OW37651   3.869   0.372  12.233  0.4482 -0.3520 -0.0739
 8730SOL    HW137652   3.837   0.444  12.288 -0.0262  0.0075 -0.8271
 8730SOL    HW237653   3.930   0.417  12.175 -1.0779  2.5911  0.6240
 8731SOL     OW37654   0.980   0.465   2.092 -0.0265 -0.4069  0.5743
 8731SOL    HW137655   1.016   0.432   2.174  0.3543 -1.0436  0.1536
 8731SOL    HW237656   0.925   0.536   2.125 -0.1547 -0.1938 -0.0928
 8732SOL     OW37657   3.594   0.926  17.263 -0.0945 -0.0164  0.0831
 8732SOL    HW137658   3.669   0.971  17.302 -0.4851  0.6445  0.0640
 8732SOL    HW237659   3.611   0.837  17.295  1.2242  0.0520 -0.4291
 8733SOL     OW37660   2.409   3.722   7.806 -0.1209  0.2810 -0.1900
 8733SOL    HW137661   2.389   3.757   7.893 -2.2219 -0.3852 -0.4189
 8733SOL    HW237662   2.504   3.738   7.798  0.2205  0.2713  3.8803
 8734SOL     OW37663   4.031   0.540  12.088  0.0024  0.5521 -0.1487
 8734SOL    HW137664   4.068   0.586  12.164  0.7609 -1.8287  0.9426
 8734SOL    HW237665   4.085   0.574  12.018  0.4578  0.9554  0.3973
 8735SOL     OW37666   2.805   1.552   8.662  0.5033 -0.2391  0.0169
 8735SOL    HW137667   2.824   1.575   8.571  0.7238  3.2378  0.9274
 8735SOL    HW237668   2.889   1.522   8.695  0.2532 -2.9186 -1.7521
 8736SOL     OW37669   4.370   4.293   5.439 -0.1896  0.5189 -0.1403
 8736SOL    HW137670   4.436   4.224   5.441 -0.0562  0.6874  1.6921
 8736SOL    HW237671   4.382   4.349   5.516 -0.2326 -0.0485  0.2811
 8737SOL     OW37672   3.714   0.203   5.624 -0.1606  0.4653  0.2846
 8737SOL    HW137673   3.622   0.203   5.653 -0.4314 -1.3481 -0.5727
 8737SOL    HW237674   3.719   0.124   5.571  1.4910  0.3780  0.5828
 8738SOL     OW37675   1.768   1.119  16.357  0.2765  0.2346  0.0922
 8738SOL    HW137676   1.825   1.090  16.286  1.9643  1.2917  1.0050
 8738SOL    HW237677   1.796   1.210  16.349 -0.8688  0.3992 -1.9574
 8739SOL     OW37678   2.404   1.849   4.453  0.0338  0.3873 -0.0120
 8739SOL    HW137679   2.471   1.913   4.426  0.5905 -1.7657 -3.7457
 8739SOL    HW237680   2.469   1.781   4.470 -0.7145 -1.1897 -3.5441
 8740SOL     OW37681   4.713   3.683   8.036  0.2870  0.1208  0.1781
 8740SOL    HW137682   0.079   3.707   8.027  0.6291 -1.0894  0.4707
 8740SOL    HW237683   4.717   3.698   8.130  2.6184 -0.8903  0.2417
 8741SOL     OW37684   2.764   4.255   9.387  0.1589  0.3088  0.3875
 8741SOL    HW137685   2.820   4.206   9.327 -1.3096 -0.5196 -0.2920
 8741SOL    HW237686   2.832   4.276   9.451 -0.1122 -0.9960  1.0830
 8742SOL     OW37687   1.980   0.131  16.123 -0.1418  0.1601 -0.0438
 8742SOL    HW137688   1.901   0.106  16.075  0.6010  0.1981 -1.3001
 8742SOL    HW237689   1.941   0.172  16.200 -1.0916 -0.0797 -0.3965
 8743SOL     OW37690   4.358   3.779   8.406  0.6449  0.4153  0.1224
 8743SOL    HW137691   4.292   3.709   8.398  1.5808 -0.8229  3.2148
 8743SOL    HW237692   4.382   3.764   8.497 -0.5451  0.5110  0.4622
 8744SOL     OW37693   1.039   4.301  11.955  0.1655 -0.4357  0.0057
 8744SOL    HW137694   0.984   4.304  11.876  0.8355  2.5371 -0.3486
 8744SOL    HW237695   1.003   4.371  12.009  2.3936  1.6373 -1.1657
 8745SOL     OW37696   3.048   0.400  11.608  0.6979  0.1995 -0.0724
 8745SOL    HW137697   3.076   0.352  11.686 -0.5966  0.0995  0.3267
 8745SOL    HW237698   2.960   0.365  11.596  0.9065 -0.5953  0.6390
 8746SOL     OW37699   4.243   4.098   2.453  0.4804 -0.0604 -0.5196
 8746SOL    HW137700   4.298   4.073   2.527  2.5998  1.8939 -1.4404
 8746SOL    HW237701   4.216   4.010   2.429 -0.3181 -1.1789  4.3786
 8747SOL     OW37702   0.426   1.239   7.646  0.4925  0.0032 -0.1687
 8747SOL    HW137703   0.510   1.285   7.658  1.1940 -1.0159 -1.2168
 8747SOL    HW237704   0.460   1.163   7.601  0.4092  0.6267 -1.2725
 8748SOL     OW37705   2.648   3.737  17.216 -0.3302  0.3970 -0.0034
 8748SOL    HW137706   2.634   3.671  17.284  2.4973  0.0093  0.2302
 8748SOL    HW237707   2.718   3.789  17.255  0.9116 -0.9965 -0.3583
 8749SOL     OW37708   3.362   3.165   5.876 -0.3662 -0.7146  0.0860
 8749SOL    HW137709   3.341   3.088   5.928 -0.6759  1.2992  2.8989
 8749SOL    HW237710   3.446   3.134   5.841  0.1502  0.0317  0.6493
 8750SOL     OW37711   3.108   2.875   9.676  0.7493  0.1677 -0.1539
 8750SOL    HW137712   3.188   2.866   9.729 -1.0944 -1.4291  2.3372
 8750SOL    HW237713   3.147   2.879   9.589  0.5150 -1.5758 -0.3327
 8751SOL     OW37714   3.890   1.217   2.908 -0.1323  0.0203  0.5375
 8751SOL    HW137715   3.930   1.208   2.821  0.9617  1.0980  0.9437
 8751SOL    HW237716   3.888   1.128   2.941  0.5065  0.7083  2.3818
 8752SOL     OW37717   0.205   2.210  13.512 -0.2310  0.3348  0.5174
 8752SOL    HW137718   0.143   2.144  13.480  0.2421 -0.8675  2.0691
 8752SOL    HW237719   0.225   2.182  13.601  2.0111  0.9178  0.1935
 8753SOL     OW37720   0.803   3.377   3.100 -0.1828  0.6598  0.0779
 8753SOL    HW137721   0.896   3.386   3.119  0.3282 -0.8598 -1.7518
 8753SOL    HW237722   0.797   3.409   3.010  1.0551  0.1692 -0.1703
 8754SOL     OW37723   0.885   0.270   4.244  0.4096  0.3610 -0.1648
 8754SOL    HW137724   0.970   0.253   4.204  0.4004  0.9039 -0.4208
 8754SOL    HW237725   0.833   0.296   4.168 -0.7394 -2.6848 -0.3844
 8755SOL     OW37726   0.398   2.156  15.744 -0.5019  0.0041  0.0990
 8755SOL    HW137727   0.445   2.132  15.664 -0.5326  0.7087 -0.1279
 8755SOL    HW237728   0.378   2.066  15.771  0.4018 -0.3190 -0.3145
 8756SOL     OW37729   1.017   2.282  17.643 -0.1643 -0.2532  0.1453
 8756SOL    HW137730   1.041   2.374  17.656 -0.8616  0.2404 -2.0948
 8756SOL    HW237731   0.929   2.279  17.681 -0.7721 -0.0904 -1.2505
 8757SOL     OW37732   2.264   1.141   4.098 -0.1412  0.3328  0.2840
 8757SOL    HW137733   2.184   1.132   4.149  0.9487  0.3802  2.0183
 8757SOL    HW237734   2.311   1.060   4.117 -2.2371 -0.8938  0.1823
 8758SOL     OW37735   2.621   0.931  12.991  0.3410 -0.8268 -0.0920
 8758SOL    HW137736   2.561   0.992  13.035  2.3119  0.3935  0.9303
 8758SOL    HW237737   2.578   0.916  12.908  0.5454 -0.5308 -0.2491
 8759SOL     OW37738   0.202   4.595   2.539 -0.5165  0.7877 -0.6332
 8759SOL    HW137739   0.295   4.616   2.531  0.1733 -2.0811 -0.1013
 8759SOL    HW237740   0.211   4.502   2.562  0.9408  1.2260  0.6306
 8760SOL     OW37741   4.611   1.507   2.509  0.3996  0.0740  0.8697
 8760SOL    HW137742   4.641   1.436   2.567  1.8234 -0.5652 -0.6460
 8760SOL    HW237743   4.522   1.486   2.481  1.8225 -2.2179 -1.9656
 8761SOL     OW37744   3.522   0.507  13.773  0.0257  0.5319 -0.4863
 8761SOL    HW137745   3.452   0.441  13.770  1.6597 -1.3119  2.1387
 8761SOL    HW237746   3.591   0.464  13.823  2.0319  1.2883 -2.6355
 8762SOL     OW37747   0.592   2.999   6.744  0.4428  0.3448 -0.0970
 8762SOL    HW137748   0.569   3.085   6.780  1.3559 -0.0758  1.5091
 8762SOL    HW237749   0.548   2.948   6.812 -2.0670  1.8036 -0.6223
 8763SOL     OW37750   2.581   2.477  12.209 -0.1608 -0.4240  0.4002
 8763SOL    HW137751   2.511   2.416  12.186 -0.5615  0.5457 -0.9769
 8763SOL    HW237752   2.526   2.549  12.238  0.0494  0.0211 -0.2908
 8764SOL     OW37753   3.643   3.080   6.068 -0.5280  0.0244  0.0388
 8764SOL    HW137754   3.626   3.076   5.974 -2.4088  2.2489  0.2765
 8764SOL    HW237755   3.736   3.060   6.059 -0.7258 -0.1203 -1.7135
 8765SOL     OW37756   1.906   3.992   3.632 -0.0149  0.2019 -0.2143
 8765SOL    HW137757   1.921   4.076   3.589  0.6998 -1.4318 -3.1474
 8765SOL    HW237758   1.879   4.020   3.719  0.4170 -0.8168  0.2498
 8766SOL     OW37759   1.433   0.844   9.439  0.3908  0.0446 -0.1193
 8766SOL    HW137760   1.509   0.843   9.380 -0.6648  0.1796 -1.4702
 8766SOL    HW237761   1.443   0.922   9.493  3.4823 -0.5301  0.1628
 8767SOL     OW37762   4.073   3.473   3.714  0.1342  0.4230  0.3399
 8767SOL    HW137763   4.100   3.465   3.805 -0.3971  2.1739  0.6624
 8767SOL    HW237764   4.154   3.447   3.670 -0.3788  0.8173 -0.8644
 8768SOL     OW37765   3.903   0.532   5.242 -0.4694 -0.2151  0.0132
 8768SOL    HW137766   3.900   0.570   5.155  4.5426  2.1873  0.9236
 8768SOL    HW237767   3.831   0.469   5.230  0.1076 -1.0675  1.0783
 8769SOL     OW37768   1.692   2.182   3.328  0.5309 -0.9964 -0.2114
 8769SOL    HW137769   1.673   2.258   3.274  0.8082  0.5295  1.8211
 8769SOL    HW237770   1.667   2.205   3.418  0.5633 -0.5898 -0.3072
 8770SOL     OW37771   0.913   4.039   8.837  0.0925 -0.3113 -0.2542
 8770SOL    HW137772   0.819   4.052   8.849  0.3830  0.0858  1.5460
 8770SOL    HW237773   0.943   4.037   8.928 -0.2075 -0.4732 -0.1583
 8771SOL     OW37774   4.006   4.597   1.709 -0.1531  0.0345 -0.1806
 8771SOL    HW137775   4.022   4.686   1.740  0.0851 -0.7095  1.8313
 8771SOL    HW237776   4.071   4.549   1.760 -0.8953  0.0745  0.8036
 8772SOL     OW37777   3.106   2.085   8.922  0.1064 -0.0554 -0.4698
 8772SOL    HW137778   3.029   2.050   8.877 -1.7066  2.5746  0.5895
 8772SOL    HW237779   3.153   2.097   8.840 -0.1723 -2.4608 -0.9593
 8773SOL     OW37780   1.891   2.495  13.788 -0.5977  0.5222  0.5375
 8773SOL    HW137781   1.808   2.543  13.790 -0.9133  0.0857 -2.2377
 8773SOL    HW237782   1.916   2.513  13.697  1.2723 -0.3132  0.8762
 8774SOL     OW37783   0.069   1.574   3.932 -0.7694 -0.3475 -0.4730
 8774SOL    HW137784   0.033   1.635   3.997  2.2518  0.5380  0.3723
 8774SOL    HW237785   4.712   1.542   3.897 -0.5094 -1.0905 -0.4103
 8775SOL     OW37786   2.360   2.272   0.356 -0.6845 -0.2012 -0.0222
 8775SOL    HW137787   2.452   2.278   0.381 -0.7029  0.4064 -0.1026
 8775SOL    HW237788   2.361   2.189   0.309  0.6169 -1.5030  2.3237
 8776SOL     OW37789   2.304   0.626   4.961  0.0048  0.6183 -0.4966
 8776SOL    HW137790   2.367   0.639   5.032 -0.8688 -2.3267  0.7902
 8776SOL    HW237791   2.358   0.627   4.882 -1.2717 -0.4918 -1.3683
 8777SOL     OW37792   0.377   4.710  10.287  0.1762 -0.2379  0.1128
 8777SOL    HW137793   0.412   0.073  10.277  2.0893 -1.2395 -1.9879
 8777SOL    HW237794   0.443   4.681  10.350 -0.9918 -1.5553  0.7319
 8778SOL     OW37795   4.006   4.339  17.584  0.2945 -0.7079 -0.3799
 8778SOL    HW137796   3.932   4.321  17.643  0.4910 -1.2060 -0.2814
 8778SOL    HW237797   4.075   4.372  17.642  1.8947 -4.0974 -0.3360
 8779SOL     OW37798   2.832   1.678   6.565  0.3186 -1.0484  0.1107
 8779SOL    HW137799   2.796   1.725   6.639 -1.2702  1.5713 -2.3421
 8779SOL    HW237800   2.787   1.727   6.496 -2.5990 -2.6065  0.9094
 8780SOL     OW37801   2.974   2.912  12.787 -0.5691 -0.1893  0.1164
 8780SOL    HW137802   3.002   2.837  12.840 -0.9723 -1.0856 -0.9354
 8780SOL    HW237803   2.952   2.970  12.859  1.0201 -0.0580  0.4867
 8781SOL     OW37804   2.279   4.680   6.786  0.1706 -0.1266 -0.0913
 8781SOL    HW137805   2.268   4.644   6.874  3.1254 -0.9413 -0.0730
 8781SOL    HW237806   2.325   0.035   6.806  0.7667 -0.5091  0.0637
 8782SOL     OW37807   4.646   2.790  13.150  0.5154  0.1826  0.3212
 8782SOL    HW137808   4.664   2.752  13.236 -1.6781 -0.9060  0.3010
 8782SOL    HW237809   4.720   2.850  13.144 -0.0142  0.9130  1.1270
 8783SOL     OW37810   3.916   2.628   7.941  0.1294  0.0625 -0.8358
 8783SOL    HW137811   3.923   2.645   8.035 -1.3662 -3.3733 -0.1007
 8783SOL    HW237812   3.960   2.543   7.932 -0.2792 -0.1697 -0.5987
 8784SOL     OW37813   0.197   3.453   9.188  0.2193  0.0417  0.1291
 8784SOL    HW137814   0.189   3.384   9.254 -1.2529 -0.3958 -0.4982
 8784SOL    HW237815   0.121   3.504   9.216  1.1970  1.8437 -0.4982
 8785SOL     OW37816   2.665   3.191   4.947 -0.3393  0.5617  0.5071
 8785SOL    HW137817   2.704   3.258   5.003  1.4903 -0.4052  0.3872
 8785SOL    HW237818   2.571   3.206   4.960 -1.2153 -0.5244 -4.8280
 8786SOL     OW37819   2.760   4.388   8.086 -0.3265  0.8839  0.4823
 8786SOL    HW137820   2.847   4.426   8.099  0.3166 -0.3070 -0.2809
 8786SOL    HW237821   2.785   4.296   8.076  1.2514  1.4642 -0.8173
 8787SOL     OW37822   0.738   0.428   7.515 -0.2505 -0.0603  0.2997
 8787SOL    HW137823   0.758   0.448   7.606 -1.7146  0.5733  0.4841
 8787SOL    HW237824   0.747   0.516   7.479  0.3141  0.1725  1.0125
 8788SOL     OW37825   2.400   1.473   0.145  0.1949  0.9269  0.1030
 8788SOL    HW137826   2.334   1.477   0.076  1.3780  1.1041 -1.0298
 8788SOL    HW237827   2.408   1.380   0.168  0.6861  1.3785  1.7067
 8789SOL     OW37828   4.163   1.405   6.784 -0.3552 -0.1158  0.2371
 8789SOL    HW137829   4.096   1.470   6.767 -2.1611 -2.4556 -1.6672
 8789SOL    HW237830   4.203   1.435   6.866 -0.4355  3.0902 -0.9401
 8790SOL     OW37831   3.277   4.619   3.683 -0.2697 -0.1724 -0.4600
 8790SOL    HW137832   3.288   4.555   3.753  0.1685  0.2858 -0.1101
 8790SOL    HW237833   3.194   4.659   3.709  0.4477  0.9845  0.0426
 8791SOL     OW37834   0.402   2.688   8.546  0.3977  0.0367  0.5531
 8791SOL    HW137835   0.313   2.723   8.541  0.5281 -0.1441 -2.7883
 8791SOL    HW237836   0.442   2.773   8.529 -0.1120 -0.1304 -1.4583
 8792SOL     OW37837   0.600   0.867   8.384 -0.1924  0.0598 -0.5151
 8792SOL    HW137838   0.596   0.780   8.423  1.7272  0.7566  1.2838
 8792SOL    HW237839   0.629   0.865   8.293  0.4519 -2.7270 -0.2316
 8793SOL     OW37840   4.675   4.185   4.553  0.5000 -0.0995 -0.6361
 8793SOL    HW137841   4.596   4.163   4.603 -1.1770  1.5566 -2.5672
 8793SOL    HW237842   4.668   4.279   4.573 -1.5221 -0.2766 -0.4997
 8794SOL     OW37843   0.883   0.417   8.603  0.2928 -0.3741 -0.3524
 8794SOL    HW137844   0.917   0.364   8.675  0.8974  0.6342  0.1097
 8794SOL    HW237845   0.921   0.505   8.615  2.9488 -1.0884 -3.3719
 8795SOL     OW37846   0.074   1.150   6.103  0.7090  0.7048 -0.0768
 8795SOL    HW137847   0.069   1.059   6.076 -3.1690  0.7705  0.3589
 8795SOL    HW237848   0.165   1.169   6.082  0.6617  0.7856 -0.2105
 8796SOL     OW37849   0.686   1.012   3.065  0.0644 -0.2572 -0.6273
 8796SOL    HW137850   0.649   0.940   3.014 -0.9938 -0.5448  0.5322
 8796SOL    HW237851   0.765   1.025   3.013  0.8976  2.0916  1.2519
 8797SOL     OW37852   1.124   3.688   2.841 -0.5042  0.4773  0.2772
 8797SOL    HW137853   1.119   3.623   2.911  0.3130  0.7627  0.5922
 8797SOL    HW237854   1.174   3.641   2.773 -0.4216  1.0686 -0.0703
 8798SOL     OW37855   4.112   0.522   7.734  0.4097  0.6437  0.4427
 8798SOL    HW137856   4.042   0.587   7.738  0.9842  1.3053 -0.3338
 8798SOL    HW237857   4.184   0.583   7.751 -1.1891  1.8770  2.7417
 8799SOL     OW37858   2.800   0.708  14.411  0.6025  0.0187 -0.3579
 8799SOL    HW137859   2.743   0.632  14.401 -0.7263  0.9402  0.1112
 8799SOL    HW237860   2.847   0.670  14.486  0.7584 -1.4346 -1.2083
 8800SOL     OW37861   3.245   0.161   7.464  0.1752  0.2438  0.3667
 8800SOL    HW137862   3.244   0.090   7.400  0.2070  2.2793 -1.8723
 8800SOL    HW237863   3.336   0.154   7.494  1.1311  0.8257 -2.3372
 8801SOL     OW37864   0.302   1.574   7.374 -0.0038  0.4461 -0.2054
 8801SOL    HW137865   0.337   1.573   7.285  1.5349  3.0035  0.3828
 8801SOL    HW237866   0.263   1.661   7.376  1.0968  0.9310 -0.2385
 8802SOL     OW37867   3.355   2.608   1.865 -0.1755 -0.4300 -0.2615
 8802SOL    HW137868   3.354   2.700   1.891 -0.3001 -0.7561  0.8627
 8802SOL    HW237869   3.400   2.613   1.780  1.3080  1.5806  0.6402
 8803SOL     OW37870   3.013   2.413   4.193 -0.2633 -0.2687  0.2177
 8803SOL    HW137871   2.941   2.474   4.177 -0.4978 -0.6129 -0.0537
 8803SOL    HW237872   2.982   2.335   4.147  0.9223 -0.4849 -0.2038
 8804SOL     OW37873   0.170   2.377   3.904  0.2466 -0.2744 -0.3516
 8804SOL    HW137874   0.215   2.404   3.984 -0.4480 -0.6366  0.1659
 8804SOL    HW237875   0.119   2.451   3.870  2.9637  0.6733 -2.3463
 8805SOL     OW37876   1.173   1.484   1.127 -0.2076 -0.0659 -0.0568
 8805SOL    HW137877   1.233   1.458   1.058 -0.9385  1.6618 -1.3360
 8805SOL    HW237878   1.148   1.574   1.106  0.2508  0.1842  0.4739
 8806SOL     OW37879   1.970   1.577  16.808 -0.1193 -0.0019 -0.2191
 8806SOL    HW137880   2.062   1.601  16.799 -0.6260  1.3415 -1.8486
 8806SOL    HW237881   1.976   1.483  16.823 -0.8418  0.0036  0.0924
 8807SOL     OW37882   4.312   3.880  14.993  0.5359 -0.2098  0.6491
 8807SOL    HW137883   4.326   3.954  14.934 -2.4792  1.4810  1.9989
 8807SOL    HW237884   4.216   3.882  14.998  0.4997  0.1358 -0.1863
 8808SOL     OW37885   0.242   2.619   9.834  0.3058  0.0369 -0.4921
 8808SOL    HW137886   0.239   2.523   9.832  0.6279 -0.0490  2.1291
 8808SOL    HW237887   0.189   2.635   9.912 -1.8315 -2.1602 -1.5037
 8809SOL     OW37888   4.198   4.614   2.111  0.3735 -0.2211  0.0762
 8809SOL    HW137889   4.153   4.696   2.096 -0.3019 -0.6967 -0.4877
 8809SOL    HW237890   4.209   4.575   2.024 -1.7588  3.2539 -1.7310
 8810SOL     OW37891   1.211   4.725   5.072  0.1600 -0.5496  0.4123
 8810SOL    HW137892   1.226   4.635   5.100  0.8303  0.3206  2.8083
 8810SOL    HW237893   1.296   0.027   5.038 -0.7042  0.7807 -0.6609
 8811SOL     OW37894   0.185   3.396   4.907 -0.3695  0.5040 -0.0441
 8811SOL    HW137895   0.243   3.414   4.982 -1.7918 -1.1407  1.4605
 8811SOL    HW237896   0.245   3.426   4.839  0.2734 -0.3876  0.1277
 8812SOL     OW37897   1.669   0.177   4.724 -0.5668  0.0898  0.5764
 8812SOL    HW137898   1.705   0.217   4.644  0.7624  1.0880  1.6757
 8812SOL    HW237899   1.736   0.205   4.786 -0.8609  3.2944 -0.5479
 8813SOL     OW37900   0.314   0.084   5.238 -0.4825  0.2226  0.1174
 8813SOL    HW137901   0.241   0.141   5.262 -1.8862 -1.4766 -0.0966
 8813SOL    HW237902   0.342   0.131   5.160 -1.8368 -0.0286 -0.5332
 8814SOL     OW37903   2.552   4.578   8.693 -0.3299 -0.3100 -0.5324
 8814SOL    HW137904   2.479   4.603   8.635  1.3106  2.0914 -1.6010
 8814SOL    HW237905   2.606   4.650   8.660 -0.4188  0.6310  1.3702
 8815SOL     OW37906   3.413   3.198  16.022  0.0777  0.2630  0.0635
 8815SOL    HW137907   3.441   3.249  15.947  0.1122  0.2769  0.0861
 8815SOL    HW237908   3.341   3.146  15.985 -0.0680  0.6687 -0.2157
 8816SOL     OW37909   4.334   2.975  16.182 -0.3129  0.5006 -0.0154
 8816SOL    HW137910   4.266   2.911  16.163  2.1144 -2.1594  0.3199
 8816SOL    HW237911   4.393   2.924  16.237 -1.2650  0.8806  1.3534
 8817SOL     OW37912   0.409   2.452   0.588 -0.6063 -0.5443 -0.0128
 8817SOL    HW137913   0.333   2.486   0.541 -1.3114 -0.1145  1.4477
 8817SOL    HW237914   0.370   2.451   0.676  2.2354 -2.5592  1.2233
 8818SOL     OW37915   1.878   3.730   7.232 -0.0082  0.5043  0.3377
 8818SOL    HW137916   1.810   3.681   7.187  0.9092  0.1561 -0.6622
 8818SOL    HW237917   1.937   3.664   7.269 -0.4618 -1.2310 -2.0550
 8819SOL     OW37918   3.923   1.719   2.598 -0.1542 -0.6828  0.2570
 8819SOL    HW137919   3.927   1.790   2.534 -0.5289 -0.6218  0.3045
 8819SOL    HW237920   3.847   1.671   2.567  2.1766 -3.0508 -1.8003
 8820SOL     OW37921   2.794   1.906   2.214 -0.4876  0.3276  0.0605
 8820SOL    HW137922   2.844   1.828   2.191 -0.0895  1.1413 -1.7586
 8820SOL    HW237923   2.811   1.960   2.137 -0.8632 -1.1264 -1.0465
 8821SOL     OW37924   0.901   1.072   7.142 -0.3646  0.5927 -0.3814
 8821SOL    HW137925   0.818   1.077   7.096  0.6083  0.1060 -2.1879
 8821SOL    HW237926   0.884   1.109   7.228 -1.8398 -2.2759  0.5498
 8822SOL     OW37927   4.590   0.580   5.804  0.0025 -0.7026 -0.2340
 8822SOL    HW137928   4.685   0.566   5.811  0.2218  1.3514  0.7378
 8822SOL    HW237929   4.561   0.502   5.852  0.4108  0.2467  1.5473
 8823SOL     OW37930   0.768   0.672   7.454 -0.6255  0.1182 -0.4731
 8823SOL    HW137931   0.713   0.735   7.499 -0.3877 -0.6226  0.8493
 8823SOL    HW237932   0.836   0.731   7.419 -0.2360  0.1595  0.3677
 8824SOL     OW37933   2.642   3.457   3.589  0.3443 -0.0020 -0.2465
 8824SOL    HW137934   2.561   3.504   3.608 -0.8165 -1.2173 -2.1205
 8824SOL    HW237935   2.605   3.372   3.562 -1.2981  0.4690  0.5258
 8825SOL     OW37936   1.586   3.029   1.893 -0.0581  0.5691  0.1551
 8825SOL    HW137937   1.662   3.057   1.843  1.7361 -2.1702  1.3692
 8825SOL    HW237938   1.520   3.060   1.831  0.0921  0.3794 -0.0980
 8826SOL     OW37939   0.057   0.670   3.725  0.5785 -0.4543  0.4920
 8826SOL    HW137940   4.703   0.692   3.677  0.3674  0.7343  1.3943
 8826SOL    HW237941   0.126   0.733   3.704 -0.4117 -0.3748 -2.5517
 8827SOL     OW37942   1.231   2.912   1.846  0.3966  0.7114  0.4267
 8827SOL    HW137943   1.295   2.972   1.810  0.6390  0.9731  1.3038
 8827SOL    HW237944   1.235   2.828   1.800 -2.9126  1.3446 -1.0396
 8828SOL     OW37945   1.559   0.656   7.372 -0.2827 -1.0289 -0.6724
 8828SOL    HW137946   1.631   0.625   7.317  2.3748  1.3420  1.4813
 8828SOL    HW237947   1.540   0.738   7.326  0.4245  0.5535  1.8987
 8829SOL     OW37948   3.795   2.994  16.041  0.0125  0.3198 -0.0885
 8829SOL    HW137949   3.750   2.985  15.957 -0.1504 -0.1114  0.0447
 8829SOL    HW237950   3.760   3.078  16.072  0.7399  0.9198 -0.8966
 8830SOL     OW37951   0.999   1.358   2.394 -0.2825  0.2621 -0.3212
 8830SOL    HW137952   0.928   1.303   2.361 -0.8935  0.7513  0.1856
 8830SOL    HW237953   0.988   1.435   2.339  0.8369  0.0685 -0.8110
 8831SOL     OW37954   4.366   1.202   5.054 -0.3179  0.3341 -0.0907
 8831SOL    HW137955   4.395   1.114   5.080  0.6111  1.0992  1.3785
 8831SOL    HW237956   4.293   1.199   5.116  0.3709 -0.6350  0.6881
 8832SOL     OW37957   4.701   1.304   0.221  0.5965  0.6385 -0.1716
 8832SOL    HW137958   0.066   1.283   0.239 -0.7427 -1.8610  3.6591
 8832SOL    HW237959   4.668   1.237   0.162  2.0570  2.0253 -2.5524
 8833SOL     OW37960   4.693   1.607   4.475 -0.1784  0.1026  0.1183
 8833SOL    HW137961   4.603   1.600   4.505 -0.5353  0.6834 -0.8220
 8833SOL    HW237962   0.009   1.542   4.531 -0.4709  0.2528  0.5102
 8834SOL     OW37963   2.115   0.742   0.880 -0.1226  0.3180  0.4331
 8834SOL    HW137964   2.071   0.674   0.930  0.5766  0.4548  1.2322
 8834SOL    HW237965   2.184   0.694   0.834 -0.3317  1.4988 -1.1304
 8835SOL     OW37966   4.318   0.866   6.226  0.3818  0.1996 -0.2706
 8835SOL    HW137967   4.374   0.857   6.149  0.1871 -1.9603 -0.1437
 8835SOL    HW237968   4.333   0.779   6.263 -0.5876  1.1191  2.2916
 8836SOL     OW37969   1.355   1.751  16.714  0.0134 -0.3710 -0.7102
 8836SOL    HW137970   1.369   1.835  16.670  2.0035 -1.2214 -1.6894
 8836SOL    HW237971   1.300   1.699  16.654 -1.7603  0.2386  0.3771
 8837SOL     OW37972   0.099   4.045  13.541  0.0850  0.3311 -0.0123
 8837SOL    HW137973   0.039   4.006  13.478 -1.5330 -1.4251  2.6262
 8837SOL    HW237974   0.058   4.130  13.554  0.4884  0.7870 -1.7437
 8838SOL     OW37975   0.851   4.632  15.032  0.7192  0.2804  0.6119
 8838SOL    HW137976   0.871   4.551  15.079  1.2837  0.0781  0.0173
 8838SOL    HW237977   0.787   4.606  14.966  0.9432 -1.4942  1.1088
 8839SOL     OW37978   3.677   3.955   6.064  0.7082 -0.1802  0.1790
 8839SOL    HW137979   3.667   4.026   6.127  0.9464  0.7108 -0.7826
 8839SOL    HW237980   3.765   3.974   6.032 -0.9476  3.5020 -2.2385
 8840SOL     OW37981   3.530   0.398   3.970 -0.0980 -0.1160 -0.5719
 8840SOL    HW137982   3.623   0.420   3.972 -0.2661  0.4341  0.8734
 8840SOL    HW237983   3.537   0.329   3.904  0.9921  0.1752 -0.7745
 8841SOL     OW37984   0.057   0.039  10.789 -0.1839 -0.1291  0.0944
 8841SOL    HW137985   0.106   0.072  10.713 -1.2134  0.3609 -0.3499
 8841SOL    HW237986   0.108   0.073  10.862 -1.5768 -2.7885  2.3230
 8842SOL     OW37987   0.274   2.746  10.112 -0.0720  0.9639 -0.1852
 8842SOL    HW137988   0.282   2.763  10.206  0.7426  0.5887 -0.1878
 8842SOL    HW237989   0.187   2.705  10.108  1.1659 -1.3434 -3.3685
 8843SOL     OW37990   0.565   3.889   0.537  0.2195 -0.9673 -0.3616
 8843SOL    HW137991   0.539   3.812   0.587 -0.3783  1.1226  2.5639
 8843SOL    HW237992   0.659   3.878   0.526  0.4738 -1.1913  2.0124
 8844SOL     OW37993   1.100   2.103   7.503  0.1221 -0.0648  0.9271
 8844SOL    HW137994   1.012   2.068   7.496  0.5690 -1.0472  0.3068
 8844SOL    HW237995   1.102   2.164   7.429 -0.1649 -0.6032  0.4783
 8845SOL     OW37996   3.509   4.078   8.178  0.7697  0.4904 -0.1095
 8845SOL    HW137997   3.440   4.031   8.224 -0.5687 -0.6572 -3.2678
 8845SOL    HW237998   3.585   4.020   8.183 -1.2704 -2.3251 -1.3972
 8846SOL     OW37999   3.950   2.051   3.801  0.3545 -0.4774  0.0049
 8846SOL    HW138000   3.873   2.038   3.745  0.7110 -2.1273 -0.0847
 8846SOL    HW238001   4.014   1.989   3.766  1.8227  0.8404  0.3307
 8847SOL     OW38002   0.187   1.433   3.217 -0.1555 -0.4000  0.0645
 8847SOL    HW138003   0.154   1.497   3.281  1.5715 -0.5386  1.0843
 8847SOL    HW238004   0.278   1.461   3.207 -0.5326  0.8230 -0.0583
 8848SOL     OW38005   2.889   4.004   7.776  0.3518 -0.1490  0.4257
 8848SOL    HW138006   2.902   3.992   7.682 -0.1224 -1.8391  0.5737
 8848SOL    HW238007   2.829   4.079   7.776  1.7607  0.9813  0.4877
 8849SOL     OW38008   0.771   2.071   3.411 -0.1525 -0.7233  0.2249
 8849SOL    HW138009   0.827   1.997   3.389 -0.5989 -1.1905  0.6735
 8849SOL    HW238010   0.703   2.060   3.345 -0.7408  0.7144  0.5839
 8850SOL     OW38011   0.722   2.217  10.173 -0.4495 -0.0670 -0.8187
 8850SOL    HW138012   0.736   2.282  10.104  2.6229  0.7833  0.6307
 8850SOL    HW238013   0.794   2.245  10.229 -2.7828  1.7731  1.2490
 8851SOL     OW38014   3.146   4.362   5.566  0.3379 -0.1337  0.7707
 8851SOL    HW138015   3.136   4.390   5.656 -2.2752  1.3982  0.0154
 8851SOL    HW238016   3.170   4.269   5.573  0.8369 -0.1970 -1.5836
 8852SOL     OW38017   4.117   2.251  14.888  0.3981 -1.1406  0.3833
 8852SOL    HW138018   4.185   2.184  14.881  0.5270 -0.9727  0.0042
 8852SOL    HW238019   4.158   2.313  14.948 -0.5663 -1.0230  0.9132
 8853SOL     OW38020   1.220   1.388   9.642  0.5430  0.3243 -0.0977
 8853SOL    HW138021   1.223   1.340   9.559  0.6934 -0.2525  0.2384
 8853SOL    HW238022   1.130   1.417   9.650  0.4938 -0.1605  1.1527
 8854SOL     OW38023   4.466   0.251   4.323 -0.5180 -0.6563  0.3669
 8854SOL    HW138024   4.500   0.335   4.355 -2.5369  1.1985 -2.4371
 8854SOL    HW238025   4.545   0.200   4.340 -0.4646 -1.0563 -1.0886
 8855SOL     OW38026   0.709   3.367   5.336  0.0049 -0.2520 -0.2038
 8855SOL    HW138027   0.665   3.321   5.264 -0.7586 -0.0549  0.1431
 8855SOL    HW238028   0.769   3.419   5.282 -0.3733  0.5530  0.1565
 8856SOL     OW38029   0.643   0.513   6.111  0.2676  0.3680 -0.0829
 8856SOL    HW138030   0.691   0.594   6.092  0.8710  0.5241  2.0826
 8856SOL    HW238031   0.605   0.532   6.197  0.8724 -0.6067  0.3972
 8857SOL     OW38032   3.300   2.969   2.237  0.1746  0.6746  0.2799
 8857SOL    HW138033   3.233   3.025   2.275  1.6076  1.5855  1.4884
 8857SOL    HW238034   3.276   2.885   2.277  0.6873 -0.3789 -1.6474
 8858SOL     OW38035   1.093   0.573  13.503  0.6052 -0.7675 -0.2826
 8858SOL    HW138036   1.147   0.638  13.458  1.4474 -0.4316  1.1791
 8858SOL    HW238037   1.031   0.558  13.433 -0.3385  0.0732  0.3720
 8859SOL     OW38038   0.888   4.612   5.322 -0.1190  0.2038  0.1251
 8859SOL    HW138039   0.848   4.613   5.235 -2.3589  1.7264  1.1796
 8859SOL    HW238040   0.947   4.537   5.322 -2.0329 -1.2857 -1.6435
 8860SOL     OW38041   3.374   3.313   4.327  0.7583 -0.3641  0.8002
 8860SOL    HW138042   3.370   3.329   4.232  0.2276  0.4573  0.9570
 8860SOL    HW238043   3.400   3.221   4.330  0.1066 -0.6797 -2.9518
 8861SOL     OW38044   2.240   2.542  13.341 -0.3858 -0.1834 -0.1060
 8861SOL    HW138045   2.194   2.459  13.338  1.9697 -1.5825  2.2057
 8861SOL    HW238046   2.190   2.575  13.416  0.3599  1.1278 -0.1835
 8862SOL     OW38047   1.354   3.538  11.051  0.3362  0.4240 -0.0618
 8862SOL    HW138048   1.377   3.628  11.029  2.9234 -0.4465 -0.9818
 8862SOL    HW238049   1.271   3.549  11.097 -1.3494 -1.2133 -2.7493
 8863SOL     OW38050   2.285   1.293   4.999  0.3119  0.5638  0.8147
 8863SOL    HW138051   2.222   1.316   5.067  0.7729  0.3266  1.3207
 8863SOL    HW238052   2.325   1.215   5.037 -1.7888 -0.5645  0.7468
 8864SOL     OW38053   3.895   4.408   6.124 -0.0886 -0.2849  0.1707
 8864SOL    HW138054   3.803   4.385   6.115  0.3284 -1.9618  0.1280
 8864SOL    HW238055   3.877   4.501   6.108 -0.6144 -0.6900 -1.6137
 8865SOL     OW38056   4.087   0.108   6.584  0.4106  0.2766  0.2689
 8865SOL    HW138057   4.031   0.053   6.529 -1.4488  0.6248  1.7952
 8865SOL    HW238058   4.098   0.054   6.662 -1.1843 -0.6947 -0.1870
 8866SOL     OW38059   3.464   3.546   4.785 -0.4374 -0.4261 -0.1054
 8866SOL    HW138060   3.556   3.568   4.798 -0.6081 -0.2383  0.7956
 8866SOL    HW238061   3.463   3.467   4.732  0.3379 -1.3645  1.2943
 8867SOL     OW38062   0.712   3.709   5.528  0.4545  0.3474 -0.4721
 8867SOL    HW138063   0.769   3.778   5.494  0.9741  0.1254 -0.0601
 8867SOL    HW238064   0.768   3.631   5.523 -0.3206 -0.4787  3.5183
 8868SOL     OW38065   0.443   0.087   0.483 -0.2634 -0.2667  0.1717
 8868SOL    HW138066   0.493   0.057   0.407  2.1257 -1.9639  2.3869
 8868SOL    HW238067   0.509   0.129   0.539 -0.4546  0.6372 -0.2892
 8869SOL     OW38068   0.651   0.361   9.140 -0.1107  0.4525 -0.0924
 8869SOL    HW138069   0.739   0.384   9.110 -0.6545  1.6153 -0.8006
 8869SOL    HW238070   0.661   0.389   9.230 -0.0460 -0.6310  0.2316
 8870SOL     OW38071   3.865   3.325  12.987  0.0185  0.0610 -0.2923
 8870SOL    HW138072   3.869   3.400  12.927  1.0697  0.3675  0.1583
 8870SOL    HW238073   3.771   3.323  13.003  0.0318  0.4967 -0.1337
 8871SOL     OW38074   3.851   3.782   5.806  0.4112 -0.0844  0.0913
 8871SOL    HW138075   3.936   3.797   5.846 -0.5334 -1.1337  2.4940
 8871SOL    HW238076   3.872   3.710   5.746  1.7171 -0.6416  1.2318
 8872SOL     OW38077   0.156   2.156  15.920  0.0046 -0.2844 -0.2788
 8872SOL    HW138078   0.140   2.237  15.871 -2.1281 -1.8514 -2.2154
 8872SOL    HW238079   0.232   2.138  15.865  0.4005  1.8318 -0.4331
 8873SOL     OW38080   2.678   4.075   1.417  0.2616 -0.4354 -0.0599
 8873SOL    HW138081   2.726   4.152   1.446  0.0508  0.2399 -1.4809
 8873SOL    HW238082   2.748   4.012   1.402 -1.3598 -2.4349  0.7453
 8874SOL     OW38083   0.769   3.352   6.870 -0.5000 -0.1205  0.1818
 8874SOL    HW138084   0.717   3.387   6.798  1.0752 -1.3435 -1.5495
 8874SOL    HW238085   0.801   3.428   6.919 -1.5399  1.9667 -2.3702
 8875SOL     OW38086   3.260   1.842  12.747 -0.1369 -0.5212 -0.4717
 8875SOL    HW138087   3.246   1.933  12.720  1.5452  0.2240  1.1560
 8875SOL    HW238088   3.330   1.850  12.812 -1.9060 -2.9431  1.6762
 8876SOL     OW38089   4.706   3.638  15.261 -0.1932  0.5330 -0.1360
 8876SOL    HW138090   0.055   3.695  15.246 -1.4208  1.5444 -2.4336
 8876SOL    HW238091   4.656   3.670  15.186 -1.9972 -0.6029  0.5757
 8877SOL     OW38092   1.054   0.061   3.004  0.1418  0.0937  0.3614
 8877SOL    HW138093   1.148   0.059   3.018 -0.2008 -0.4712  2.5420
 8877SOL    HW238094   1.030   0.148   3.034  0.6823 -0.1218  1.4026
 8878SOL     OW38095   2.971   1.536   4.676  0.0592  0.6545 -0.1395
 8878SOL    HW138096   2.883   1.498   4.671  0.0078  0.8327 -0.6333
 8878SOL    HW238097   2.965   1.608   4.739  0.0814  0.8144 -0.3195
 8879SOL     OW38098   1.366   2.867   4.912 -0.8152 -0.0516  0.0490
 8879SOL    HW138099   1.343   2.852   4.821  0.3724  2.1767 -0.6126
 8879SOL    HW238100   1.284   2.840   4.952 -1.0962 -0.1782 -0.6164
 8880SOL     OW38101   2.680   0.931  14.294 -0.2832  0.5773  1.1358
 8880SOL    HW138102   2.727   0.882  14.362 -0.7804  0.3245  1.2952
 8880SOL    HW238103   2.751   0.952  14.233 -0.7387  3.6118  1.6532
 8881SOL     OW38104   2.812   0.923   5.201 -0.7578  0.1965  0.1827
 8881SOL    HW138105   2.860   0.847   5.234 -0.6698 -0.1107 -0.6548
 8881SOL    HW238106   2.775   0.893   5.118  0.4859  2.4317 -1.1777
 8882SOL     OW38107   0.038   1.085   1.939 -0.0789  0.0625 -0.0436
 8882SOL    HW138108   0.041   1.002   1.892  2.0637 -0.0489  0.2663
 8882SOL    HW238109   0.104   1.129   1.885 -0.2164  0.8022  0.3898
 8883SOL     OW38110   1.272   1.073   6.542  0.4540 -0.6710  0.1304
 8883SOL    HW138111   1.344   1.066   6.480 -0.5487 -1.6362 -0.9207
 8883SOL    HW238112   1.241   0.983   6.536 -1.0516 -0.1500  0.1780
 8884SOL     OW38113   0.979   2.306   5.212  0.4016 -0.3706 -0.3601
 8884SOL    HW138114   1.039   2.381   5.218  0.4537 -0.3457 -1.1732
 8884SOL    HW238115   0.964   2.323   5.119 -1.0577  1.1148  0.1308
 8885SOL     OW38116   3.657   0.274   7.729 -0.0974  0.2795  0.6813
 8885SOL    HW138117   3.718   0.322   7.673 -0.6039  0.9265  0.6835
 8885SOL    HW238118   3.712   0.226   7.792  1.5797 -0.5228 -1.3781
 8886SOL     OW38119   0.115   1.595   5.562  0.3503 -0.0527  0.6085
 8886SOL    HW138120   0.113   1.621   5.470 -0.5400 -1.2117  0.3015
 8886SOL    HW238121   0.054   1.522   5.558  0.7040 -0.2018 -2.1213
 8887SOL     OW38122   2.780   0.131   4.705  0.2370  0.6205 -0.3192
 8887SOL    HW138123   2.756   0.084   4.625 -1.4056 -0.0707  0.5854
 8887SOL    HW238124   2.837   0.062   4.740 -0.4800  0.7695  1.1400
 8888SOL     OW38125   2.320   4.398   4.847 -0.2089  0.0183 -0.1675
 8888SOL    HW138126   2.262   4.388   4.772 -0.5922  3.1363 -0.2660
 8888SOL    HW238127   2.297   4.487   4.872 -0.2951 -0.2337  0.6692
 8889SOL     OW38128   0.581   4.684   2.215  0.2524 -0.1511  0.1771
 8889SOL    HW138129   0.600   4.719   2.128 -1.6785 -0.9722 -0.5717
 8889SOL    HW238130   0.486   4.680   2.218  0.2152 -1.6716 -2.9868
 8890SOL     OW38131   0.103   0.697   5.409  0.7843 -0.0397 -0.0339
 8890SOL    HW138132   0.129   0.659   5.325 -0.2993 -0.2963 -0.2585
 8890SOL    HW238133   0.183   0.726   5.452  1.7329 -2.0077 -0.4748
 8891SOL     OW38134   0.354   4.594   3.009 -0.5951  0.1244  0.6561
 8891SOL    HW138135   0.318   4.662   3.066  0.4890  0.3930  1.0113
 8891SOL    HW238136   0.281   4.531   3.015  1.8861 -2.6066  2.2446
 8892SOL     OW38137   0.610   3.674  13.136  0.0455  0.3117  0.3456
 8892SOL    HW138138   0.590   3.693  13.044 -2.9852  0.4714  1.0380
 8892SOL    HW238139   0.562   3.592  13.151  0.4553  0.2863  1.5243
 8893SOL     OW38140   3.638   4.693   6.593 -0.2609 -0.6377 -0.7072
 8893SOL    HW138141   3.697   4.703   6.518 -1.0378 -1.3488 -1.4047
 8893SOL    HW238142   3.629   0.060   6.615 -1.1915 -1.1422  1.0474
 8894SOL     OW38143   1.373   4.296   8.496 -0.1569 -0.5440 -0.1127
 8894SOL    HW138144   1.383   4.269   8.587 -1.1792 -0.5690 -0.0142
 8894SOL    HW238145   1.347   4.388   8.495 -1.7524 -1.0018  0.6459
 8895SOL     OW38146   4.034   3.894   1.283 -0.0229 -0.6172  0.2079
 8895SOL    HW138147   3.945   3.896   1.317  0.2550  1.2380  0.8249
 8895SOL    HW238148   4.031   3.937   1.197  2.6465  0.6047  0.7162
 8896SOL     OW38149   0.876   0.038   3.419  0.0714  0.2982 -0.1849
 8896SOL    HW138150   0.898   0.126   3.389  2.5332 -0.7036 -1.3255
 8896SOL    HW238151   0.960   4.724   3.396  0.1387 -1.1678  2.5791
 8897SOL     OW38152   4.694   1.350   4.191 -0.0464 -0.1605  0.1166
 8897SOL    HW138153   4.671   1.420   4.253 -1.9223  1.9015 -2.8726
 8897SOL    HW238154   0.054   1.379   4.161 -0.1966  0.5938  0.4086
 8898SOL     OW38155   0.763   4.621   7.808  0.7788  0.2875 -0.2698
 8898SOL    HW138156   0.684   4.674   7.823  1.0279  0.5675  0.0565
 8898SOL    HW238157   0.725   4.537   7.782  0.9573  0.5474 -1.3926
 8899SOL     OW38158   3.011   3.203   6.244  0.1240  0.0656 -0.0523
 8899SOL    HW138159   3.032   3.256   6.167 -0.0599 -0.0440 -0.1773
 8899SOL    HW238160   2.968   3.122   6.214  1.7724 -1.5054  1.7952
 8900SOL     OW38161   3.760   1.857   6.796  0.2490  0.2704  0.0042
 8900SOL    HW138162   3.746   1.763   6.782 -1.6913  0.0763  3.3792
 8900SOL    HW238163   3.709   1.892   6.723  2.6206 -0.5362 -2.0825
 8901SOL     OW38164   0.579   0.494   4.893  0.1420 -0.2563 -0.4685
 8901SOL    HW138165   0.545   0.583   4.883  2.5962  0.7412  0.2265
 8901SOL    HW238166   0.580   0.497   4.989 -0.1604 -1.7271 -0.4229
 8902SOL     OW38167   2.404   0.770  10.386  0.2565  0.4733  0.0342
 8902SOL    HW138168   2.471   0.832  10.414 -1.1423  1.8689  0.2931
 8902SOL    HW238169   2.358   0.755  10.469  1.4444  2.3297  1.0299
 8903SOL     OW38170   3.053   1.752  10.272  0.8402  0.6979 -0.0681
 8903SOL    HW138171   3.036   1.828  10.327  0.3580  0.1149  0.5988
 8903SOL    HW238172   3.090   1.688  10.333 -1.0937 -0.2837  0.1152
 8904SOL     OW38173   2.420   0.578  15.500  0.1678 -0.2538 -0.0156
 8904SOL    HW138174   2.325   0.567  15.489  0.0211  0.6456  0.3354
 8904SOL    HW238175   2.434   0.622  15.417 -1.8325 -0.3811 -0.4315
 8905SOL     OW38176   3.828   3.227  16.561  0.3412 -0.2069  0.6760
 8905SOL    HW138177   3.900   3.274  16.519 -0.1182 -0.5359 -0.4526
 8905SOL    HW238178   3.854   3.136  16.547  0.1816 -0.0122 -0.8093
 8906SOL     OW38179   1.944   2.596  11.516  1.4371 -0.0228  0.3020
 8906SOL    HW138180   1.908   2.508  11.519 -1.2549  1.1014  1.2429
 8906SOL    HW238181   1.865   2.650  11.506 -0.1256 -2.2181  0.9841
 8907SOL     OW38182   3.594   4.640   5.838 -0.2379 -0.0697  0.0591
 8907SOL    HW138183   3.541   4.601   5.769 -1.0705 -0.2000  0.7641
 8907SOL    HW238184   3.539   4.715   5.860  1.8193  1.7547 -1.0041
 8908SOL     OW38185   2.255   0.693   1.571 -0.3652  0.3168  0.2125
 8908SOL    HW138186   2.291   0.732   1.491  0.9150  1.2078  1.2138
 8908SOL    HW238187   2.225   0.606   1.542  0.7535 -0.2896  0.8759
 8909SOL     OW38188   4.246   0.941   8.678  0.3043 -0.2703  0.2287
 8909SOL    HW138189   4.191   1.003   8.630 -3.0195 -2.5359  1.1688
 8909SOL    HW238190   4.265   0.994   8.756 -1.6669  1.1339 -0.2480
 8910SOL     OW38191   2.504   2.625   6.740 -0.0696  0.0097 -0.3325
 8910SOL    HW138192   2.542   2.713   6.739 -0.0575  0.0018 -0.4920
 8910SOL    HW238193   2.558   2.584   6.673  1.0976 -0.8985  1.1873
 8911SOL     OW38194   0.312   0.698   5.946 -0.1573  0.7769  0.0439
 8911SOL    HW138195   0.269   0.672   6.027  1.3683  1.5128  1.0808
 8911SOL    HW238196   0.333   0.789   5.966  2.7016  0.2411 -0.5459
 8912SOL     OW38197   1.161   0.727  10.083 -0.4690  0.6908 -0.5753
 8912SOL    HW138198   1.123   0.787  10.020 -1.1039 -2.4426 -3.1742
 8912SOL    HW238199   1.137   0.638  10.057  0.0875 -0.2774  2.1555
 8913SOL     OW38200   0.063   3.874   3.454 -0.1893  0.1475  0.2086
 8913SOL    HW138201   4.702   3.849   3.424 -1.0763  0.6563  2.4109
 8913SOL    HW238202   0.084   3.932   3.381 -0.2734 -2.0337 -1.5451
 8914SOL     OW38203   1.011   3.533  14.335  0.0092  0.1113  0.1347
 8914SOL    HW138204   0.981   3.556  14.247 -0.0738 -0.1092  0.1056
 8914SOL    HW238205   1.070   3.459  14.344 -1.3109 -0.9523  0.0225
 8915SOL     OW38206   3.885   3.161   4.798 -0.0053 -0.7152  0.1225
 8915SOL    HW138207   3.872   3.138   4.706 -0.9439 -1.8776  0.5520
 8915SOL    HW238208   3.797   3.188   4.826  0.4953 -1.0555  2.0383
 8916SOL     OW38209   2.173   3.699   8.625  0.5165 -0.2239 -0.1454
 8916SOL    HW138210   2.203   3.639   8.693 -0.3260  0.7510  1.0865
 8916SOL    HW238211   2.085   3.722   8.655  0.7176 -0.5517  0.7100
 8917SOL     OW38212   3.904   1.651   5.760 -0.3027  0.4559  0.1667
 8917SOL    HW138213   3.980   1.701   5.729  1.5221 -1.4955  1.4725
 8917SOL    HW238214   3.930   1.561   5.741 -3.8081 -0.2175 -1.3825
 8918SOL     OW38215   3.724   3.822   2.191  0.5780  0.7414 -0.6649
 8918SOL    HW138216   3.661   3.756   2.165 -0.1927  0.5140  1.7907
 8918SOL    HW238217   3.719   3.817   2.286 -1.0662 -2.3567 -0.9052
 8919SOL     OW38218   4.461   0.611   6.288  0.3156 -0.4521 -0.4184
 8919SOL    HW138219   4.497   0.619   6.200  1.9502  0.8082  0.3460
 8919SOL    HW238220   4.513   0.535   6.314  1.1711  0.2728  0.0258
 8920SOL     OW38221   4.552   4.118   9.891 -0.2400  0.1309 -0.3137
 8920SOL    HW138222   4.490   4.138   9.821  1.3232  1.5550 -1.3015
 8920SOL    HW238223   4.486   4.136   9.958  0.7937 -1.3081  1.0720
 8921SOL     OW38224   0.646   1.006   5.805  0.3722 -0.5470 -0.1723
 8921SOL    HW138225   0.731   1.048   5.791  0.5758 -1.4582 -1.6610
 8921SOL    HW238226   0.635   0.940   5.737  1.3122 -2.0785  1.1602
 8922SOL     OW38227   2.207   1.730  15.965  0.2263 -0.0837 -0.4899
 8922SOL    HW138228   2.159   1.728  16.047  2.1283  0.7354  0.6404
 8922SOL    HW238229   2.175   1.650  15.923  3.4486 -1.6858  0.1279
 8923SOL     OW38230   1.010   1.217  16.052  0.3099  0.6622  0.0045
 8923SOL    HW138231   1.036   1.236  16.142 -0.6145 -0.2291  0.4610
 8923SOL    HW238232   0.970   1.300  16.029 -0.2548  0.5615  0.6546
 8924SOL     OW38233   3.475   4.103  14.973  0.2235 -0.3491 -0.1190
 8924SOL    HW138234   3.518   4.085  15.056 -2.6534 -0.4494  1.3646
 8924SOL    HW238235   3.414   4.173  14.998  0.0674  0.4427 -2.7193
 8925SOL     OW38236   4.261   4.331  14.434 -0.2469 -0.0723  0.5686
 8925SOL    HW138237   4.208   4.410  14.423 -1.8162 -0.9534  1.7670
 8925SOL    HW238238   4.345   4.360  14.399  0.8368 -2.0220  1.5605
 8926SOL     OW38239   1.602   0.743   5.431 -0.2553  0.7899 -0.1332
 8926SOL    HW138240   1.535   0.805   5.460 -1.6073  1.1971 -4.0199
 8926SOL    HW238241   1.679   0.784   5.470 -1.4462  0.4056  2.6052
 8927SOL     OW38242   4.326   3.879  13.160 -0.0042  0.1321  0.5275
 8927SOL    HW138243   4.381   3.809  13.198  1.7703  0.8450 -0.7391
 8927SOL    HW238244   4.313   3.852  13.070  0.6573  0.8413  0.2178
 8928SOL     OW38245   2.133   3.766  14.926  0.8523 -0.4493 -0.7837
 8928SOL    HW138246   2.054   3.713  14.938  0.7414 -0.2306 -0.5563
 8928SOL    HW238247   2.161   3.770  15.017 -0.6939  0.3545 -0.3335
 8929SOL     OW38248   2.888   2.260   9.572 -0.2995  0.4275 -0.8184
 8929SOL    HW138249   2.807   2.242   9.621 -0.5163  0.2234 -1.2501
 8929SOL    HW238250   2.943   2.293   9.643  2.4426 -2.8967 -1.4060
 8930SOL     OW38251   2.706   3.391   5.124  0.2597 -0.3568 -0.4551
 8930SOL    HW138252   2.716   3.473   5.074 -0.0499  0.5630  0.9758
 8930SOL    HW238253   2.756   3.407   5.204 -0.7675 -0.7081  0.2599
 8931SOL     OW38254   1.581   1.156   9.931  0.2625 -0.8412  0.2156
 8931SOL    HW138255   1.562   1.078   9.984 -1.4806 -0.2570  0.4740
 8931SOL    HW238256   1.494   1.174   9.895  0.2523 -0.1602  0.5758
 8932SOL     OW38257   1.027   1.300  16.299 -0.3054 -0.4640  0.3903
 8932SOL    HW138258   1.118   1.286  16.326  0.0784  1.1717 -0.0526
 8932SOL    HW238259   0.990   1.307  16.387 -0.2535  0.0034  0.3744
 8933SOL     OW38260   4.249   1.450   4.135 -0.0031  0.2473 -0.8857
 8933SOL    HW138261   4.225   1.452   4.227  3.0602  0.1966 -0.0859
 8933SOL    HW238262   4.325   1.507   4.134 -0.5523  0.9904  1.0435
 8934SOL     OW38263   1.516   1.280   7.944 -0.6859  0.4759  0.5401
 8934SOL    HW138264   1.577   1.206   7.951  0.4331  1.2914 -0.5854
 8934SOL    HW238265   1.484   1.290   8.034  2.1238 -3.3491  1.9625
 8935SOL     OW38266   2.519   0.620  16.182  0.4264  0.8071  0.2459
 8935SOL    HW138267   2.488   0.689  16.123 -1.9153  1.6985  2.5105
 8935SOL    HW238268   2.440   0.596  16.231  0.7064 -1.3955 -0.3772
 8936SOL     OW38269   3.426   0.843   3.738 -0.2026  0.4963  0.2163
 8936SOL    HW138270   3.358   0.849   3.672  1.7378  0.4266 -1.7884
 8936SOL    HW238271   3.447   0.750   3.744  1.0486  0.8563  1.5172
 8937SOL     OW38272   3.581   0.109  14.298 -0.1236 -1.1367 -0.2739
 8937SOL    HW138273   3.498   0.105  14.251  0.5238  2.2020 -1.7124
 8937SOL    HW238274   3.651   0.093  14.234  1.6871  2.0981  0.8718
 8938SOL     OW38275   4.124   3.012   5.275  0.2409  0.0100  1.2204
 8938SOL    HW138276   4.129   3.028   5.181  3.7738  0.7759  1.5614
 8938SOL    HW238277   4.213   3.006   5.308  0.3237  0.8764  1.1511
 8939SOL     OW38278   0.119   2.203  14.130  0.3092 -0.2874  0.0453
 8939SOL    HW138279   0.067   2.164  14.201  2.7457  0.7134  2.3906
 8939SOL    HW238280   0.204   2.162  14.143  1.8841  2.6055 -1.1640
 8940SOL     OW38281   3.826   3.184   4.497 -0.5419 -0.1308 -0.2154
 8940SOL    HW138282   3.874   3.233   4.430 -1.0048 -0.1309 -0.5479
 8940SOL    HW238283   3.736   3.201   4.470  0.6345  2.8632 -2.2447
 8941SOL     OW38284   0.780   3.361  17.425 -0.9058 -0.2958 -0.0090
 8941SOL    HW138285   0.867   3.388  17.455  0.1402 -3.5211 -0.1232
 8941SOL    HW238286   0.778   3.267  17.443 -0.7231 -0.3295 -0.1620
 8942SOL     OW38287   0.796   4.031  13.836 -0.4538 -0.3571  0.2260
 8942SOL    HW138288   0.813   4.084  13.759 -1.8601 -1.5224 -0.8821
 8942SOL    HW238289   0.703   4.009  13.828 -0.8905  2.9900 -3.6509
 8943SOL     OW38290   4.347   0.867   2.901 -0.5357  0.0137  0.0587
 8943SOL    HW138291   4.431   0.861   2.946 -0.1747  0.2930 -0.5776
 8943SOL    HW238292   4.280   0.869   2.969 -0.1259  1.8386  0.4032
 8944SOL     OW38293   1.041   3.014   9.653  0.2423 -0.0201  0.0437
 8944SOL    HW138294   0.947   3.026   9.668 -0.7356 -2.3055 -4.2651
 8944SOL    HW238295   1.067   3.106   9.649  0.5546 -0.0398  1.8892
 8945SOL     OW38296   2.654   1.028   3.177  0.3482  0.0452 -0.0737
 8945SOL    HW138297   2.627   1.104   3.125  1.5408 -0.6072 -1.6448
 8945SOL    HW238298   2.723   1.056   3.238 -0.3317 -0.0126  0.7272
 8946SOL     OW38299   2.409   2.701  13.505  0.1449  0.4637  0.1972
 8946SOL    HW138300   2.377   2.681  13.418  2.2644  2.6859 -1.1111
 8946SOL    HW238301   2.414   2.797  13.497 -1.4445  0.5033 -0.1545
 8947SOL     OW38302   2.778   3.823  10.180  0.1286 -0.1037  0.6740
 8947SOL    HW138303   2.695   3.783  10.205 -0.4575  2.0034  2.0590
 8947SOL    HW238304   2.741   3.900  10.138 -1.3051 -1.3288 -0.3300
 8948SOL     OW38305   4.587   1.988   6.481  0.1364  0.0013  0.3576
 8948SOL    HW138306   4.495   2.013   6.469  0.4092  0.7647 -0.1187
 8948SOL    HW238307   4.596   1.978   6.576 -0.1893  1.1413  0.5044
 8949SOL     OW38308   4.627   0.389   6.376  0.1345  0.1286 -0.4867
 8949SOL    HW138309   4.710   0.438   6.377  0.4880 -0.5096  0.8176
 8949SOL    HW238310   4.626   0.362   6.468 -0.6916  0.2664 -0.4609
 8950SOL     OW38311   2.544   4.526   2.000  0.3253 -0.2986 -0.0400
 8950SOL    HW138312   2.564   4.456   2.061  2.1246 -0.6749 -1.0827
 8950SOL    HW238313   2.619   4.585   2.008 -0.4772  0.5297  1.3364
 8951SOL     OW38314   4.037   4.648   4.034 -0.1221  0.0007 -0.7127
 8951SOL    HW138315   4.111   4.674   4.089  1.3038  0.7589 -2.9878
 8951SOL    HW238316   3.965   4.639   4.097 -0.5087 -2.0607 -1.4451
 8952SOL     OW38317   4.706   0.225  13.143  0.3778  0.0805  0.7605
 8952SOL    HW138318   0.055   0.174  13.110  1.0779  2.0718 -0.7533
 8952SOL    HW238319   4.722   0.213  13.236  1.5299 -1.8074  0.3363
 8953SOL     OW38320   0.099   1.867   3.876 -0.0330 -0.3640  0.2548
 8953SOL    HW138321   0.116   1.937   3.813 -0.7455 -0.7698 -0.3925
 8953SOL    HW238322   0.137   1.791   3.832  0.9907  1.0570 -1.2989
 8954SOL     OW38323   1.377   1.626   2.508 -0.5103  0.1015 -0.2361
 8954SOL    HW138324   1.394   1.715   2.539  1.3711  0.0016 -0.9635
 8954SOL    HW238325   1.324   1.593   2.580 -1.7750  3.0202  0.2060
 8955SOL     OW38326   1.946   3.585   6.756  0.1382  0.0616  0.0253
 8955SOL    HW138327   1.885   3.622   6.819 -0.5478 -2.0757  0.5958
 8955SOL    HW238328   1.904   3.504   6.729 -1.0388  0.0454  1.9803
 8956SOL     OW38329   4.181   2.286   4.981  0.1447 -0.0904  0.1817
 8956SOL    HW138330   4.191   2.298   5.075 -0.2820  1.2105  0.0563
 8956SOL    HW238331   4.263   2.240   4.964 -0.2135 -0.0113 -1.7447
 8957SOL     OW38332   2.031   4.038   5.737  0.1396  0.6164 -0.3085
 8957SOL    HW138333   1.948   4.002   5.705  0.0951  1.4841 -1.1823
 8957SOL    HW238334   1.998   4.092   5.809 -0.9677  0.9586 -1.0752
 8958SOL     OW38335   2.208   1.607   2.034  0.5553 -0.0019  0.1676
 8958SOL    HW138336   2.276   1.671   2.011  1.8578 -1.3389  0.2871
 8958SOL    HW238337   2.191   1.638   2.123 -0.3460 -0.1872  0.0575
 8959SOL     OW38338   0.788   4.389   6.866  1.2234  1.1879  0.1393
 8959SOL    HW138339   0.770   4.425   6.953  0.3064 -1.7488  1.1350
 8959SOL    HW238340   0.715   4.430   6.819 -1.5746 -0.6177  2.9123
 8960SOL     OW38341   2.214   4.238  12.094  0.5488 -0.1567 -0.3564
 8960SOL    HW138342   2.169   4.235  12.009  1.1903  1.2529 -0.7410
 8960SOL    HW238343   2.304   4.251  12.065  1.5046 -1.7596  1.8697
 8961SOL     OW38344   2.213   4.011  14.210  0.2830  0.7385  0.6703
 8961SOL    HW138345   2.233   4.101  14.184  0.3893  0.5793  0.2039
 8961SOL    HW238346   2.243   4.008  14.301  1.1723 -0.4426  0.3429
 8962SOL     OW38347   1.349   4.631   3.490  0.2581 -0.4147 -0.4859
 8962SOL    HW138348   1.276   4.643   3.429 -1.0052 -0.0356  1.0963
 8962SOL    HW238349   1.411   4.586   3.432  0.6279  3.5823 -3.1811
 8963SOL     OW38350   1.073   2.404   6.268 -0.1994 -0.1006 -0.2312
 8963SOL    HW138351   1.093   2.488   6.308  1.9170 -1.2056  1.0045
 8963SOL    HW238352   0.978   2.416   6.268 -0.0309  1.2277  0.0930
 8964SOL     OW38353   1.547   1.570   5.796 -0.2638  0.1181 -0.1537
 8964SOL    HW138354   1.616   1.637   5.796 -0.7512  0.6193 -1.3477
 8964SOL    HW238355   1.472   1.602   5.846  0.2534 -0.2924  0.8876
 8965SOL     OW38356   0.325   2.759  13.129 -0.3161  0.3156  0.7117
 8965SOL    HW138357   0.274   2.840  13.128 -1.0814 -0.1730 -0.7867
 8965SOL    HW238358   0.406   2.792  13.092  0.4660 -1.1389  1.1372
 8966SOL     OW38359   3.506   2.426   2.768  0.0850 -0.0752 -0.0954
 8966SOL    HW138360   3.591   2.395   2.800 -0.4080 -0.3093  0.9914
 8966SOL    HW238361   3.461   2.349   2.733 -0.5275 -0.2938  1.1908
 8967SOL     OW38362   0.973   1.920   6.915  0.0922  0.7826 -0.7108
 8967SOL    HW138363   0.956   1.991   6.976  1.3182 -2.1268  2.9829
 8967SOL    HW238364   1.034   1.955   6.850  0.3042 -0.8895 -1.4289
 8968SOL     OW38365   3.085   3.426   4.926 -0.0335 -0.3302 -0.3835
 8968SOL    HW138366   3.081   3.353   4.988 -2.1228  1.8035  1.9447
 8968SOL    HW238367   3.089   3.395   4.835 -2.8601 -0.7078 -0.3720
 8969SOL     OW38368   0.757   1.509   6.437  0.0186 -0.2455 -0.5188
 8969SOL    HW138369   0.806   1.472   6.511 -1.4261 -0.9119  0.1147
 8969SOL    HW238370   0.684   1.547   6.487 -0.4028 -0.1267 -1.2226
 8970SOL     OW38371   1.348   4.197   4.361  0.5255 -0.3830  0.2954
 8970SOL    HW138372   1.267   4.192   4.311  0.5099 -1.6560  0.4373
 8970SOL    HW238373   1.365   4.291   4.366 -1.2928  0.0009 -0.7773
 8971SOL     OW38374   2.598   3.296  17.048  0.3908  0.2594 -0.2528
 8971SOL    HW138375   2.585   3.286  17.142 -0.3042  2.8519 -0.0751
 8971SOL    HW238376   2.617   3.389  17.038  0.5076  0.1918 -0.6617
 8972SOL     OW38377   3.905   0.373  15.258  0.4285 -0.6392  0.6813
 8972SOL    HW138378   3.826   0.342  15.303  0.6084 -0.8724  0.8387
 8972SOL    HW238379   3.862   0.400  15.177  0.2786 -3.1839 -0.0956
 8973SOL     OW38380   2.145   3.621   7.670  0.2455  0.1020 -0.1797
 8973SOL    HW138381   2.095   3.602   7.591  0.3505  0.4726 -0.3341
 8973SOL    HW238382   2.236   3.611   7.641  0.0251 -1.9505 -0.1763
 8974SOL     OW38383   1.361   3.146   7.680  0.1582 -0.4098 -0.4613
 8974SOL    HW138384   1.345   3.234   7.645  0.2870 -1.0565 -2.1356
 8974SOL    HW238385   1.422   3.164   7.753  1.0743  1.2758 -1.6485
 8975SOL     OW38386   1.806   1.163   6.150  0.1259  0.1979 -0.5175
 8975SOL    HW138387   1.896   1.179   6.123 -0.4036  0.4711 -2.1348
 8975SOL    HW238388   1.759   1.240   6.118  0.7840  0.6425 -0.4258
 8976SOL     OW38389   0.480   4.542   2.793 -0.3619 -0.4762  0.3596
 8976SOL    HW138390   0.563   4.510   2.829 -0.8270 -2.4495 -0.3442
 8976SOL    HW238391   0.435   4.567   2.874  0.7758 -0.1443  0.8878
 8977SOL     OW38392   4.474   3.315   6.310 -0.2694  0.7086  0.1994
 8977SOL    HW138393   4.407   3.296   6.243  0.9122 -0.8894 -0.5287
 8977SOL    HW238394   4.437   3.251   6.371 -0.9902 -0.0226 -0.9887
 8978SOL     OW38395   2.021   0.482   4.039 -0.7518 -0.0697  0.5456
 8978SOL    HW138396   2.087   0.414   4.032  0.0604  0.4784  2.7492
 8978SOL    HW238397   2.004   0.504   3.947  2.1734  1.3533  0.3674
 8979SOL     OW38398   1.676   2.714  15.718 -0.2449 -0.0468 -0.0589
 8979SOL    HW138399   1.606   2.679  15.663 -1.0623 -1.3387  1.7836
 8979SOL    HW238400   1.749   2.723  15.657  0.1192 -0.6955  0.2767
 8980SOL     OW38401   2.803   3.524   1.999  0.4463  0.1074  0.1865
 8980SOL    HW138402   2.772   3.438   1.971 -1.7995  1.2398 -0.7452
 8980SOL    HW238403   2.768   3.576   1.927  0.2472 -0.0632  0.1617
 8981SOL     OW38404   3.287   1.498   0.013 -0.1791 -1.0722 -0.1523
 8981SOL    HW138405   3.242   1.574   0.050 -2.1099 -2.0891 -0.4069
 8981SOL    HW238406   3.363   1.497   0.071 -0.7178 -2.6913  0.5532
 8982SOL     OW38407   4.195   1.189   3.817 -0.1866  0.1591  0.2184
 8982SOL    HW138408   4.109   1.219   3.846  0.0589 -2.1175  3.2785
 8982SOL    HW238409   4.180   1.095   3.803  1.1500 -0.1139  0.5956
 8983SOL     OW38410   0.895   4.500  15.573 -0.2799  0.6574  0.4012
 8983SOL    HW138411   0.837   4.575  15.556 -2.1611 -1.0022 -0.5026
 8983SOL    HW238412   0.871   4.438  15.504  2.1173 -0.9805  1.0769
 8984SOL     OW38413   0.113   3.068  15.597 -0.0286  0.3694 -0.3340
 8984SOL    HW138414   0.163   3.150  15.591  0.4138  0.1655  0.6768
 8984SOL    HW238415   0.036   3.105  15.640 -0.4044 -2.4607  1.4254
 8985SOL     OW38416   2.590   1.513   6.037 -0.4004  0.0760 -0.3490
 8985SOL    HW138417   2.602   1.424   6.001  0.1770 -0.0746  0.2188
 8985SOL    HW238418   2.574   1.565   5.958 -0.1326 -1.0611 -1.1557
 8986SOL     OW38419   2.136   3.568   4.250  0.2899  0.2357  0.6366
 8986SOL    HW138420   2.082   3.526   4.316  0.2505  0.8318  0.9864
 8986SOL    HW238421   2.213   3.603   4.295  0.4232  1.2757 -0.3826
 8987SOL     OW38422   2.389   3.386   9.362 -0.8620 -0.0670  0.0744
 8987SOL    HW138423   2.354   3.468   9.327  2.2449  1.2958  0.1907
 8987SOL    HW238424   2.464   3.412   9.416  0.6957 -3.0838 -0.6503
 8988SOL     OW38425   0.863   1.029   2.863  0.1735 -0.2712  0.4189
 8988SOL    HW138426   0.897   0.944   2.836  2.9448  0.1412  2.5656
 8988SOL    HW238427   0.871   1.085   2.786 -0.9445 -2.5178 -1.3300
 8989SOL     OW38428   2.210   0.950   5.183  0.5661  0.0578 -0.4773
 8989SOL    HW138429   2.261   0.903   5.250 -1.2742 -1.7691 -0.3763
 8989SOL    HW238430   2.123   0.917   5.202  0.7496 -1.7650 -2.8401
 8990SOL     OW38431   1.674   3.639   7.507  0.3260 -0.1183 -0.9432
 8990SOL    HW138432   1.617   3.577   7.553 -0.4418  0.9829 -0.3965
 8990SOL    HW238433   1.683   3.592   7.424 -0.2547  2.0892 -2.2642
 8991SOL     OW38434   1.171   1.124   5.286  0.0649  0.0469 -0.2699
 8991SOL    HW138435   1.164   1.153   5.377 -0.0812 -0.5969 -0.0797
 8991SOL    HW238436   1.241   1.186   5.265  1.3158 -0.9045  1.1095
 8992SOL     OW38437   4.386   4.183  16.284  0.1201 -0.0928 -0.1362
 8992SOL    HW138438   4.372   4.276  16.301 -1.7173 -0.9686  3.1079
 8992SOL    HW238439   4.415   4.148  16.368 -0.9009 -0.8851 -0.0986
 8993SOL     OW38440   2.365   3.824   6.080  0.4564  0.2336 -1.1136
 8993SOL    HW138441   2.295   3.806   6.018 -2.0779  1.9119  1.2779
 8993SOL    HW238442   2.324   3.872   6.152  0.5676 -1.2200 -0.0766
 8994SOL     OW38443   0.661   2.626   2.960  0.2966  0.5494 -0.0884
 8994SOL    HW138444   0.681   2.567   2.887  0.5059  1.0563 -0.4378
 8994SOL    HW238445   0.750   2.632   2.995  1.1752 -0.8702 -2.0382
 8995SOL     OW38446   1.710   0.861   2.289 -0.1731 -0.3053 -0.1360
 8995SOL    HW138447   1.680   0.772   2.270  1.0516 -0.7999  0.2182
 8995SOL    HW238448   1.674   0.877   2.376  1.5800  0.3860  0.4491
 8996SOL     OW38449   3.411   1.835   3.605 -0.6305  0.0418 -0.1682
 8996SOL    HW138450   3.420   1.852   3.699 -3.8739  1.2261 -0.0761
 8996SOL    HW238451   3.383   1.924   3.583  1.6980  1.3901  2.3570
 8997SOL     OW38452   4.525   1.946   0.260 -0.0116 -0.0813 -0.0184
 8997SOL    HW138453   4.446   1.901   0.230  1.1790 -0.2250 -2.9911
 8997SOL    HW238454   4.545   1.985   0.175 -1.1434 -0.4288 -0.4443
 8998SOL     OW38455   3.229   3.592  15.279 -0.4426  0.1609  0.1069
 8998SOL    HW138456   3.233   3.507  15.237  1.0522  1.8362 -3.1135
 8998SOL    HW238457   3.295   3.572  15.345 -0.8374 -0.0054  0.4504
 8999SOL     OW38458   0.752   1.168  13.474  0.3110  0.5861  0.4529
 8999SOL    HW138459   0.758   1.264  13.481  0.5911  0.6752 -0.9053
 8999SOL    HW238460   0.663   1.150  13.445  1.2586 -2.1975 -0.7452
 9000SOL     OW38461   1.180   3.310   4.549 -0.0938 -0.5519  0.3720
 9000SOL    HW138462   1.203   3.376   4.484  1.7496 -0.4227  1.1799
 9000SOL    HW238463   1.243   3.335   4.616  0.6042  3.1168 -1.6966
 9001SOL     OW38464   4.438   1.729   6.639  0.0608  0.1060  0.0307
 9001SOL    HW138465   4.532   1.732   6.621 -0.6537  4.1212 -2.8793
 9001SOL    HW238466   4.406   1.721   6.549  1.9750  0.3124 -0.6635
 9002SOL     OW38467   1.000   2.378  11.341  0.1583 -0.5970  0.1007
 9002SOL    HW138468   0.928   2.336  11.388 -1.2303 -1.1730 -2.5548
 9002SOL    HW238469   0.994   2.322  11.264 -0.4437  1.3198 -1.2500
 9003SOL     OW38470   1.373   3.024  13.223 -0.0140  0.1734  0.1024
 9003SOL    HW138471   1.323   3.097  13.186 -1.0330  0.8589  2.8402
 9003SOL    HW238472   1.435   3.081  13.269  1.5382 -2.4515  1.2881
 9004SOL     OW38473   2.520   1.460   2.158 -0.1895  0.7374  0.4500
 9004SOL    HW138474   2.450   1.400   2.183  0.3357  0.7365  1.8750
 9004SOL    HW238475   2.504   1.542   2.205 -3.2102  0.0148  0.6798
 9005SOL     OW38476   3.866   0.397   7.605  0.2951 -0.5997  0.1292
 9005SOL    HW138477   3.894   0.425   7.518  1.2604 -1.3639  0.1996
 9005SOL    HW238478   3.951   0.401   7.648  1.1265  0.6032 -1.6192
 9006SOL     OW38479   1.366   4.344   2.725  0.2003 -0.2657  0.1063
 9006SOL    HW138480   1.328   4.385   2.647  1.8224  0.1219 -0.4849
 9006SOL    HW238481   1.315   4.376   2.800 -2.6259 -0.6306 -1.6476
 9007SOL     OW38482   2.324   4.251  14.171 -0.3862  0.6515  0.2092
 9007SOL    HW138483   2.395   4.240  14.234  0.4690 -1.5737 -1.1790
 9007SOL    HW238484   2.370   4.313  14.115  0.1551 -0.1854 -0.2700
 9008SOL     OW38485   2.150   2.371  13.753  0.6288  0.4137 -0.1557
 9008SOL    HW138486   2.060   2.387  13.779  0.3726 -0.0823 -0.7335
 9008SOL    HW238487   2.142   2.405  13.664 -1.0651 -1.2632 -0.6409
 9009SOL     OW38488   2.630   1.844   7.989  0.0893 -0.3370  0.3180
 9009SOL    HW138489   2.584   1.768   7.952 -1.1401  0.8413 -0.5548
 9009SOL    HW238490   2.591   1.917   7.941  0.8562 -1.2066 -1.6196
 9010SOL     OW38491   1.086   0.983   3.102  0.1745 -0.2514 -0.6481
 9010SOL    HW138492   1.084   0.898   3.059 -1.9312  1.2234 -3.4266
 9010SOL    HW238493   1.161   1.025   3.060  0.4500 -2.9396 -2.8057
 9011SOL     OW38494   0.237   2.388   1.969 -0.1189  0.1224 -0.5949
 9011SOL    HW138495   0.332   2.376   1.968 -0.3026 -1.4779 -0.0090
 9011SOL    HW238496   0.203   2.366   2.056 -0.2088  1.8277 -0.2075
 9012SOL     OW38497   1.292   3.690  16.801 -0.5785 -0.0898 -0.7228
 9012SOL    HW138498   1.226   3.747  16.763 -1.1062 -0.2812 -0.0792
 9012SOL    HW238499   1.378   3.729  16.784 -1.0037  1.0739 -0.1953
 9013SOL     OW38500   3.955   0.541  17.053 -0.1722 -0.6785 -0.3760
 9013SOL    HW138501   3.975   0.605  16.985 -1.7312  0.7382  0.4948
 9013SOL    HW238502   3.894   0.592  17.106  1.2810  0.8491 -0.1709
 9014SOL     OW38503   1.530   3.136   9.516 -0.1588 -0.1231 -0.1889
 9014SOL    HW138504   1.478   3.080   9.574 -0.7312  0.6698  0.0752
 9014SOL    HW238505   1.572   3.068   9.463 -0.7611 -1.4410  1.0263
 9015SOL     OW38506   4.147   0.352   9.320 -0.4650 -0.2264 -0.1090
 9015SOL    HW138507   4.078   0.402   9.275  1.8190  1.6036 -1.5969
 9015SOL    HW238508   4.220   0.362   9.258  0.7660  0.7790  1.5196
 9016SOL     OW38509   4.514   4.676  16.001  0.0005 -0.2842  0.4188
 9016SOL    HW138510   4.429   4.673  16.045 -0.8935  1.5337 -1.2093
 9016SOL    HW238511   4.569   4.699  16.077  1.4267  0.3151 -0.7974
 9017SOL     OW38512   3.800   3.966   0.564 -0.1796 -0.1323 -0.2769
 9017SOL    HW138513   3.817   4.060   0.569  0.1549 -0.2963  1.4825
 9017SOL    HW238514   3.891   3.943   0.546 -0.1961 -1.0927  0.9568
 9018SOL     OW38515   3.618   1.781   6.409 -0.3968  0.0554 -0.0159
 9018SOL    HW138516   3.563   1.704   6.398  0.2412 -0.2921 -0.7784
 9018SOL    HW238517   3.691   1.760   6.351  0.0984 -0.8047  0.9035
 9019SOL     OW38518   1.080   3.955   7.686 -0.1997  0.1832  0.2640
 9019SOL    HW138519   1.073   3.965   7.591  1.3331 -0.4200  0.0934
 9019SOL    HW238520   1.015   3.891   7.714 -0.2086  1.0876  2.3484
 9020SOL     OW38521   0.805   3.713   7.719 -0.6478 -0.2422 -0.2120
 9020SOL    HW138522   0.816   3.649   7.790 -0.0081 -0.3041 -0.3615
 9020SOL    HW238523   0.820   3.661   7.639 -2.2469  1.7753 -1.8411
 9021SOL     OW38524   4.085   3.858   2.107 -0.0759 -0.5371 -0.1150
 9021SOL    HW138525   4.162   3.814   2.070  2.9335  4.4687  0.0865
 9021SOL    HW238526   4.094   3.829   2.198  0.9318  2.6063  0.7907
 9022SOL     OW38527   2.090   1.072  16.974 -0.2455 -0.1277  0.2237
 9022SOL    HW138528   2.046   0.991  16.949 -0.0297 -0.9331  2.4665
 9022SOL    HW238529   2.175   1.028  16.979 -0.5837 -0.8683 -0.7087
 9023SOL     OW38530   2.198   1.365  17.661 -0.7768 -0.1425  0.2594
 9023SOL    HW138531   2.248   1.394  17.585 -1.9056  0.6523 -0.1884
 9023SOL    HW238532   2.107   1.389  17.641 -0.3623  2.0258  0.9964
 9024SOL     OW38533   2.590   2.042   4.425 -0.1576 -0.3161 -0.3691
 9024SOL    HW138534   2.567   2.131   4.451 -1.5172 -0.9506  0.5871
 9024SOL    HW238535   2.656   2.033   4.493  0.7928  2.1219 -0.9940
 9025SOL     OW38536   3.513   4.255   1.616  0.1160  0.3099  0.2346
 9025SOL    HW138537   3.491   4.165   1.642 -0.4421  0.3087 -0.2434
 9025SOL    HW238538   3.544   4.238   1.527 -1.3723 -0.0114 -0.2246
 9026SOL     OW38539   2.402   2.933   5.491 -0.5993  0.4293 -0.2133
 9026SOL    HW138540   2.456   2.919   5.413  0.4805  2.7567  0.1282
 9026SOL    HW238541   2.311   2.928   5.461 -0.1589 -0.9315 -1.3368
 9027SOL     OW38542   1.573   1.072   2.937  0.1236 -0.5959 -0.5589
 9027SOL    HW138543   1.607   0.989   2.972 -1.9013 -1.1160  0.1468
 9027SOL    HW238544   1.653   1.123   2.923 -0.1833  0.2397  0.7238
 9028SOL     OW38545   2.614   4.437   5.861  0.3544  0.3297 -0.2438
 9028SOL    HW138546   2.535   4.481   5.829 -1.1617 -0.8196  1.8535
 9028SOL    HW238547   2.591   4.344   5.867  0.2429  0.2456 -2.0748
 9029SOL     OW38548   3.086   1.202  11.998  0.3489  0.3178  0.0707
 9029SOL    HW138549   3.057   1.166  11.914  2.1696 -0.5117 -0.1991
 9029SOL    HW238550   3.066   1.127  12.055  0.4847  0.1403 -0.1160
 9030SOL     OW38551   1.588   3.173   3.630 -0.7276  0.5300 -0.1166
 9030SOL    HW138552   1.622   3.087   3.656  1.0580  0.9294 -1.2145
 9030SOL    HW238553   1.646   3.192   3.557 -1.1514  0.8139 -0.3819
 9031SOL     OW38554   1.375   1.110   6.826 -0.7866  0.2415  0.5729
 9031SOL    HW138555   1.305   1.151   6.877  0.5999  1.4980  1.4726
 9031SOL    HW238556   1.336   1.106   6.738  2.6476  1.1912 -1.0005
 9032SOL     OW38557   0.242   1.487   4.269 -0.1294  0.5989 -0.1240
 9032SOL    HW138558   0.305   1.437   4.321 -0.1682  0.8862  0.1955
 9032SOL    HW238559   0.227   1.431   4.192 -1.2038  1.0154 -0.2130
 9033SOL     OW38560   1.267   2.277  12.889 -0.0464  0.5114  0.0065
 9033SOL    HW138561   1.359   2.304  12.892  0.3310 -0.6756 -1.0779
 9033SOL    HW238562   1.240   2.273  12.981  1.3559  0.0069  0.3969
 9034SOL     OW38563   2.212   1.534   0.709 -0.3481  0.3476  0.2566
 9034SOL    HW138564   2.217   1.481   0.630  0.5380  2.0894 -0.8563
 9034SOL    HW238565   2.267   1.481   0.766  0.5782 -0.1843 -1.1496
 9035SOL     OW38566   0.834   0.533   3.806 -0.1190  0.3864 -0.0232
 9035SOL    HW138567   0.914   0.582   3.828  2.0246 -3.4408  0.6732
 9035SOL    HW238568   0.779   0.596   3.759  0.0093 -0.5203 -1.4021
 9036SOL     OW38569   0.962   4.476   3.719  0.2852  0.4483 -0.2382
 9036SOL    HW138570   1.048   4.436   3.703 -0.5420 -0.9873 -1.0601
 9036SOL    HW238571   0.978   4.568   3.699 -0.8880  0.4827 -0.9861
 9037SOL     OW38572   1.256   4.185   5.309 -0.0350  0.0522 -0.1560
 9037SOL    HW138573   1.238   4.243   5.384  0.0628 -1.1281  0.7652
 9037SOL    HW238574   1.339   4.153   5.342  0.9167  2.2591 -0.3941
 9038SOL     OW38575   0.836   2.915   2.470 -0.1765 -0.0587  0.0445
 9038SOL    HW138576   0.790   2.833   2.490 -2.7578  1.4766  0.4469
 9038SOL    HW238577   0.774   2.981   2.503 -0.2464 -0.0909 -0.0233
 9039SOL     OW38578   0.453   0.618   7.227  0.3999 -0.0359 -0.4361
 9039SOL    HW138579   0.441   0.557   7.154  0.7116  0.9422 -1.3267
 9039SOL    HW238580   0.427   0.565   7.301 -2.3540  0.5622 -0.9643
 9040SOL     OW38581   3.892   0.354   1.867 -0.6242  0.1188 -0.4703
 9040SOL    HW138582   3.815   0.297   1.868 -0.1851 -0.4535  0.8225
 9040SOL    HW238583   3.844   0.430   1.836  0.3525  0.8330 -0.2240
 9041SOL     OW38584   0.800   3.623  16.853  0.4810 -0.9791  0.2885
 9041SOL    HW138585   0.750   3.622  16.935  2.0286  1.5040  1.2647
 9041SOL    HW238586   0.732   3.589  16.795  0.2857  1.9942 -1.2187
 9042SOL     OW38587   4.078   1.907   1.977 -0.6156 -0.5175  0.0677
 9042SOL    HW138588   4.155   1.853   1.996 -1.4612 -1.9900 -0.6912
 9042SOL    HW238589   4.067   1.886   1.884  0.5314  0.7415 -0.3496
 9043SOL     OW38590   1.804   4.293   2.728 -0.3914  0.6080 -0.7756
 9043SOL    HW138591   1.788   4.324   2.639 -0.6739  0.5126 -0.7595
 9043SOL    HW238592   1.760   4.208   2.735 -0.1179  0.6993  2.3015
 9044SOL     OW38593   1.927   3.551  12.161 -0.3319 -0.1819  0.1825
 9044SOL    HW138594   1.901   3.606  12.087 -0.9863 -0.9575 -0.1618
 9044SOL    HW238595   1.977   3.614  12.213  1.3623 -1.0993 -0.3453
 9045SOL     OW38596   1.224   3.781  14.349  0.5178 -0.0325 -0.2622
 9045SOL    HW138597   1.253   3.755  14.436  2.7831 -2.3122 -1.7043
 9045SOL    HW238598   1.131   3.756  14.352  0.1589  1.2016 -0.7972
 9046SOL     OW38599   4.177   2.392   2.331  0.3963 -0.1615  0.1794
 9046SOL    HW138600   4.183   2.389   2.235 -0.2703 -1.5040  0.1733
 9046SOL    HW238601   4.253   2.449   2.336 -1.0576  1.6604  1.3910
 9047SOL     OW38602   3.095   0.466  11.234  0.6130  0.8834  0.5821
 9047SOL    HW138603   3.016   0.520  11.234 -0.6694 -1.0110  0.7972
 9047SOL    HW238604   3.156   0.514  11.179  0.8828  2.7868  2.5337
 9048SOL     OW38605   1.184   0.757  14.685  0.4375 -0.5141  0.6433
 9048SOL    HW138606   1.165   0.711  14.603 -1.8126  1.4046  0.1088
 9048SOL    HW238607   1.099   0.742  14.726 -0.1941 -1.7255 -1.1138
 9049SOL     OW38608   1.205   1.062   1.691 -0.2990  0.0921 -0.5962
 9049SOL    HW138609   1.145   1.016   1.749  0.0613  1.0077  0.5164
 9049SOL    HW238610   1.190   1.155   1.709 -3.6148 -1.2279  3.2362
 9050SOL     OW38611   2.251   4.716  15.833 -0.0526 -0.5388  0.5474
 9050SOL    HW138612   2.204   0.006  15.751  0.9595  1.1514  0.3026
 9050SOL    HW238613   2.333   4.682  15.796 -0.3095 -2.2633  1.5544
 9051SOL     OW38614   4.076   4.474   7.366 -0.3342 -0.0368 -0.1174
 9051SOL    HW138615   4.071   4.535   7.439 -0.5401 -0.7527  0.4582
 9051SOL    HW238616   4.156   4.424   7.379  0.3369  1.0131 -0.2196
 9052SOL     OW38617   4.597   0.397   5.459  0.3915 -0.1330  0.3898
 9052SOL    HW138618   4.678   0.382   5.509 -0.0363  0.3834  1.2530
 9052SOL    HW238619   4.596   0.322   5.400  0.4166 -0.2002  0.4734
 9053SOL     OW38620   3.669   2.962   9.012  0.4506  1.0856  0.1134
 9053SOL    HW138621   3.604   3.031   9.024  1.0009  0.9327  3.8804
 9053SOL    HW238622   3.647   2.912   9.091 -0.9109 -0.0625 -0.9893
 9054SOL     OW38623   0.462   4.666  11.249  0.0007 -0.5836  0.1384
 9054SOL    HW138624   0.406   4.590  11.232  1.4597 -2.2312  2.6602
 9054SOL    HW238625   0.440   4.692  11.339  1.3015 -0.7321  0.5072
 9055SOL     OW38626   3.917   1.952  16.752 -0.0765 -0.1442 -0.1708
 9055SOL    HW138627   3.900   1.950  16.846  0.8867 -3.6668 -0.0949
 9055SOL    HW238628   3.938   2.044  16.734 -2.6100  0.4082 -0.3020
 9056SOL     OW38629   1.499   1.843  17.461  0.2585 -0.2831  0.1138
 9056SOL    HW138630   1.418   1.893  17.469 -0.2918 -1.0463 -0.5964
 9056SOL    HW238631   1.518   1.859  17.368 -0.6660  1.1552  0.1792
 9057SOL     OW38632   2.295   2.488   2.195 -0.1711  0.4460 -0.0262
 9057SOL    HW138633   2.228   2.473   2.129 -0.0270 -0.2567 -0.0164
 9057SOL    HW238634   2.371   2.451   2.150  0.0343 -0.0428  0.7281
 9058SOL     OW38635   0.360   0.528   1.470  0.2375  0.2423 -0.0972
 9058SOL    HW138636   0.322   0.450   1.430  0.7182  0.8681 -1.7637
 9058SOL    HW238637   0.440   0.500   1.514  1.2733  3.3663  0.0029
 9059SOL     OW38638   0.913   1.489   2.852 -0.2032 -0.5910  0.1687
 9059SOL    HW138639   0.885   1.427   2.919  1.7858  0.0787  1.6206
 9059SOL    HW238640   0.833   1.516   2.807  0.1893 -1.2348 -0.9204
 9060SOL     OW38641   4.070   1.230  10.258  0.0404 -0.0111  0.5399
 9060SOL    HW138642   4.139   1.239  10.193  0.0946  0.2180  0.6296
 9060SOL    HW238643   4.071   1.136  10.278 -3.1622  0.0831  1.1875
 9061SOL     OW38644   0.900   1.806   8.968 -0.3761 -0.4921 -0.2606
 9061SOL    HW138645   0.973   1.766   8.920 -0.0733 -1.1666  0.7576
 9061SOL    HW238646   0.840   1.734   8.952  1.5460 -2.0084 -0.6242
 9062SOL     OW38647   2.254   1.751   6.214  0.1202 -0.3154  0.0991
 9062SOL    HW138648   2.253   1.701   6.132 -3.5913  1.1051 -0.7525
 9062SOL    HW238649   2.331   1.722   6.262 -0.3163 -1.4694  0.1038
 9063SOL     OW38650   4.600   1.796  11.760  0.7230 -0.1301  0.8269
 9063SOL    HW138651   4.667   1.729  11.777 -1.1196 -2.1366  0.2444
 9063SOL    HW238652   4.566   1.815  11.847 -0.3601 -2.4029  0.9045
 9064SOL     OW38653   1.966   2.370   4.658 -0.1855  0.1760 -0.4117
 9064SOL    HW138654   1.878   2.399   4.681 -0.9133 -2.4510  0.0542
 9064SOL    HW238655   2.007   2.351   4.743 -0.8323 -1.1570 -0.3962
 9065SOL     OW38656   2.824   3.935  17.251 -0.0343 -0.2454  0.5647
 9065SOL    HW138657   2.802   4.019  17.211  0.4224 -0.3631  0.0493
 9065SOL    HW238658   2.852   3.880  17.177  1.0184  0.2840  0.5729
 9066SOL     OW38659   3.956   1.807   2.317  0.3410 -0.0849  0.3574
 9066SOL    HW138660   3.963   1.899   2.292  0.0957 -0.2933 -0.4642
 9066SOL    HW238661   3.980   1.763   2.236  0.9556  1.0947 -0.1043
 9067SOL     OW38662   3.975   2.559   2.334 -0.0570 -0.1645  0.6371
 9067SOL    HW138663   3.923   2.481   2.350 -0.4222 -0.1634 -0.5744
 9067SOL    HW238664   4.060   2.515   2.340 -0.7388 -1.5155  0.1460
 9068SOL     OW38665   2.646   2.523   2.922  0.2976 -0.2391 -0.2931
 9068SOL    HW138666   2.687   2.546   3.006 -0.9100  2.5037 -0.4542
 9068SOL    HW238667   2.698   2.447   2.896 -2.0829 -2.0321  0.2191
 9069SOL     OW38668   3.600   3.055   9.775 -0.0760  0.0035  0.1860
 9069SOL    HW138669   3.553   3.103   9.843 -1.3107 -0.4507 -0.3464
 9069SOL    HW238670   3.689   3.078   9.800  0.5110 -1.6380 -0.3705
 9070SOL     OW38671   4.102   0.668   9.507  0.1243 -0.0495 -0.0337
 9070SOL    HW138672   4.191   0.653   9.540  0.1247 -1.2251 -0.5872
 9070SOL    HW238673   4.104   0.711   9.422 -1.0051  3.2959  1.6091
 9071SOL     OW38674   2.607   3.712   2.443  0.0759  0.0896 -0.7028
 9071SOL    HW138675   2.555   3.790   2.462 -1.2508 -1.1985  0.9533
 9071SOL    HW238676   2.601   3.717   2.348  0.2684 -0.1442 -0.7256
 9072SOL     OW38677   3.453   4.502   7.552 -0.1638  0.1042  0.0168
 9072SOL    HW138678   3.387   4.564   7.523 -1.3382 -1.5513 -0.8097
 9072SOL    HW238679   3.479   4.545   7.634  1.8293 -0.8119 -0.1341
 9073SOL     OW38680   0.636   3.905   8.070  1.1476 -0.2529 -0.6506
 9073SOL    HW138681   0.669   3.832   8.017  0.4346  0.5495 -2.1974
 9073SOL    HW238682   0.682   3.985   8.044  0.1989  0.0942 -1.2726
 9074SOL     OW38683   2.688   0.951   2.489 -0.3805  0.2234  0.2659
 9074SOL    HW138684   2.609   0.902   2.467 -0.3345  0.9621 -1.5141
 9074SOL    HW238685   2.692   0.932   2.583  1.7662 -0.7200 -0.0025
 9075SOL     OW38686   2.110   2.338   4.888  0.3986 -0.2976 -0.3264
 9075SOL    HW138687   2.129   2.427   4.915 -2.4826 -0.3310  1.9699
 9075SOL    HW238688   2.096   2.311   4.979 -0.4026  0.0180 -0.3513
 9076SOL     OW38689   2.425   4.253   6.223 -1.0708 -0.7371  0.2377
 9076SOL    HW138690   2.437   4.348   6.233 -1.9827 -1.0187  4.1969
 9076SOL    HW238691   2.420   4.225   6.315  0.2904 -0.7701  0.3120
 9077SOL     OW38692   4.640   4.332   6.673 -0.2161  0.3059 -0.4104
 9077SOL    HW138693   4.600   4.334   6.760 -0.0472  1.6590 -0.3635
 9077SOL    HW238694   4.686   4.248   6.675 -1.2684 -0.2277  1.1932
 9078SOL     OW38695   3.872   1.100   4.092 -0.4313 -0.2971  0.7678
 9078SOL    HW138696   3.858   1.152   4.013  2.8141 -0.5386  0.0511
 9078SOL    HW238697   3.891   1.167   4.158  1.5215 -0.9898  0.9098
 9079SOL     OW38698   1.631   3.384   0.504  0.6614 -0.2143 -0.0552
 9079SOL    HW138699   1.724   3.386   0.526  0.7904 -2.6379 -0.4410
 9079SOL    HW238700   1.586   3.353   0.583 -0.4816  0.1941 -0.5379
 9080SOL     OW38701   2.161   2.755   7.388  0.0660 -0.1010  0.2811
 9080SOL    HW138702   2.253   2.749   7.362 -0.3599 -0.0109 -1.2594
 9080SOL    HW238703   2.182   2.782   7.478 -0.8760  1.3393  0.0712
 9081SOL     OW38704   3.015   2.664   4.904 -0.3066  0.2619  0.5379
 9081SOL    HW138705   3.098   2.616   4.904 -1.5895 -1.9901 -0.1634
 9081SOL    HW238706   2.981   2.639   4.990 -0.7380  1.6131  0.7562
 9082SOL     OW38707   1.328   2.426   3.281 -0.1606 -0.1949 -0.6215
 9082SOL    HW138708   1.398   2.433   3.216  0.3215  0.2244 -0.0589
 9082SOL    HW238709   1.312   2.520   3.282 -0.5041 -0.2356 -2.2836
 9083SOL     OW38710   3.210   2.751   2.373  0.2579 -0.1107  0.4946
 9083SOL    HW138711   3.202   2.661   2.343 -1.2732  1.2112 -3.0735
 9083SOL    HW238712   3.268   2.727   2.445  0.0988  0.5438  0.8397
 9084SOL     OW38713   1.058   2.053  11.430 -0.3468  0.2062  0.5962
 9084SOL    HW138714   1.063   2.009  11.345  3.0844  0.6363  0.5747
 9084SOL    HW238715   0.974   2.099  11.423 -1.4177 -2.1256 -1.8146
 9085SOL     OW38716   1.454   4.255   7.797 -0.7938  0.7505  0.0906
 9085SOL    HW138717   1.546   4.271   7.780 -0.8401 -0.0822 -1.0273
 9085SOL    HW238718   1.452   4.286   7.887  0.5030 -0.3832  0.5023
 9086SOL     OW38719   4.648   2.398   7.410  0.5056 -0.9530 -0.1303
 9086SOL    HW138720   4.597   2.322   7.382 -0.6995  0.2540 -1.1813
 9086SOL    HW238721   4.656   2.450   7.330 -2.9196  1.4636  1.1339
 9087SOL     OW38722   2.536   4.329   9.214 -0.5270 -0.0680  0.5597
 9087SOL    HW138723   2.612   4.310   9.269  1.2729 -0.9500 -2.2206
 9087SOL    HW238724   2.545   4.275   9.135  1.2780  1.0022  0.0117
 9088SOL     OW38725   2.154   1.348   2.717  0.1789 -0.5017  0.4305
 9088SOL    HW138726   2.192   1.433   2.694 -0.2556 -0.2440  0.6609
 9088SOL    HW238727   2.185   1.329   2.805  1.5309  1.0174  0.2747
 9089SOL     OW38728   0.952   2.188  14.233 -0.2043  0.0008  0.0161
 9089SOL    HW138729   0.875   2.139  14.260  0.3151 -0.7149  0.1902
 9089SOL    HW238730   0.955   2.252  14.305 -0.2512 -1.7179  1.5552
 9090SOL     OW38731   2.205   1.115   7.992 -0.8078  0.5103  0.5197
 9090SOL    HW138732   2.224   1.147   8.080 -0.2238  1.2779  0.1143
 9090SOL    HW238733   2.267   1.042   7.984 -0.5866  0.7881 -0.2758
 9091SOL     OW38734   2.846   3.849   2.586  0.3401  0.1473 -0.3387
 9091SOL    HW138735   2.779   3.798   2.541  0.5885 -1.2287  0.8685
 9091SOL    HW238736   2.849   3.924   2.526 -1.0794  0.0958 -0.4606
 9092SOL     OW38737   2.885   4.079   9.194 -0.3130  0.0821 -0.3939
 9092SOL    HW138738   2.956   4.102   9.133 -0.0257 -2.0209 -0.8511
 9092SOL    HW238739   2.928   4.021   9.257  0.5488  0.4660 -0.6371
 9093SOL     OW38740   3.509   3.013   9.529 -0.7389  0.0422  0.1218
 9093SOL    HW138741   3.447   3.086   9.536 -0.1044  0.6039 -0.1312
 9093SOL    HW238742   3.555   3.022   9.613  1.9362 -0.1868 -1.3357
 9094SOL     OW38743   2.455   3.605  16.764 -0.1522  0.3321  0.1241
 9094SOL    HW138744   2.445   3.536  16.830  3.6986 -2.2003 -1.9665
 9094SOL    HW238745   2.438   3.684  16.815  0.1428  2.5045 -3.1247
 9095SOL     OW38746   3.922   1.910   9.429 -0.0704 -0.2052  0.4430
 9095SOL    HW138747   3.992   1.847   9.446  1.3894  0.9933 -1.0687
 9095SOL    HW238748   3.948   1.979   9.489 -1.0469  1.6895 -1.3239
 9096SOL     OW38749   1.079   3.233   9.046  0.0584  0.4305  0.1383
 9096SOL    HW138750   1.006   3.180   9.013 -0.4329  1.5567 -0.5693
 9096SOL    HW238751   1.063   3.321   9.012 -1.5356 -0.0257 -0.2897
 9097SOL     OW38752   3.270   1.991   6.937 -0.3250 -0.1539  0.2943
 9097SOL    HW138753   3.203   2.053   6.908 -2.5824 -2.7449  0.0143
 9097SOL    HW238754   3.226   1.907   6.929  0.9866 -0.7742 -0.4592
 9098SOL     OW38755   1.421   2.682   0.099  0.3991 -0.0398  0.1354
 9098SOL    HW138756   1.435   2.763   0.051 -0.6708 -0.2926 -0.6015
 9098SOL    HW238757   1.504   2.640   0.081 -0.0794 -0.3700 -1.2742
 9099SOL     OW38758   2.457   3.390   9.777  0.2396  0.6029 -0.5789
 9099SOL    HW138759   2.362   3.403   9.776  0.1213 -0.3041 -0.8593
 9099SOL    HW238760   2.465   3.327   9.706 -1.2340  1.5316 -1.5747
 9100SOL     OW38761   0.395   3.512  15.929 -0.3951 -0.2521  0.0970
 9100SOL    HW138762   0.331   3.442  15.916 -0.9549 -0.2254  2.6874
 9100SOL    HW238763   0.370   3.549  16.013 -0.0410  2.8823 -1.1666
 9101SOL     OW38764   2.306   1.121   6.614  0.7191  0.1172 -0.0901
 9101SOL    HW138765   2.387   1.163   6.585  0.0805  0.8051 -0.8441
 9101SOL    HW238766   2.316   1.130   6.709 -0.4466 -1.1260  0.1520
 9102SOL     OW38767   4.632   2.120   2.812  0.6056 -0.3386  1.0235
 9102SOL    HW138768   4.628   2.025   2.813  0.0898 -0.3600 -1.6390
 9102SOL    HW238769   4.569   2.151   2.877 -0.6949 -0.9051  0.0247
 9103SOL     OW38770   3.527   2.184  15.976 -0.1507 -0.3131  0.0808
 9103SOL    HW138771   3.618   2.157  15.971  0.4061  1.9151 -2.1863
 9103SOL    HW238772   3.490   2.103  15.941  1.2090 -0.4481 -1.0066
 9104SOL     OW38773   2.992   0.889   6.687 -0.0937  0.4278  0.3900
 9104SOL    HW138774   2.994   0.816   6.749 -1.2905  0.3130  0.2940
 9104SOL    HW238775   3.086   0.894   6.669 -0.2665 -0.9290 -0.8585
 9105SOL     OW38776   4.270   1.202   0.150  0.2299 -0.0205 -0.1209
 9105SOL    HW138777   4.312   1.265   0.208  1.7102  0.6096 -1.8486
 9105SOL    HW238778   4.281   1.235   0.060 -1.0771 -1.7327 -0.9102
 9106SOL     OW38779   1.581   1.445   2.992 -0.0107 -0.3192 -0.2206
 9106SOL    HW138780   1.496   1.402   2.991 -0.6997  1.0510 -1.0250
 9106SOL    HW238781   1.625   1.433   3.076 -0.1672  0.5143 -0.0179
 9107SOL     OW38782   4.475   1.444   7.438  0.2172 -0.1242  0.2827
 9107SOL    HW138783   4.393   1.415   7.477 -0.0644 -2.6636 -2.2341
 9107SOL    HW238784   4.520   1.476   7.517 -1.8825  0.5459  1.2059
 9108SOL     OW38785   4.480   0.017  15.116  0.3061  0.2356  0.7383
 9108SOL    HW138786   4.549   0.082  15.101  1.2339 -0.8174  0.4995
 9108SOL    HW238787   4.486   4.684  15.041  2.6641  0.5215  0.6923
 9109SOL     OW38788   4.228   2.757   7.393 -0.1176 -0.7722 -0.2019
 9109SOL    HW138789   4.308   2.761   7.341 -0.5797 -1.5542 -0.9731
 9109SOL    HW238790   4.212   2.664   7.380  2.0225 -1.3582  1.2666
 9110SOL     OW38791   2.778   4.703   9.438 -0.2296 -0.3348 -0.2379
 9110SOL    HW138792   2.845   4.705   9.506 -1.0207  3.1074  0.4074
 9110SOL    HW238793   2.841   4.694   9.366 -0.1246  0.5312 -0.2500
 9111SOL     OW38794   1.193   1.259   5.526  0.3383 -0.4403 -0.5041
 9111SOL    HW138795   1.163   1.349   5.543  1.3479  0.1019 -1.6214
 9111SOL    HW238796   1.280   1.255   5.565  1.2807  0.9388 -2.4739
 9112SOL     OW38797   0.890   3.325   4.918 -0.1596 -0.1354 -0.3123
 9112SOL    HW138798   0.802   3.289   4.905 -0.8848  1.3512  0.4404
 9112SOL    HW238799   0.949   3.261   4.880  2.1801  2.1792 -0.6145
 9113SOL     OW38800   0.646   2.043   4.742  0.8367 -0.8447 -0.1363
 9113SOL    HW138801   0.718   2.102   4.718 -0.9410  0.4908 -2.2155
 9113SOL    HW238802   0.579   2.073   4.680  0.3286 -0.4356  0.6058
 9114SOL     OW38803   2.774   1.367  16.910  0.2208  0.2140  0.5139
 9114SOL    HW138804   2.781   1.463  16.913  2.4056  0.0343  0.5016
 9114SOL    HW238805   2.844   1.341  16.970  0.8407  0.2018 -0.2177
 9115SOL     OW38806   2.096   2.900   4.717 -0.6235 -0.7929  0.1253
 9115SOL    HW138807   2.023   2.962   4.716 -0.8767 -1.0850  1.5809
 9115SOL    HW238808   2.098   2.873   4.625 -1.8018  0.7397 -0.3399
 9116SOL     OW38809   0.382   0.581   2.675  0.1205 -0.5689  0.2261
 9116SOL    HW138810   0.372   0.533   2.758 -1.5218 -0.0608  0.3176
 9116SOL    HW238811   0.476   0.599   2.672  0.1832 -0.6727  1.4861
 9117SOL     OW38812   2.736   1.123  10.857  0.1476  0.4657  0.1575
 9117SOL    HW138813   2.741   1.115  10.952  0.5888  0.8245  0.1656
 9117SOL    HW238814   2.821   1.081  10.838 -0.6521  0.1899 -2.8026
 9118SOL     OW38815   1.767   3.570   5.803  0.1414 -0.0209 -0.5439
 9118SOL    HW138816   1.811   3.653   5.781 -2.2674  1.6203  0.8127
 9118SOL    HW238817   1.795   3.541   5.890 -2.2739 -0.8090 -0.0490
 9119SOL     OW38818   1.748   1.497   3.250  0.2477 -0.1053 -0.1649
 9119SOL    HW138819   1.732   1.516   3.342 -1.9167 -0.1986 -0.5271
 9119SOL    HW238820   1.744   1.587   3.217  1.5720 -0.1114 -0.3567
 9120SOL     OW38821   2.379   1.810   7.585 -0.0959  0.4376  0.0763
 9120SOL    HW138822   2.327   1.854   7.518  1.8933  0.9840 -1.1338
 9120SOL    HW238823   2.355   1.718   7.576  0.8283  0.3204 -1.3116
 9121SOL     OW38824   4.055   4.230   4.437 -0.1388  0.2442 -0.2784
 9121SOL    HW138825   4.072   4.149   4.485 -2.0781  1.3176  2.2493
 9121SOL    HW238826   4.133   4.282   4.460  0.7772 -0.8093 -1.0356
 9122SOL     OW38827   3.896   0.160   8.189 -0.0542  0.3848  0.3754
 9122SOL    HW138828   3.862   0.224   8.128 -0.1282  0.3947  0.4276
 9122SOL    HW238829   3.863   0.212   8.262 -0.3958  1.2411 -0.4051
 9123SOL     OW38830   4.492   1.945   4.207 -0.3301 -0.0334  0.2688
 9123SOL    HW138831   4.401   1.929   4.232  0.2187 -3.0918  0.2182
 9123SOL    HW238832   4.488   2.013   4.139  0.0883 -2.3129 -2.0294
 9124SOL     OW38833   1.364   0.962   1.509  0.0706 -0.0168  0.0374
 9124SOL    HW138834   1.326   1.034   1.560  1.3935 -0.6764  1.9542
 9124SOL    HW238835   1.436   1.015   1.473 -0.5963 -0.3077 -1.7241
 9125SOL     OW38836   1.798   1.620   3.849 -0.5049 -0.1599  0.2668
 9125SOL    HW138837   1.717   1.671   3.844 -1.0369 -0.7718  2.7405
 9125SOL    HW238838   1.858   1.669   3.793 -0.8205  2.2281  2.0343
 9126SOL     OW38839   4.002   3.843   8.019  0.0655  0.6837  0.1275
 9126SOL    HW138840   4.088   3.808   7.995 -0.4829 -1.2033  0.8659
 9126SOL    HW238841   4.013   3.849   8.114  1.7110 -0.9650  0.0420
 9127SOL     OW38842   3.245   2.691   7.290 -0.0525  0.0846 -0.0468
 9127SOL    HW138843   3.206   2.637   7.221  1.4019  0.8285 -1.4399
 9127SOL    HW238844   3.325   2.641   7.307  0.2982  0.8953  0.6713
 9128SOL     OW38845   3.099   4.070  16.610  1.1020 -0.1117  0.0940
 9128SOL    HW138846   3.051   4.008  16.665  0.0463 -0.7239 -1.5355
 9128SOL    HW238847   3.134   4.129  16.678 -1.8657  0.4393  1.1423
 9129SOL     OW38848   2.718   4.156   1.912 -0.2566  0.0203  0.3991
 9129SOL    HW138849   2.797   4.207   1.930 -2.2243  3.3158 -0.1396
 9129SOL    HW238850   2.727   4.143   1.817  0.1259  0.7081  0.3377
 9130SOL     OW38851   2.921   1.426   0.569 -0.5012 -0.2997 -0.2291
 9130SOL    HW138852   2.941   1.453   0.479 -2.3548  2.4711  0.1915
 9130SOL    HW238853   2.882   1.340   0.556  0.3430 -0.7567  0.3187
 9131SOL     OW38854   2.664   0.536   3.250 -0.4292 -0.6677 -0.3988
 9131SOL    HW138855   2.733   0.501   3.194  0.1266  1.0788 -0.8258
 9131SOL    HW238856   2.635   0.454   3.289 -0.9708 -0.4274 -0.3070
 9132SOL     OW38857   1.991   2.045  13.555 -0.1089 -0.4956  0.4608
 9132SOL    HW138858   1.907   2.061  13.512  0.4130  0.8139 -0.0699
 9132SOL    HW238859   2.041   1.999  13.487 -0.8425 -1.4512  0.5768
 9133SOL     OW38860   1.504   3.772   9.956 -0.1526 -0.2981  0.4535
 9133SOL    HW138861   1.463   3.846  10.000 -2.1060 -3.2467  3.5166
 9133SOL    HW238862   1.596   3.795   9.945  0.0048 -0.9618  0.4147
 9134SOL     OW38863   0.599   3.310   8.742  0.3047 -0.0347  0.1280
 9134SOL    HW138864   0.607   3.402   8.767  0.1452 -0.0284  0.1586
 9134SOL    HW238865   0.560   3.319   8.655  0.5329 -1.2922 -0.1060
 9135SOL     OW38866   0.306   2.503   8.721  0.1424  0.1120  0.0633
 9135SOL    HW138867   0.334   2.581   8.673  0.0311 -0.4795 -0.9725
 9135SOL    HW238868   0.377   2.439   8.711  0.7547  0.7621  0.2850
 9136SOL     OW38869   4.249   4.647   1.358  0.1221 -0.2018  0.6586
 9136SOL    HW138870   4.260   4.711   1.288 -0.1471 -0.6438  0.2120
 9136SOL    HW238871   4.154   4.635   1.355  0.0241  0.6262  0.5315
 9137SOL     OW38872   3.017   3.294   1.978  0.4101 -0.5933 -0.2511
 9137SOL    HW138873   2.966   3.304   2.059  1.3585  0.0430  0.2645
 9137SOL    HW238874   3.109   3.302   2.004  0.9279 -0.6205 -2.0417
 9138SOL     OW38875   1.542   0.543  13.687  0.2868  0.3103  0.0685
 9138SOL    HW138876   1.537   0.521  13.780 -1.4346 -0.1826 -0.1286
 9138SOL    HW238877   1.633   0.521  13.669  0.0566 -1.0078  0.4899
 9139SOL     OW38878   3.491   2.257   3.455 -0.1134 -0.5159  0.2393
 9139SOL    HW138879   3.541   2.252   3.373 -0.9314  1.8309 -0.3916
 9139SOL    HW238880   3.435   2.332   3.434  0.2478 -0.8811 -2.1016
 9140SOL     OW38881   1.799   0.262   4.482  0.5187 -0.1785  0.7341
 9140SOL    HW138882   1.799   0.277   4.388  0.4643 -0.9868  0.6033
 9140SOL    HW238883   1.856   0.330   4.517 -0.0182 -0.1864  1.6349
 9141SOL     OW38884   1.087   1.980   3.445 -0.2125  0.2624  0.0295
 9141SOL    HW138885   1.153   2.036   3.405 -0.0902  1.3719  1.7775
 9141SOL    HW238886   1.130   1.905   3.405 -0.7148  1.9177 -3.5703
 9142SOL     OW38887   0.083   1.463  11.817 -0.2133  0.3282  0.0094
 9142SOL    HW138888   0.127   1.395  11.766  1.1039  1.8514 -0.8559
 9142SOL    HW238889   0.098   1.541  11.765  0.4321  0.4237  0.3361
 9143SOL     OW38890   1.745   0.724  10.636  0.0906 -0.2111  0.1249
 9143SOL    HW138891   1.726   0.764  10.551 -1.0386 -0.1358  0.4113
 9143SOL    HW238892   1.744   0.796  10.699  4.7489  1.5788 -1.8057
 9144SOL     OW38893   1.246   2.474  13.620 -0.2323  0.0771  0.1844
 9144SOL    HW138894   1.334   2.511  13.622 -0.5149  0.8060 -0.9989
 9144SOL    HW238895   1.274   2.385  13.643  0.2676 -0.0056 -0.7690
 9145SOL     OW38896   1.846   0.833  14.870  0.2002  0.2605  0.5146
 9145SOL    HW138897   1.893   0.907  14.909  1.6006  0.0995 -0.8705
 9145SOL    HW238898   1.816   0.868  14.786 -2.2673  0.3215  1.4281
 9146SOL     OW38899   0.093   1.012   6.411 -0.3571  0.2162  0.2926
 9146SOL    HW138900   0.072   0.957   6.336  0.1601  0.7845 -0.2636
 9146SOL    HW238901   0.013   1.064   6.403 -0.2142 -0.0141 -2.5510
 9147SOL     OW38902   0.842   2.543   7.421  0.5333 -0.1154  0.0407
 9147SOL    HW138903   0.838   2.507   7.333  3.3016  1.7932 -0.8344
 9147SOL    HW238904   0.799   2.627   7.408 -1.8809 -1.6631 -2.0353
 9148SOL     OW38905   3.803   3.705   1.444 -0.2848  0.2917 -0.2301
 9148SOL    HW138906   3.709   3.725   1.437 -0.5466  0.0503  2.9147
 9148SOL    HW238907   3.841   3.695   1.356  1.2777 -0.7767  0.5708
 9149SOL     OW38908   3.209   1.298  13.585 -0.2435  0.2876  0.1164
 9149SOL    HW138909   3.210   1.373  13.526  2.2300 -2.0735 -2.8724
 9149SOL    HW238910   3.181   1.231  13.523  0.4416 -0.1197  0.2428
 9150SOL     OW38911   2.601   4.519  11.914 -0.4334  0.4377  0.2132
 9150SOL    HW138912   2.567   4.607  11.899  0.5606  0.8442  0.3022
 9150SOL    HW238913   2.656   4.506  11.837  1.6600  0.2398  1.7323
 9151SOL     OW38914   3.292   3.565   4.997 -0.0281  0.2584  0.8479
 9151SOL    HW138915   3.345   3.561   4.917  0.7135  1.2991  1.2926
 9151SOL    HW238916   3.218   3.521   4.955  1.9386 -2.6072  0.3205
 9152SOL     OW38917   2.663   0.082  12.913 -0.1790 -0.3189 -0.3425
 9152SOL    HW138918   2.580   0.052  12.877 -1.0231  1.1368  0.3996
 9152SOL    HW238919   2.656   0.066  13.007  2.1886 -1.3022 -0.3369
 9153SOL     OW38920   3.190   1.729   4.899 -0.2494  0.3032  0.3676
 9153SOL    HW138921   3.101   1.764   4.907  0.1537  1.4655 -0.1849
 9153SOL    HW238922   3.170   1.635   4.896  0.4252  0.1701  0.0787
 9154SOL     OW38923   2.691   3.803   4.859 -0.4867  0.4189  0.4954
 9154SOL    HW138924   2.714   3.788   4.767  0.1984  1.1837  0.5372
 9154SOL    HW238925   2.738   3.735   4.905 -1.4179 -1.5366 -1.4314
 9155SOL     OW38926   0.156   2.665   6.540  0.6862 -0.5178  0.2540
 9155SOL    HW138927   0.078   2.611   6.553  1.6921 -2.1134 -0.3709
 9155SOL    HW238928   0.193   2.656   6.627  0.3634 -1.5074  0.2886
 9156SOL     OW38929   3.937   2.657   5.405  0.0277  0.4355  0.6016
 9156SOL    HW138930   4.011   2.597   5.411  0.8537  1.3594 -0.3964
 9156SOL    HW238931   3.917   2.660   5.311  0.2898  1.7338  0.5835
 9157SOL     OW38932   1.646   3.953   3.848  0.0090  0.1651  0.0684
 9157SOL    HW138933   1.715   3.950   3.914 -1.3429  0.6761  1.5100
 9157SOL    HW238934   1.687   3.885   3.794  0.5280 -0.3612  1.1219
 9158SOL     OW38935   1.464   1.232   3.683 -0.0920  0.3204  0.5886
 9158SOL    HW138936   1.544   1.220   3.632 -0.2708  1.3460  0.0630
 9158SOL    HW238937   1.398   1.185   3.632  0.4189  0.1925  0.0495
 9159SOL     OW38938   4.560   0.714   3.573 -0.5687  0.3215  0.5466
 9159SOL    HW138939   4.536   0.736   3.483 -1.7482  1.4629  1.1433
 9159SOL    HW238940   4.526   0.787   3.624 -0.4701  1.1461 -0.5673
 9160SOL     OW38941   1.123   3.606   8.730 -0.0352  0.4552 -0.0660
 9160SOL    HW138942   1.215   3.597   8.755 -0.0394  2.2259  0.5213
 9160SOL    HW238943   1.109   3.553   8.652  0.3230  1.3838 -0.7604
 9161SOL     OW38944   2.157   0.624   6.919 -0.1350  0.1461 -0.6759
 9161SOL    HW138945   2.089   0.681   6.955  1.3710  1.4105  0.1675
 9161SOL    HW238946   2.208   0.694   6.877  0.0929  0.1044 -0.4670
 9162SOL     OW38947   1.520   0.506  15.384 -1.0210  0.0281 -0.2465
 9162SOL    HW138948   1.449   0.568  15.375 -1.7835 -0.5000  2.2765
 9162SOL    HW238949   1.578   0.524  15.310  0.3681 -1.5366  0.4416
 9163SOL     OW38950   4.133   3.594   6.147 -0.0096 -0.0306  0.9237
 9163SOL    HW138951   4.196   3.634   6.207 -0.3655  0.3397  1.0512
 9163SOL    HW238952   4.061   3.588   6.209  0.9642  1.4226  2.1831
 9164SOL     OW38953   0.459   4.125   7.292  0.0766  0.0336  0.3314
 9164SOL    HW138954   0.511   4.205   7.297 -0.6853  0.5774 -0.4420
 9164SOL    HW238955   0.416   4.129   7.206  0.6857 -0.8002 -0.0191
 9165SOL     OW38956   2.184   2.380   7.639  0.3731 -0.0695 -0.2865
 9165SOL    HW138957   2.279   2.374   7.632  0.3428  0.4589 -1.1772
 9165SOL    HW238958   2.181   2.474   7.655 -1.5815  0.0254 -1.1737
 9166SOL     OW38959   0.646   3.029   2.864 -0.3434 -0.4928 -0.1972
 9166SOL    HW138960   0.671   2.995   2.949  1.5034  1.3480 -0.0153
 9166SOL    HW238961   0.601   3.113   2.877  0.4454 -0.1609  0.3179
 9167SOL     OW38962   1.203   0.330   4.380  0.4102  0.6474 -0.3508
 9167SOL    HW138963   1.194   0.283   4.297  1.4140 -0.9155  0.4214
 9167SOL    HW238964   1.240   0.414   4.353  1.1290  0.5350  0.2729
 9168SOL     OW38965   4.212   0.089   0.935  0.0006  0.1535 -0.1407
 9168SOL    HW138966   4.207   4.720   0.919  1.9261  0.0974 -0.4529
 9168SOL    HW238967   4.141   0.114   0.876  0.2422  0.2937 -0.3762
 9169SOL     OW38968   4.324   3.197   4.637 -0.1254  0.0359  0.1695
 9169SOL    HW138969   4.351   3.287   4.660  2.2377 -0.7755  0.6199
 9169SOL    HW238970   4.240   3.218   4.596  1.4307  2.2196 -1.8961
 9170SOL     OW38971   3.452   0.180  16.471 -0.6764  0.0335  0.3757
 9170SOL    HW138972   3.370   0.138  16.494 -1.3625  0.1865 -1.7505
 9170SOL    HW238973   3.439   0.210  16.381 -2.1367  3.0939  1.6308
 9171SOL     OW38974   0.876   1.575   8.670 -0.1344 -0.2157  0.0944
 9171SOL    HW138975   0.858   1.538   8.584 -2.3978 -0.3899  0.6417
 9171SOL    HW238976   0.813   1.522   8.718  1.1764  0.8941  3.0112
 9172SOL     OW38977   1.610   2.823  10.341  0.2291 -0.1610  0.1941
 9172SOL    HW138978   1.654   2.880  10.404  0.1920 -1.8451  1.7492
 9172SOL    HW238979   1.524   2.814  10.382 -0.1984  1.2730 -0.4120
 9173SOL     OW38980   1.732   1.982   8.931 -0.8850 -0.2058 -0.4433
 9173SOL    HW138981   1.747   2.063   8.881 -0.5559 -1.1330 -1.8532
 9173SOL    HW238982   1.813   1.985   8.982 -1.9235 -0.9906  1.2541
 9174SOL     OW38983   3.329   3.897  12.237  0.2236 -0.6069 -0.1310
 9174SOL    HW138984   3.297   3.901  12.327 -0.0440  2.2073 -0.3519
 9174SOL    HW238985   3.329   3.989  12.210  4.0506 -0.7784 -0.7233
 9175SOL     OW38986   0.450   4.041  16.266  0.0327 -0.4859 -0.1160
 9175SOL    HW138987   0.387   4.026  16.196 -0.0425 -0.1183 -0.1247
 9175SOL    HW238988   0.529   4.070  16.221 -0.7494  2.9240  0.7053
 9176SOL     OW38989   3.797   4.717   7.882 -0.1751  0.1568  0.2845
 9176SOL    HW138990   3.871   0.051   7.892  0.6083 -0.8072  0.2206
 9176SOL    HW238991   3.793   4.685   7.972  1.1553  2.2211  1.0786
 9177SOL     OW38992   2.126   3.068   1.799  0.8750 -0.2749  0.2114
 9177SOL    HW138993   2.110   3.144   1.855 -2.7336 -1.7146  1.1480
 9177SOL    HW238994   2.069   3.002   1.839  1.6551 -1.7653 -1.1778
 9178SOL     OW38995   2.860   0.507  13.007 -0.1424 -0.4588 -0.0050
 9178SOL    HW138996   2.811   0.572  13.058  1.6493  0.8535  0.0157
 9178SOL    HW238997   2.797   0.453  12.958 -0.5394 -0.4255  0.4670
 9179SOL     OW38998   2.343   1.470   4.486 -0.2162  0.6496  0.1499
 9179SOL    HW138999   2.384   1.397   4.439 -0.4046 -0.2991  1.4478
 9179SOL    HW239000   2.297   1.414   4.549 -0.1811 -1.9406 -2.0779
 9180SOL     OW39001   3.582   1.829   4.568 -0.0611 -0.2874 -0.3467
 9180SOL    HW139002   3.589   1.785   4.483  0.5065 -1.1636  0.1453
 9180SOL    HW239003   3.488   1.826   4.588  0.4519 -0.0983  2.0324
 9181SOL     OW39004   2.593   0.929  17.687  0.1569  0.8683  0.4361
 9181SOL    HW139005   2.615   0.967   0.067 -0.1931 -0.0679  0.9447
 9181SOL    HW239006   2.671   0.888  17.649 -0.2577  0.6488 -0.1789
 9182SOL     OW39007   0.197   1.595  12.860 -0.2251 -0.1577  0.2104
 9182SOL    HW139008   0.258   1.656  12.819 -1.0217 -1.3814 -2.7866
 9182SOL    HW239009   0.186   1.532  12.789 -0.8978  1.3790 -1.0502
 9183SOL     OW39010   4.674   3.335   2.201  0.6525 -0.4595  0.4482
 9183SOL    HW139011   4.633   3.421   2.188  1.8131 -0.1238 -0.9608
 9183SOL    HW239012   4.652   3.294   2.117 -1.3437 -2.2312  1.8349
 9184SOL     OW39013   0.691   0.765   4.399  0.8897  0.3962 -0.3168
 9184SOL    HW139014   0.768   0.708   4.404 -0.0490 -1.0116 -1.7892
 9184SOL    HW239015   0.669   0.752   4.492 -0.4104  1.3397 -0.4943
 9185SOL     OW39016   0.978   0.151   6.783  0.1513  0.2127 -0.4550
 9185SOL    HW139017   0.997   0.120   6.694 -1.3272  1.1013 -1.0725
 9185SOL    HW239018   0.928   0.231   6.768 -0.7994 -0.1135  0.9401
 9186SOL     OW39019   4.662   3.472   8.831 -0.3230  0.2765 -0.2103
 9186SOL    HW139020   4.713   3.541   8.871  1.5420  0.0853 -2.2273
 9186SOL    HW239021   4.709   3.393   8.858 -1.4235 -0.9351 -1.8125
 9187SOL     OW39022   3.759   2.169  15.232 -0.1179 -0.6959 -0.2013
 9187SOL    HW139023   3.810   2.170  15.152  1.1658 -3.3682  0.5889
 9187SOL    HW239024   3.723   2.257  15.246 -1.1351 -1.0913 -0.3300
 9188SOL     OW39025   3.699   0.840   9.200 -0.1773 -0.5703 -0.4076
 9188SOL    HW139026   3.729   0.749   9.206  0.3139 -0.2700  1.7248
 9188SOL    HW239027   3.782   0.886   9.191  0.2100 -0.9832  1.0135
 9189SOL     OW39028   0.062   4.499   7.088 -0.3317  0.0659  0.3101
 9189SOL    HW139029   0.044   4.534   7.001 -1.3709 -2.6158 -0.5825
 9189SOL    HW239030   4.713   4.532   7.137 -1.3272 -0.6714 -0.6905
 9190SOL     OW39031   2.931   0.693  12.803  0.1012 -0.5383 -0.1655
 9190SOL    HW139032   2.882   0.638  12.864  0.0351 -0.5915 -0.2661
 9190SOL    HW239033   3.002   0.633  12.781  0.9574  0.4283  0.0017
 9191SOL     OW39034   3.632   3.196   4.896 -0.7481 -1.3840 -0.0631
 9191SOL    HW139035   3.588   3.211   4.980 -2.5621 -3.1717 -0.7057
 9191SOL    HW239036   3.568   3.142   4.849 -1.2792 -0.5714 -0.2973
 9192SOL     OW39037   0.061   0.177   4.612 -0.5174 -0.2003 -0.4990
 9192SOL    HW139038   0.093   0.267   4.602 -0.8883 -0.1786 -1.5448
 9192SOL    HW239039   0.100   0.149   4.695 -2.0866 -0.6801  0.0794
 9193SOL     OW39040   4.231   1.682   8.575 -0.1874 -0.3133  0.1494
 9193SOL    HW139041   4.295   1.616   8.549 -1.7714 -1.6132 -0.4469
 9193SOL    HW239042   4.250   1.689   8.668  0.0534  0.4083  0.0427
 9194SOL     OW39043   0.841   2.975   7.457 -0.2633 -0.0167  0.5970
 9194SOL    HW139044   0.841   3.070   7.450 -0.6770 -0.1672 -1.3798
 9194SOL    HW239045   0.825   2.964   7.551  1.4650 -0.5173  0.8274
 9195SOL     OW39046   3.281   3.751   2.225 -0.4120 -0.0072  0.7872
 9195SOL    HW139047   3.272   3.838   2.263  1.6086  0.5312  0.0327
 9195SOL    HW239048   3.261   3.697   2.301 -1.9102 -0.2080  0.2625
 9196SOL     OW39049   0.849   1.951  11.943  0.5028  0.0897 -0.2201
 9196SOL    HW139050   0.880   1.901  12.019 -0.3213 -1.4055 -0.8715
 9196SOL    HW239051   0.755   1.931  11.937  0.4605 -0.1173  1.1269
 9197SOL     OW39052   1.159   0.244   1.907 -0.3969  0.2162  0.1052
 9197SOL    HW139053   1.212   0.168   1.884 -1.1272  0.0901 -1.1373
 9197SOL    HW239054   1.076   0.210   1.940 -0.8634  1.0892 -0.1570
 9198SOL     OW39055   1.814   1.293   4.949  0.4420 -0.1724 -0.6695
 9198SOL    HW139056   1.897   1.324   4.985  0.9883 -1.2426 -1.0043
 9198SOL    HW239057   1.783   1.263   5.034  2.7463  0.8538  0.5207
 9199SOL     OW39058   1.279   0.576   3.619 -0.4746  0.2401  0.2962
 9199SOL    HW139059   1.364   0.597   3.658 -1.1136  1.5719  0.9482
 9199SOL    HW239060   1.263   0.629   3.541  1.8407 -0.4277 -0.6325
 9200SOL     OW39061   0.300   3.225   5.174  0.2578 -0.0717 -0.3802
 9200SOL    HW139062   0.272   3.199   5.261 -1.1913  3.4408  0.2164
 9200SOL    HW239063   0.236   3.296   5.176  1.5580  1.1251 -0.8833
 9201SOL     OW39064   1.151   3.983  15.116  0.1239 -0.3182 -0.1691
 9201SOL    HW139065   1.203   3.925  15.171  1.4336  0.0428 -1.0151
 9201SOL    HW239066   1.213   4.056  15.104  0.4107 -0.6501 -0.6854
 9202SOL     OW39067   0.951   0.763   4.760  0.9239  0.0061 -0.0055
 9202SOL    HW139068   1.003   0.739   4.683  0.6744 -0.8063  0.0761
 9202SOL    HW239069   0.925   0.675   4.786  1.0871 -0.5439 -1.7218
 9203SOL     OW39070   4.567   3.661  16.700  0.1746  0.6700 -0.5525
 9203SOL    HW139071   4.524   3.655  16.615  1.2966 -0.2391 -1.0564
 9203SOL    HW239072   4.496   3.641  16.761 -0.5738 -0.2453 -1.7397
 9204SOL     OW39073   2.934   0.928   2.947 -0.1186  0.3165  0.1301
 9204SOL    HW139074   2.871   0.863   2.979  2.9375 -1.1979  3.1003
 9204SOL    HW239075   2.905   0.998   3.006 -1.0271 -0.3152  0.4426
 9205SOL     OW39076   0.302   3.791   9.091  0.5918 -0.1095 -0.5834
 9205SOL    HW139077   0.365   3.863   9.100  0.1041 -0.2513  4.1509
 9205SOL    HW239078   0.229   3.824   9.144  0.8629  1.1044 -0.9679
 9206SOL     OW39079   1.841   2.959   5.906 -0.1399  0.2144 -0.1285
 9206SOL    HW139080   1.797   2.931   5.826 -0.3633 -0.6370  0.2849
 9206SOL    HW239081   1.932   2.962   5.877  0.3838  1.3440  1.6317
 9207SOL     OW39082   4.021   4.661   4.696  0.5080  0.2650  0.0964
 9207SOL    HW139083   3.989   4.666   4.786 -1.7487 -0.1227 -0.6946
 9207SOL    HW239084   3.949   4.691   4.641  1.0643  1.3960 -0.0280
 9208SOL     OW39085   0.879   2.844  17.696  0.3057  0.2180  0.2172
 9208SOL    HW139086   0.826   2.837  17.617  1.4153 -0.0136 -0.5039
 9208SOL    HW239087   0.816   2.850   0.062  0.3129 -0.9042  0.3161
 9209SOL     OW39088   2.322   3.140   2.807 -0.3714  0.3160 -0.2057
 9209SOL    HW139089   2.314   3.233   2.829 -0.3612  0.1787  0.3727
 9209SOL    HW239090   2.403   3.123   2.855 -1.5373  2.5523  2.5860
 9210SOL     OW39091   2.140   0.814   1.187  0.1682 -0.1709 -0.3080
 9210SOL    HW139092   2.097   0.785   1.267 -2.6077 -1.6825 -2.3579
 9210SOL    HW239093   2.114   0.747   1.124 -0.5694  1.0220 -1.2806
 9211SOL     OW39094   0.815   0.627   8.129  0.5393  0.1264  0.2824
 9211SOL    HW139095   0.829   0.635   8.223 -0.7838  0.7131  0.4262
 9211SOL    HW239096   0.774   0.712   8.117 -1.7431 -1.2479 -1.6442
 9212SOL     OW39097   3.599   1.244   5.383 -0.1399 -0.3400  0.3848
 9212SOL    HW139098   3.591   1.231   5.289  0.0055 -2.9011  0.7411
 9212SOL    HW239099   3.684   1.288   5.396 -0.3399 -0.2852  1.4947
 9213SOL     OW39100   1.287   2.221  12.351 -0.3075 -1.0273 -0.0841
 9213SOL    HW139101   1.300   2.227  12.257  2.6932  0.6359  0.4203
 9213SOL    HW239102   1.199   2.184  12.355 -0.6811 -0.0596  0.7261
 9214SOL     OW39103   2.966   2.042   2.375 -0.6313 -0.4667 -0.2000
 9214SOL    HW139104   2.904   2.009   2.311  2.0653 -1.5207 -2.2596
 9214SOL    HW239105   3.015   1.960   2.383  0.2772  0.1865  0.9566
 9215SOL     OW39106   3.476   3.058   4.019  0.5519 -0.2786  0.0600
 9215SOL    HW139107   3.442   3.061   4.109 -2.9393  0.7261 -1.2761
 9215SOL    HW239108   3.516   2.971   4.022  0.5293 -0.2783  0.4145
 9216SOL     OW39109   1.248   1.496   3.331 -0.1134  1.1416  0.3250
 9216SOL    HW139110   1.291   1.411   3.336 -0.0927  1.2223  1.3668
 9216SOL    HW239111   1.288   1.547   3.261 -1.5567  1.1599 -0.4927
 9217SOL     OW39112   3.074   3.687   1.984 -0.0955 -0.4096 -0.0319
 9217SOL    HW139113   3.166   3.686   2.010  0.1231  0.1989 -0.7762
 9217SOL    HW239114   3.069   3.608   1.929 -1.7932 -1.7055  1.9904
 9218SOL     OW39115   2.511   0.986  11.001  1.0799  0.1364  0.0782
 9218SOL    HW139116   2.424   0.965  11.034  0.8623  0.9566  0.0144
 9218SOL    HW239117   2.501   1.006  10.908  3.1595 -0.6586 -0.3268
 9219SOL     OW39118   0.198   1.085  12.272  0.1160  0.0586  0.2214
 9219SOL    HW139119   0.135   1.149  12.305  2.1148  0.4436  3.2596
 9219SOL    HW239120   0.148   1.021  12.221 -0.6808 -0.6572  1.9200
 9220SOL     OW39121   2.721   4.547   5.533  0.2169  0.2505 -0.3239
 9220SOL    HW139122   2.633   4.521   5.560  0.3749  1.6332  1.5438
 9220SOL    HW239123   2.697   4.624   5.481 -0.9164  0.0835 -0.0457
 9221SOL     OW39124   0.112   4.133   6.358  0.0536  0.5763  0.0835
 9221SOL    HW139125   0.034   4.089   6.390 -0.4894  3.1442  2.3243
 9221SOL    HW239126   0.097   4.224   6.384 -1.9103  1.0742 -2.9134
 9222SOL     OW39127   0.692   3.958   7.763 -0.2724  0.0662 -0.1631
 9222SOL    HW139128   0.738   3.875   7.778  2.3332  1.2148 -1.7608
 9222SOL    HW239129   0.612   3.925   7.724  1.3076 -2.2601 -1.4485
 9223SOL     OW39130   3.311   2.376   2.001 -0.5514  0.2186 -0.4065
 9223SOL    HW139131   3.225   2.389   1.962 -0.4322  1.0660 -0.3973
 9223SOL    HW239132   3.347   2.464   1.988  0.1642 -0.1783 -1.0741
 9224SOL     OW39133   3.297   3.355  15.163  0.3940  0.0215 -0.6491
 9224SOL    HW139134   3.384   3.383  15.135 -0.5726  0.7550 -2.8920
 9224SOL    HW239135   3.290   3.275  15.111  0.0724  0.4256 -1.2247
 9225SOL     OW39136   2.457   1.344   1.160  0.2604 -0.3628  0.1387
 9225SOL    HW139137   2.512   1.420   1.179  0.2597 -0.1234 -0.8126
 9225SOL    HW239138   2.376   1.367   1.204  0.5089 -1.1337  0.9837
 9226SOL     OW39139   4.595   3.616   1.820 -0.3738 -0.0284  0.5502
 9226SOL    HW139140   4.507   3.579   1.815 -0.1741 -0.2452 -1.5137
 9226SOL    HW239141   4.593   3.695   1.765 -2.8405 -0.3064  0.2282
 9227SOL     OW39142   0.535   0.985   5.323 -0.5231  0.7033  0.2062
 9227SOL    HW139143   0.566   0.941   5.402  2.2873 -0.4938 -1.5631
 9227SOL    HW239144   0.571   1.074   5.325  1.0357  0.0583  0.3129
 9228SOL     OW39145   0.399   4.584   6.089  0.4935 -0.2083 -0.1591
 9228SOL    HW139146   0.423   4.508   6.036 -0.1063  0.3182 -1.1970
 9228SOL    HW239147   0.451   4.647   6.039  0.7292  0.4096  0.8882
 9229SOL     OW39148   1.249   0.206   8.823  0.5544  0.4059  0.0319
 9229SOL    HW139149   1.323   0.258   8.854  0.6121 -0.7754  1.8609
 9229SOL    HW239150   1.284   0.131   8.774  0.5223  0.1374  0.4166
 9230SOL     OW39151   1.933   3.828  17.144 -0.2931 -0.8072  0.3094
 9230SOL    HW139152   1.960   3.761  17.207  1.0000  1.0626  1.7581
 9230SOL    HW239153   1.885   3.797  17.067 -0.3690  0.3949 -0.1311
 9231SOL     OW39154   2.612   1.320   3.889 -0.0450  0.3118  0.4226
 9231SOL    HW139155   2.544   1.282   3.834 -0.1244  0.1688  0.6182
 9231SOL    HW239156   2.632   1.398   3.837  0.5753 -0.5553 -0.6387
 9232SOL     OW39157   1.588   1.835   5.050  0.8509 -0.2137 -0.7209
 9232SOL    HW139158   1.611   1.743   5.041 -0.7157 -0.7723  0.8756
 9232SOL    HW239159   1.605   1.873   4.964 -4.0435  2.1557 -0.6461
 9233SOL     OW39160   3.731   4.015  16.448 -0.6501  0.0418  0.2363
 9233SOL    HW139161   3.758   3.945  16.507  0.9169 -0.0040 -0.5345
 9233SOL    HW239162   3.640   4.020  16.478 -0.8226 -2.6885  0.0989
 9234SOL     OW39163   2.013   2.477   6.797 -0.1407 -0.5022  0.4753
 9234SOL    HW139164   1.988   2.396   6.752 -2.5133 -1.0808  2.8523
 9234SOL    HW239165   2.019   2.443   6.887  1.0476 -0.3234  0.4732
 9235SOL     OW39166   1.428   4.194   9.116 -0.1457 -0.1052  0.3620
 9235SOL    HW139167   1.404   4.199   9.209  1.3392  0.4218  0.7273
 9235SOL    HW239168   1.499   4.131   9.107 -1.5581 -1.7299  0.5612
 9236SOL     OW39169   2.170   2.552  13.095 -0.2165  0.2074  0.1838
 9236SOL    HW139170   2.150   2.459  13.084  2.3531 -0.3940  0.4680
 9236SOL    HW239171   2.210   2.556  13.182 -0.0732  0.8869  0.0923
 9237SOL     OW39172   4.441   1.367   5.356  0.1917 -0.6396  0.5201
 9237SOL    HW139173   4.377   1.296   5.356 -2.0305  1.3779 -0.0665
 9237SOL    HW239174   4.451   1.378   5.451 -0.4101 -0.2812  0.5416
 9238SOL     OW39175   4.439   4.299   7.175  0.1745 -0.1437 -0.4904
 9238SOL    HW139176   4.483   4.380   7.198  1.0203 -0.8393  0.3777
 9238SOL    HW239177   4.481   4.271   7.093  0.3358  2.7033 -1.3644
 9239SOL     OW39178   4.441   4.483   3.383 -0.0787  0.0411 -0.0640
 9239SOL    HW139179   4.502   4.422   3.423 -1.1216 -0.0187  1.4510
 9239SOL    HW239180   4.376   4.420   3.352  0.1612  0.7815 -2.0658
 9240SOL     OW39181   0.049   1.552   9.945  0.3564  0.6732  0.1760
 9240SOL    HW139182   0.038   1.523  10.035 -0.7961 -0.9995 -0.4888
 9240SOL    HW239183   0.049   1.464   9.906  0.7199  0.4254  0.7354
 9241SOL     OW39184   3.575   1.652   7.877  0.0717 -0.3385  0.1917
 9241SOL    HW139185   3.510   1.582   7.872  0.9064 -1.0942  0.1453
 9241SOL    HW239186   3.645   1.635   7.814  1.0690  0.5523  1.0586
 9242SOL     OW39187   3.570   2.307   7.493  0.0027 -0.2228 -0.1228
 9242SOL    HW139188   3.640   2.357   7.535 -0.1005 -0.3074  0.1456
 9242SOL    HW239189   3.543   2.242   7.558 -1.1357 -3.5143 -3.8688
 9243SOL     OW39190   2.345   0.851   1.361 -0.0262  0.3763 -0.1410
 9243SOL    HW139191   2.262   0.859   1.314 -0.5312 -1.7670  0.3829
 9243SOL    HW239192   2.382   0.938   1.349 -0.6072  0.6702  0.2259
 9244SOL     OW39193   1.350   1.467  16.056 -0.1099  0.2008  0.2233
 9244SOL    HW139194   1.348   1.521  15.977  0.0796 -0.0393  0.0514
 9244SOL    HW239195   1.266   1.478  16.099 -0.5624 -0.6903 -0.4322
 9245SOL     OW39196   2.459   0.322   6.019  0.4533 -0.5461 -0.3697
 9245SOL    HW139197   2.396   0.316   5.947  1.6348 -0.9607 -1.3666
 9245SOL    HW239198   2.417   0.256   6.074 -0.5971  0.9912  0.6693
 9246SOL     OW39199   3.836   0.463   5.703 -0.5736 -0.3996  0.8780
 9246SOL    HW139200   3.807   0.378   5.670 -0.0320  0.4407 -1.7917
 9246SOL    HW239201   3.929   0.440   5.707 -0.4469  0.1942  1.3671
 9247SOL     OW39202   0.625   0.393   8.028 -0.3148 -0.2810  0.0223
 9247SOL    HW139203   0.656   0.473   8.071  1.8354  0.6415 -3.2209
 9247SOL    HW239204   0.540   0.415   7.991 -0.3614  2.0101  1.4865
 9248SOL     OW39205   1.448   0.212  10.585 -0.1267 -0.5815  0.1298
 9248SOL    HW139206   1.454   0.119  10.563 -0.8097 -0.8519  1.0995
 9248SOL    HW239207   1.532   0.232  10.625  0.8456 -3.2338 -0.6291
 9249SOL     OW39208   3.980   1.302   3.571  0.0321  0.2638  0.1537
 9249SOL    HW139209   3.952   1.335   3.486 -0.6605 -0.2015  0.2022
 9249SOL    HW239210   3.991   1.379   3.626 -0.5876  0.7840 -0.4625
 9250SOL     OW39211   0.397   3.153   7.317  0.6148 -0.2908  0.4174
 9250SOL    HW139212   0.461   3.097   7.361  0.4866 -0.6047  0.2042
 9250SOL    HW239213   0.326   3.091   7.302  0.2846 -0.5140  2.8724
 9251SOL     OW39214   1.794   4.700   9.691  0.0581  0.1338 -0.1389
 9251SOL    HW139215   1.787   0.061   9.651 -0.7555  1.8605  3.7915
 9251SOL    HW239216   1.879   4.664   9.666  0.5685  0.7406  0.7308
 9252SOL     OW39217   2.929   3.205   5.895 -0.2375 -0.5407 -0.2505
 9252SOL    HW139218   2.939   3.118   5.933  0.9799  0.6789  2.2386
 9252SOL    HW239219   2.835   3.193   5.881 -0.2934 -0.2923 -0.0887
 9253SOL     OW39220   2.588   0.952   4.045  0.0626 -0.1956 -0.1608
 9253SOL    HW139221   2.501   0.913   4.035 -0.4485  0.5329  1.4884
 9253SOL    HW239222   2.642   0.878   4.071  1.2846  0.7815  0.0759
 9254SOL     OW39223   4.636   0.277   3.364 -0.0864  0.2562  0.2373
 9254SOL    HW139224   4.686   0.358   3.368 -2.5126  1.7963 -0.2315
 9254SOL    HW239225   4.681   0.224   3.429  0.9147 -0.0073 -0.6619
 9255SOL     OW39226   3.352   4.694   3.437 -0.0554 -0.1840  0.3657
 9255SOL    HW139227   3.344   4.703   3.531  0.2733 -1.4089  0.5070
 9255SOL    HW239228   3.439   4.654   3.430 -0.0429  0.0325 -0.8472
 9256SOL     OW39229   3.608   4.686  16.630  0.4575  0.1177 -0.6438
 9256SOL    HW139230   3.550   4.632  16.685  1.8386  0.8282  1.4989
 9256SOL    HW239231   3.561   0.041  16.610 -0.5727 -0.6208 -1.2449
 9257SOL     OW39232   3.762   4.180  14.832 -0.6989 -0.4673  0.4423
 9257SOL    HW139233   3.697   4.250  14.828  0.0261  0.0509 -1.8965
 9257SOL    HW239234   3.713   4.119  14.778  0.7671 -1.6069  0.3805
 9258SOL     OW39235   3.714   0.176  14.037 -0.7775  0.0743 -0.0844
 9258SOL    HW139236   3.758   0.261  14.037  0.5306 -0.6129 -0.8644
 9258SOL    HW239237   3.775   0.127  13.984  1.2502 -0.5277  2.7983
 9259SOL     OW39238   4.426   2.173   2.982  0.0985 -0.3751  0.4983
 9259SOL    HW139239   4.383   2.101   3.028  0.7280 -0.6360  0.6831
 9259SOL    HW239240   4.393   2.255   3.017 -0.6629 -0.8647  0.9155
 9260SOL     OW39241   0.585   0.586   0.821  0.2427 -0.1284  0.1249
 9260SOL    HW139242   0.581   0.506   0.874  4.1075 -2.0192 -2.4281
 9260SOL    HW239243   0.494   0.609   0.802 -0.1760 -1.7776  0.0796
 9261SOL     OW39244   4.692   2.364  16.454 -0.0640  0.6136 -0.3457
 9261SOL    HW139245   0.015   2.283  16.440 -1.7672 -0.5997  0.7845
 9261SOL    HW239246   4.725   2.408  16.532 -0.6720  0.1508  0.1644
 9262SOL     OW39247   2.612   2.117   6.336 -0.6411 -0.2176  0.1368
 9262SOL    HW139248   2.666   2.127   6.414 -0.1574 -1.2519 -0.0675
 9262SOL    HW239249   2.618   2.204   6.297 -1.0505 -0.9435 -1.5282
 9263SOL     OW39250   2.793   4.501  13.217  0.0255 -0.4699  0.3318
 9263SOL    HW139251   2.834   4.586  13.230 -0.0532  0.0523 -2.7833
 9263SOL    HW239252   2.711   4.521  13.262 -0.1330  0.0536 -0.1996
 9264SOL     OW39253   1.538   4.721  14.080 -1.0485 -0.4709  0.0973
 9264SOL    HW139254   1.574   0.064  14.024  0.6700 -0.0898  1.6577
 9264SOL    HW239255   1.618   4.670  14.092  1.5371  2.9663 -2.5231
 9265SOL     OW39256   3.404   1.551   4.257  0.2727 -0.2204 -0.1075
 9265SOL    HW139257   3.329   1.578   4.310 -0.3388 -0.8363 -0.6698
 9265SOL    HW239258   3.367   1.469   4.226 -0.9664  0.0684  0.6155
 9266SOL     OW39259   2.878   1.883   9.097 -0.8271 -0.6047  0.1682
 9266SOL    HW139260   2.930   1.957   9.131 -0.2747 -0.3096 -1.3045
 9266SOL    HW239261   2.802   1.926   9.057 -1.0987 -1.5504 -0.3185
 9267SOL     OW39262   4.437   1.598   8.761  0.1677 -0.7572  0.6138
 9267SOL    HW139263   4.530   1.576   8.760  0.0618 -1.0854 -1.7015
 9267SOL    HW239264   4.422   1.585   8.855  0.6949 -0.0430  0.7885
 9268SOL     OW39265   1.801   2.107   4.997 -0.1942  0.2407  0.4066
 9268SOL    HW139266   1.818   2.142   4.910  0.0685  0.2313  0.4532
 9268SOL    HW239267   1.867   2.038   4.997  1.1805  1.5676  1.3459
 9269SOL     OW39268   1.614   1.668  11.062  0.2381 -0.0647  0.3192
 9269SOL    HW139269   1.680   1.736  11.049 -1.1846  1.5198  1.3905
 9269SOL    HW239270   1.623   1.660  11.157 -1.2744  0.5898  0.5272
 9270SOL     OW39271   4.425   3.031   5.130  0.0934 -0.2929 -0.0612
 9270SOL    HW139272   4.389   3.082   5.057  1.8614 -0.3774 -0.9845
 9270SOL    HW239273   4.428   2.937   5.114  0.4435 -0.2340 -0.3320
 9271SOL     OW39274   0.266   1.116   6.574  0.2434  0.8229 -0.7006
 9271SOL    HW139275   0.212   1.091   6.499 -0.3535  3.4663 -1.1501
 9271SOL    HW239276   0.320   1.039   6.591 -1.3303 -0.2550 -0.6014
 9272SOL     OW39277   4.370   3.695   4.860  0.6720 -0.1316  0.2549
 9272SOL    HW139278   4.303   3.634   4.892 -0.8326  1.0189 -0.6805
 9272SOL    HW239279   4.386   3.745   4.940  1.3850 -0.3858  0.2716
 9273SOL     OW39280   1.227   3.798   7.185 -0.3592 -0.3744 -0.3149
 9273SOL    HW139281   1.139   3.797   7.223 -0.6903  0.0299 -1.0521
 9273SOL    HW239282   1.199   3.793   7.093 -2.9429 -1.2208  0.5109
 9274SOL     OW39283   2.256   1.021   1.048  0.2561 -0.5361 -0.2688
 9274SOL    HW139284   2.250   1.069   1.130 -1.0441  1.7383 -1.6930
 9274SOL    HW239285   2.203   0.942   1.063 -0.1487 -0.0087  1.0401
 9275SOL     OW39286   0.663   3.539   5.888 -0.1201  0.2123 -0.0196
 9275SOL    HW139287   0.656   3.577   5.801  1.0495 -0.6630 -0.4986
 9275SOL    HW239288   0.676   3.445   5.872  2.0904  0.7608 -1.4114
 9276SOL     OW39289   4.099   3.053  17.423 -0.4896 -0.1541  0.3550
 9276SOL    HW139290   4.016   3.019  17.456 -0.0423 -1.8461 -0.2877
 9276SOL    HW239291   4.128   2.977  17.373 -0.2751  0.2360 -0.1108
 9277SOL     OW39292   2.860   4.282   8.865 -0.0799 -0.2367  0.1992
 9277SOL    HW139293   2.800   4.216   8.830 -1.4269 -0.5619  3.0879
 9277SOL    HW239294   2.870   4.338   8.788 -0.5793 -1.7870 -0.9990
 9278SOL     OW39295   2.215   0.998  10.190 -0.1052  0.2635  0.1779
 9278SOL    HW139296   2.160   1.032  10.260 -0.8700  1.7590 -1.1410
 9278SOL    HW239297   2.275   0.950  10.246  0.6791 -0.9146 -1.6624
 9279SOL     OW39298   4.069   3.033   4.989  0.0659  0.3370  0.2634
 9279SOL    HW139299   3.999   3.076   4.941 -1.3631  0.4084  2.4263
 9279SOL    HW239300   4.044   2.943   4.970  0.2202  0.8384 -2.3447
 9280SOL     OW39301   3.215   3.969   2.595 -0.0642  0.1875  0.0597
 9280SOL    HW139302   3.167   3.902   2.644 -0.5145 -0.3106 -1.0530
 9280SOL    HW239303   3.196   3.951   2.503  0.1946  2.5668 -0.4489
 9281SOL     OW39304   1.473   2.458  16.648  0.2337 -0.5494 -0.2242
 9281SOL    HW139305   1.420   2.515  16.593 -2.0672 -2.2663  0.2573
 9281SOL    HW239306   1.500   2.526  16.710 -1.6595  1.2722 -1.4185
 9282SOL     OW39307   0.555   0.626   6.371 -0.2023  0.3308 -0.1175
 9282SOL    HW139308   0.627   0.627   6.435 -0.3288 -0.2391  0.0338
 9282SOL    HW239309   0.518   0.709   6.398 -0.7185 -0.0125  0.2320
 9283SOL     OW39310   0.859   0.346   6.101  0.2970  0.5320 -0.4605
 9283SOL    HW139311   0.918   0.396   6.157 -3.4386  1.7374  2.4717
 9283SOL    HW239312   0.780   0.396   6.122 -0.1062  0.5505 -2.0065
 9284SOL     OW39313   2.197   3.872   1.372 -0.3488  0.2378  0.1158
 9284SOL    HW139314   2.116   3.905   1.410 -1.1470 -1.0199 -0.4833
 9284SOL    HW239315   2.261   3.907   1.432  0.9529 -0.9990 -0.5430
 9285SOL     OW39316   0.657   2.933  11.961  0.1297 -0.1025  0.1436
 9285SOL    HW139317   0.712   2.862  11.929 -0.9697  0.1796 -2.4048
 9285SOL    HW239318   0.725   2.989  11.999 -0.4638  0.5467  0.2545
 9286SOL     OW39319   1.624   4.417   6.578 -0.2099 -0.5610  0.1978
 9286SOL    HW139320   1.706   4.442   6.536 -0.9121  1.2886 -0.0526
 9286SOL    HW239321   1.596   4.504   6.606  1.0159 -0.2566  0.4423
 9287SOL     OW39322   3.472   1.779  13.838  0.3704 -0.2777  1.0657
 9287SOL    HW139323   3.382   1.796  13.866 -0.6612 -2.4014 -0.9681
 9287SOL    HW239324   3.457   1.702  13.783  1.7111 -0.4740  0.9601
 9288SOL     OW39325   1.389   1.637   0.381 -0.4461 -0.3346 -0.0474
 9288SOL    HW139326   1.425   1.600   0.461  1.7253  1.2505 -0.2894
 9288SOL    HW239327   1.423   1.726   0.386 -2.0608  0.1076  2.5387
 9289SOL     OW39328   3.889   3.630  16.326 -0.3015 -0.3965  0.5583
 9289SOL    HW139329   3.824   3.589  16.269 -0.3920 -0.4895  0.7272
 9289SOL    HW239330   3.889   3.570  16.401  2.1153 -0.1010  0.7709
 9290SOL     OW39331   1.586   1.712  11.383 -0.0262 -0.6325 -0.1111
 9290SOL    HW139332   1.498   1.683  11.409 -0.8111  0.6215 -1.3438
 9290SOL    HW239333   1.594   1.794  11.432 -0.3005 -0.2356 -0.7221
 9291SOL     OW39334   1.933   1.282   2.026 -0.3272 -0.1549  0.1134
 9291SOL    HW139335   1.860   1.336   2.056 -0.5483  0.5550 -1.6583
 9291SOL    HW239336   1.881   1.217   1.979  1.5668 -0.7979 -1.1009
 9292SOL     OW39337   3.635   3.988   2.935 -0.3205  0.4631 -0.3065
 9292SOL    HW139338   3.585   3.941   2.868 -1.2382 -0.1708  0.8096
 9292SOL    HW239339   3.575   4.054   2.971 -0.4257 -0.1253  0.5901
 9293SOL     OW39340   0.716   3.499   0.392  0.5245 -0.5802  0.3454
 9293SOL    HW139341   0.767   3.465   0.319 -1.0377 -0.6277 -0.7269
 9293SOL    HW239342   0.641   3.529   0.341 -1.1058  0.0468  3.0941
 9294SOL     OW39343   1.677   1.363  17.273 -0.1738  0.3219  0.2159
 9294SOL    HW139344   1.653   1.439  17.326 -0.0962  0.0926  0.5809
 9294SOL    HW239345   1.714   1.404  17.195 -0.6108 -0.3261 -0.3365
 9295SOL     OW39346   1.565   2.553   6.745 -0.7076 -0.2222  0.2477
 9295SOL    HW139347   1.523   2.629   6.785  0.1612  0.3577  0.0699
 9295SOL    HW239348   1.619   2.516   6.816 -1.1583  2.7137  2.1156
 9296SOL     OW39349   1.176   2.699   8.524 -0.1912 -0.0511 -0.2421
 9296SOL    HW139350   1.239   2.626   8.522 -1.1451 -0.9116  0.9508
 9296SOL    HW239351   1.206   2.753   8.597 -2.2281  0.1165  0.4568
 9297SOL     OW39352   3.243   3.607   6.460  0.3814 -0.4327 -0.3933
 9297SOL    HW139353   3.324   3.575   6.420  2.3947  0.6965  2.7528
 9297SOL    HW239354   3.282   3.659   6.530  1.6960  0.4100 -1.7644
 9298SOL     OW39355   0.218   0.195  13.731 -0.1126 -0.4188  0.1607
 9298SOL    HW139356   0.280   0.267  13.733 -0.3081 -0.2513  0.1753
 9298SOL    HW239357   0.259   0.129  13.675  0.3718 -0.1947  0.2508
 9299SOL     OW39358   3.414   2.519   4.075  0.2567  0.2260 -0.7088
 9299SOL    HW139359   3.332   2.562   4.051  0.1674  0.6462  0.3419
 9299SOL    HW239360   3.463   2.514   3.992  0.0884 -2.3812 -0.6326
 9300SOL     OW39361   0.572   4.561  16.830 -0.3090 -0.4752  0.2009
 9300SOL    HW139362   0.606   4.649  16.815  0.9699 -0.9950  0.0738
 9300SOL    HW239363   0.652   4.510  16.843 -1.3907 -1.7936  1.8292
 9301SOL     OW39364   1.814   2.930   3.025  0.0010 -0.4706  0.4642
 9301SOL    HW139365   1.805   2.863   2.957  0.4669 -0.1516  0.0883
 9301SOL    HW239366   1.906   2.916   3.048 -0.5311 -0.7966  2.3973
 9302SOL     OW39367   1.288   0.694   7.264 -0.3364 -0.3268  0.0678
 9302SOL    HW139368   1.240   0.768   7.300 -0.8779 -1.8066  2.4028
 9302SOL    HW239369   1.351   0.670   7.332  1.3091  1.5892 -0.7877
 9303SOL     OW39370   3.286   1.854   4.640  0.4067  0.3971  0.5309
 9303SOL    HW139371   3.267   1.946   4.621  1.4615  0.8245  1.5138
 9303SOL    HW239372   3.246   1.836   4.726  1.2091 -0.1572  0.7933
 9304SOL     OW39373   0.927   0.177  16.821 -0.5411 -0.2629 -0.0325
 9304SOL    HW139374   1.003   0.148  16.770 -1.9979 -0.4488 -2.1075
 9304SOL    HW239375   0.950   0.266  16.850  0.7647 -0.8089  0.5783
 9305SOL     OW39376   4.601   0.258  15.101  0.2985 -0.0563  0.0196
 9305SOL    HW139377   4.647   0.307  15.170 -0.6616 -2.1432  2.1322
 9305SOL    HW239378   4.517   0.260  15.147 -0.1122  0.3221 -0.7474
 9306SOL     OW39379   4.176   4.392   3.011 -0.1414  0.6138 -0.1114
 9306SOL    HW139380   4.231   4.448   2.957  1.9135 -0.3306  0.9873
 9306SOL    HW239381   4.218   4.397   3.096  1.1089  5.0046 -1.0150
 9307SOL     OW39382   1.781   0.925   4.315  0.5039 -0.2966 -0.3520
 9307SOL    HW139383   1.704   0.976   4.339  1.1012  0.3641  0.1636
 9307SOL    HW239384   1.857   0.964   4.358  1.6417 -1.5374 -1.2250
 9308SOL     OW39385   2.874   3.057   8.333 -0.0926  0.0966  0.3682
 9308SOL    HW139386   2.890   3.139   8.286  0.7988 -1.5490 -2.1640
 9308SOL    HW239387   2.898   3.082   8.423  0.8597 -0.3249  0.2244
 9309SOL     OW39388   4.035   1.901   5.937  0.2509 -0.1278  0.4048
 9309SOL    HW139389   4.112   1.951   5.963  0.1329 -1.6088  3.5307
 9309SOL    HW239390   4.006   1.856   6.016  0.1043 -2.4861 -0.9816
 9310SOL     OW39391   0.615   0.470   3.299 -0.0562 -0.6187 -1.0008
 9310SOL    HW139392   0.528   0.445   3.328  0.2932  1.7670  2.1277
 9310SOL    HW239393   0.637   0.536   3.365  2.4240  0.4060 -2.8411
 9311SOL     OW39394   0.580   4.279  15.950 -0.2162 -0.0451  1.0438
 9311SOL    HW139395   0.619   4.252  16.033 -0.9526  0.4331  1.5471
 9311SOL    HW239396   0.637   4.236  15.887 -0.5015 -0.1142  0.8302
 9312SOL     OW39397   4.035   1.193   1.155 -0.2622  0.1287 -0.9186
 9312SOL    HW139398   4.013   1.112   1.201  2.6413  1.2588  2.4453
 9312SOL    HW239399   4.130   1.190   1.148 -0.2931  0.1711 -1.3867
 9313SOL     OW39400   2.036   3.548   6.331 -0.1862 -0.2220 -0.5967
 9313SOL    HW139401   2.074   3.549   6.419  0.4878  2.7825 -0.9379
 9313SOL    HW239402   2.064   3.631   6.293  1.5107  0.7119  2.6519
 9314SOL     OW39403   1.982   0.414   1.972 -0.2025  0.2677  0.4421
 9314SOL    HW139404   1.958   0.322   1.961  2.6760 -0.5351  1.0347
 9314SOL    HW239405   2.045   0.414   1.900 -1.3772 -0.4941 -0.5935
 9315SOL     OW39406   3.192   1.781  13.949 -0.0937  0.2191 -0.9040
 9315SOL    HW139407   3.133   1.851  13.921  1.4663  1.7165 -0.3852
 9315SOL    HW239408   3.125   1.714  13.964  0.4895  0.3830  2.5184
 9316SOL     OW39409   4.076   1.623  10.539  0.3093 -0.4073  0.4922
 9316SOL    HW139410   3.983   1.635  10.555  0.0854  0.7625 -1.6673
 9316SOL    HW239411   4.103   1.688  10.604 -1.0717 -2.4552  3.1209
 9317SOL     OW39412   3.283   3.987   1.977 -0.3354  0.0224 -0.5543
 9317SOL    HW139413   3.272   4.040   2.056  3.1897  1.5421 -1.0801
 9317SOL    HW239414   3.190   3.965   1.969 -0.2893 -0.0482 -0.8760
 9318SOL     OW39415   1.078   4.100  13.899  0.7165 -0.4106 -0.4740
 9318SOL    HW139416   0.996   4.112  13.852  1.3244 -1.5282 -1.8335
 9318SOL    HW239417   1.101   4.007  13.889 -1.8090 -1.0394 -0.4010
 9319SOL     OW39418   1.841   1.823   5.204  0.0397 -0.4268  0.0475
 9319SOL    HW139419   1.897   1.872   5.144  0.9937  1.1272  2.2109
 9319SOL    HW239420   1.758   1.838   5.158 -0.2530 -1.2727  0.2970
 9320SOL     OW39421   3.589   4.578   4.807  0.2642  0.0869  0.6944
 9320SOL    HW139422   3.623   4.515   4.743 -0.2611  1.1691 -0.6459
 9320SOL    HW239423   3.543   4.523   4.870  0.3529  0.2138  0.8701
 9321SOL     OW39424   2.368   2.417   4.006  0.4765 -0.2483  0.3738
 9321SOL    HW139425   2.326   2.472   4.072  0.5978  0.2571  0.0275
 9321SOL    HW239426   2.422   2.359   4.059  2.3022  2.9297  2.0079
 9322SOL     OW39427   1.022   2.623   7.768 -0.2704 -0.1726 -0.3043
 9322SOL    HW139428   1.071   2.542   7.783 -0.2681 -0.2599 -0.8030
 9322SOL    HW239429   0.948   2.609   7.827  2.2018 -0.4110  2.7375
 9323SOL     OW39430   1.627   1.542   1.488 -0.1502  0.2252 -0.2200
 9323SOL    HW139431   1.714   1.562   1.453  0.8281 -0.4567  1.8603
 9323SOL    HW239432   1.653   1.519   1.577  2.0288  0.9318 -0.6671
 9324SOL     OW39433   1.781   1.973   5.920 -0.1223  0.7813  0.4794
 9324SOL    HW139434   1.746   2.054   5.959  0.7445  2.7017 -2.7358
 9324SOL    HW239435   1.848   2.008   5.862  0.5668 -2.6967 -0.7657
 9325SOL     OW39436   3.384   2.512  15.709 -0.3954  0.2545  0.1274
 9325SOL    HW139437   3.347   2.597  15.685 -2.9581 -1.0297 -0.4075
 9325SOL    HW239438   3.429   2.529  15.792 -0.9291 -2.0839  0.8775
 9326SOL     OW39439   0.533   3.917  12.477  0.2549 -0.3390 -0.7027
 9326SOL    HW139440   0.587   3.976  12.530 -0.6197 -0.0445 -0.1493
 9326SOL    HW239441   0.453   3.967  12.465  0.4803  0.1631 -0.1216
 9327SOL     OW39442   0.160   0.491   6.353 -0.1401 -0.3663 -0.3872
 9327SOL    HW139443   0.238   0.441   6.327 -0.0354 -0.1532 -0.4857
 9327SOL    HW239444   0.206   0.563   6.397  0.1609 -0.7202 -0.1177
 9328SOL     OW39445   3.330   4.000   6.149  0.0035  0.1562 -0.0203
 9328SOL    HW139446   3.260   4.060   6.124 -0.5584 -0.0126  1.1393
 9328SOL    HW239447   3.295   3.919   6.113  0.9459 -1.5404  2.7983
 9329SOL     OW39448   3.556   1.527  10.905 -0.2665  0.1860 -0.2846
 9329SOL    HW139449   3.638   1.486  10.929 -0.7224  0.3150  1.5119
 9329SOL    HW239450   3.575   1.620  10.917  0.8223  0.1830 -2.0903
 9330SOL     OW39451   0.196   1.741   5.838 -0.5745  0.5314 -0.0268
 9330SOL    HW139452   0.135   1.761   5.767  0.9285  0.6841 -1.2839
 9330SOL    HW239453   0.146   1.671   5.880  1.7309 -1.6768 -0.9427
 9331SOL     OW39454   2.740   1.805   0.799  0.0408  0.6727 -0.0945
 9331SOL    HW139455   2.687   1.787   0.721  0.6834 -2.0028  0.0689
 9331SOL    HW239456   2.672   1.782   0.862 -0.9323 -0.0847 -1.4075
 9332SOL     OW39457   3.627   1.817   8.091  0.3361  0.5219 -0.1622
 9332SOL    HW139458   3.617   1.767   8.009 -1.6031  1.4243 -0.4870
 9332SOL    HW239459   3.722   1.826   8.087  0.6013 -1.7997  0.7489
 9333SOL     OW39460   4.704   2.548   2.570 -0.2814  0.6025 -0.1435
 9333SOL    HW139461   0.061   2.524   2.528 -1.2117 -1.7207 -0.6666
 9333SOL    HW239462   4.654   2.466   2.568  2.0239 -0.7949 -0.7022
 9334SOL     OW39463   4.080   2.605   3.066 -0.0561 -0.1014  0.5497
 9334SOL    HW139464   4.134   2.535   3.028 -2.3210 -1.9329  0.6884
 9334SOL    HW239465   4.141   2.647   3.126 -0.2627 -0.2411  0.8601
 9335SOL     OW39466   3.128   1.691   7.849  0.2779 -0.4530 -0.3004
 9335SOL    HW139467   3.035   1.705   7.867  1.0523  1.6600  2.0487
 9335SOL    HW239468   3.177   1.766   7.880 -0.9101 -0.4169  1.5052
 9336SOL     OW39469   2.701   0.435  14.342  0.3229  0.1294  0.5397
 9336SOL    HW139470   2.614   0.417  14.378  0.3002 -1.2745 -0.1963
 9336SOL    HW239471   2.720   0.351  14.301  0.8479  0.8402 -0.6686
 9337SOL     OW39472   0.075   3.219  10.591 -0.3380 -0.1608  0.0950
 9337SOL    HW139473   0.006   3.285  10.601 -1.6371 -1.5237  0.0763
 9337SOL    HW239474   0.055   3.176  10.509  2.2051 -0.4292 -0.3719
 9338SOL     OW39475   1.440   4.109   2.372 -0.5632  0.2826  0.4583
 9338SOL    HW139476   1.504   4.179   2.384  0.1183  0.2340 -2.7071
 9338SOL    HW239477   1.497   4.050   2.322 -1.3114  1.4917 -1.8096
 9339SOL     OW39478   1.895   4.710   4.809  0.7495  0.1087  0.6222
 9339SOL    HW139479   1.842   4.641   4.849 -2.7607  1.9154 -0.9629
 9339SOL    HW239480   1.873   0.059   4.865 -1.6521 -1.3177  1.5975
 9340SOL     OW39481   1.453   4.124   5.969  0.8042  0.2430 -0.2458
 9340SOL    HW139482   1.473   4.047   6.023  0.9800  0.1988 -0.3715
 9340SOL    HW239483   1.360   4.115   5.952  0.1121  0.9493  3.0977
 9341SOL     OW39484   1.712   2.041   6.570 -0.0607 -0.3603 -0.2059
 9341SOL    HW139485   1.793   1.991   6.564 -1.1291 -1.8781 -2.0136
 9341SOL    HW239486   1.741   2.130   6.553  0.6643 -0.8267 -1.4502
 9342SOL     OW39487   0.102   2.464   3.114 -0.3748 -0.3562 -0.3723
 9342SOL    HW139488   0.152   2.427   3.041 -0.7576  0.2794 -0.9574
 9342SOL    HW239489   0.081   2.549   3.074  0.8507  0.3322  0.4597
 9343SOL     OW39490   1.109   0.653   3.836  0.3640  0.0577 -0.1671
 9343SOL    HW139491   1.146   0.641   3.749  0.2249 -1.2829 -0.0393
 9343SOL    HW239492   1.139   0.576   3.885  1.9372  1.2109  0.6976
 9344SOL     OW39493   4.284   0.349   9.804  0.3083  0.0628  0.3851
 9344SOL    HW139494   4.202   0.304   9.828 -0.9853  2.5840  0.6484
 9344SOL    HW239495   4.259   0.380   9.717  0.1077 -0.8360  0.1227
 9345SOL     OW39496   0.521   1.583   3.420 -0.6655 -0.9349  0.5437
 9345SOL    HW139497   0.597   1.534   3.452  0.4151  0.6310  0.3780
 9345SOL    HW239498   0.544   1.671   3.451 -0.1667 -1.0643  0.5340
 9346SOL     OW39499   0.698   0.680   9.261 -0.3549 -0.2307  0.6168
 9346SOL    HW139500   0.758   0.754   9.273  0.8098 -0.8642 -1.2587
 9346SOL    HW239501   0.667   0.688   9.171 -0.8577 -0.0134  0.8050
 9347SOL     OW39502   0.439   0.185   1.150 -0.2976  0.0463 -0.3912
 9347SOL    HW139503   0.375   0.142   1.093 -2.8312  1.7217  1.1868
 9347SOL    HW239504   0.506   0.116   1.157  1.7582  2.0467 -0.4457
 9348SOL     OW39505   4.419   0.199   0.015  0.0513  0.8534 -0.1729
 9348SOL    HW139506   4.363   0.275   0.030 -0.3451  0.5659 -0.2154
 9348SOL    HW239507   4.479   0.246  17.662  0.9162  1.6212  1.3184
 9349SOL     OW39508   4.092   3.692   2.652 -1.0436 -0.0931 -0.7603
 9349SOL    HW139509   4.012   3.725   2.695 -1.5173 -3.8274  1.2171
 9349SOL    HW239510   4.157   3.721   2.716 -0.5589  0.6535 -1.5895
 9350SOL     OW39511   4.432   2.346   1.944  0.1592  0.1678  0.1658
 9350SOL    HW139512   4.426   2.437   1.974 -2.2248 -1.2758  4.0280
 9350SOL    HW239513   4.416   2.352   1.850  1.5471 -3.0545 -0.2899
 9351SOL     OW39514   4.189   3.424   8.515 -0.3301 -0.5331 -0.1628
 9351SOL    HW139515   4.203   3.335   8.547  1.1073 -0.5883 -0.9733
 9351SOL    HW239516   4.108   3.446   8.561 -0.9693  1.3731 -2.2301
 9352SOL     OW39517   0.286   4.333   7.141 -0.0838 -0.1489 -0.5285
 9352SOL    HW139518   0.335   4.399   7.092 -1.0384  0.6001 -0.4751
 9352SOL    HW239519   0.195   4.354   7.118  0.2579  0.4266 -1.3768
 9353SOL     OW39520   3.746   0.959   5.581  0.1966 -0.0582 -0.5858
 9353SOL    HW139521   3.796   0.924   5.507 -0.4030 -2.6752  0.2327
 9353SOL    HW239522   3.742   0.880   5.636  2.4324  0.9067  0.9918
 9354SOL     OW39523   2.443   1.423   8.006 -0.1691 -0.3226  0.3455
 9354SOL    HW139524   2.370   1.377   8.047 -0.6381 -0.7376 -0.9358
 9354SOL    HW239525   2.511   1.355   8.001 -2.6120 -2.7514 -0.0458
 9355SOL     OW39526   4.720   0.435   0.059  0.4512 -0.6220  0.4969
 9355SOL    HW139527   0.020   0.511   0.006  2.0157 -0.0663  2.0523
 9355SOL    HW239528   4.676   0.390  17.692 -0.4941  0.3868  0.4463
 9356SOL     OW39529   1.387   0.376   7.778  0.0108 -0.2442 -0.3001
 9356SOL    HW139530   1.459   0.355   7.719 -2.1423  2.5686 -3.9240
 9356SOL    HW239531   1.324   0.307   7.758  0.1512 -1.2325  2.7068
 9357SOL     OW39532   0.935   1.740   7.182 -0.0843 -0.2927 -0.4279
 9357SOL    HW139533   0.909   1.831   7.199  1.8284 -0.8166  5.0066
 9357SOL    HW239534   1.012   1.755   7.128 -0.5942  0.9591 -0.8125
 9358SOL     OW39535   3.125   0.898   7.420  1.0071  0.1480 -0.0619
 9358SOL    HW139536   3.163   0.810   7.415  1.8847  0.5383 -0.2304
 9358SOL    HW239537   3.057   0.877   7.356 -0.8387  3.2019  0.9359
 9359SOL     OW39538   3.365   1.228   1.521 -0.0332 -0.4326  0.4533
 9359SOL    HW139539   3.279   1.261   1.546 -0.3775 -0.2840 -0.9431
 9359SOL    HW239540   3.390   1.174   1.596  1.9579 -0.4275 -0.1894
 9360SOL     OW39541   2.491   4.088   8.307 -0.1507 -0.8618  0.4238
 9360SOL    HW139542   2.515   3.998   8.284 -4.1932 -1.5510 -0.9792
 9360SOL    HW239543   2.563   4.139   8.268 -1.8885  0.1464 -1.4933
 9361SOL     OW39544   1.810   2.734  11.251  0.5616  0.2391 -0.3209
 9361SOL    HW139545   1.864   2.658  11.228  2.4194  1.3126  0.5068
 9361SOL    HW239546   1.760   2.711  11.330  2.4488  0.8733  1.0607
 9362SOL     OW39547   0.256   0.555   0.840 -0.6711 -0.4785  0.0663
 9362SOL    HW139548   0.239   0.641   0.802 -2.2817 -1.3220 -1.1093
 9362SOL    HW239549   0.250   0.502   0.760 -1.6435  0.0698 -0.2239
 9363SOL     OW39550   0.805   0.581   8.957  0.4082 -0.1744 -0.2116
 9363SOL    HW139551   0.879   0.533   8.993 -0.7143  0.2091  2.6175
 9363SOL    HW239552   0.846   0.652   8.907 -0.1584 -0.2862 -0.8224
 9364SOL     OW39553   0.371   1.770   5.030  0.0160 -0.3532 -0.0248
 9364SOL    HW139554   0.458   1.792   4.996  0.4128 -2.4755 -0.3843
 9364SOL    HW239555   0.324   1.811   4.957 -1.7504  0.3242  1.4821
 9365SOL     OW39556   1.602   3.541   4.085  0.1459  0.5227  0.5918
 9365SOL    HW139557   1.684   3.587   4.102  1.1107 -0.5861 -1.0449
 9365SOL    HW239558   1.612   3.494   4.002 -1.4535  1.8100 -0.3231
 9366SOL     OW39559   4.448   0.500   6.021  0.2841 -0.2906  0.2602
 9366SOL    HW139560   4.483   0.413   6.041 -0.3428 -0.5132  0.3907
 9366SOL    HW239561   4.355   0.477   6.029  0.6420 -1.4919  0.8562
 9367SOL     OW39562   0.881   4.603   3.131  0.1849 -0.0252  0.1051
 9367SOL    HW139563   0.788   4.591   3.111  0.1487 -0.4250  0.5040
 9367SOL    HW239564   0.931   4.652   3.066  2.4604 -0.0030  1.8583
 9368SOL     OW39565   3.475   0.637   4.561  0.7227  0.2610  0.0928
 9368SOL    HW139566   3.390   0.608   4.594  0.0631 -0.3874 -2.1616
 9368SOL    HW239567   3.439   0.673   4.480  1.3895 -3.1584 -1.7128
 9369SOL     OW39568   4.130   2.175  17.311  0.2789 -0.5717 -0.2726
 9369SOL    HW139569   4.107   2.246  17.251  1.6369 -0.7561 -1.0333
 9369SOL    HW239570   4.214   2.214  17.338  0.5751 -1.2527 -0.2201
 9370SOL     OW39571   3.708   2.149   3.614  0.1766  0.4570  0.6807
 9370SOL    HW139572   3.665   2.118   3.694 -0.9859 -0.2235 -0.2193
 9370SOL    HW239573   3.640   2.181   3.554  0.6871 -0.7310 -0.5256
 9371SOL     OW39574   2.893   2.721   9.047 -1.0360 -0.0444  0.4608
 9371SOL    HW139575   2.925   2.638   9.080 -1.9598 -0.9033 -0.7914
 9371SOL    HW239576   2.857   2.701   8.961 -0.1801  0.0171  0.0812
 9372SOL     OW39577   3.239   3.740   9.811  0.2824  0.6715 -0.2681
 9372SOL    HW139578   3.196   3.661   9.845  0.3543  1.4512  1.6068
 9372SOL    HW239579   3.322   3.742   9.859 -1.0401 -0.2867  2.0235
 9373SOL     OW39580   0.279   3.583  15.081 -0.4364 -0.2466 -0.3166
 9373SOL    HW139581   0.240   3.602  14.995 -0.6217 -1.4105 -0.4925
 9373SOL    HW239582   0.260   3.668  15.120  2.3165 -0.2401  0.9687
 9374SOL     OW39583   3.027   4.107   8.546 -0.0033  0.2664 -0.2229
 9374SOL    HW139584   3.097   4.047   8.518 -0.3759 -0.7914  1.1036
 9374SOL    HW239585   2.958   4.041   8.551  0.8308 -0.6053 -0.1511
 9375SOL     OW39586   2.137   2.550   5.060 -0.3878  0.5240 -0.1725
 9375SOL    HW139587   2.059   2.547   5.115  0.0833 -2.1585  0.3622
 9375SOL    HW239588   2.124   2.640   5.031 -2.9793 -0.2401 -1.4095
 9376SOL     OW39589   3.681   3.685  15.630  0.2053  0.2122  0.1376
 9376SOL    HW139590   3.743   3.718  15.565 -0.9173  0.7700 -0.6598
 9376SOL    HW239591   3.598   3.692  15.583 -1.5216  0.4909  3.2042
 9377SOL     OW39592   2.358   0.907  16.660  0.5692 -0.6640 -0.0579
 9377SOL    HW139593   2.386   0.903  16.569 -1.7773 -0.0093 -0.8201
 9377SOL    HW239594   2.434   0.944  16.706  2.4788 -3.8715 -0.6117
 9378SOL     OW39595   1.879   3.873  10.890 -0.2678  0.1384  0.4407
 9378SOL    HW139596   1.884   3.906  10.980 -0.9312 -0.2140  0.6088
 9378SOL    HW239597   1.852   3.782  10.899 -2.1665  0.4775 -2.0465
 9379SOL     OW39598   4.306   1.025   1.018  0.6141  0.2159 -0.1004
 9379SOL    HW139599   4.376   1.063   1.071  1.3330  2.2066 -2.4883
 9379SOL    HW239600   4.315   1.086   0.945 -0.0284 -1.1498 -1.3069
 9380SOL     OW39601   2.767   3.930  10.712 -0.5721  0.3432  0.0883
 9380SOL    HW139602   2.749   3.885  10.629 -0.0760 -0.1535  0.2492
 9380SOL    HW239603   2.846   3.974  10.683 -0.3409  1.0729  1.8562
 9381SOL     OW39604   1.582   0.392   5.532 -0.0014  0.0345 -0.5181
 9381SOL    HW139605   1.652   0.415   5.472  0.0251  0.0326 -0.4875
 9381SOL    HW239606   1.594   0.303   5.564 -0.5997  0.4941  0.9965
 9382SOL     OW39607   1.185   4.388  15.279  0.3026 -0.4980 -0.1234
 9382SOL    HW139608   1.095   4.398  15.312  1.0011  2.9971  0.7298
 9382SOL    HW239609   1.181   4.296  15.253 -0.8982 -0.2821 -0.7129
 9383SOL     OW39610   0.809   0.141   8.825 -0.0515  0.3040 -0.5830
 9383SOL    HW139611   0.846   0.053   8.828 -2.5211 -0.7957 -2.3927
 9383SOL    HW239612   0.715   0.122   8.829  0.6502 -3.1910 -1.2589
 9384SOL     OW39613   1.801   0.427   9.259  0.2914 -0.1435  0.0337
 9384SOL    HW139614   1.857   0.351   9.273  1.2456  0.4715 -0.4977
 9384SOL    HW239615   1.835   0.493   9.318  0.3355  1.0911 -1.3686
 9385SOL     OW39616   1.678   4.457   0.320 -0.2203 -0.0319 -0.4050
 9385SOL    HW139617   1.751   4.514   0.295 -0.2190  0.9305  1.7789
 9385SOL    HW239618   1.700   4.375   0.276 -0.7652 -0.7652  0.7079
 9386SOL     OW39619   3.688   4.601   0.368  0.0120  0.4959 -0.3881
 9386SOL    HW139620   3.635   4.621   0.445  0.5941  0.3834  0.0475
 9386SOL    HW239621   3.755   4.669   0.373 -0.6816  1.3362 -2.4555
 9387SOL     OW39622   0.731   1.423   3.486 -0.3346 -0.2475 -0.2493
 9387SOL    HW139623   0.812   1.441   3.438  1.6843  0.6821  3.4933
 9387SOL    HW239624   0.759   1.379   3.567 -2.7382 -0.4585  0.4638
 9388SOL     OW39625   1.035   2.122  11.983 -0.4751 -0.3129  0.2979
 9388SOL    HW139626   0.968   2.175  12.026 -0.4542  0.7296 -0.9391
 9388SOL    HW239627   0.983   2.046  11.954  1.7776 -1.6734 -0.2381
 9389SOL     OW39628   1.468   3.266   9.195  0.2738  0.6153  0.5100
 9389SOL    HW139629   1.412   3.217   9.134  0.1584  1.2844  0.0840
 9389SOL    HW239630   1.532   3.196   9.210 -0.6559 -0.1861  0.7237
 9390SOL     OW39631   2.124   1.713  14.702 -0.3160 -0.0623 -0.0078
 9390SOL    HW139632   2.215   1.731  14.680 -0.5880  0.6366 -0.5588
 9390SOL    HW239633   2.082   1.770  14.638 -2.6128 -1.2560  0.4232
 9391SOL     OW39634   4.122   3.809   3.900  0.3556 -0.4954 -0.1874
 9391SOL    HW139635   4.096   3.740   3.839  0.3077 -1.3213  0.7594
 9391SOL    HW239636   4.215   3.795   3.918  0.1354  1.8994  2.7677
 9392SOL     OW39637   1.933   4.537   8.919  0.3323  0.3585  0.2892
 9392SOL    HW139638   1.905   4.599   8.986  0.6415  1.1780 -0.3366
 9392SOL    HW239639   1.996   4.482   8.965  1.5538 -0.6585 -2.5759
 9393SOL     OW39640   3.162   2.901   1.362 -0.4364  0.1980  0.1016
 9393SOL    HW139641   3.102   2.960   1.315  0.4293 -0.9622 -2.4390
 9393SOL    HW239642   3.248   2.932   1.333 -0.4533 -0.1402 -0.3059
 9394SOL     OW39643   1.012   3.061  14.310 -0.2473 -0.2536  0.1050
 9394SOL    HW139644   1.028   3.060  14.215  0.3836 -1.7206  0.2339
 9394SOL    HW239645   0.918   3.042  14.314 -0.1578 -1.0759 -1.7180
 9395SOL     OW39646   3.163   3.489  12.281  0.3697  0.2176  0.2162
 9395SOL    HW139647   3.187   3.555  12.216 -0.2058  0.7376  0.5348
 9395SOL    HW239648   3.140   3.412  12.230  0.4679  0.3027  0.0408
 9396SOL     OW39649   4.202   0.889  13.650  0.1692 -0.2450 -0.1516
 9396SOL    HW139650   4.276   0.851  13.699  1.9172  2.2623 -0.8418
 9396SOL    HW239651   4.175   0.942  13.725 -1.2959  2.1884 -2.4303
 9397SOL     OW39652   1.704   2.483   8.340 -0.9479  0.0534 -0.1585
 9397SOL    HW139653   1.740   2.556   8.290 -3.8532  1.5856  0.0345
 9397SOL    HW239654   1.747   2.411   8.293 -1.9537  0.7515 -2.1381
 9398SOL     OW39655   0.895   1.469   7.990  0.1735 -0.1569  0.3723
 9398SOL    HW139656   0.912   1.460   8.084  0.2585 -0.4904  0.3281
 9398SOL    HW239657   0.892   1.562   7.968 -1.5261 -0.4212 -0.5273
 9399SOL     OW39658   4.450   1.645  14.800 -0.1692  0.0934  0.3921
 9399SOL    HW139659   4.510   1.573  14.818  2.7661  3.0344  2.1932
 9399SOL    HW239660   4.378   1.618  14.857 -1.0516 -0.3867 -0.9471
 9400SOL     OW39661   4.036   1.776   4.981 -0.1854 -0.0925 -0.4532
 9400SOL    HW139662   4.011   1.834   4.909 -1.4419 -1.8196 -1.4180
 9400SOL    HW239663   3.969   1.708   4.970  0.1475 -0.7540  1.5748
 9401SOL     OW39664   1.541   2.564  10.808  0.3472 -0.3455 -0.4718
 9401SOL    HW139665   1.614   2.506  10.785 -0.2399 -2.0259  1.8577
 9401SOL    HW239666   1.550   2.637  10.748 -3.6508 -1.5953 -2.5757
 9402SOL     OW39667   0.796   3.148   3.862  0.2029 -0.3750 -0.3963
 9402SOL    HW139668   0.863   3.179   3.801 -0.4536  1.2360 -0.3006
 9402SOL    HW239669   0.757   3.229   3.895 -0.2911 -0.3981 -0.9171
 9403SOL     OW39670   1.064   2.537  16.291  0.0977  0.2572  0.1421
 9403SOL    HW139671   1.060   2.626  16.325  3.3967  1.8198 -3.4859
 9403SOL    HW239672   0.993   2.498  16.342 -0.8285  0.6497 -0.8468
 9404SOL     OW39673   2.791   2.281   2.813  0.4021  0.4729  0.0624
 9404SOL    HW139674   2.839   2.200   2.793  0.4638 -0.0131  2.2264
 9404SOL    HW239675   2.771   2.303   2.722  0.6349  0.2614 -0.0390
 9405SOL     OW39676   2.870   4.114   1.677 -0.0747 -0.5232 -0.1563
 9405SOL    HW139677   2.866   4.025   1.642 -1.2531 -0.5434  0.0348
 9405SOL    HW239678   2.964   4.132   1.674 -0.2202  0.5289  1.5303
 9406SOL     OW39679   1.921   1.133   7.488  0.1239 -0.6784  0.6224
 9406SOL    HW139680   1.924   1.177   7.573  2.3215  1.2793 -0.4734
 9406SOL    HW239681   1.832   1.100   7.499  0.0361  0.2819  2.8933
 9407SOL     OW39682   3.472   1.578   2.896  0.1491  0.3286  0.2281
 9407SOL    HW139683   3.429   1.516   2.956 -1.5743  0.8935 -0.4164
 9407SOL    HW239684   3.563   1.581   2.926 -0.8504 -2.6031  3.5484
 9408SOL     OW39685   2.160   3.426   3.098 -0.1500  0.4308 -0.0572
 9408SOL    HW139686   2.190   3.516   3.112  0.7375 -0.4322  3.8030
 9408SOL    HW239687   2.220   3.409   3.026  1.0145  0.2001  0.9757
 9409SOL     OW39688   3.970   4.375   4.647  0.4896 -0.2290  0.2151
 9409SOL    HW139689   3.991   4.464   4.619 -1.6237 -0.5394 -2.3443
 9409SOL    HW239690   3.998   4.327   4.570 -2.5303 -2.9937  0.8702
 9410SOL     OW39691   0.632   4.385   7.759  0.1898  0.2191  0.1952
 9410SOL    HW139692   0.570   4.375   7.687 -1.2322  1.7326  1.2090
 9410SOL    HW239693   0.701   4.328   7.724 -1.1100 -0.1239 -1.8224
 9411SOL     OW39694   3.706   4.367   5.716 -0.6491  0.7176  0.4379
 9411SOL    HW139695   3.669   4.312   5.784 -1.2911 -1.0910 -1.3740
 9411SOL    HW239696   3.630   4.421   5.694  0.0164  0.3976 -2.6088
 9412SOL     OW39697   2.826   2.474   6.621  0.4692  0.2641  0.3883
 9412SOL    HW139698   2.876   2.456   6.701 -1.2054  0.9960  1.5903
 9412SOL    HW239699   2.808   2.568   6.624  0.0742  0.2006 -0.0777
 9413SOL     OW39700   1.292   1.635   3.087 -0.2099 -0.2290 -0.2104
 9413SOL    HW139701   1.229   1.673   3.026 -0.6041 -1.1002 -0.3590
 9413SOL    HW239702   1.289   1.543   3.060  2.0453 -0.7250  1.2869
 9414SOL     OW39703   2.254   1.754   2.958  0.3237 -0.0165  0.3699
 9414SOL    HW139704   2.276   1.832   3.009 -2.4447  1.4031 -0.6320
 9414SOL    HW239705   2.196   1.792   2.892 -0.6586 -0.2052  1.1385
 9415SOL     OW39706   0.876   0.436   0.228 -0.1560  0.0940  0.3185
 9415SOL    HW139707   0.796   0.439   0.175 -0.8095 -0.9965  1.2277
 9415SOL    HW239708   0.899   0.343   0.231  1.4682  0.4219 -2.3177
 9416SOL     OW39709   1.499   3.805  15.815 -0.7005 -0.5834  1.1205
 9416SOL    HW139710   1.530   3.768  15.732 -0.1387  1.1158  0.5832
 9416SOL    HW239711   1.416   3.761  15.833 -0.2819 -1.9172 -0.1578
 9417SOL     OW39712   0.509   1.901   2.037  0.0330 -0.0872  0.2965
 9417SOL    HW139713   0.553   1.985   2.046 -1.3331  0.5366  1.0266
 9417SOL    HW239714   0.418   1.928   2.045 -0.1355  0.6000 -3.8024
 9418SOL     OW39715   2.338   1.999   8.261 -0.4251 -0.0593 -0.4954
 9418SOL    HW139716   2.324   2.093   8.264 -1.7401 -0.2273 -0.9586
 9418SOL    HW239717   2.327   1.973   8.169  0.0806 -0.4210 -0.4554
 9419SOL     OW39718   2.694   0.427   4.445 -0.4400  0.1214 -0.1415
 9419SOL    HW139719   2.678   0.349   4.392 -3.8692  0.4654  0.4046
 9419SOL    HW239720   2.790   0.429   4.448 -0.3427 -1.4891 -2.4097
 9420SOL     OW39721   0.535   2.073   8.544  0.5082 -0.6187 -1.0170
 9420SOL    HW139722   0.476   2.034   8.609  0.7389 -2.6646 -2.0431
 9420SOL    HW239723   0.468   2.079   8.476 -0.4933 -0.2788 -0.0028
 9421SOL     OW39724   2.081   1.077   2.099  0.1053 -0.4000  0.4580
 9421SOL    HW139725   2.030   1.057   2.177 -0.5693  0.3616  0.2148
 9421SOL    HW239726   2.046   1.161   2.069  1.4953  0.8464  2.3387
 9422SOL     OW39727   1.142   2.211   2.574 -0.0311 -0.2421 -0.2680
 9422SOL    HW139728   1.073   2.269   2.543 -0.7142 -0.0866  1.5598
 9422SOL    HW239729   1.207   2.236   2.507 -0.7315  0.0737 -0.8284
 9423SOL     OW39730   3.742   0.995   8.610 -0.1356  0.0804  0.4112
 9423SOL    HW139731   3.698   1.080   8.609  0.6520  0.4708 -0.6432
 9423SOL    HW239732   3.793   0.993   8.691 -0.0407  0.9676  0.3650
 9424SOL     OW39733   4.242   3.088   0.189  0.2758 -0.3589  0.1476
 9424SOL    HW139734   4.151   3.117   0.182  0.5382  0.8620  1.6636
 9424SOL    HW239735   4.241   2.995   0.167  0.7240 -0.4948  0.6916
 9425SOL     OW39736   2.557   4.126   7.941 -0.2109 -0.8795  0.2339
 9425SOL    HW139737   2.497   4.201   7.940  0.8532 -0.0431 -2.5204
 9425SOL    HW239738   2.511   4.073   8.006  1.2985 -0.5307  1.5914
 9426SOL     OW39739   1.313   3.421   6.622 -0.1566 -0.5294  0.5266
 9426SOL    HW139740   1.371   3.409   6.547 -0.6210 -2.1342  0.4299
 9426SOL    HW239741   1.243   3.358   6.606 -0.9974  0.9459 -1.6983
 9427SOL     OW39742   1.777   0.571   2.085 -0.0311 -0.3336 -0.1652
 9427SOL    HW139743   1.705   0.559   2.023  0.9093 -0.2517 -1.2569
 9427SOL    HW239744   1.845   0.514   2.049  0.3214 -0.5287  0.8084
 9428SOL     OW39745   3.852   2.232   9.420  0.6631 -0.0142  0.4281
 9428SOL    HW139746   3.930   2.205   9.372  0.4802  0.2711 -0.0294
 9428SOL    HW239747   3.832   2.147   9.460  0.4055  0.7987  2.0173
 9429SOL     OW39748   1.508   0.331   4.314 -0.2775  0.4154 -0.2647
 9429SOL    HW139749   1.527   0.269   4.384  0.2190 -0.4792 -1.1923
 9429SOL    HW239750   1.478   0.394   4.379 -1.3025 -0.7942  0.4390
 9430SOL     OW39751   2.793   3.755   2.946 -0.6644 -0.3184  0.3255
 9430SOL    HW139752   2.763   3.696   2.876  0.2950 -1.4767  0.8964
 9430SOL    HW239753   2.715   3.756   3.002 -2.3094  0.6479 -1.9614
 9431SOL     OW39754   1.640   0.785   8.937  0.2825  0.0676  0.7991
 9431SOL    HW139755   1.550   0.776   8.968  0.0013 -1.1462 -0.3727
 9431SOL    HW239756   1.657   0.697   8.905  0.3724 -0.3034  1.8709
 9432SOL     OW39757   1.597   0.703   7.642 -0.7974  0.2536  0.0658
 9432SOL    HW139758   1.602   0.691   7.547 -0.3235  1.3657 -0.0446
 9432SOL    HW239759   1.647   0.624   7.663  0.8290  0.9299 -1.2208
 9433SOL     OW39760   0.562   1.258  15.226  0.0812  0.4332 -0.9497
 9433SOL    HW139761   0.546   1.179  15.278  1.0710 -0.1725 -1.5500
 9433SOL    HW239762   0.473   1.291  15.220 -0.0721 -0.2756 -2.4051
 9434SOL     OW39763   2.753   2.938   4.848  0.8318 -0.1137 -0.0722
 9434SOL    HW139764   2.846   2.942   4.871  0.8153 -1.5685  0.2713
 9434SOL    HW239765   2.724   3.015   4.897  0.1280 -0.0114 -0.6546
 9435SOL     OW39766   2.401   3.426   8.958 -0.3075  0.5329 -0.3658
 9435SOL    HW139767   2.341   3.484   9.004 -0.8315 -0.0282 -0.3472
 9435SOL    HW239768   2.371   3.340   8.987 -0.1729  0.9402  0.9637
 9436SOL     OW39769   2.825   3.927   1.131  0.0550  0.3333 -0.3937
 9436SOL    HW139770   2.798   4.018   1.121  0.2851  0.3404 -0.9427
 9436SOL    HW239771   2.757   3.885   1.078 -1.3380  2.0709 -0.0224
 9437SOL     OW39772   1.113   3.532   7.634 -0.2435 -0.1456  0.2613
 9437SOL    HW139773   1.108   3.506   7.726 -0.3760  0.6348  0.4692
 9437SOL    HW239774   1.140   3.624   7.632  0.5776 -0.3842  0.1887
 9438SOL     OW39775   0.929   2.508   4.787  0.1569  0.0006 -0.0419
 9438SOL    HW139776   0.926   2.442   4.856  1.6672  0.0076  0.0240
 9438SOL    HW239777   0.991   2.464   4.729  0.1531  1.2327 -0.9886
 9439SOL     OW39778   2.444   1.767   0.949 -0.0110  1.1690 -0.0806
 9439SOL    HW139779   2.439   1.862   0.959 -0.2419  0.9118  2.1773
 9439SOL    HW239780   2.398   1.753   0.866 -0.6810 -0.8325  0.6066
 9440SOL     OW39781   4.679   0.309   0.868 -0.5107  0.0071  0.1657
 9440SOL    HW139782   4.671   0.398   0.836  0.4472 -0.6691 -1.9544
 9440SOL    HW239783   4.584   0.295   0.869 -0.2399 -1.9385 -0.9024
 9441SOL     OW39784   2.185   3.622   3.944  0.3086  0.5819  0.1060
 9441SOL    HW139785   2.278   3.601   3.940 -0.1669 -1.5374  0.3641
 9441SOL    HW239786   2.156   3.605   4.033 -1.8112  4.1030  0.1065
 9442SOL     OW39787   4.521   3.213   5.696  0.1469 -0.4312  0.1401
 9442SOL    HW139788   4.580   3.164   5.638  2.3735  1.6037  0.6921
 9442SOL    HW239789   4.524   3.164   5.778 -2.2787 -1.7483 -0.5713
 9443SOL     OW39790   4.544   4.600  14.895 -0.4977  0.8073  0.5164
 9443SOL    HW139791   4.549   4.653  14.816  1.8938 -0.3269 -0.0896
 9443SOL    HW239792   4.619   4.541  14.883 -0.3635  1.2189 -0.5999
 9444SOL     OW39793   4.160   0.884   4.786  0.8587  0.7400 -0.1403
 9444SOL    HW139794   4.142   0.972   4.820  1.4057  1.9496 -3.0226
 9444SOL    HW239795   4.158   0.884   4.691  1.0655 -0.7835 -0.1355
 9445SOL     OW39796   1.558   0.871   3.502  0.1096 -0.1348 -0.0876
 9445SOL    HW139797   1.596   0.929   3.435  0.6872  0.5242  0.8135
 9445SOL    HW239798   1.599   0.893   3.585  1.2869 -0.1633 -0.6477
 9446SOL     OW39799   4.415   1.155   6.729 -0.0886 -0.1755  0.1288
 9446SOL    HW139800   4.479   1.184   6.664  0.7308 -0.4147  0.8341
 9446SOL    HW239801   4.462   1.162   6.812  3.7529  2.0823 -2.2555
 9447SOL     OW39802   3.862   4.161  10.041 -0.1515 -0.0720 -1.2883
 9447SOL    HW139803   3.777   4.201  10.019 -0.1896  1.2529  1.2244
 9447SOL    HW239804   3.886   4.204  10.123  0.3841  1.1463 -2.0860
 9448SOL     OW39805   2.612   2.742   8.748 -0.3077 -0.3638  0.1260
 9448SOL    HW139806   2.572   2.736   8.835 -2.5651 -0.6144 -0.9176
 9448SOL    HW239807   2.643   2.832   8.751 -0.3032 -0.3685  0.2150
 9449SOL     OW39808   1.833   1.412  16.269 -0.2333  0.3402 -0.7150
 9449SOL    HW139809   1.812   1.506  16.272 -0.2130  0.3627 -1.4312
 9449SOL    HW239810   1.929   1.418  16.261 -0.4932  2.0626 -2.6843
 9450SOL     OW39811   4.711   1.404   3.014  0.0205 -0.6169  0.3989
 9450SOL    HW139812   4.700   1.312   2.992 -1.0195 -0.0984 -1.1752
 9450SOL    HW239813   0.065   1.397   3.067  0.6604 -1.4203 -0.6604
 9451SOL     OW39814   3.398   2.803  10.086  0.0999 -0.3374 -0.2512
 9451SOL    HW139815   3.451   2.880  10.107 -1.4822  0.4719  0.7495
 9451SOL    HW239816   3.394   2.803   9.990  0.0531  1.7561 -0.2605
 9452SOL     OW39817   2.575   1.725   5.486 -0.4806 -0.4464 -0.3310
 9452SOL    HW139818   2.587   1.658   5.554  0.6942 -1.9687 -2.0576
 9452SOL    HW239819   2.561   1.671   5.409  0.7631 -0.6980 -0.3843
 9453SOL     OW39820   2.973   4.520   7.826 -0.2198 -0.4344  0.0650
 9453SOL    HW139821   3.033   4.592   7.807 -0.5606  0.4894  2.4214
 9453SOL    HW239822   2.995   4.502   7.918  2.0403  0.9842 -0.1993
 9454SOL     OW39823   4.578   3.158  15.652  0.7165  0.8296  0.4063
 9454SOL    HW139824   4.518   3.142  15.579  0.0246  0.1162  1.1267
 9454SOL    HW239825   4.567   3.252  15.665 -2.1912  0.4769  0.5390
 9455SOL     OW39826   1.606   3.210   4.920  0.6163 -0.1140  0.3407
 9455SOL    HW139827   1.571   3.223   4.831  0.9183  2.8781  0.6448
 9455SOL    HW239828   1.635   3.119   4.914  1.6633  0.0718  2.8571
 9456SOL     OW39829   0.135   4.372   0.203 -0.3317  0.3900 -0.1097
 9456SOL    HW139830   0.158   4.341   0.290  2.0314  2.3410 -0.0313
 9456SOL    HW239831   0.054   4.420   0.222 -0.4034  0.0057  0.5322
 9457SOL     OW39832   0.356   1.947   8.732 -0.1849 -0.0076 -0.3288
 9457SOL    HW139833   0.285   1.992   8.779 -1.2081 -1.3649 -0.5908
 9457SOL    HW239834   0.377   1.874   8.791 -1.5832  0.3941  0.6782
 9458SOL     OW39835   2.317   0.521   0.825 -0.3055  0.1147 -0.4866
 9458SOL    HW139836   2.316   0.483   0.737 -2.1016 -0.0017 -0.4296
 9458SOL    HW239837   2.260   0.465   0.879 -1.1742  0.0735 -1.4441
 9459SOL     OW39838   2.569   0.996   8.434 -0.3324  0.1183  0.5249
 9459SOL    HW139839   2.598   0.968   8.521 -1.4536  0.7556  1.0993
 9459SOL    HW239840   2.492   1.040   8.471 -1.0086  1.4803 -2.5661
 9460SOL     OW39841   1.695   1.097   5.603 -0.7755  0.0636  0.8254
 9460SOL    HW139842   1.664   1.127   5.517 -0.1761 -0.3704  0.4626
 9460SOL    HW239843   1.688   1.186   5.639  1.8313  0.8456 -0.6181
 9461SOL     OW39844   4.276   4.305   3.287 -0.2030 -0.0633 -0.1961
 9461SOL    HW139845   4.221   4.239   3.245 -0.7761 -0.5680  1.3585
 9461SOL    HW239846   4.274   4.279   3.379 -0.3899 -1.8408 -0.7000
 9462SOL     OW39847   4.569   0.774   2.337  0.4812 -0.2221  0.1059
 9462SOL    HW139848   4.638   0.728   2.384 -0.6223 -1.8208  0.1572
 9462SOL    HW239849   4.610   0.783   2.252  1.5367  0.8548  0.7244
 9463SOL     OW39850   0.451   3.748   3.748 -0.9365  0.0269 -0.6807
 9463SOL    HW139851   0.376   3.784   3.701 -2.6738 -2.9354 -0.1511
 9463SOL    HW239852   0.497   3.828   3.774 -0.2673 -1.1475  1.8485
 9464SOL     OW39853   3.751   1.947   5.149 -0.4984 -0.0043  0.8467
 9464SOL    HW139854   3.735   1.860   5.115  0.1701  0.8025 -1.5502
 9464SOL    HW239855   3.837   1.962   5.110  0.1231 -0.6811  1.9663
 9465SOL     OW39856   0.968   2.298  13.089  0.0394  0.4774  0.1398
 9465SOL    HW139857   0.927   2.212  13.086 -0.2117  0.5436  1.6355
 9465SOL    HW239858   1.021   2.288  13.168  0.5795  2.7904  0.0858
 9466SOL     OW39859   0.654   2.416   3.522  0.0974  0.0078 -0.2869
 9466SOL    HW139860   0.710   2.441   3.448  2.0218  1.2167  1.5813
 9466SOL    HW239861   0.594   2.354   3.480  0.6015 -0.8729  0.2929
 9467SOL     OW39862   1.583   0.887   5.735 -0.3799 -0.1829  0.5578
 9467SOL    HW139863   1.628   0.971   5.720 -3.3830  1.7140  2.1942
 9467SOL    HW239864   1.521   0.898   5.807  0.8223 -0.0499  1.5815
 9468SOL     OW39865   2.182   1.603   2.346 -0.3294  0.6855 -0.1067
 9468SOL    HW139866   2.106   1.660   2.356 -1.0822 -0.3371  0.0291
 9468SOL    HW239867   2.153   1.523   2.391  0.5230 -0.2290 -1.1763
 9469SOL     OW39868   0.301   3.025   2.136 -0.1347  0.1886  0.2559
 9469SOL    HW139869   0.295   3.078   2.216 -0.2472  0.8620 -0.1954
 9469SOL    HW239870   0.214   2.988   2.130  0.2269 -0.5748 -0.2366
 9470SOL     OW39871   2.410   3.099   3.290 -0.3238  0.1072 -0.1263
 9470SOL    HW139872   2.333   3.045   3.270 -0.6729  1.0257 -1.2527
 9470SOL    HW239873   2.410   3.155   3.213  1.1453 -0.0479 -0.2366
 9471SOL     OW39874   2.629   1.982   9.011  0.0522  0.2463 -0.4068
 9471SOL    HW139875   2.606   1.979   8.918  2.7853 -2.3182 -0.9936
 9471SOL    HW239876   2.607   2.072   9.037  0.2830  0.3093 -0.4251
 9472SOL     OW39877   3.750   0.411   6.651  0.2140  0.6709  0.5188
 9472SOL    HW139878   3.747   0.505   6.668  1.5297  0.6479  0.8449
 9472SOL    HW239879   3.802   0.389   6.728 -1.0227  1.7443  1.6636
 9473SOL     OW39880   1.874   2.839   2.735 -0.3707 -0.1648 -0.5281
 9473SOL    HW139881   1.933   2.764   2.743 -0.7277 -0.4791 -0.8822
 9473SOL    HW239882   1.941   2.907   2.742 -1.4982  0.8047  0.8222
 9474SOL     OW39883   4.432   3.616  10.350 -0.5397 -0.3031 -0.3506
 9474SOL    HW139884   4.463   3.692  10.300  2.0088 -1.2416 -0.1693
 9474SOL    HW239885   4.365   3.661  10.402 -1.1493  1.0280 -2.2546
 9475SOL     OW39886   3.339   3.545  11.686 -0.3199  0.1957 -0.2043
 9475SOL    HW139887   3.407   3.479  11.696  0.6260  0.8403 -2.4176
 9475SOL    HW239888   3.315   3.522  11.596  0.2294 -0.2945 -0.2287
 9476SOL     OW39889   1.026   3.931  15.768 -0.3013  0.3642  1.0939
 9476SOL    HW139890   1.091   3.991  15.805  1.6631 -0.4707 -0.9829
 9476SOL    HW239891   0.976   3.926  15.849 -2.7881 -0.1848 -0.4779
 9477SOL     OW39892   0.570   3.157   6.510  0.1275 -0.0273 -0.5794
 9477SOL    HW139893   0.508   3.138   6.439  0.8480  0.3643 -1.3071
 9477SOL    HW239894   0.578   3.070   6.550  0.4083 -0.2294 -1.0756
 9478SOL     OW39895   0.913   1.285   2.656  0.4593 -0.1131 -0.1294
 9478SOL    HW139896   0.962   1.298   2.575  2.4518  0.3511  1.1452
 9478SOL    HW239897   0.904   1.373   2.693 -1.3830 -0.2395 -0.2982
 9479SOL     OW39898   4.000   0.022  12.485 -0.4670 -0.7004 -0.3701
 9479SOL    HW139899   4.014   4.673  12.542  3.0559 -0.6239 -1.1173
 9479SOL    HW239900   4.084   0.059  12.511 -0.2954 -0.9259 -0.6014
 9480SOL     OW39901   0.523   1.210   6.715 -0.2022  0.4501  0.5233
 9480SOL    HW139902   0.545   1.248   6.630 -0.6081  0.0084  0.2209
 9480SOL    HW239903   0.605   1.188   6.759  1.2408  0.7404 -2.0202
 9481SOL     OW39904   1.913   1.891  13.195  0.3364  0.1645 -0.1070
 9481SOL    HW139905   1.982   1.826  13.209  2.2321  1.9503 -1.2289
 9481SOL    HW239906   1.859   1.848  13.128  3.1210 -1.8759 -1.0043
 9482SOL     OW39907   4.245   4.271   2.244  0.2244  0.0142  0.3644
 9482SOL    HW139908   4.280   4.205   2.305  0.5852 -0.2512 -0.1254
 9482SOL    HW239909   4.154   4.246   2.254  0.2336 -0.0581  0.2662
 9483SOL     OW39910   2.153   3.780   5.926  0.0364 -0.2197 -0.0994
 9483SOL    HW139911   2.076   3.828   5.898 -0.3939 -1.2069 -0.5922
 9483SOL    HW239912   2.124   3.693   5.952 -1.0259  0.7085  1.8100
 9484SOL     OW39913   0.285   2.066   2.046  0.2474  0.1619  0.2850
 9484SOL    HW139914   0.364   2.114   2.071  0.8111 -1.5633  1.8648
 9484SOL    HW239915   0.251   2.036   2.130  0.4372  1.8914  0.9725
 9485SOL     OW39916   2.533   3.215   3.496  0.5753 -0.7506 -0.0319
 9485SOL    HW139917   2.486   3.186   3.417 -2.1460  2.8337  0.2795
 9485SOL    HW239918   2.462   3.188   3.554 -0.7777 -0.3283 -1.4886
 9486SOL     OW39919   2.112   2.504   8.405 -0.3662  0.6524  0.5486
 9486SOL    HW139920   2.160   2.569   8.354 -1.2087  0.2595 -0.7438
 9486SOL    HW239921   2.182   2.480   8.466 -1.4399 -0.3883  1.3664
 9487SOL     OW39922   0.662   0.721   3.672  0.8477 -0.1711  0.2077
 9487SOL    HW139923   0.683   0.808   3.638  2.1184 -0.7530 -0.4899
 9487SOL    HW239924   0.570   0.733   3.696  0.4174  0.8125 -1.9394
 9488SOL     OW39925   0.694   2.677   8.485 -0.1848  0.2020  0.4674
 9488SOL    HW139926   0.623   2.627   8.526 -0.5652 -0.2742 -0.7653
 9488SOL    HW239927   0.758   2.699   8.553 -1.7629  1.3448  1.5918
 9489SOL     OW39928   1.824   1.249   5.205  0.2173 -0.1929  0.2830
 9489SOL    HW139929   1.759   1.188   5.238  1.6601 -1.8245  0.1214
 9489SOL    HW239930   1.836   1.306   5.281 -0.6645 -0.9012  0.9607
 9490SOL     OW39931   2.686   2.321   2.251  0.1761  0.0670 -0.1975
 9490SOL    HW139932   2.712   2.236   2.286 -0.0492  0.0045 -0.1780
 9490SOL    HW239933   2.664   2.370   2.329  0.6282  0.6807 -0.4570
 9491SOL     OW39934   1.864   3.933  11.177 -0.2466  0.2591 -0.1402
 9491SOL    HW139935   1.812   4.005  11.214 -0.6792  0.8015 -1.7491
 9491SOL    HW239936   1.823   3.854  11.210  0.0627 -1.0238 -2.7855
 9492SOL     OW39937   0.880   4.249  16.059  0.0835 -0.5862  0.0646
 9492SOL    HW139938   0.939   4.318  16.029  0.8495 -0.7172  1.2798
 9492SOL    HW239939   0.867   4.209  15.973  0.8909 -0.3324 -0.1724
 9493SOL     OW39940   1.000   4.555   2.854 -0.2108 -0.7746 -0.0167
 9493SOL    HW139941   1.076   4.510   2.892  1.4205  1.8103 -0.1998
 9493SOL    HW239942   1.020   4.646   2.873  1.1124 -1.5077  2.1625
 9494SOL     OW39943   1.932   4.570   8.472  0.5966 -0.0437  0.0846
 9494SOL    HW139944   1.992   4.556   8.545 -1.5628  2.0575  2.2764
 9494SOL    HW239945   1.879   4.641   8.508  2.3842  2.1314 -1.5897
 9495SOL     OW39946   3.223   0.383   8.403 -0.7866 -0.3067 -0.2535
 9495SOL    HW139947   3.153   0.366   8.467 -1.8359  0.3734 -1.2286
 9495SOL    HW239948   3.282   0.346   8.469  0.4488  0.0187 -1.1753
 9496SOL     OW39949   0.334   1.180   6.028 -0.1066 -0.1924 -0.2611
 9496SOL    HW139950   0.409   1.240   6.024  1.2860 -1.8005  1.7104
 9496SOL    HW239951   0.345   1.136   5.943  0.0919  0.6327 -0.6598
 9497SOL     OW39952   0.739   3.156   1.793  0.5903  0.0803 -0.2131
 9497SOL    HW139953   0.673   3.202   1.846  1.5659  0.7569  0.4177
 9497SOL    HW239954   0.783   3.227   1.747 -1.3456  1.7215  0.4552
 9498SOL     OW39955   1.980   4.130   4.493  0.5584  0.2069  0.4595
 9498SOL    HW139956   2.052   4.069   4.512  1.4643  0.9169 -0.7270
 9498SOL    HW239957   1.966   4.178   4.575  0.3554  0.8609  0.0360
 9499SOL     OW39958   0.104   4.567   5.150  0.5754 -0.0505  0.0126
 9499SOL    HW139959   0.195   4.567   5.180 -0.1059  0.7974  2.0583
 9499SOL    HW239960   0.051   4.527   5.219 -0.8997 -1.4514 -1.9525
 9500SOL     OW39961   1.225   0.204   3.176 -0.0335  0.0157  0.0559
 9500SOL    HW139962   1.180   0.285   3.155 -0.6072 -0.4918 -0.6759
 9500SOL    HW239963   1.284   0.228   3.248  0.8528 -0.5205 -0.4874
 9501SOL     OW39964   1.500   3.292  13.822 -0.1304 -0.1435 -0.3617
 9501SOL    HW139965   1.535   3.379  13.843  1.4495 -1.4705  2.5756
 9501SOL    HW239966   1.423   3.280  13.878  1.4190 -0.1636  1.8091
 9502SOL     OW39967   2.854   1.034   3.729  0.0807  0.1453  0.0948
 9502SOL    HW139968   2.834   1.084   3.809 -0.9342  1.6063 -1.0682
 9502SOL    HW239969   2.800   0.957   3.744  1.2599 -0.9502 -1.3348
 9503SOL     OW39970   3.217   2.136   4.610  0.6483 -0.0152  0.0981
 9503SOL    HW139971   3.161   2.169   4.540  1.3253  2.0690  0.5358
 9503SOL    HW239972   3.166   2.173   4.682  1.9125  1.4204  0.2530
 9504SOL     OW39973   3.336   0.139   4.115 -0.4273 -0.3517 -1.1647
 9504SOL    HW139974   3.308   0.079   4.184  1.2805  1.0392  0.7179
 9504SOL    HW239975   3.304   0.099   4.034  0.8996  0.0130 -1.8649
 9505SOL     OW39976   1.910   0.875   4.926 -0.4799  0.6285  0.2058
 9505SOL    HW139977   2.004   0.892   4.931 -0.3423 -0.8128  2.9500
 9505SOL    HW239978   1.916   0.806   4.993  2.7431  0.5342 -0.1956
 9506SOL     OW39979   0.653   1.524   0.294  0.1001 -0.2748  0.1543
 9506SOL    HW139980   0.647   1.514   0.199  0.6464 -0.4650  0.1414
 9506SOL    HW239981   0.644   1.437   0.332  1.4732  0.1337  1.4092
 9507SOL     OW39982   3.732   0.721   8.679  0.0060  0.6501  0.0473
 9507SOL    HW139983   3.649   0.673   8.679 -0.4396  1.4279  0.1229
 9507SOL    HW239984   3.712   0.807   8.643 -0.5755  0.4126 -0.2036
 9508SOL     OW39985   2.350   3.271   4.882  0.1897 -0.4605  0.5263
 9508SOL    HW139986   2.310   3.311   4.959  2.5356 -1.2186  2.1462
 9508SOL    HW239987   2.408   3.342   4.855 -0.0051 -0.4211  0.2089
 9509SOL     OW39988   1.343   3.150   4.006  0.5785 -0.2980  0.1910
 9509SOL    HW139989   1.428   3.183   3.975  1.3480 -2.3210  0.1458
 9509SOL    HW239990   1.283   3.223   3.990  0.1072 -0.3291  1.8730
 9510SOL     OW39991   0.907   1.074   9.950  0.0345 -0.9906  0.2103
 9510SOL    HW139992   0.832   1.105  10.001 -1.8439 -1.9041 -2.0285
 9510SOL    HW239993   0.977   1.126   9.989 -0.6043 -0.3191  0.4483
 9511SOL     OW39994   1.563   1.994   3.133 -0.1727  0.5053  0.2710
 9511SOL    HW139995   1.478   2.033   3.114  0.4731  1.1743 -1.2911
 9511SOL    HW239996   1.602   2.056   3.194  0.3463  1.6910 -1.2858
 9512SOL     OW39997   3.048   1.904  17.193  0.5345  0.3459 -0.3825
 9512SOL    HW139998   2.997   1.985  17.202  0.0834  0.0477 -0.2709
 9512SOL    HW239999   3.099   1.912  17.274 -0.3498  1.3633  0.0657
 9513SOL     OW40000   1.924   2.612  12.513 -0.1648 -0.0141  0.6061
 9513SOL    HW140001   1.881   2.657  12.586  0.1682 -1.6947  1.8369
 9513SOL    HW240002   1.850   2.578  12.461  1.0341 -0.2125 -0.9696
 9514SOL     OW40003   2.628   4.204  11.483  0.3107  0.5809 -0.9975
 9514SOL    HW140004   2.547   4.252  11.498 -1.3024 -2.3091 -0.4559
 9514SOL    HW240005   2.597   4.124  11.441 -2.1093  0.6177  0.7204
 9515SOL     OW40006   1.127   1.067  14.617 -0.4121  0.0090  0.8309
 9515SOL    HW140007   1.195   1.023  14.567  2.3221  0.7272  3.9580
 9515SOL    HW240008   1.119   1.008  14.692 -0.9299 -1.0746 -0.0723
 9516SOL     OW40009   2.149   0.545   0.029 -0.4416  0.9963  0.0986
 9516SOL    HW140010   2.062   0.549  17.695 -0.2685  0.9440 -0.2907
 9516SOL    HW240011   2.190   0.482  17.675 -3.9464 -0.7279 -0.4939
 9517SOL     OW40012   2.561   0.141   8.443  0.2976  0.0374  0.9483
 9517SOL    HW140013   2.600   0.053   8.437 -3.0611 -1.3221 -0.9988
 9517SOL    HW240014   2.637   0.190   8.411 -0.2896  0.6325  0.4634
 9518SOL     OW40015   0.113   3.115   5.915 -0.3653  0.9556  0.7587
 9518SOL    HW140016   0.036   3.058   5.916  0.7482 -0.5224  1.3069
 9518SOL    HW240017   0.068   3.198   5.896  2.3709  2.3367  0.3640
 9519SOL     OW40018   2.402   1.782   1.908 -0.7283 -0.7504 -0.5394
 9519SOL    HW140019   2.409   1.851   1.974  0.5572 -0.8039 -0.6098
 9519SOL    HW240020   2.490   1.770   1.873  0.5128  2.1530  1.6215
 9520SOL     OW40021   0.933   4.362  13.345  0.1927 -0.0489 -0.3265
 9520SOL    HW140022   1.007   4.306  13.321  1.2800  0.3807  2.0007
 9520SOL    HW240023   0.953   4.437  13.289  0.6512  0.0321 -0.0572
 9521SOL     OW40024   3.097   3.282   0.921  1.0883  0.3717  0.3651
 9521SOL    HW140025   3.129   3.263   0.833 -0.3711  3.9463 -0.9205
 9521SOL    HW240026   3.133   3.369   0.938  1.4135  0.4219 -0.6197
 9522SOL     OW40027   3.509   1.238   9.412  0.3303 -0.3589  0.4386
 9522SOL    HW140028   3.601   1.256   9.391  0.7777 -2.3355  0.7257
 9522SOL    HW240029   3.484   1.162   9.360  0.0249 -0.1635  0.2953
 9523SOL     OW40030   3.599   3.056   1.000  0.2351  0.2336  0.3901
 9523SOL    HW140031   3.637   3.125   1.054  0.9268  0.2530 -0.1178
 9523SOL    HW240032   3.623   3.089   0.913 -1.1381  0.6720  0.1672
 9524SOL     OW40033   3.362   1.611  11.808 -0.0952 -0.0721  0.7095
 9524SOL    HW140034   3.268   1.624  11.793  0.1038  1.1406  0.5513
 9524SOL    HW240035   3.398   1.554  11.740  1.7699  1.2114  0.6501
 9525SOL     OW40036   4.379   3.452   1.848  0.5492  0.6123 -0.1934
 9525SOL    HW140037   4.424   3.369   1.860 -0.6427  0.0085  0.0720
 9525SOL    HW240038   4.289   3.424   1.829 -0.0825  1.2434  1.9314
 9526SOL     OW40039   2.231   0.627  15.971  0.9292 -0.1160 -0.3024
 9526SOL    HW140040   2.156   0.675  15.936  0.5967 -0.0841  0.4380
 9526SOL    HW240041   2.192   0.604  16.056 -1.2805  2.9403 -0.4743
 9527SOL     OW40042   4.669   2.075   2.194 -0.8009 -0.0927 -0.0402
 9527SOL    HW140043   4.697   1.989   2.165  0.0962 -0.9114  3.2410
 9527SOL    HW240044   4.580   2.047   2.215 -0.6224 -1.1650 -0.7444
 9528SOL     OW40045   4.621   0.043   8.539  0.3899  0.4385 -0.0411
 9528SOL    HW140046   4.640   0.136   8.549 -1.3664  0.8011 -0.1645
 9528SOL    HW240047   4.558   0.028   8.610  0.7508  0.2797  0.2499
 9529SOL     OW40048   1.892   0.246   9.493 -0.0107  0.2719 -0.0054
 9529SOL    HW140049   1.889   0.305   9.568 -0.3231 -0.7713  0.8032
 9529SOL    HW240050   1.959   0.298   9.450  3.0356 -2.5557  1.3101
 9530SOL     OW40051   0.800   3.742  13.859  0.7993 -0.1240  0.1945
 9530SOL    HW140052   0.844   3.827  13.864 -2.1854  1.4473 -0.7304
 9530SOL    HW240053   0.768   3.749  13.769  3.6950 -2.8435 -1.0596
 9531SOL     OW40054   1.861   1.601   4.441 -0.2277  0.2526 -0.7128
 9531SOL    HW140055   1.955   1.601   4.458  0.3416 -2.4455 -3.6729
 9531SOL    HW240056   1.850   1.668   4.374 -1.3045  0.0169 -0.7790
 9532SOL     OW40057   2.814   2.597  10.080  0.6372 -0.2524 -0.0256
 9532SOL    HW140058   2.770   2.681  10.095 -0.9607 -1.2320  0.8221
 9532SOL    HW240059   2.737   2.540  10.083  1.7508 -1.8947 -3.0491
 9533SOL     OW40060   4.644   4.247   7.908  0.1729 -0.0759  0.3478
 9533SOL    HW140061   4.571   4.282   7.858  0.9024 -0.3625 -0.9105
 9533SOL    HW240062   4.661   4.325   7.962 -0.4204  0.2251  0.1005
 9534SOL     OW40063   3.713   1.285  10.705 -0.2000 -0.2435 -0.1881
 9534SOL    HW140064   3.756   1.337  10.774  2.9008 -0.5390 -1.9244
 9534SOL    HW240065   3.768   1.303  10.629  2.8338  0.9551  2.2665
 9535SOL     OW40066   1.738   0.787   8.497  0.2997 -0.1367 -0.5871
 9535SOL    HW140067   1.759   0.693   8.491  0.3098 -0.2953  2.1498
 9535SOL    HW240068   1.824   0.826   8.504  1.4001 -3.0258  1.8338
 9536SOL     OW40069   0.047   0.161  11.091  0.4721 -0.3257  0.2977
 9536SOL    HW140070   0.026   0.136  11.181  1.4818  1.9996  1.1686
 9536SOL    HW240071   4.689   0.199  11.066  0.0938 -0.2726  1.6519
 9537SOL     OW40072   2.301   4.291   3.875 -0.2793 -0.0396 -0.8958
 9537SOL    HW140073   2.310   4.225   3.806  1.2943 -0.0106 -0.7079
 9537SOL    HW240074   2.394   4.306   3.892 -0.3850  1.2386 -1.4797
 9538SOL     OW40075   2.350   4.494   5.814  0.0656  0.3055  0.6533
 9538SOL    HW140076   2.326   4.569   5.867  0.4426  0.9908 -0.1417
 9538SOL    HW240077   2.262   4.458   5.812 -0.7656  2.2840  2.1941
 9539SOL     OW40078   1.437   0.694   2.463 -0.6421  0.9779  0.1488
 9539SOL    HW140079   1.433   0.611   2.511  0.9789  0.5373 -0.4962
 9539SOL    HW240080   1.479   0.659   2.385  2.7362  2.0698  1.4882
 9540SOL     OW40081   3.610   4.263   8.691  0.3977  0.1436 -1.1072
 9540SOL    HW140082   3.545   4.209   8.646  0.6256 -1.9624  1.0540
 9540SOL    HW240083   3.608   4.344   8.641  0.7203  1.3952  0.8865
 9541SOL     OW40084   2.096   4.390   5.813  0.1698 -0.1382  0.4356
 9541SOL    HW140085   2.052   4.372   5.896 -0.9810  1.4935  0.1650
 9541SOL    HW240086   2.024   4.397   5.751 -0.0441  0.6715  0.7857
 9542SOL     OW40087   0.295   0.281   1.375 -0.3982  0.4262  0.4868
 9542SOL    HW140088   0.325   0.267   1.285 -3.4281 -1.6055 -0.2184
 9542SOL    HW240089   0.200   0.279   1.369 -0.3092 -1.6432 -0.3132
 9543SOL     OW40090   1.256   2.557   2.638 -0.0860  0.0894  0.0919
 9543SOL    HW140091   1.321   2.502   2.593  0.7480  0.1102  1.2576
 9543SOL    HW240092   1.306   2.631   2.672  1.1223 -0.0231 -1.4585
 9544SOL     OW40093   4.575   0.675   5.480  0.8277  0.1270 -0.3643
 9544SOL    HW140094   4.563   0.581   5.492 -2.3806  0.6188  0.3487
 9544SOL    HW240095   4.664   0.695   5.451  1.1406  1.0059  1.2121
 9545SOL     OW40096   1.307   3.993   8.468 -0.0684 -0.5310 -0.2301
 9545SOL    HW140097   1.259   3.981   8.387  0.9125 -2.4462 -0.5333
 9545SOL    HW240098   1.229   4.024   8.515  1.1667 -0.0999  1.5361
 9546SOL     OW40099   1.564   3.062   4.450 -0.0450 -0.3796 -0.1441
 9546SOL    HW140100   1.587   3.119   4.523  0.3535 -2.0843  1.0842
 9546SOL    HW240101   1.479   3.102   4.429 -0.9454 -2.0549  0.2493
 9547SOL     OW40102   1.792   0.462   7.055  0.0207 -0.2001 -0.9154
 9547SOL    HW140103   1.748   0.544   7.033 -1.5090 -1.1593 -1.4691
 9547SOL    HW240104   1.727   0.415   7.107 -0.5664 -0.3916 -1.8256
 9548SOL     OW40105   0.197   3.320  15.999 -0.5483 -0.3980  0.8365
 9548SOL    HW140106   0.124   3.273  15.958  1.1557 -0.5907 -2.0080
 9548SOL    HW240107   0.189   3.298  16.092  0.5237  2.4394  1.6007
 9549SOL     OW40108   3.782   3.218  15.823 -0.4240  0.5112  0.1126
 9549SOL    HW140109   3.781   3.256  15.736 -0.6202 -1.5903 -0.8216
 9549SOL    HW240110   3.832   3.289  15.863  1.3405 -0.3475 -0.5763
 9550SOL     OW40111   1.774   3.194   2.870  0.1007  0.5200 -0.0573
 9550SOL    HW140112   1.791   3.210   2.963  1.3293 -0.7988 -0.0464
 9550SOL    HW240113   1.815   3.110   2.849 -0.3645  0.6860 -1.6792
 9551SOL     OW40114   3.272   0.464   7.258  0.0246  0.0975 -0.0612
 9551SOL    HW140115   3.364   0.449   7.234  0.1131  1.6658 -0.6657
 9551SOL    HW240116   3.235   0.468   7.170 -0.9030 -1.1573  0.2578
 9552SOL     OW40117   3.915   3.567   1.705  0.4196 -0.2865 -0.5218
 9552SOL    HW140118   3.837   3.551   1.758  1.7026 -0.4062  1.3241
 9552SOL    HW240119   3.893   3.643   1.652  0.9162  0.0899 -0.1882
 9553SOL     OW40120   2.734   0.840   6.114 -0.1681  0.0500 -0.1418
 9553SOL    HW140121   2.717   0.759   6.065  2.2797 -0.4476 -0.1914
 9553SOL    HW240122   2.694   0.902   6.054 -0.0338 -0.7342 -1.0443
 9554SOL     OW40123   0.826   4.208   7.674  0.6435  0.6455  0.0146
 9554SOL    HW140124   0.897   4.176   7.618  0.8956  0.1643  0.6070
 9554SOL    HW240125   0.791   4.126   7.710 -0.6216  1.8234  1.4873
 9555SOL     OW40126   3.642   0.625   6.974  0.0619  0.3768  0.4703
 9555SOL    HW140127   3.639   0.712   7.014  0.3024  0.5804  0.0497
 9555SOL    HW240128   3.680   0.648   6.889  0.0092 -0.4629  0.2193
 9556SOL     OW40129   1.261   0.757   0.630 -0.7719 -0.3954  0.0949
 9556SOL    HW140130   1.309   0.680   0.598  1.8022 -0.3229  3.7621
 9556SOL    HW240131   1.309   0.773   0.711 -1.2065 -0.0632  0.2843
 9557SOL     OW40132   1.853   4.412   8.254 -0.1387  0.6821 -0.2587
 9557SOL    HW140133   1.936   4.390   8.212 -0.3364 -0.2819 -0.1367
 9557SOL    HW240134   1.885   4.482   8.311 -0.2149 -0.1019  0.7481
 9558SOL     OW40135   3.918   4.481   7.686  0.2548  0.0852  0.0020
 9558SOL    HW140136   3.873   4.552   7.732  2.7012  2.5121 -1.3970
 9558SOL    HW240137   3.850   4.434   7.637 -0.0580 -0.1897  0.6887
 9559SOL     OW40138   2.541   4.650   6.666 -0.0814  0.0693 -0.0582
 9559SOL    HW140139   2.535   0.004   6.719  0.1049 -1.9684  2.9825
 9559SOL    HW240140   2.449   4.632   6.648 -0.1884  0.1297  0.4271
 9560SOL     OW40141   3.481   4.546   9.643 -0.1602  0.0177 -0.4048
 9560SOL    HW140142   3.443   4.515   9.725  0.6987 -0.7774 -0.3099
 9560SOL    HW240143   3.432   4.627   9.625  0.0184  0.2919  0.3733
 9561SOL     OW40144   2.566   0.755   8.948 -0.0021  0.3583 -0.0762
 9561SOL    HW140145   2.517   0.731   9.027  1.6464  0.6888  1.0444
 9561SOL    HW240146   2.584   0.670   8.908 -0.8746  1.0025 -1.8257
 9562SOL     OW40147   1.910   3.551   3.710  0.2409  0.7289 -0.0089
 9562SOL    HW140148   1.979   3.596   3.758  1.2974 -1.9149  0.9518
 9562SOL    HW240149   1.829   3.601   3.718  0.7517  1.1764  2.6092
 9563SOL     OW40150   3.502   4.404   4.102  0.4144  0.1933  0.1748
 9563SOL    HW140151   3.523   4.494   4.076 -1.2045  0.2657 -0.8241
 9563SOL    HW240152   3.413   4.417   4.134 -0.2657  2.1143 -2.4720
 9564SOL     OW40153   3.661   3.267   7.375 -0.0859  0.1181  0.4912
 9564SOL    HW140154   3.616   3.284   7.292 -0.6546 -0.1140  0.7478
 9564SOL    HW240155   3.695   3.178   7.371 -1.5305 -0.4380  0.3299
 9565SOL     OW40156   3.109   1.447   3.854 -0.2012  0.3282 -0.7931
 9565SOL    HW140157   3.112   1.373   3.914  2.4348 -1.2172 -2.8261
 9565SOL    HW240158   3.186   1.498   3.879  0.0377 -0.5709  0.2984
 9566SOL     OW40159   1.530   4.585   0.490 -0.3367 -0.3093 -0.3890
 9566SOL    HW140160   1.586   4.526   0.441  0.7640 -0.5329  1.1510
 9566SOL    HW240161   1.520   4.653   0.423  2.4517 -0.0836 -0.5537
 9567SOL     OW40162   2.633   3.966  12.959  0.0689 -0.1446  0.2240
 9567SOL    HW140163   2.599   3.877  12.952 -0.0048 -0.1221  0.3085
 9567SOL    HW240164   2.554   4.011  12.928 -0.3560 -1.2572 -0.2913
 9568SOL     OW40165   3.306   3.948   3.293 -0.5112 -0.5268  0.1244
 9568SOL    HW140166   3.320   4.042   3.292  1.2006 -0.7800 -2.7756
 9568SOL    HW240167   3.319   3.923   3.384  3.4426  0.7800 -0.0743
   4.72595   4.72595  17.70496
