Membrane in water
40167
    1TCq1    O1    1   0.325   0.096  11.587 -0.0722 -0.0408 -0.7349
    1TCq1    C1    2   0.287   0.014  11.693 -0.1285 -0.3748  0.4300
    1TCq1    O2    3   0.310   4.615  11.703 -0.1902  0.0826  0.0251
    1TCq1    C2    4   0.160   0.069  11.731  0.5188 -0.1547  0.0560
    1TCq1    C3    5   0.169   0.200  11.781 -0.1322 -0.1079 -0.0152
    1TCq1    C4    6   0.063   0.243  11.848  0.3258  0.7511  0.1602
    1TCq1    C5    7   4.677   0.158  11.864 -0.5041  0.1035 -0.3602
    1TCq1    C6    8   4.663   0.036  11.803  0.3736  0.0302 -0.9970
    1TCq1    C7    9   0.047   4.713  11.731  0.4198 -0.1484  0.3512
    1TCq1    C8   10   4.550   4.677  11.839 -0.4395 -0.1136 -0.9732
    1TCq1    O4   11   4.461   0.013  11.898  0.0336 -0.0036  0.3078
    1TCq1    C9   12   0.074   0.365  11.919  0.0509 -0.2237  0.8061
    1TCq1    O5   13   0.184   0.412  11.938 -0.2845  0.4416  0.5379
    1TCq1    O6   14   4.700   0.382  11.999 -0.2417  0.4046 -0.1381
    1TCq1    H1   15   0.275   0.180  11.578 -0.4893 -0.0868  1.0357
    1TCq1    H2   16   0.260   0.257  11.765  0.2348 -0.5677  0.4020
    1TCq1    H3   17   4.597   0.198  11.925 -0.9914  2.0149 -2.2484
    1TCq1    H4   18   0.047   4.614  11.689 -0.6495  0.3131 -0.7548
    2MPD2     C   19   4.207   4.308  11.765 -0.2161 -0.2593 -0.1440
    2MPD2    C1   20   4.204   4.422  11.849  0.2995 -0.0912  0.3140
    2MPD2    C2   21   4.321   4.497  11.852  1.2200  0.1747 -0.3003
    2MPD2    C3   22   4.428   4.476  11.770 -0.1107  0.3527 -0.6975
    2MPD2    C4   23   4.424   4.367  11.678 -0.1690 -0.1647 -0.0613
    2MPD2    C5   24   4.307   4.284  11.677 -0.5443 -0.7951  0.2332
    2MPD2     H   25   4.323   4.573  11.929  0.3428 -0.1677  0.0626
    2MPD2    H1   26   4.507   4.344  11.613  1.0352  0.5020  1.2485
    2MPD2    H2   27   4.117   4.249  11.754  0.9529 -2.3653  1.4322
    2MPD2    H3   28   4.286   4.201  11.610  2.0466 -1.1502 -0.1770
    2MPD2     N   29   4.542   4.556  11.766 -0.2741  0.3486 -0.3358
    2MPD2    H5   30   4.616   4.532  11.702  0.5666 -0.4747  0.9419
    2MPD2    N1   31   4.092   4.475  11.924  0.3831  0.0509  0.0422
    2MPD2    H7   32   4.108   4.559  11.979 -1.0366  0.2911  0.0854
    3TCq1    O1   33   3.914   1.825  11.895  0.7496  0.9142  0.4236
    3TCq1    C1   34   3.861   1.851  11.774 -0.9527  0.2856  0.2648
    3TCq1    O2   35   3.897   1.795  11.673 -0.6280 -0.6969 -0.2180
    3TCq1    C2   36   3.732   1.920  11.791 -0.3471  0.1099 -0.3571
    3TCq1    C3   37   3.669   1.947  11.675  0.2720  0.1395  0.6408
    3TCq1    C4   38   3.535   1.945  11.658 -0.0941  0.0942 -0.2838
    3TCq1    C5   39   3.453   1.918  11.760  0.1101 -0.0077  0.3109
    3TCq1    C6   40   3.516   1.882  11.877 -0.6690  0.1647  0.9412
    3TCq1    C7   41   3.652   1.872  11.896  0.6680  0.6970  0.2174
    3TCq1    C8   42   3.439   1.800  11.969 -0.8008  0.6444  0.1645
    3TCq1    O4   43   3.502   1.709  12.027  0.1007  0.3951 -0.3336
    3TCq1    C9   44   3.476   1.983  11.529 -0.2350 -0.2782  0.1695
    3TCq1    O5   45   3.353   1.959  11.517  0.0234  0.7586 -0.0198
    3TCq1    O6   46   3.561   2.016  11.446  0.2942  0.4537 -0.4768
    3TCq1    H1   47   3.879   1.891  11.959 -2.4140 -1.1088  0.8097
    3TCq1    H2   48   3.731   1.969  11.588  0.5163 -1.5914  0.3735
    3TCq1    H3   49   3.348   1.940  11.752 -0.3384 -2.0966  0.4670
    3TCq1    H4   50   3.697   1.827  11.984 -0.9890  0.2000  0.8033
    4MPD2     C   51   2.971   1.660  12.164  0.2832  0.1926 -0.3666
    4MPD2    C1   52   2.962   1.763  12.074 -0.4189 -0.0067 -0.9944
    4MPD2    C2   53   3.072   1.816  12.013  0.3832  0.5455  0.1982
    4MPD2    C3   54   3.195   1.764  12.029  0.0269 -0.4077  0.0387
    4MPD2    C4   55   3.209   1.651  12.116  0.2291 -0.2875  0.2109
    4MPD2    C5   56   3.095   1.592  12.172  0.6559 -0.2724  0.1812
    4MPD2     H   57   3.056   1.902  11.949  0.3551 -1.2237 -2.1569
    4MPD2    H1   58   3.305   1.602  12.127 -0.9817 -2.6222  0.3030
    4MPD2    H2   59   2.890   1.620  12.224  2.0099 -2.2077  0.3623
    4MPD2    H3   60   3.103   1.506  12.237  0.7806 -0.6290 -0.3013
    4MPD2     N   61   3.302   1.832  11.960  0.1487 -0.5703  0.3324
    4MPD2    H5   62   3.267   1.908  11.902  0.0264  0.3138  1.5682
    4MPD2    N1   63   2.835   1.820  12.065 -0.1865  0.3771  0.3637
    4MPD2    H7   64   2.834   1.905  12.008 -1.4892 -0.4777 -0.8839
    5TCq1    O1   65   0.512   2.647  11.713 -0.0575 -0.1611 -0.2439
    5TCq1    C1   66   0.433   2.643  11.601  0.0622 -0.3670 -0.1439
    5TCq1    O2   67   0.420   2.745  11.535 -0.0896 -0.1615  0.0606
    5TCq1    C2   68   0.309   2.571  11.637 -0.1467 -0.4548  0.0624
    5TCq1    C3   69   0.246   2.589  11.759  0.2429 -0.2725 -0.0281
    5TCq1    C4   70   0.116   2.605  11.764 -0.5513  0.6160 -0.0182
    5TCq1    C5   71   0.042   2.597  11.650  0.0200  0.6046  0.2416
    5TCq1    C6   72   0.104   2.583  11.526  0.2896  0.4795 -0.1232
    5TCq1    C7   73   0.237   2.575  11.517 -0.5948  0.7553  0.1142
    5TCq1    C8   74   0.021   2.559  11.404  0.1435 -0.1237  0.0711
    5TCq1    O4   75   0.062   2.492  11.314  0.1715 -0.0403 -0.1092
    5TCq1    C9   76   0.045   2.622  11.890  0.1252  0.3838 -0.3508
    5TCq1    O5   77   4.661   2.687  11.885  0.4441  0.0748  0.0923
    5TCq1    O6   78   0.111   2.598  11.995  0.0714  0.0264 -0.0832
    5TCq1    H1   79   0.514   2.556  11.750  3.6845 -0.5598 -1.4123
    5TCq1    H2   80   0.300   2.594  11.853  1.3764  4.3923 -0.9302
    5TCq1    H3   81   4.656   2.596  11.657 -0.0336 -1.0911 -0.7983
    5TCq1    H4   82   0.288   2.567  11.422  0.5046 -0.0239  0.7753
    6MPD2     C   83   4.391   2.641  11.354 -0.0640 -0.4522  0.2945
    6MPD2    C1   84   4.507   2.561  11.353 -0.0440 -0.5931  0.0810
    6MPD2    C2   85   4.503   2.437  11.296  0.1210 -0.2083  0.1599
    6MPD2    C3   86   4.387   2.394  11.234  0.5371  0.1578 -0.0454
    6MPD2    C4   87   4.268   2.463  11.243  0.4419  0.1862 -0.2185
    6MPD2    C5   88   4.274   2.588  11.300 -0.1031  0.2633  0.0826
    6MPD2     H   89   4.586   2.368  11.285 -0.4856 -0.6338 -1.7199
    6MPD2    H1   90   4.174   2.442  11.192  0.2724  0.7325 -0.1303
    6MPD2    H2   91   4.384   2.742  11.390  2.3105  1.0781 -3.4689
    6MPD2    H3   92   4.188   2.653  11.292  0.5690  0.4878 -5.1603
    6MPD2     N   93   4.395   2.266  11.173 -0.4222  0.4375  0.2422
    6MPD2    H5   94   4.488   2.230  11.155  0.0920  1.5718  0.6343
    6MPD2    N1   95   4.623   2.610  11.420  0.9318  0.2338  0.3660
    6MPD2    H7   96   4.619   2.706  11.453  1.0104  0.6687 -0.8662
    7TCq1    O1   97   1.964   2.670  13.273 -0.4159  0.0286 -0.1254
    7TCq1    C1   98   1.880   2.678  13.374 -0.3986  0.5770  0.0685
    7TCq1    O2   99   1.756   2.689  13.363 -0.5225  0.4836 -0.1407
    7TCq1    C2  100   1.946   2.608  13.485 -0.2190 -0.1799 -0.2304
    7TCq1    C3  101   2.057   2.663  13.537  0.6438  0.2176  0.3221
    7TCq1    C4  102   2.146   2.583  13.614  0.0117 -0.2111  0.2729
    7TCq1    C5  103   2.109   2.450  13.643 -0.0892  0.0494  0.2608
    7TCq1    C6  104   1.981   2.413  13.597  0.3549  0.1991  0.4583
    7TCq1    C7  105   1.898   2.490  13.519 -0.0179 -0.1677 -0.5326
    7TCq1    C8  106   1.942   2.277  13.598 -0.0560  0.5382  0.5455
    7TCq1    O4  107   1.828   2.244  13.572  0.1029  0.0963  0.1780
    7TCq1    C9  108   2.275   2.625  13.656 -0.5559  0.4797 -0.9727
    7TCq1    O5  109   2.317   2.740  13.627 -0.6747  0.0316  0.0307
    7TCq1    O6  110   2.354   2.527  13.665 -0.0647 -0.1490 -0.5442
    7TCq1    H1  111   2.054   2.645  13.304 -0.8315  1.3471  2.0980
    7TCq1    H2  112   2.090   2.760  13.503 -3.0159  1.4775  0.4348
    7TCq1    H3  113   2.174   2.382  13.697 -3.8259 -2.6356  1.3399
    7TCq1    H4  114   1.809   2.447  13.475  0.1350 -1.5671  0.5260
    8MPD2     C  115   2.090   1.786  13.602  0.1002  0.9072  0.0085
    8MPD2    C1  116   1.965   1.838  13.625  0.0389 -1.0296 -0.2278
    8MPD2    C2  117   1.950   1.976  13.621 -0.2482 -0.5273  0.2116
    8MPD2    C3  118   2.058   2.057  13.590 -0.0399  0.2011 -0.1535
    8MPD2    C4  119   2.177   1.993  13.557  0.2839  0.3037  0.9431
    8MPD2    C5  120   2.198   1.860  13.567 -0.2239 -0.0446 -0.5164
    8MPD2     H  121   1.854   2.027  13.620 -0.3586 -0.8239 -3.5061
    8MPD2    H1  122   2.262   2.057  13.534  0.5232 -0.3771 -0.0364
    8MPD2    H2  123   2.101   1.679  13.601 -0.5801  0.8439 -0.7964
    8MPD2    H3  124   2.292   1.817  13.533 -0.9110 -0.5003 -1.8663
    8MPD2     N  125   2.054   2.197  13.595  0.8549  0.6367 -0.0265
    8MPD2    H5  126   2.145   2.241  13.584  0.0673  1.8728 -1.4869
    8MPD2    N1  127   1.866   1.739  13.648 -0.3587 -0.1425 -0.4382
    8MPD2    H7  128   1.894   1.643  13.631 -1.9761 -1.3092  3.4075
    9TCq1    O1  129   3.879   0.223  10.949  0.9577  0.2122 -0.2735
    9TCq1    C1  130   3.916   0.175  10.830 -0.2484  0.5288  0.9253
    9TCq1    O2  131   3.864   0.077  10.784 -0.2657  0.1484  0.7079
    9TCq1    C2  132   4.053   0.196  10.821 -0.0447 -0.2398  0.0199
    9TCq1    C3  133   4.121   0.088  10.770  0.4293  0.5719  0.6692
    9TCq1    C4  134   4.253   0.112  10.710  0.2375 -0.2011 -0.3344
    9TCq1    C5  135   4.307   0.235  10.720 -0.9281 -0.1276  0.4183
    9TCq1    C6  136   4.238   0.337  10.786 -0.3951 -0.5395 -0.3353
    9TCq1    C7  137   4.107   0.318  10.817  0.2867  0.0579  0.9434
    9TCq1    C8  138   4.316   0.433  10.859  0.1497 -0.2009 -0.2672
    9TCq1    O4  139   4.435   0.447  10.825  0.3520  0.6848  0.2380
    9TCq1    C9  140   4.313   0.013  10.621  0.5024 -0.0111  0.7833
    9TCq1    O5  141   4.282   4.615  10.627  0.2611  0.7398 -0.1851
    9TCq1    O6  142   4.388   0.072  10.533 -0.3530  0.1029  0.3948
    9TCq1    H1  143   3.945   0.279  10.994  0.9169 -0.6367  0.8569
    9TCq1    H2  144   4.072   4.715  10.754  1.4526  0.2699 -0.6825
    9TCq1    H3  145   4.410   0.252  10.689 -1.9421 -0.2193 -2.9970
    9TCq1    H4  146   4.042   0.399  10.846 -0.4996 -0.5783  0.9435
   10MPD2     C  147   4.385   0.704  10.964 -0.6885 -0.7017  0.3783
   10MPD2    C1  148   4.281   0.628  11.011  0.9264  0.1947  0.2786
   10MPD2    C2  149   4.210   0.674  11.121 -0.2406  0.3511  0.3952
   10MPD2    C3  150   4.246   0.796  11.186  0.0484 -0.0612 -0.1412
   10MPD2    C4  151   4.333   0.876  11.114 -0.4054 -0.7580  0.1926
   10MPD2    C5  152   4.407   0.829  11.008 -0.3172 -0.0022  0.0603
   10MPD2     H  153   4.123   0.623  11.160 -2.1585  4.1364  1.0928
   10MPD2    H1  154   4.361   0.974  11.152 -0.5586 -0.8456  0.5286
   10MPD2    H2  155   4.435   0.666  10.876  1.7426  1.5286  0.7991
   10MPD2    H3  156   4.492   0.883  10.968 -0.3813  0.4289  0.4963
   10MPD2     N  157   4.190   0.838  11.308  0.3428 -0.1221  0.4444
   10MPD2    H5  158   4.214   0.934  11.332  0.8567 -0.2722  0.5373
   10MPD2    N1  159   4.243   0.506  10.953 -0.1512  0.0033  0.5564
   10MPD2    H7  160   4.167   0.455  10.996 -1.1627  0.2868 -0.8805
   11TCq1    O1  161   0.455   0.634  14.148 -1.1429  0.5475  0.2039
   11TCq1    C1  162   0.336   0.560  14.135 -0.3071 -0.6130 -0.8602
   11TCq1    O2  163   0.322   0.469  14.052  0.2391  0.0561  0.2049
   11TCq1    C2  164   0.273   0.558  14.267 -0.3716  0.2584  0.2078
   11TCq1    C3  165   0.341   0.615  14.380 -0.2793  0.8843 -0.9960
   11TCq1    C4  166   0.278   0.594  14.497  0.2003 -0.4228 -0.3558
   11TCq1    C5  167   0.159   0.525  14.506 -0.4343 -0.6601  0.6949
   11TCq1    C6  168   0.102   0.474  14.388 -0.1191  0.3339 -0.4628
   11TCq1    C7  169   0.159   0.484  14.268 -0.3504 -0.6670  0.3696
   11TCq1    C8  170   4.688   0.402  14.398  0.3058 -0.3379  0.1355
   11TCq1    O4  171   4.616   0.419  14.497  0.2345  0.4057 -0.5515
   11TCq1    C9  172   0.327   0.651  14.622  0.5662 -0.0414 -0.4594
   11TCq1    O5  173   0.431   0.718  14.606  0.2115  0.0590 -0.2579
   11TCq1    O6  174   0.248   0.657  14.719 -0.4711  0.0333 -0.0911
   11TCq1    H1  175   0.452   0.722  14.190 -0.0991  0.3851  0.5952
   11TCq1    H2  176   0.436   0.668  14.376  0.5058 -0.4398 -0.0301
   11TCq1    H3  177   0.112   0.511  14.603  2.1729  0.1291  2.0726
   11TCq1    H4  178   0.120   0.431  14.182  0.9695 -2.7660  1.0657
   12MPD2     C  179   4.424   0.291  14.324  0.6398  0.6791 -0.0405
   12MPD2    C1  180   4.536   0.274  14.249  0.2925  0.3188 -0.2696
   12MPD2    C2  181   4.524   0.205  14.129  0.1500 -0.7132  0.5114
   12MPD2    C3  182   4.405   0.151  14.082  0.4194 -0.3645  0.5226
   12MPD2    C4  183   4.288   0.176  14.157  0.5706  0.0842  0.1112
   12MPD2    C5  184   4.305   0.247  14.275 -0.6272  0.0724  0.0418
   12MPD2     H  185   4.610   0.202  14.064  1.1636 -2.9914  1.9595
   12MPD2    H1  186   4.190   0.151  14.117  0.3565 -0.1102  0.7499
   12MPD2    H2  187   4.430   0.342  14.419  0.1753 -1.1175  0.9565
   12MPD2    H3  188   4.214   0.269  14.330 -1.0745  1.6613 -1.3067
   12MPD2     N  189   4.408   0.092  13.952  0.5216 -0.1872  0.9302
   12MPD2    H5  190   4.497   0.084  13.904  0.3156  2.1619  0.1495
   12MPD2    N1  191   4.665   0.325  14.288  0.2737  0.8563 -0.6954
   12MPD2    H7  192   0.021   0.301  14.227 -0.3357 -1.6241 -0.5051
   13TCq1    O1  193   0.085   0.489  11.023 -0.0005  0.4739 -0.2231
   13TCq1    C1  194   0.029   0.418  11.125 -0.2692 -0.3474  0.0981
   13TCq1    O2  195   4.711   0.466  11.231  0.0280  0.4264  0.9306
   13TCq1    C2  196   4.686   0.299  11.075 -0.1249  0.2582 -0.2576
   13TCq1    C3  197   0.022   0.240  10.964 -0.8634  0.1002 -0.1720
   13TCq1    C4  198   4.673   0.135  10.906 -0.4731 -0.3795  0.4907
   13TCq1    C5  199   4.550   0.096  10.946 -0.8750 -0.2404 -0.4509
   13TCq1    C6  200   4.491   0.171  11.046  0.6405  0.6868 -0.0807
   13TCq1    C7  201   4.560   0.268  11.115  0.3487  0.3114 -0.1116
   13TCq1    C8  202   4.362   0.137  11.102 -0.8685 -0.9431  0.2272
   13TCq1    O4  203   4.313   0.223  11.172 -0.3494 -0.3788  0.4837
   13TCq1    C9  204   0.003   0.092  10.779  1.0257  0.1860 -0.5283
   13TCq1    O5  205   4.649   0.027  10.701 -0.0221 -0.4842 -0.3392
   13TCq1    O6  206   0.115   0.130  10.745  0.0490  0.8427  0.4370
   13TCq1    H1  207   0.095   0.448  10.934  1.9617 -0.0004  0.1971
   13TCq1    H2  208   0.115   0.273  10.921 -0.3485  0.4292  1.1855
   13TCq1    H3  209   4.492   0.029  10.884 -0.4029 -1.1282  0.0622
   13TCq1    H4  210   4.507   0.328  11.188  0.5689  0.0581  0.2567
   14MPD2     C  211   4.155   4.567  11.014  0.3169 -1.0857  0.8008
   14MPD2    C1  212   4.189   4.680  11.086  0.2020  0.2532  0.9777
   14MPD2    C2  213   4.106   0.015  11.177 -0.2132  0.1031 -0.8687
   14MPD2    C3  214   3.987   4.679  11.199 -0.1744 -0.2184 -0.0854
   14MPD2    C4  215   3.945   4.563  11.140 -0.8680 -0.2758 -0.2541
   14MPD2    C5  216   4.029   4.514  11.040  0.0466 -0.2477 -0.2716
   14MPD2     H  217   4.139   0.102  11.233  3.1880 -2.0579  0.4652
   14MPD2    H1  218   3.847   4.516  11.150 -0.8231  0.0357  1.4781
   14MPD2    H2  219   4.220   4.520  10.941  0.3584 -0.8760  0.7002
   14MPD2    H3  220   3.998   4.427  10.983 -1.2043 -1.1131  1.7161
   14MPD2     N  221   3.914   0.025  11.307 -0.5408 -0.2460 -0.0900
   14MPD2    H5  222   3.933   0.120  11.337 -0.4384  0.1227 -1.3122
   14MPD2    N1  223   4.321   0.008  11.073 -0.4098 -0.0135  0.3574
   14MPD2    H7  224   4.382   4.684  11.006 -0.3567 -0.3602  0.6432
   15TCq1    O1  225   0.677   0.231   1.941 -0.6245  0.0713  0.1126
   15TCq1    C1  226   0.775   0.205   2.030  0.4272 -0.2467  0.5066
   15TCq1    O2  227   0.816   0.292   2.109 -0.4350 -0.0202  0.6182
   15TCq1    C2  228   0.812   0.061   2.023 -0.2744  0.1220 -0.4290
   15TCq1    C3  229   0.877   0.012   2.134  0.3895  0.5759 -0.3176
   15TCq1    C4  230   0.953   4.618   2.119  0.9150 -0.0885  0.7002
   15TCq1    C5  231   0.950   4.544   2.006 -0.7444  0.9609 -0.2823
   15TCq1    C6  232   0.881   4.597   1.896 -0.7966  0.7821 -0.4277
   15TCq1    C7  233   0.810   4.719   1.903 -0.6344  0.2832  0.0082
   15TCq1    C8  234   0.857   4.510   1.777  0.0927 -0.4775 -0.0213
   15TCq1    O4  235   0.932   4.414   1.764  0.3416  0.3952 -0.5500
   15TCq1    C9  236   1.033   4.576   2.230 -0.2424 -0.2458 -0.6976
   15TCq1    O5  237   1.053   4.662   2.319  0.0077 -0.3588  0.1900
   15TCq1    O6  238   1.118   4.487   2.209 -0.3176  0.6988 -0.1099
   15TCq1    H1  239   0.637   0.147   1.911 -1.3011  0.3259  0.2791
   15TCq1    H2  240   0.887   0.064   2.229 -1.2398 -0.4972  0.4345
   15TCq1    H3  241   1.017   4.459   1.993  0.9511  2.1710  0.6531
   15TCq1    H4  242   0.778   0.050   1.814 -0.4032  0.3664 -0.0233
   16MPD2     C  243   0.581   4.551   1.528 -0.1508 -0.5895 -0.0940
   16MPD2    C1  244   0.700   4.496   1.581  0.0201  0.2672 -0.3697
   16MPD2    C2  245   0.749   4.379   1.529  0.1209  0.2211  0.3423
   16MPD2    C3  246   0.684   4.318   1.419  0.2765 -0.3834 -0.1869
   16MPD2    C4  247   0.566   4.375   1.367 -0.0655  0.2551  0.5154
   16MPD2    C5  248   0.514   4.488   1.423  0.1589  0.0462 -0.0587
   16MPD2     H  249   0.820   4.316   1.581 -2.1827 -0.4110  2.7230
   16MPD2    H1  250   0.518   4.338   1.277  0.1301  0.1671  0.4467
   16MPD2    H2  251   0.526   4.626   1.583  1.3433 -1.1535  2.1793
   16MPD2    H3  252   0.422   4.532   1.386  1.0444  1.5586 -0.4750
   16MPD2     N  253   0.721   4.187   1.386 -0.1098 -0.1160  0.1699
   16MPD2    H5  254   0.803   4.155   1.438 -1.7776 -1.8583  1.7099
   16MPD2    N1  255   0.748   4.548   1.706 -1.0450  0.4077 -0.2574
   16MPD2    H7  256   0.701   4.625   1.752  0.0594  1.0318 -0.1966
   17TCq1    O1  257   4.001   4.577  11.587 -0.1008  0.0262  0.2114
   17TCq1    C1  258   4.118   4.648  11.573 -0.0587 -0.8492  0.2461
   17TCq1    O2  259   4.146   0.032  11.625 -0.3947 -0.3441 -0.1159
   17TCq1    C2  260   4.212   4.569  11.496 -0.3228 -0.8559  0.4096
   17TCq1    C3  261   4.168   4.467  11.410 -0.2135 -0.4466 -0.5224
   17TCq1    C4  262   4.260   4.398  11.333 -0.4792  0.9611 -0.9222
   17TCq1    C5  263   4.391   4.438  11.325 -0.4537  0.2598 -0.2207
   17TCq1    C6  264   4.426   4.546  11.409 -0.2657  0.2224 -0.8119
   17TCq1    C7  265   4.335   4.606  11.494  0.0771  0.1590  0.0947
   17TCq1    C8  266   4.547   4.630  11.386  0.1828  0.6490 -0.0534
   17TCq1    O4  267   4.579   4.718  11.465  0.0515 -0.2258 -0.4850
   17TCq1    C9  268   4.228   4.293  11.250  0.6720 -0.0304  0.2446
   17TCq1    O5  269   4.117   4.238  11.270  0.0490 -0.2384 -0.0109
   17TCq1    O6  270   4.313   4.272  11.159  0.2008  0.3927  0.0993
   17TCq1    H1  271   4.005   4.498  11.529 -1.4664  0.3536 -0.3412
   17TCq1    H2  272   4.065   4.439  11.395 -0.7783 -0.2088  3.1055
   17TCq1    H3  273   4.463   4.374  11.275  0.2718 -1.0257  2.4649
   17TCq1    H4  274   4.370   4.686  11.558 -1.3675 -1.2996  2.7443
   18MPD2     C  275   0.078   0.018  11.259 -0.0044 -0.2023 -0.4090
   18MPD2    C1  276   0.005   4.637  11.209 -0.2704 -0.0162  0.6114
   18MPD2    C2  277   0.055   4.575  11.094  0.4452  0.0960 -0.0153
   18MPD2    C3  278   0.177   4.611  11.039 -0.1610 -1.1424 -0.1328
   18MPD2    C4  279   0.243   4.721  11.094  0.6657  0.5164 -0.5326
   18MPD2    C5  280   0.191   0.062  11.194  0.1540  0.5575 -0.2434
   18MPD2     H  281   0.014   4.481  11.058  0.2620  0.5838 -1.0642
   18MPD2    H1  282   0.341   0.035  11.065  1.2423  0.1679  0.9803
   18MPD2    H2  283   0.036   0.073  11.343  0.0483  0.1905 -0.6362
   18MPD2    H3  284   0.241   0.147  11.240 -2.5372  1.0221  1.8177
   18MPD2     N  285   0.260   4.539  10.944 -0.4933  0.1928 -0.1476
   18MPD2    H5  286   0.356   4.568  10.928  0.2600 -2.6106 -0.6698
   18MPD2    N1  287   4.611   4.590  11.269  0.8155  0.8758 -0.5066
   18MPD2    H7  288   4.570   4.516  11.213  0.6819 -0.2825  1.1120
   19TMC2    C1  289   0.928   0.539  14.059 -0.3224  0.1656  0.5287
   19TMC2    C2  290   0.871   0.616  13.959 -0.0557  0.2289 -0.0942
   19TMC2    C3  291   0.754   0.568  13.909 -0.2293 -0.0460 -0.0604
   19TMC2    C4  292   0.871   0.422  14.099  0.0267  0.0890 -0.7794
   19TMC2    C5  293   0.761   0.377  14.042 -0.3589 -0.5263  0.3901
   19TMC2    C6  294   0.699   0.444  13.946 -0.4754 -0.1559  0.1331
   19TMC2     C  295   1.018   0.601  14.150  0.2148  1.0686 -0.9456
   19TMC2     O  296   1.085   0.693  14.099  0.0027  0.3901 -0.2176
   19TMC2     H  297   0.906   0.711  13.921  0.6447 -0.5155 -1.2915
   19TMC2    H1  298   0.932   0.357  14.161 -0.1578  0.3273 -0.3440
   19TMC2    H2  299   0.608   0.405  13.900 -1.3929  2.4009 -0.2520
   19TMC2    C7  300   0.717   0.244  14.051  0.2210  0.7947  0.4960
   19TMC2    C8  301   0.674   0.657  13.824  0.2020  0.4182 -0.0628
   19TMC2    O1  302   0.673   0.192  13.951  0.3714  0.0845  0.9901
   19TMC2    O2  303   0.689   0.778  13.819  0.2894  0.0962  0.1186
   19TMC2    O5  304   0.566   0.595  13.774 -0.3743 -0.0392 -0.2382
   19TMC2    H5  305   0.587   0.514  13.724  1.2392  0.9739 -1.1854
   20MPD2     C  306   1.177   0.704  14.375 -0.2802 -0.2177  0.4407
   20MPD2    C1  307   1.098   0.591  14.379  0.6196 -0.7152 -0.5156
   20MPD2    C2  308   1.102   0.516  14.498 -0.4899 -0.2457 -1.0695
   20MPD2    C3  309   1.199   0.541  14.599  0.2423  0.3520  0.3195
   20MPD2    C4  310   1.288   0.650  14.581  0.5533  0.4205 -0.4995
   20MPD2    C5  311   1.271   0.733  14.475 -0.3403 -0.5536 -0.2631
   20MPD2     H  312   1.036   0.434  14.524  0.6859 -0.2224  1.9780
   20MPD2    H1  313   1.363   0.666  14.657 -0.7595 -0.9479  1.0779
   20MPD2    H2  314   1.176   0.773  14.291  0.1059 -2.1551 -1.1736
   20MPD2    H3  315   1.337   0.819  14.469  0.5485 -1.1888  0.3641
   20MPD2     N  316   1.219   0.457  14.710  0.5322  0.9611 -0.1624
   20MPD2    H5  317   1.303   0.479  14.763  1.0045 -1.3651  0.0435
   20MPD2    N1  318   1.006   0.553  14.277 -0.7503 -0.0182 -0.1357
   20MPD2    H7  319   0.950   0.475  14.308 -0.3693 -0.1742  0.1510
   21MPD2     C  320   3.136   0.678  14.410 -0.1337 -0.1366  0.3805
   21MPD2    C1  321   3.129   0.540  14.431 -0.2348  0.2579 -0.6216
   21MPD2    C2  322   3.008   0.479  14.454  0.6597 -0.5489  0.0205
   21MPD2    C3  323   2.897   0.555  14.474  0.1380 -0.0301  0.0446
   21MPD2    C4  324   2.897   0.689  14.446  0.1324  0.1511 -0.4746
   21MPD2    C5  325   3.017   0.756  14.422  0.2065  0.5389 -1.0063
   21MPD2     H  326   2.997   0.372  14.457 -0.6654 -0.3845  1.3211
   21MPD2    H1  327   2.808   0.750  14.450  1.3318  1.8464  0.6596
   21MPD2    H2  328   3.226   0.738  14.397 -0.2386  0.2870  1.5448
   21MPD2    H3  329   3.014   0.863  14.408 -0.6232  0.6259 -0.1730
   21MPD2     N  330   2.771   0.503  14.506  0.9349  0.2130 -0.4418
   21MPD2    H5  331   2.697   0.572  14.497 -0.4580 -0.8906  2.4761
   21MPD2    N1  332   3.246   0.462  14.418 -0.4718  0.6804 -0.1108
   21MPD2    H7  333   3.227   0.363  14.435  0.7600  0.1914 -1.6336
   22TCq2    C1  334   2.735   0.374  14.532  0.3755 -0.9530 -0.3416
   22TCq2    O2  335   2.794   0.270  14.519  0.3721 -0.2147  0.5153
   22TCq2    C2  336   2.593   0.357  14.516  0.0744  0.2357  0.9302
   22TCq2    C3  337   2.541   0.237  14.477  0.1407  0.1325 -0.0823
   22TCq2    C4  338   2.408   0.216  14.493 -0.1298 -0.0688 -0.3536
   22TCq2    C5  339   2.322   0.306  14.554 -0.0135  1.3651  0.2417
   22TCq2    C6  340   2.381   0.421  14.595 -0.8319  0.3138 -0.8963
   22TCq2    C7  341   2.516   0.446  14.584  0.3644  0.1061 -0.2551
   22TCq2    C8  342   2.288   0.516  14.653 -0.3804  0.0512  0.3926
   22TCq2    O4  343   2.171   0.519  14.616 -0.3495  0.5589 -0.1973
   22TCq2    C9  344   2.356   0.086  14.464 -0.0564 -0.1192  0.4439
   22TCq2    O5  345   2.441   0.002  14.412  0.0308 -0.4994 -0.1903
   22TCq2    O6  346   2.248   0.052  14.516  0.2155 -0.1275 -0.1026
   22TCq2    H2  347   2.601   0.167  14.419 -1.9213 -0.9885 -0.8420
   22TCq2    H3  348   2.218   0.279  14.564  0.9854 -1.4826  2.7567
   22TCq2    H4  349   2.560   0.540  14.613  0.1645  0.4416 -1.0369
   23MPD2     C  350   4.405   1.283  15.151 -0.1529  0.2512  0.1080
   23MPD2    C1  351   4.334   1.237  15.259  0.6910  0.1229 -0.3553
   23MPD2    C2  352   4.195   1.220  15.244  0.4072 -0.7696  0.3360
   23MPD2    C3  353   4.129   1.250  15.125  0.3708  0.4735 -0.7305
   23MPD2    C4  354   4.209   1.290  15.015 -0.2747 -0.4124  0.5882
   23MPD2    C5  355   4.344   1.304  15.033 -0.2698 -0.2941  0.4424
   23MPD2     H  356   4.146   1.180  15.331 -0.5224  1.7750  0.9933
   23MPD2    H1  357   4.168   1.323  14.921 -0.0631 -1.8061  0.0171
   23MPD2    H2  358   4.509   1.311  15.166 -0.1781  0.1307  0.4922
   23MPD2    H3  359   4.399   1.336  14.945  0.6319  0.3585  1.2376
   23MPD2     N  360   3.992   1.238  15.104  0.2760 -0.3872 -0.0751
   23MPD2    H5  361   3.954   1.244  15.011  0.4935  2.3182  0.0084
   23MPD2    N1  362   4.397   1.229  15.386 -0.5546  0.6726 -0.3351
   23MPD2    H7  363   4.355   1.183  15.466  2.6362 -2.1564 -0.2815
   24TCq2    C1  364   3.908   1.193  15.203  0.4416  0.0062  0.5439
   24TCq2    O2  365   3.920   1.181  15.323  0.4859 -0.3956  0.6502
   24TCq2    C2  366   3.787   1.147  15.142  0.0635  0.3118  0.3685
   24TCq2    C3  367   3.811   1.094  15.013  0.2155  0.6866 -0.1401
   24TCq2    C4  368   3.712   1.107  14.920  0.4320 -0.3679 -0.4093
   24TCq2    C5  369   3.601   1.182  14.952 -0.7164 -0.1987 -0.3753
   24TCq2    C6  370   3.575   1.226  15.081  0.7088 -0.2147  0.3567
   24TCq2    C7  371   3.671   1.210  15.180 -0.3540  0.5537  0.2859
   24TCq2    C8  372   3.438   1.221  15.137  0.1774 -0.0368 -0.7075
   24TCq2    O4  373   3.419   1.270  15.247 -0.1357 -0.4162  0.1919
   24TCq2    C9  374   3.732   1.058  14.785 -0.1576 -0.7468 -0.6591
   24TCq2    O5  375   3.640   1.093  14.702  0.2673 -0.2076  0.1885
   24TCq2    O6  376   3.838   0.993  14.764 -0.5328  0.1212 -0.0255
   24TCq2    H2  377   3.902   1.046  14.979  0.3079 -0.8510  2.3390
   24TCq2    H3  378   3.531   1.200  14.872  0.1946  0.4166 -1.0361
   24TCq2    H4  379   3.658   1.235  15.284  1.0803  1.1324  0.3337
   25TMC2    C1  380   2.838   4.231  11.696  0.1290  0.8300  0.5398
   25TMC2    C2  381   2.778   4.356  11.688  0.8884 -0.1975 -0.7285
   25TMC2    C3  382   2.738   4.422  11.798 -0.2956  0.6079 -0.6747
   25TMC2    C4  383   2.868   4.182  11.821  0.1428 -0.1139  0.4440
   25TMC2    C5  384   2.816   4.245  11.927 -0.0435  0.0505 -0.6096
   25TMC2    C6  385   2.746   4.363  11.912 -0.3547 -0.2005  0.5869
   25TMC2     C  386   2.868   4.164  11.569 -0.0454  0.4554  0.0064
   25TMC2     O  387   2.828   4.222  11.472  0.1675  0.1337  0.2097
   25TMC2     H  388   2.739   4.382  11.590 -0.1750  1.8390  0.2433
   25TMC2    H1  389   2.929   4.097  11.848  0.3603  0.1576  0.8029
   25TMC2    H2  390   2.699   4.418  11.992 -0.0792 -0.6395  1.0475
   25TMC2    C7  391   2.861   4.196  12.057  0.2998 -0.4207  0.1437
   25TMC2    C8  392   2.629   4.525  11.775  0.2770 -0.0628  0.3565
   25TMC2    O1  393   2.891   4.081  12.077  0.2310  0.1620 -0.7956
   25TMC2    O2  394   2.553   4.544  11.866 -0.2893 -0.2600 -0.3355
   25TMC2    O5  395   2.598   4.540  11.643  0.0955 -0.3489 -0.3934
   25TMC2    H5  396   2.676   4.557  11.585  1.9789 -2.5369  1.4737
   26MPD2     C  397   3.062   3.770  11.298  1.1829  0.0824 -0.5275
   26MPD2    C1  398   3.069   3.733  11.428  0.5116 -0.0801 -0.0680
   26MPD2    C2  399   3.025   3.828  11.522 -0.1798  0.0124  0.7207
   26MPD2    C3  400   2.968   3.947  11.485 -0.6390 -0.1857  0.1528
   26MPD2    C4  401   2.958   3.980  11.348 -0.0659  0.3710 -1.0704
   26MPD2    C5  402   3.014   3.894  11.259 -0.1208  0.5563 -0.3334
   26MPD2     H  403   3.039   3.809  11.627 -1.6215 -1.1984  0.6940
   26MPD2    H1  404   2.923   4.076  11.311 -0.1234  0.6310 -0.3451
   26MPD2    H2  405   3.093   3.699  11.222 -1.9013 -2.2278  0.3387
   26MPD2    H3  406   3.010   3.917  11.153 -0.7485  2.5283  0.1293
   26MPD2     N  407   2.927   4.038  11.586  0.2344 -0.5439 -0.3755
   26MPD2    H5  408   2.935   4.006  11.682  0.4247 -0.3190 -0.3161
   26MPD2    N1  409   3.117   3.608  11.462 -0.1099  0.2424 -0.5490
   26MPD2    H7  410   3.166   3.553  11.392  0.0802 -1.8232  1.1880
   27TMC2    C1  411   1.930   0.787  11.951 -0.0090 -0.2190 -0.0619
   27TMC2    C2  412   1.948   0.800  11.820 -0.5427  0.2104 -0.4425
   27TMC2    C3  413   2.040   0.891  11.777  1.1766  0.1686 -0.6089
   27TMC2    C4  414   1.999   0.851  12.051  0.2626 -0.3342 -0.3775
   27TMC2    C5  415   2.092   0.938  12.000 -0.1848  0.1638 -0.0341
   27TMC2    C6  416   2.115   0.964  11.870 -0.7222  0.7015 -0.2225
   27TMC2     C  417   1.816   0.712  11.994  0.7204  0.6000 -0.3690
   27TMC2     O  418   1.768   0.627  11.922  0.0220  0.0995 -0.0071
   27TMC2     H  419   1.884   0.742  11.755  2.1940 -2.4402 -0.7819
   27TMC2    H1  420   1.995   0.831  12.157  0.5789  1.1544 -0.0973
   27TMC2    H2  421   2.189   1.038  11.844 -0.0832  0.2203  0.2213
   27TMC2    C7  422   2.160   1.024  12.091  0.4448 -0.4138 -0.1882
   27TMC2    C8  423   2.063   0.903  11.636 -0.3091  0.3492 -0.5554
   27TMC2    O1  424   2.179   0.977  12.202 -0.5959  0.1383  0.3559
   27TMC2    O2  425   2.099   0.813  11.563 -0.1280  0.4889  0.2203
   27TMC2    O5  426   2.044   1.031  11.598 -0.3337  0.1111  0.5734
   27TMC2    H5  427   2.017   1.084  11.676 -0.1465  3.1417 -1.4222
   28MPD2     C  428   1.578   0.563  12.426  0.1988  0.0478 -0.6236
   28MPD2    C1  429   1.606   0.705  12.432 -0.3936  0.0126  0.4594
   28MPD2    C2  430   1.656   0.764  12.318 -0.4854  0.0191 -1.0475
   28MPD2    C3  431   1.690   0.691  12.208 -0.0411  0.1986 -0.2201
   28MPD2    C4  432   1.659   0.557  12.199 -0.4335  0.7107 -0.1575
   28MPD2    C5  433   1.609   0.498  12.312  0.8573  0.2498  0.6756
   28MPD2     H  434   1.678   0.870  12.321 -1.1277  0.1145  0.5510
   28MPD2    H1  435   1.686   0.508  12.106  0.1554  1.5589 -0.4357
   28MPD2    H2  436   1.539   0.506  12.510  0.5637  0.6701 -0.0373
   28MPD2    H3  437   1.614   0.390  12.308  1.9338  0.3100  0.3454
   28MPD2     N  438   1.768   0.761  12.114 -0.4391  0.0108  0.5561
   28MPD2    H5  439   1.785   0.859  12.136  0.1268  0.0861 -0.2490
   28MPD2    N1  440   1.560   0.783  12.540  0.5104 -0.7705 -0.6584
   28MPD2    H7  441   1.492   0.745  12.604 -0.0411 -0.4451 -1.0479
   29MPD2     C  442   1.940   3.323  14.263 -0.3781 -1.1542 -0.1768
   29MPD2    C1  443   2.077   3.349  14.269  0.2206  0.8687 -0.1117
   29MPD2    C2  444   2.123   3.474  14.302  0.1391 -0.1171  0.7534
   29MPD2    C3  445   2.039   3.576  14.329  0.6173 -0.5210  0.2245
   29MPD2    C4  446   1.902   3.549  14.307 -0.5656  0.0828 -0.2517
   29MPD2    C5  447   1.855   3.428  14.275  0.1001  0.3340  0.2953
   29MPD2     H  448   2.230   3.491  14.305  0.1118  0.1777  0.1321
   29MPD2    H1  449   1.837   3.631  14.336  1.6754  1.4130  0.9978
   29MPD2    H2  450   1.906   3.221  14.248  3.2469 -2.2326 -1.1208
   29MPD2    H3  451   1.752   3.405  14.252  0.5767 -0.3264 -1.1859
   29MPD2     N  452   2.089   3.704  14.366 -0.1506  0.1325  0.0787
   29MPD2    H5  453   2.022   3.780  14.375  0.7068  0.7055  1.6773
   29MPD2    N1  454   2.168   3.241  14.256 -0.5206 -0.5634 -0.5257
   29MPD2    H7  455   2.262   3.263  14.287 -0.8890 -0.9889  0.8980
   30TCq2    C1  456   2.218   3.738  14.395 -0.1515 -0.1031 -0.0404
   30TCq2    O2  457   2.324   3.673  14.397  0.5008  0.4131 -0.0599
   30TCq2    C2  458   2.218   3.875  14.441  0.2960  0.3667 -0.8631
   30TCq2    C3  459   2.318   3.949  14.392 -0.4135 -1.1089  0.1660
   30TCq2    C4  460   2.310   4.083  14.425  0.8669  0.3263 -0.4660
   30TCq2    C5  461   2.219   4.134  14.512  0.3985  0.0845  0.7386
   30TCq2    C6  462   2.120   4.054  14.556 -0.6510 -0.5275 -0.3037
   30TCq2    C7  463   2.115   3.923  14.508  1.0896  0.0445  0.0161
   30TCq2    C8  464   2.005   4.095  14.633 -0.0194 -0.2145  0.2579
   30TCq2    O4  465   1.918   4.018  14.665  0.8224  0.2539  0.1096
   30TCq2    C9  466   2.411   4.173  14.373 -0.3145  0.1548  0.1269
   30TCq2    O5  467   2.499   4.118  14.303  0.1146  0.2142  0.9408
   30TCq2    O6  468   2.412   4.289  14.415 -0.3595 -0.8204  0.0458
   30TCq2    H2  469   2.397   3.906  14.331  0.8850 -0.2742  1.2564
   30TCq2    H3  470   2.238   4.238  14.533  0.1219 -0.1556  2.1537
   30TCq2    H4  471   2.028   3.862  14.529  2.0143 -0.4612  2.4673
   31MPD2     C  472   4.536   2.454  15.037  0.1265 -0.2935  0.2812
   31MPD2    C1  473   4.462   2.396  14.933  0.1874 -0.1667  0.4788
   31MPD2    C2  474   4.352   2.312  14.963 -0.0775 -0.0268  0.0777
   31MPD2    C3  475   4.325   2.281  15.100 -0.3425 -0.2261  0.4847
   31MPD2    C4  476   4.416   2.327  15.199 -0.8859  0.2020 -0.0732
   31MPD2    C5  477   4.516   2.412  15.166  0.3888  0.1665 -0.2735
   31MPD2     H  478   4.297   2.272  14.878 -1.6891 -1.2621  1.6891
   31MPD2    H1  479   4.402   2.299  15.303 -2.5622 -3.5408 -1.3376
   31MPD2    H2  480   4.613   2.524  15.005 -1.6319  0.9142 -1.2873
   31MPD2    H3  481   4.571   2.452  15.250  1.9054  0.4676 -1.4190
   31MPD2     N  482   4.208   2.213  15.142 -0.0957 -0.2986 -0.5175
   31MPD2    H5  483   4.205   2.204  15.243 -0.0156 -0.1723 -0.5034
   31MPD2    N1  484   4.484   2.452  14.805  0.2606 -0.3443 -0.1019
   31MPD2    H7  485   4.567   2.510  14.794 -0.8691  0.9196 -2.0879
   32TCq2    C1  486   4.098   2.188  15.052 -0.9188 -0.2283 -0.1859
   32TCq2    O2  487   4.083   2.205  14.931 -0.1650 -0.3829  0.4670
   32TCq2    C2  488   3.987   2.127  15.121  0.5792  0.3519  0.1676
   32TCq2    C3  489   3.862   2.135  15.062 -0.2374 -0.3167 -0.1110
   32TCq2    C4  490   3.758   2.086  15.136 -0.3603 -0.1733 -0.3597
   32TCq2    C5  491   3.777   2.028  15.261 -0.0993  0.0304 -0.1246
   32TCq2    C6  492   3.908   2.010  15.300 -0.2406 -0.0324  0.2213
   32TCq2    C7  493   4.016   2.061  15.235 -0.2917 -0.1510 -0.6186
   32TCq2    C8  494   3.937   1.968  15.437  0.1607  0.3439 -0.0959
   32TCq2    O4  495   4.051   1.929  15.464  0.7659 -0.6417 -0.1369
   32TCq2    C9  496   3.629   2.094  15.076  0.4509 -0.4809 -0.0387
   32TCq2    O5  497   3.613   2.167  14.971 -0.4050 -0.1295 -0.2652
   32TCq2    O6  498   3.537   2.038  15.138  0.4515 -0.6237 -0.0369
   32TCq2    H2  499   3.852   2.203  14.978  0.7332  1.6975  1.4093
   32TCq2    H3  500   3.690   1.979  15.303 -0.7799  3.0755  1.9911
   32TCq2    H4  501   4.115   2.033  15.271 -0.0959  3.4436  1.5585
   33MPD2     C  502   4.713   4.049  10.400 -0.1745  0.6153 -0.1485
   33MPD2    C1  503   0.113   4.108  10.367 -0.1727  0.5590 -0.6613
   33MPD2    C2  504   0.136   4.133  10.231 -0.3363 -0.6179 -0.1320
   33MPD2    C3  505   0.034   4.101  10.137 -0.0117 -0.2442  0.1168
   33MPD2    C4  506   4.629   4.064  10.179  0.1799  0.3056  0.3490
   33MPD2    C5  507   4.612   4.025  10.307 -0.3813  0.8287 -0.1234
   33MPD2     H  508   0.219   4.198  10.210 -1.1346  0.7740  1.0307
   33MPD2    H1  509   4.541   4.046  10.119 -0.6544  1.5697  1.2067
   33MPD2    H2  510   4.684   4.008  10.496 -0.7958  0.1039 -0.5512
   33MPD2    H3  511   4.530   3.960  10.337  0.4590 -0.0977  0.1737
   33MPD2     N  512   0.041   4.128  10.002  0.1081 -0.6279  0.6873
   33MPD2    H5  513   4.683   4.098   9.946  0.0828  2.2061 -0.8390
   33MPD2    N1  514   0.191   4.150  10.476 -0.1082  0.1129  0.4385
   33MPD2    H7  515   0.149   4.150  10.569  2.3393 -2.1263  1.5361
   34TCq2    C1  516   0.130   4.220   9.949  0.1509  0.1992  0.3511
   34TCq2    O2  517   0.225   4.271  10.001  0.4230 -0.5664  0.2281
   34TCq2    C2  518   0.106   4.247   9.810  0.7586 -0.5472  0.4810
   34TCq2    C3  519   0.035   4.156   9.731 -0.3855  0.4133 -0.3836
   34TCq2    C4  520   0.030   4.192   9.597 -0.5255 -0.0560  0.5627
   34TCq2    C5  521   0.103   4.296   9.547  0.7793 -0.5617 -0.4720
   34TCq2    C6  522   0.192   4.364   9.627  0.0317 -0.4217 -0.3632
   34TCq2    C7  523   0.188   4.344   9.764  0.5804  0.1832  0.4459
   34TCq2    C8  524   0.282   4.462   9.577  0.1945  0.5380  0.3123
   34TCq2    O4  525   0.359   4.510   9.659  0.2240 -0.1583 -0.1177
   34TCq2    C9  526   4.660   4.114   9.511  0.1659 -0.5493  0.1755
   34TCq2    O5  527   4.639   3.998   9.554  0.0763  0.2364  0.1321
   34TCq2    O6  528   4.639   4.148   9.397 -0.5107  0.0675  0.1655
   34TCq2    H2  529   4.701   4.068   9.761  1.5558 -1.4713 -2.3365
   34TCq2    H3  530   0.099   4.306   9.439 -0.5666  0.9278 -0.2852
   34TCq2    H4  531   0.243   4.410   9.831  1.1576  2.1049 -1.9212
   35MPD2     C  532   1.756   1.457  11.964 -0.9258  0.5508 -0.1309
   35MPD2    C1  533   1.649   1.374  11.959 -0.6037  0.3761  0.2331
   35MPD2    C2  534   1.595   1.346  11.835 -0.4239  0.0780 -0.2480
   35MPD2    C3  535   1.649   1.409  11.725  0.1822 -0.5861 -0.4189
   35MPD2    C4  536   1.763   1.489  11.735  0.3271 -0.1204 -0.5980
   35MPD2    C5  537   1.814   1.510  11.858  0.1004 -0.0495 -0.2183
   35MPD2     H  538   1.501   1.293  11.828  0.9173 -2.3178 -0.2549
   35MPD2    H1  539   1.804   1.554  11.659 -1.3711 -0.0983 -1.4748
   35MPD2    H2  540   1.799   1.477  12.061 -3.1084 -0.6522  1.0699
   35MPD2    H3  541   1.893   1.580  11.885  0.1795  0.0599 -0.7222
   35MPD2     N  542   1.583   1.411  11.597  0.2633 -0.4955 -0.8691
   35MPD2    H5  543   1.609   1.474  11.522 -0.8263 -0.9090 -1.5831
   35MPD2    N1  544   1.590   1.322  12.077  0.1114 -0.0805  0.1153
   35MPD2    H7  545   1.626   1.357  12.165 -0.0800  2.5191 -0.8151
   36TCq2    C1  546   1.493   1.313  11.562  0.2348 -0.4408 -0.0474
   36TCq2    O2  547   1.458   1.209  11.622 -0.3965 -0.1759 -0.0092
   36TCq2    C2  548   1.432   1.337  11.434 -0.4691  0.2834  0.3239
   36TCq2    C3  549   1.495   1.409  11.337 -0.0547  0.4019 -0.7765
   36TCq2    C4  550   1.444   1.394  11.213 -0.3385 -0.0724 -0.6765
   36TCq2    C5  551   1.331   1.323  11.185 -0.0081  0.2240  0.0781
   36TCq2    C6  552   1.271   1.255  11.283  0.0188 -0.1077  0.1780
   36TCq2    C7  553   1.326   1.260  11.410 -0.5538  0.6335  0.1132
   36TCq2    C8  554   1.169   1.156  11.256  0.2403 -0.4931 -0.3975
   36TCq2    O4  555   1.098   1.170  11.158  0.0917 -0.2265 -0.8275
   36TCq2    C9  556   1.485   1.486  11.110  0.5783 -0.2668 -0.1983
   36TCq2    O5  557   1.408   1.500  11.010  0.0586 -0.2139 -0.5272
   36TCq2    O6  558   1.586   1.562  11.124 -0.0995  0.3726  0.3629
   36TCq2    H2  559   1.580   1.474  11.355  1.0636 -1.7459  1.5571
   36TCq2    H3  560   1.274   1.332  11.093  2.4545  0.0868 -1.4687
   36TCq2    H4  561   1.283   1.207  11.494  0.4369 -2.0674 -1.1083
   37TMC2    C1  562   3.434   2.337  11.604 -0.0731 -0.4520  0.4169
   37TMC2    C2  563   3.406   2.349  11.471 -0.2024 -0.4594  0.1385
   37TMC2    C3  564   3.514   2.355  11.385  0.1482 -0.1926 -0.2718
   37TMC2    C4  565   3.562   2.326  11.649  0.6507  0.2855 -0.0994
   37TMC2    C5  566   3.663   2.330  11.559  0.2619 -0.7805  0.5238
   37TMC2    C6  567   3.643   2.339  11.426  0.1301  0.4943  0.2448
   37TMC2     C  568   3.322   2.319  11.696 -0.3922 -0.0270 -0.1537
   37TMC2     O  569   3.208   2.318  11.649  0.0704  0.2704 -0.1616
   37TMC2     H  570   3.304   2.374  11.442 -0.2870 -2.1824 -1.0812
   37TMC2    H1  571   3.590   2.332  11.753 -1.2762 -0.6046  0.4695
   37TMC2    H2  572   3.727   2.333  11.357 -0.6406 -0.3897 -0.6207
   37TMC2    C7  573   3.798   2.289  11.602 -0.4931  0.4048  0.3334
   37TMC2    C8  574   3.485   2.380  11.249  0.4815  0.5154 -0.8583
   37TMC2    O1  575   3.848   2.328  11.706  0.1795 -0.3854  0.4356
   37TMC2    O2  576   3.372   2.421  11.223 -0.2568 -0.3960  0.0311
   37TMC2    O5  577   3.553   2.287  11.171  0.3416 -0.4851  0.1725
   37TMC2    H5  578   3.631   2.243  11.211  0.0188 -2.3102 -1.2147
   38MPD2     C  579   3.150   2.187  12.159  0.2192  0.3006  0.0156
   38MPD2    C1  580   3.284   2.155  12.149  0.0916  0.7303 -0.6405
   38MPD2    C2  581   3.355   2.200  12.038 -0.4082  0.4135 -0.4468
   38MPD2    C3  582   3.289   2.253  11.929  0.2792  0.6603 -0.0677
   38MPD2    C4  583   3.158   2.297  11.949 -0.1112  0.4374  0.3281
   38MPD2    C5  584   3.086   2.253  12.057  0.4664 -0.5097  0.3841
   38MPD2     H  585   3.462   2.180  12.029 -0.3043  0.7109  0.1166
   38MPD2    H1  586   3.095   2.355  11.883 -0.9968 -1.4480 -0.5000
   38MPD2    H2  587   3.091   2.162  12.246  1.0752 -0.0950  0.4709
   38MPD2    H3  588   2.982   2.282  12.060  0.9537  1.4824 -1.8806
   38MPD2     N  589   3.365   2.276  11.814 -0.5763  0.4223 -0.3011
   38MPD2    H5  590   3.463   2.253  11.823 -0.2795  0.8212 -2.4483
   38MPD2    N1  591   3.371   2.077  12.237  0.1202 -0.0911  0.2001
   38MPD2    H7  592   3.471   2.065  12.224  0.2399 -0.0597  1.0528
   39MPD2     C  593   1.311   3.168   1.564 -0.3554  0.3946  0.2955
   39MPD2    C1  594   1.233   3.216   1.665 -0.0702  0.3418  0.8694
   39MPD2    C2  595   1.104   3.268   1.638 -0.2413 -0.3755  0.1610
   39MPD2    C3  596   1.054   3.261   1.507 -0.1108 -0.3695 -0.1501
   39MPD2    C4  597   1.138   3.217   1.409 -0.2659  0.3610  0.6369
   39MPD2    C5  598   1.265   3.170   1.437  0.0162 -0.1371  0.4761
   39MPD2     H  599   1.046   3.313   1.718  0.2345  0.4328  0.0516
   39MPD2    H1  600   1.119   3.238   1.304  0.1829 -0.1051  0.4648
   39MPD2    H2  601   1.408   3.123   1.582  0.4459  0.9793 -2.6348
   39MPD2    H3  602   1.329   3.140   1.355  0.0852  1.8759 -0.1989
   39MPD2     N  603   0.922   3.307   1.466  0.2801 -0.3067  0.2300
   39MPD2    H5  604   0.894   3.293   1.370  1.5418  2.6718 -0.5889
   39MPD2    N1  605   1.298   3.217   1.793 -0.5375  0.5889 -0.7604
   39MPD2    H7  606   1.388   3.170   1.798 -0.1274  1.4215 -0.3039
   40TCq2    C1  607   1.231   3.240   1.913  0.0547  0.0793 -0.0343
   40TCq2    O2  608   1.113   3.260   1.930  0.4862 -0.0376  0.0097
   40TCq2    C2  609   1.321   3.216   2.030 -0.0487 -0.2180  0.1080
   40TCq2    C3  610   1.261   3.148   2.130  0.1391  0.0873 -0.4939
   40TCq2    C4  611   1.341   3.096   2.227  0.7697 -0.5216 -0.0749
   40TCq2    C5  612   1.474   3.120   2.228  0.3408 -0.3434 -0.2670
   40TCq2    C6  613   1.526   3.188   2.117  0.0571  0.0391  0.5104
   40TCq2    C7  614   1.455   3.239   2.019 -0.2795 -0.4473 -0.9060
   40TCq2    C8  615   1.666   3.209   2.124 -0.2883  0.2345 -0.4932
   40TCq2    O4  616   1.732   3.152   2.213  0.2350  0.1853 -0.1548
   40TCq2    C9  617   1.290   3.018   2.338  0.0708  0.1810 -0.3038
   40TCq2    O5  618   1.163   3.018   2.350 -0.0011  0.1159  0.0818
   40TCq2    O6  619   1.373   2.961   2.410  0.5732 -0.1718 -0.1518
   40TCq2    H2  620   1.159   3.112   2.120  0.4450 -1.3639  1.5916
   40TCq2    H3  621   1.544   3.087   2.304  0.4705 -0.7062 -0.5393
   40TCq2    H4  622   1.500   3.279   1.929 -0.7746 -0.7239 -1.2788
   41TMC2    C1  623   0.695   1.767  13.847  0.3320 -0.0156  0.1369
   41TMC2    C2  624   0.554   1.794  13.853  0.3819 -0.2594 -0.0696
   41TMC2    C3  625   0.495   1.860  13.744 -0.3505 -0.2538  0.1761
   41TMC2    C4  626   0.775   1.792  13.737  0.9290 -0.3342  0.4307
   41TMC2    C5  627   0.705   1.846  13.633  0.0049 -0.0254  0.3628
   41TMC2    C6  628   0.574   1.889  13.636  0.6403 -0.0521  0.9162
   41TMC2     C  629   0.756   1.690  13.953  0.8597 -0.4254 -0.1402
   41TMC2     O  630   0.822   1.596  13.913 -0.5968  0.0075 -0.1399
   41TMC2     H  631   0.513   1.798  13.953 -0.1040  0.3009 -0.2874
   41TMC2    H1  632   0.877   1.755  13.731  1.4988  1.3827 -0.6283
   41TMC2    H2  633   0.528   1.943  13.553 -0.1751 -1.8175  0.2189
   41TMC2    C7  634   0.785   1.904  13.530  0.1214  0.8167 -0.2154
   41TMC2    C8  635   0.378   1.929  13.767  0.1561  0.0361 -0.0271
   41TMC2    O1  636   0.760   2.021  13.504  0.4621  0.4943 -0.4053
   41TMC2    O2  637   0.351   1.971  13.879  0.4377 -0.3133  0.1615
   41TMC2    O5  638   0.290   1.889  13.676  0.1942 -0.0624  0.1986
   41TMC2    H5  639   0.322   1.828  13.606 -0.3791 -0.0885 -0.0337
   42MPD2     C  640   0.809   1.541  14.218 -0.6277  0.8469 -0.0119
   42MPD2    C1  641   0.733   1.659  14.198  0.0245  0.5311  0.0012
   42MPD2    C2  642   0.670   1.717  14.308 -0.0006  0.3193 -0.5799
   42MPD2    C3  643   0.671   1.661  14.432  0.0957 -0.3132  0.0691
   42MPD2    C4  644   0.735   1.541  14.445  0.1882 -0.0554  1.0747
   42MPD2    C5  645   0.810   1.488  14.341 -0.2428  0.0046  0.0965
   42MPD2     H  646   0.604   1.802  14.294  1.3073  1.0866 -2.0637
   42MPD2    H1  647   0.730   1.489  14.540 -0.6390 -0.9839  0.5251
   42MPD2    H2  648   0.862   1.484  14.143  2.2020  1.5582  1.4578
   42MPD2    H3  649   0.871   1.399  14.352 -3.2511 -2.1011 -0.5994
   42MPD2     N  650   0.614   1.711  14.553  0.7427 -0.2811  0.2462
   42MPD2    H5  651   0.606   1.648  14.632  1.7681 -1.7522 -0.8191
   42MPD2    N1  652   0.709   1.723  14.080  0.2597 -0.4583 -0.8009
   42MPD2    H7  653   0.639   1.797  14.079  1.0041  0.2396 -0.4810
   43MPD2     C  654   1.312   4.694   1.129 -0.0385  0.3981  0.7441
   43MPD2    C1  655   1.413   4.612   1.181  0.1128  0.0632 -0.3466
   43MPD2    C2  656   1.469   4.644   1.301  1.1756  0.2160  0.7321
   43MPD2    C3  657   1.437   0.043   1.364 -0.2159  0.2489 -0.4252
   43MPD2    C4  658   1.327   0.112   1.316  0.1752  0.2470  0.7564
   43MPD2    C5  659   1.266   0.084   1.200 -0.2353 -0.4910  0.1606
   43MPD2     H  660   1.555   4.587   1.332  1.2556 -0.2081 -0.2859
   43MPD2    H1  661   1.302   0.205   1.366  1.1197  0.8181  0.1636
   43MPD2    H2  662   1.272   4.669   1.031 -1.0629 -0.4493  1.3762
   43MPD2    H3  663   1.200   0.149   1.145  1.8351  0.0303 -1.6651
   43MPD2     N  664   1.491   0.086   1.481 -0.1168  0.2585 -0.3129
   43MPD2    H5  665   1.462   0.177   1.516 -1.7917 -0.7047  0.7880
   43MPD2    N1  666   1.483   4.509   1.113  0.2546 -0.0716 -0.2727
   43MPD2    H7  667   1.566   4.474   1.160 -0.1144 -0.0126  0.4192
   44TCq2    C1  668   1.655   0.423   1.796 -0.1031 -0.2408 -0.1627
   44TCq2    O2  669   1.607   0.482   1.889 -0.1918  0.1994 -0.1351
   44TCq2    C2  670   1.624   0.284   1.793 -0.8433 -0.4750  0.1953
   44TCq2    C3  671   1.629   0.213   1.916  0.5340 -0.2863  1.0572
   44TCq2    C4  672   1.619   0.076   1.913  0.7193  0.4672  0.5838
   44TCq2    C5  673   1.618   0.015   1.795 -0.2078 -0.0785 -0.0323
   44TCq2    C6  674   1.613   0.086   1.679  0.8995 -0.2087  0.8072
   44TCq2    C7  675   1.611   0.221   1.676 -1.1458  0.1288 -0.2403
   44TCq2    C8  676   1.579   0.015   1.563  0.1589 -0.2327 -0.1500
   44TCq2    O4  677   1.630   4.625   1.554 -0.6981  0.8124  0.0685
   44TCq2    C9  678   1.629   0.004   2.035 -0.0639 -0.2430  0.5373
   44TCq2    O5  679   1.678   4.608   2.035 -0.0246 -0.2110 -0.3977
   44TCq2    O6  680   1.610   0.072   2.136  0.3526  0.2518 -0.0634
   44TCq2    H2  681   1.640   0.274   2.005 -0.8530  2.0045 -0.3358
   44TCq2    H3  682   1.605   4.630   1.791 -2.0131  0.0382  2.4244
   44TCq2    H4  683   1.588   0.275   1.585  1.4993  2.8423  0.7042
   45TMC2    C1  684   4.422   1.790  10.327 -0.5999  0.8683 -0.8402
   45TMC2    C2  685   4.553   1.813  10.300  0.1750 -0.0550 -0.4406
   45TMC2    C3  686   4.591   1.941  10.286  0.4805 -0.5113 -0.1216
   45TMC2    C4  687   4.336   1.888  10.356  0.4614 -0.0677 -0.0017
   45TMC2    C5  688   4.381   2.015  10.340 -0.0370 -0.7414 -0.1481
   45TMC2    C6  689   4.510   2.043  10.311  0.5534 -0.1775  0.1745
   45TMC2     C  690   4.364   1.655  10.306 -0.0837 -0.2881 -0.0496
   45TMC2     O  691   4.444   1.562  10.300  0.0338  0.3995  0.0105
   45TMC2     H  692   4.623   1.731  10.294 -0.9594 -0.9487 -1.4207
   45TMC2    H1  693   4.234   1.872  10.388  0.6996  1.2542  1.4619
   45TMC2    H2  694   4.538   2.144  10.287 -0.6082  0.1198  0.0569
   45TMC2    C7  695   4.294   2.118  10.403  0.1030  0.2858 -0.1955
   45TMC2    C8  696   0.013   1.968  10.264 -1.2659  0.0970  0.1415
   45TMC2    O1  697   4.204   2.085  10.482  0.0441 -0.0127  0.0381
   45TMC2    O2  698   0.088   1.888  10.208 -0.3800  0.1473 -0.7223
   45TMC2    O5  699   0.056   2.061  10.350 -0.1640  0.4073  0.1517
   45TMC2    H5  700   4.713   2.122  10.390  2.2520  1.5866  2.3311
   46MPD2     C  701   4.217   1.414  10.236  0.0425 -0.3198 -0.7086
   46MPD2    C1  702   4.159   1.534  10.255  0.1120  0.3625 -0.0353
   46MPD2    C2  703   4.023   1.552  10.218 -0.7359 -0.4054  0.7913
   46MPD2    C3  704   3.940   1.450  10.170 -0.0519  0.0563 -0.8147
   46MPD2    C4  705   4.008   1.331  10.158  1.5796 -0.2145  0.5347
   46MPD2    C5  706   4.136   1.314  10.188 -0.7696 -0.3113 -0.2998
   46MPD2     H  707   3.985   1.652  10.237 -1.5910 -0.6103  0.1818
   46MPD2    H1  708   3.961   1.243  10.116  0.6090  0.3105  0.5254
   46MPD2    H2  709   4.324   1.398  10.234  0.1418  0.3621 -0.8472
   46MPD2    H3  710   4.183   1.219  10.166 -1.4543  0.1163 -3.6592
   46MPD2     N  711   3.806   1.482  10.136  0.7250 -0.1904 -0.3761
   46MPD2    H5  712   3.787   1.581  10.125  0.3182 -0.2770 -0.4673
   46MPD2    N1  713   4.224   1.655  10.288  0.0251 -0.0646  0.0326
   46MPD2    H7  714   4.175   1.744  10.286  1.3543  0.6857  0.8622
   47TMC2    C1  715   1.533   1.875   9.386  0.3834 -0.4041 -0.1442
   47TMC2    C2  716   1.661   1.821   9.385  0.3380  0.4018 -0.4988
   47TMC2    C3  717   1.730   1.821   9.269 -0.5378 -0.1476 -0.1362
   47TMC2    C4  718   1.480   1.939   9.274 -0.2106  0.5421  0.2207
   47TMC2    C5  719   1.562   1.949   9.170 -0.2179  0.9976 -0.5904
   47TMC2    C6  720   1.681   1.884   9.161  0.3399 -0.1940  0.2814
   47TMC2     C  721   1.475   1.908   9.512  0.1617 -0.1259  0.8738
   47TMC2     O  722   1.390   1.993   9.529 -0.0743  0.3869 -0.0432
   47TMC2     H  723   1.700   1.778   9.476  0.3532  0.2901 -0.5576
   47TMC2    H1  724   1.389   1.995   9.293 -1.7129 -1.0619 -2.3823
   47TMC2    H2  725   1.737   1.899   9.069 -0.8448  0.6799 -0.2925
   47TMC2    C7  726   1.527   2.022   9.052 -0.5880  0.2483 -0.1565
   47TMC2    C8  727   1.868   1.773   9.266 -1.2743  0.5054  0.6719
   47TMC2    O1  728   1.582   1.996   8.945 -0.1439 -0.3151 -0.1306
   47TMC2    O2  729   1.934   1.776   9.369  0.2124  0.2071  0.3465
   47TMC2    O5  730   1.919   1.761   9.142 -0.0847 -0.1393  0.1545
   47TMC2    H5  731   1.856   1.720   9.079  2.8240 -1.9282 -1.6101
   48MPD2     C  732   1.437   1.938   9.808  0.5915 -0.4022  0.6692
   48MPD2    C1  733   1.476   1.824   9.744 -0.0298 -0.2149 -0.1046
   48MPD2    C2  734   1.481   1.703   9.810  0.0035  0.0736  0.0621
   48MPD2    C3  735   1.430   1.693   9.937  0.5602  0.1843 -0.9043
   48MPD2    C4  736   1.406   1.813  10.008  0.1445 -0.2943 -0.0480
   48MPD2    C5  737   1.395   1.935   9.937 -0.4837 -0.0344 -0.7457
   48MPD2     H  738   1.514   1.612   9.761 -1.2953 -0.1526 -0.3942
   48MPD2    H1  739   1.383   1.813  10.114  0.3317  0.7177 -0.0097
   48MPD2    H2  740   1.444   2.038   9.765  0.7297 -0.1760  1.2230
   48MPD2    H3  741   1.352   2.021   9.988  0.7085 -0.3104  0.7115
   48MPD2     N  742   1.410   1.566   9.994 -0.2114 -0.2995 -0.1505
   48MPD2    H5  743   1.412   1.486   9.932 -1.3427  0.5254 -1.2662
   48MPD2    N1  744   1.513   1.819   9.609 -0.6950  0.2141 -0.6838
   48MPD2    H7  745   1.561   1.735   9.580  0.8042  1.4258 -1.7216
   49MPD2     C  746   3.018   4.005  10.166  0.1859  0.1932  0.4553
   49MPD2    C1  747   2.988   4.108  10.256 -0.0373 -0.2972 -0.0219
   49MPD2    C2  748   3.034   4.105  10.389 -0.0479 -0.0766  0.6506
   49MPD2    C3  749   3.097   3.987  10.431 -0.0850 -0.3289 -0.2571
   49MPD2    C4  750   3.125   3.886  10.343  0.0398 -1.0878  0.2824
   49MPD2    C5  751   3.086   3.896  10.213  0.1043  0.7564 -0.7959
   49MPD2     H  752   3.011   4.189  10.454  0.4041  0.7360 -0.2485
   49MPD2    H1  753   3.172   3.797  10.385  0.2415 -0.0786  2.1957
   49MPD2    H2  754   3.000   4.016  10.060  0.8026  3.0062  0.6386
   49MPD2    H3  755   3.112   3.814  10.147  1.2130  1.1943 -0.9025
   49MPD2     N  756   3.127   3.961  10.566  0.1516  0.0059 -0.3095
   49MPD2    H5  757   3.167   3.871  10.591 -2.3619 -0.9020  0.4490
   49MPD2    N1  758   2.927   4.229  10.211 -0.2532 -0.2189  0.0048
   49MPD2    H7  759   2.928   4.312  10.269  0.6377 -0.5470  0.4527
   50TCq2    C1  760   2.854   4.244  10.095 -0.1540  0.2339  0.1280
   50TCq2    O2  761   2.815   4.150  10.030 -0.3743  0.2621 -0.5975
   50TCq2    C2  762   2.859   4.371  10.027  0.0574 -0.4430  0.6737
   50TCq2    C3  763   2.972   4.437  10.029 -0.2987 -0.2061  0.0595
   50TCq2    C4  764   2.979   4.531   9.936  0.6961  0.2664  0.3280
   50TCq2    C5  765   2.880   4.562   9.844  0.0435 -0.1354  0.2807
   50TCq2    C6  766   2.770   4.478   9.838 -0.3062 -0.4804  0.2512
   50TCq2    C7  767   2.758   4.380   9.935 -0.2386  0.1330  0.6236
   50TCq2    C8  768   2.654   4.512   9.760  0.8477  0.2436 -0.1810
   50TCq2    O4  769   2.551   4.452   9.795  0.3536  0.1900 -0.3062
   50TCq2    C9  770   3.097   4.602   9.923 -0.0150  0.5722 -0.2811
   50TCq2    O5  771   3.089   4.708   9.856 -0.2299 -0.0889 -0.7268
   50TCq2    O6  772   3.200   4.540   9.951 -0.1927 -0.2383  0.3745
   50TCq2    H2  773   3.053   4.414  10.098 -0.7347 -1.7653  0.0578
   50TCq2    H3  774   2.888   4.650   9.781  0.9450  0.6425  1.4658
   50TCq2    H4  775   2.673   4.313   9.945  0.2962 -0.6779 -0.3155
   51MPD2     C  776   3.275   2.544   2.456  0.1003  0.1448  0.3716
   51MPD2    C1  777   3.357   2.618   2.372 -0.7256  0.2477 -0.4076
   51MPD2    C2  778   3.400   2.745   2.400  0.2512  0.0291 -0.2443
   51MPD2    C3  779   3.350   2.809   2.508  0.1480 -0.8091  0.1818
   51MPD2    C4  780   3.274   2.736   2.596 -0.0370 -0.0043  0.5396
   51MPD2    C5  781   3.241   2.612   2.570  0.1201 -0.1181 -0.2344
   51MPD2     H  782   3.444   2.803   2.319  1.6426  0.8051  1.0556
   51MPD2    H1  783   3.242   2.789   2.685  1.1427  0.3006  0.7847
   51MPD2    H2  784   3.231   2.447   2.440  0.4132  0.4461 -2.3254
   51MPD2    H3  785   3.173   2.569   2.642 -0.9254  0.0350 -1.1163
   51MPD2     N  786   3.372   2.947   2.536  0.2756  0.4765 -0.0794
   51MPD2    H5  787   3.316   3.000   2.602 -1.9570 -1.1274 -0.6766
   51MPD2    N1  788   3.386   2.575   2.243  0.1521 -0.3049 -0.1815
   51MPD2    H7  789   3.427   2.644   2.181  1.3288 -1.3372 -0.5460
   52TCq2    C1  790   3.440   3.032   2.455  0.2434  0.0272  0.0053
   52TCq2    O2  791   3.532   3.004   2.382  0.2224 -0.5643 -0.1484
   52TCq2    C2  792   3.438   3.169   2.504  0.0826 -0.8140  0.2639
   52TCq2    C3  793   3.356   3.218   2.601  0.2655 -0.2567  0.5777
   52TCq2    C4  794   3.356   3.350   2.637 -0.2336 -0.4523 -0.7297
   52TCq2    C5  795   3.437   3.433   2.563 -0.6743 -0.2052 -0.5251
   52TCq2    C6  796   3.522   3.377   2.470  0.4976  0.7991 -0.2200
   52TCq2    C7  797   3.520   3.246   2.426 -0.3344 -0.2382 -0.0983
   52TCq2    C8  798   3.618   3.473   2.411  0.2269 -0.1622 -0.0648
   52TCq2    O4  799   3.593   3.592   2.424 -0.1790  0.1479 -0.3239
   52TCq2    C9  800   3.262   3.400   2.736 -0.8422 -0.3578  0.2081
   52TCq2    O5  801   3.278   3.515   2.772  0.2189 -0.2477  0.3452
   52TCq2    O6  802   3.185   3.313   2.787  0.8345 -0.2370  0.7858
   52TCq2    H2  803   3.274   3.156   2.637  0.4176 -0.1176  1.1674
   52TCq2    H3  804   3.451   3.535   2.596 -1.8144  0.1684 -1.2053
   52TCq2    H4  805   3.574   3.217   2.337  1.0230  0.5544  0.4647
   53TMC2    C1  806   4.349   1.966  11.983  0.8001 -0.5387  0.8928
   53TMC2    C2  807   4.464   1.907  12.019 -0.4932  0.8039  0.6722
   53TMC2    C3  808   4.488   1.900  12.154 -0.3854 -0.2802 -0.3101
   53TMC2    C4  809   4.257   2.019  12.074 -0.2060 -0.6457 -0.1168
   53TMC2    C5  810   4.293   2.012  12.209  0.2457  0.4672 -0.4922
   53TMC2    C6  811   4.408   1.947  12.249  0.5512 -0.1885  0.5299
   53TMC2     C  812   4.325   1.958  11.836 -0.6382 -0.2987  0.0255
   53TMC2     O  813   4.411   1.906  11.769  0.3569  0.8344  0.8467
   53TMC2     H  814   4.528   1.849  11.953  0.1641  1.0954  1.0588
   53TMC2    H1  815   4.168   2.074  12.045  0.8761  0.7741 -0.6994
   53TMC2    H2  816   4.431   1.943  12.355 -0.4160  1.6273  0.8098
   53TMC2    C7  817   4.197   2.068  12.302  1.1530 -1.0790  0.2094
   53TMC2    C8  818   4.591   1.806  12.189 -0.0016  1.0714 -0.7830
   53TMC2    O1  819   4.089   2.109  12.257  0.5547 -0.4281  0.7422
   53TMC2    O2  820   4.627   1.719  12.114  0.0317 -0.8640 -0.1899
   53TMC2    O5  821   4.679   1.871  12.268 -0.0892 -0.6330  0.7307
   53TMC2    H5  822   4.655   1.960  12.303  1.3087 -0.6794  1.8312
   54MPD2     C  823   4.215   1.980  11.562 -0.0976 -0.2247  0.3142
   54MPD2    C1  824   4.156   2.039  11.672 -0.1452 -0.0064 -0.5135
   54MPD2    C2  825   4.045   2.121  11.657 -0.4685 -0.2006  0.1871
   54MPD2    C3  826   3.988   2.136  11.533  0.2816 -0.7707  0.3480
   54MPD2    C4  827   4.029   2.062  11.426  0.0064  0.5306  0.0820
   54MPD2    C5  828   4.145   1.989  11.443  0.4135 -0.0510 -0.6874
   54MPD2     H  829   4.007   2.166  11.748 -0.9822  0.1355 -0.1963
   54MPD2    H1  830   3.971   2.078  11.336 -0.0296 -0.4761 -0.0673
   54MPD2    H2  831   4.310   1.927  11.566  0.1355  0.2206  0.8017
   54MPD2    H3  832   4.187   1.939  11.357 -0.4461  0.1370 -1.2129
   54MPD2     N  833   3.859   2.199  11.511  0.0692 -0.3534 -0.4581
   54MPD2    H5  834   3.814   2.181  11.422  0.3408 -1.1300 -0.4322
   54MPD2    N1  835   4.210   2.024  11.799 -0.0582  0.0511  0.0182
   54MPD2    H7  836   4.170   2.086  11.869  0.6751 -0.6590  1.0574
   55MPD2     C  837   4.415   4.172  17.647  0.4993  0.1055  0.3253
   55MPD2    C1  838   4.462   4.213   0.080  0.3051 -0.7708  0.7326
   55MPD2    C2  839   4.419   4.337   0.117  0.4814  0.1922  0.5917
   55MPD2    C3  840   4.344   4.424   0.037 -0.0649  0.0945 -0.3543
   55MPD2    C4  841   4.297   4.376  17.602  0.2462  0.1598 -0.1906
   55MPD2    C5  842   4.330   4.246  17.575  1.2833 -0.0460 -0.0073
   55MPD2     H  843   4.443   4.385   0.211 -0.6094 -0.5121  1.2258
   55MPD2    H1  844   4.239   4.425  17.525 -0.7978 -1.2473 -0.3039
   55MPD2    H2  845   4.447   4.076  17.607 -0.8471  0.7903 -2.4022
   55MPD2    H3  846   4.309   4.197  17.481  0.0033  1.4535 -0.4884
   55MPD2     N  847   4.314   4.554   0.082 -0.1244 -0.1772  0.6076
   55MPD2    H5  848   4.345   4.579   0.175 -0.7965  0.5734  0.6330
   55MPD2    N1  849   4.536   4.127   0.167  0.8273 -0.1786  0.7365
   55MPD2    H7  850   4.562   4.042   0.118  1.3675  0.7085 -0.5182
   56TCq2    C1  851   4.568   4.153   0.297  0.0297 -0.7451  0.2813
   56TCq2    O2  852   4.524   4.245   0.365 -0.6126  0.1594 -0.0059
   56TCq2    C2  853   4.615   4.040   0.378  0.0461 -0.0145  0.8774
   56TCq2    C3  854   4.614   3.906   0.337  0.2239 -0.2702  0.2246
   56TCq2    C4  855   4.635   3.814   0.437 -0.1134  0.3026 -0.0786
   56TCq2    C5  856   4.649   3.851   0.567  0.3606  0.2149 -0.1263
   56TCq2    C6  857   4.644   3.978   0.607  0.2338  0.0128  0.2025
   56TCq2    C7  858   4.629   4.071   0.510  0.0676  0.1830 -0.0290
   56TCq2    C8  859   4.642   4.008   0.751  0.0365 -0.0447 -0.0229
   56TCq2    O4  860   4.712   3.938   0.822 -0.4461 -0.6081  0.3960
   56TCq2    C9  861   4.646   3.672   0.396  0.7457  0.3824 -0.6652
   56TCq2    O5  862   4.603   3.640   0.282  0.7595 -0.3214  0.2474
   56TCq2    O6  863   4.700   3.593   0.481  0.1844 -0.5520  0.5327
   56TCq2    H2  864   4.611   3.881   0.232 -4.2396 -0.0762  0.3124
   56TCq2    H3  865   4.653   3.768   0.637  3.2677  2.1858  2.0737
   56TCq2    H4  866   4.632   4.176   0.536 -1.3422  0.4125 -0.7536
   57TMC2    C1  867   4.145   0.618  14.073 -0.0232 -0.5018  0.1756
   57TMC2    C2  868   4.210   0.663  14.184  0.2396 -0.2470  0.6557
   57TMC2    C3  869   4.342   0.636  14.192 -0.3285  0.0642 -0.9834
   57TMC2    C4  870   4.210   0.547  13.972  0.0180  0.7045 -0.4281
   57TMC2    C5  871   4.341   0.534  13.975  0.5067  0.0919  0.0073
   57TMC2    C6  872   4.407   0.579  14.081 -0.7669 -0.5294  0.3772
   57TMC2     C  873   4.002   0.625  14.079 -0.4723  0.1876  0.5823
   57TMC2     O  874   3.957   0.693  14.166 -0.2845  0.1866 -0.1309
   57TMC2     H  875   4.153   0.720  14.255 -0.8703 -0.7276  0.1477
   57TMC2    H1  876   4.153   0.500  13.893  2.7383 -1.7913 -0.9305
   57TMC2    H2  877   4.515   0.577  14.084 -0.7256 -0.7693 -1.4922
   57TMC2    C7  878   4.417   0.471  13.872  0.0936 -0.2455 -1.0831
   57TMC2    C8  879   4.416   0.662  14.307 -0.0756 -0.1144  0.0740
   57TMC2    O1  880   4.538   0.485  13.883 -0.4351  0.3881  0.3692
   57TMC2    O2  881   4.539   0.662  14.311 -0.4862  0.0462  0.1783
   57TMC2    O5  882   4.342   0.612  14.409 -0.2033  0.0940  0.1642
   57TMC2    H5  883   4.246   0.603  14.390 -0.9921  2.1921  3.2982
   58MPD2     C  884   3.534   0.467  13.967 -0.1669  0.2534 -0.0738
   58MPD2    C1  885   3.574   0.592  14.017  0.0467  0.3161  0.2284
   58MPD2    C2  886   3.710   0.608  14.021  0.6015 -0.2963 -0.1033
   58MPD2    C3  887   3.802   0.504  14.002 -0.6293  0.7723 -0.3423
   58MPD2    C4  888   3.757   0.382  13.955  0.2700  0.4918 -0.4217
   58MPD2    C5  889   3.618   0.364  13.926  0.3841  0.1621 -0.2524
   58MPD2     H  890   3.744   0.700  14.066 -0.9196  0.0517  0.3303
   58MPD2    H1  891   3.826   0.300  13.938  0.5351  0.5294  0.4740
   58MPD2    H2  892   3.430   0.448  13.944  0.0573 -1.8369  0.6103
   58MPD2    H3  893   3.581   0.270  13.886 -0.6652  0.4364  0.0855
   58MPD2     N  894   3.941   0.521  14.013  0.3992  0.4432 -0.3084
   58MPD2    H5  895   3.989   0.444  13.966 -0.1791 -0.0877 -0.0227
   58MPD2    N1  896   3.493   0.699  14.059  0.0009  0.0494 -0.1317
   58MPD2    H7  897   3.538   0.772  14.112  1.8866 -0.8440 -0.4975
   59MPD2     C  898   1.247   0.531  13.451  0.4172  0.0866 -0.0569
   59MPD2    C1  899   1.344   0.528  13.348 -0.0574  0.1988 -0.4861
   59MPD2    C2  900   1.456   0.609  13.358  0.1337  0.1233  0.6830
   59MPD2    C3  901   1.487   0.673  13.478  0.4371 -0.2094  0.0981
   59MPD2    C4  902   1.393   0.664  13.580 -0.1800 -0.1445 -0.0646
   59MPD2    C5  903   1.273   0.603  13.564  0.5108  0.1712 -0.9349
   59MPD2     H  904   1.527   0.613  13.276 -0.2833 -0.8889  0.2789
   59MPD2    H1  905   1.416   0.702  13.679 -0.2494 -1.1907  0.3613
   59MPD2    H2  906   1.147   0.489  13.448 -0.1824  1.5516 -0.6645
   59MPD2    H3  907   1.204   0.606  13.647  0.3093 -2.1140 -1.0073
   59MPD2     N  908   1.609   0.748  13.500  0.7145 -0.1621  0.5717
   59MPD2    H5  909   1.618   0.781  13.595 -0.4240 -0.6345  0.8486
   59MPD2    N1  910   1.320   0.468  13.221  0.9190 -0.6120  0.5257
   59MPD2    H7  911   1.393   0.484  13.152 -0.5508 -2.3972 -1.4388
   60TCq2    C1  912   1.212   0.384  13.188 -0.4015  0.7174  0.0559
   60TCq2    O2  913   1.150   0.324  13.273  0.1625 -0.3627  0.0106
   60TCq2    C2  914   1.201   0.346  13.052  0.9285 -0.2200  0.4602
   60TCq2    C3  915   1.183   0.212  13.025  1.0104  0.4615 -0.1127
   60TCq2    C4  916   1.161   0.166  12.896  0.1124 -0.0589  1.2861
   60TCq2    C5  917   1.175   0.254  12.793  0.5498 -0.2682  0.4684
   60TCq2    C6  918   1.208   0.389  12.822  0.7612  0.1708 -0.0051
   60TCq2    C7  919   1.206   0.439  12.947 -0.1131  0.1665  0.0381
   60TCq2    C8  920   1.222   0.489  12.718 -0.5023 -0.2701  0.2131
   60TCq2    O4  921   1.205   0.608  12.747 -0.5173  0.0992 -0.0857
   60TCq2    C9  922   1.138   0.027  12.880  0.4743 -0.0183 -0.0385
   60TCq2    O5  923   1.182   4.668  12.964 -0.4635  0.1839  0.1172
   60TCq2    O6  924   1.096   4.708  12.769 -0.0771 -0.1919 -0.0034
   60TCq2    H2  925   1.171   0.145  13.110 -3.0409  0.6462 -0.5690
   60TCq2    H3  926   1.160   0.216  12.693 -1.1670 -0.3159  0.7326
   60TCq2    H4  927   1.213   0.546  12.967  2.0676  0.1042 -0.3533
   61MPD2     C  928   0.978   1.914  14.799  0.4620  0.0713  0.1053
   61MPD2    C1  929   1.030   2.019  14.854 -0.0092 -0.0901  0.0203
   61MPD2    C2  930   1.086   2.117  14.775  0.1588  0.7821 -0.2416
   61MPD2    C3  931   1.087   2.107  14.633 -0.4309 -1.0244  0.5731
   61MPD2    C4  932   1.020   2.005  14.578  0.4639 -0.3314  0.1063
   61MPD2    C5  933   0.963   1.911  14.665 -0.0284 -0.0266  0.0211
   61MPD2     H  934   1.120   2.209  14.821  1.5106 -0.3096  0.9287
   61MPD2    H1  935   1.016   2.003  14.470 -0.5616 -0.3867  0.1445
   61MPD2    H2  936   0.931   1.829  14.848 -2.1240  0.7021 -1.2960
   61MPD2    H3  937   0.909   1.832  14.615  1.1520 -0.2662 -0.8903
   61MPD2     N  938   1.156   2.197  14.551 -0.4275  0.0030 -0.6339
   61MPD2    H5  939   1.136   2.203  14.452 -3.1393  2.7866  0.0947
   61MPD2    N1  940   1.023   2.037  14.994  0.0536  0.5960  0.0403
   61MPD2    H7  941   1.052   2.126  15.033  0.3794  0.4483  0.1445
   62TCq2    C1  942   0.975   1.947  15.086 -0.3206 -0.2138  0.0345
   62TCq2    O2  943   0.956   1.824  15.069 -0.2470 -0.2125  0.2740
   62TCq2    C2  944   0.956   2.003  15.217  0.5713  0.0452  0.2362
   62TCq2    C3  945   0.929   1.918  15.320 -0.9273 -0.1769 -0.7449
   62TCq2    C4  946   0.896   1.967  15.444 -0.0706  0.3126  0.3790
   62TCq2    C5  947   0.890   2.099  15.463 -0.6500 -0.1888  0.5133
   62TCq2    C6  948   0.918   2.186  15.357 -0.5940 -0.1124 -0.4899
   62TCq2    C7  949   0.937   2.143  15.226 -0.3522 -0.0061  0.2784
   62TCq2    C8  950   0.907   2.329  15.376  0.3228 -0.4525  0.3765
   62TCq2    O4  951   0.894   2.400  15.279 -0.0532 -0.5783  0.0734
   62TCq2    C9  952   0.874   1.883  15.560  0.1016 -0.4043 -0.1759
   62TCq2    O5  953   0.863   1.943  15.668 -0.0787  0.0574 -0.3451
   62TCq2    O6  954   0.894   1.759  15.546 -0.0115  0.2802  0.5107
   62TCq2    H2  955   0.928   1.812  15.300 -0.8430  0.0632 -2.0703
   62TCq2    H3  956   0.859   2.137  15.560  2.2175  0.6912  1.0801
   62TCq2    H4  957   0.925   2.215  15.145 -1.3661 -0.2681  0.2032
   63TMC2    C1  958   0.804   1.796  11.018 -0.1597  0.1981  0.2770
   63TMC2    C2  959   0.878   1.848  11.126 -0.6178  0.4848 -0.2425
   63TMC2    C3  960   0.998   1.897  11.099 -0.2929  0.0007  1.1198
   63TMC2    C4  961   0.858   1.797  10.894  0.7904  0.8140 -0.2376
   63TMC2    C5  962   0.986   1.850  10.873 -0.3988 -0.4015 -0.2019
   63TMC2    C6  963   1.061   1.904  10.975 -0.1081 -0.5977 -0.1924
   63TMC2     C  964   0.672   1.764  11.038  0.4237  0.0379  1.0008
   63TMC2     O  965   0.614   1.820  11.132 -0.5961 -0.0322 -0.7099
   63TMC2     H  966   0.833   1.863  11.224  1.6377 -1.1037  1.0490
   63TMC2    H1  967   0.786   1.786  10.813 -0.5468  2.4392  0.7404
   63TMC2    H2  968   1.158   1.948  10.955  0.2326 -1.6700 -0.8780
   63TMC2    C7  969   1.010   1.885  10.736 -0.0922 -0.1769  0.1394
   63TMC2    C8  970   1.082   1.957  11.209  0.5643 -0.2611 -0.1657
   63TMC2    O1  971   0.933   1.826  10.659 -1.0353 -0.3990 -0.1425
   63TMC2    O2  972   1.177   2.030  11.192  0.7797  0.2566  0.6901
   63TMC2    O5  973   1.058   1.887  11.321  0.2232 -0.3162  0.6235
   63TMC2    H5  974   0.989   1.820  11.302  1.5118 -1.4229 -0.1260
   64MPD2     C  975   0.286   1.527  10.812 -0.6003 -0.3756  0.1315
   64MPD2    C1  976   0.399   1.449  10.782 -0.4442  0.4881  0.3730
   64MPD2    C2  977   0.515   1.491  10.839 -0.4927  0.5007 -0.3989
   64MPD2    C3  978   0.520   1.601  10.922  0.3410  0.6508 -0.6713
   64MPD2    C4  979   0.407   1.660  10.974  0.0274  0.1294 -0.2308
   64MPD2    C5  980   0.292   1.624  10.913  0.3586  0.2812 -0.0171
   64MPD2     H  981   0.613   1.456  10.811 -0.3274  1.7940 -1.4365
   64MPD2    H1  982   0.400   1.740  11.047  1.1408 -0.6035  0.6697
   64MPD2    H2  983   0.192   1.508  10.761 -1.6774 -0.6459  2.2176
   64MPD2    H3  984   0.201   1.674  10.943 -0.9311 -1.3137 -1.2710
   64MPD2     N  985   0.649   1.647  10.963 -0.0217  0.4846 -0.9877
   64MPD2    H5  986   0.731   1.609  10.916 -0.8973 -2.9701  0.3121
   64MPD2    N1  987   0.404   1.341  10.687 -0.6233 -0.3046  0.0985
   64MPD2    H7  988   0.497   1.317  10.655 -0.6354  2.1949 -1.7911
   65MPD2     C  989   1.392   1.738  16.020 -0.7977  0.2405  0.7837
   65MPD2    C1  990   1.458   1.723  15.899  0.4362 -0.4109 -0.0489
   65MPD2    C2  991   1.467   1.596  15.844 -0.1465  0.7801 -0.5226
   65MPD2    C3  992   1.418   1.487  15.919  0.4509  0.2791  0.3609
   65MPD2    C4  993   1.347   1.501  16.038 -0.3605  0.3408 -0.2318
   65MPD2    C5  994   1.338   1.631  16.088  0.0300  0.6140 -1.1077
   65MPD2     H  995   1.515   1.584  15.747 -0.2961 -0.3141 -0.4545
   65MPD2    H1  996   1.308   1.412  16.086 -0.3191  0.5157  0.1348
   65MPD2    H2  997   1.377   1.837  16.062  3.9276  1.0906  0.4993
   65MPD2    H3  998   1.298   1.651  16.187 -1.8997 -1.6909 -1.4271
   65MPD2     N  999   1.395   1.362  15.857  1.2141  0.3249  0.6291
   65MPD2    H5 1000   1.322   1.306  15.899 -0.3638  1.6669 -0.3531
   65MPD2    N1 1001   1.501   1.830  15.819  0.3307 -0.8798  0.3871
   65MPD2    H7 1002   1.550   1.814  15.731  2.1898  1.1327  1.0650
   66TCq2    C1 1003   1.506   1.961  15.874  0.0444  0.0784 -0.2103
   66TCq2    O2 1004   1.494   1.999  15.991 -0.0198 -0.5194 -0.4611
   66TCq2    C2 1005   1.561   2.051  15.774  0.2478  0.4658 -0.0976
   66TCq2    C3 1006   1.552   2.024  15.637 -0.3200  0.3881  0.0611
   66TCq2    C4 1007   1.617   2.113  15.553  0.6184 -0.2432 -0.8637
   66TCq2    C5 1008   1.690   2.217  15.605  0.1199 -0.3028  0.0241
   66TCq2    C6 1009   1.688   2.247  15.740 -0.1603  0.5391 -0.1817
   66TCq2    C7 1010   1.623   2.164  15.826 -0.1114  0.2603 -0.0809
   66TCq2    C8 1011   1.703   2.397  15.766 -0.0192 -0.2629 -0.4268
   66TCq2    O4 1012   1.753   2.477  15.690 -0.4222 -0.6142  0.0261
   66TCq2    C9 1013   1.591   2.105  15.413 -0.4070  0.1180  0.1851
   66TCq2    O5 1014   1.502   2.028  15.368  0.2464  0.0899 -0.1274
   66TCq2    O6 1015   1.669   2.177  15.342  0.4498  0.3730  0.0234
   66TCq2    H2 1016   1.478   1.957  15.595 -0.1999  0.5333 -0.3793
   66TCq2    H3 1017   1.716   2.301  15.541 -0.8222 -0.4675 -0.5702
   66TCq2    H4 1018   1.646   2.170  15.932 -2.0067  0.6853  0.3094
   67MPD2     C 1019   1.373   1.068  14.381  0.0776 -0.4469  0.9427
   67MPD2    C1 1020   1.294   1.109  14.485 -0.1247 -0.0535 -0.0974
   67MPD2    C2 1021   1.156   1.101  14.469 -0.3504 -0.2234  0.3239
   67MPD2    C3 1022   1.099   1.070  14.346  0.5402  0.8240  0.1860
   67MPD2    C4 1023   1.187   1.038  14.244 -0.2672 -0.0285 -0.1948
   67MPD2    C5 1024   1.317   1.035  14.265 -0.0811 -0.1252 -0.9897
   67MPD2     H 1025   1.093   1.141  14.547 -0.8183 -1.4448  0.5851
   67MPD2    H1 1026   1.149   1.018  14.145 -2.8235 -0.8373  0.9481
   67MPD2    H2 1027   1.482   1.066  14.382  0.1154  0.8286 -0.3801
   67MPD2    H3 1028   1.380   1.007  14.181 -0.0095 -0.7838 -0.7182
   67MPD2     N 1029   0.960   1.084  14.320 -0.8451  0.1617 -0.0242
   67MPD2    H5 1030   0.942   1.066  14.221 -2.2500  0.7583  0.1270
   67MPD2    N1 1031   1.349   1.169  14.600  0.0575 -0.1181 -0.0680
   67MPD2    H7 1032   1.286   1.196  14.674  0.1824  1.0170 -0.3651
   68TCq2    C1 1033   1.485   1.157  14.637 -0.2255 -0.6195  0.0521
   68TCq2    O2 1034   1.569   1.086  14.584  0.2774 -0.7837 -0.0350
   68TCq2    C2 1035   1.527   1.237  14.750  0.7054 -0.3336 -0.3653
   68TCq2    C3 1036   1.470   1.361  14.768  0.5949  0.4773 -0.2728
   68TCq2    C4 1037   1.528   1.436  14.871 -0.4525  0.2946  0.0255
   68TCq2    C5 1038   1.611   1.386  14.965  0.8732 -0.9153 -0.4538
   68TCq2    C6 1039   1.662   1.257  14.947 -0.6149  0.6235 -0.0762
   68TCq2    C7 1040   1.621   1.187  14.832 -0.1104 -0.1506 -0.2848
   68TCq2    C8 1041   1.783   1.212  15.018  0.0378 -0.2296 -0.7238
   68TCq2    O4 1042   1.839   1.110  14.980  0.4590  0.8333 -0.5303
   68TCq2    C9 1043   1.504   1.575  14.873  0.0975 -0.1003 -0.2090
   68TCq2    O5 1044   1.538   1.656  14.965  0.3460 -0.7384  0.3209
   68TCq2    O6 1045   1.426   1.617  14.782 -0.0012 -0.6145  0.0955
   68TCq2    H2 1046   1.391   1.397  14.703 -0.1943  1.5683  1.3190
   68TCq2    H3 1047   1.635   1.460  15.040  0.7294  0.2848 -1.5897
   68TCq2    H4 1048   1.648   1.086  14.806  1.9356  0.0819  0.8895
   69TMC2    C1 1049   3.931   2.437  12.332  0.6872 -0.3977 -0.6716
   69TMC2    C2 1050   3.813   2.384  12.280 -0.0049 -0.6010  0.0956
   69TMC2    C3 1051   3.805   2.360  12.143 -0.2202 -0.3829 -0.7150
   69TMC2    C4 1052   4.040   2.462  12.249 -0.0674  0.4313  0.6155
   69TMC2    C5 1053   4.029   2.434  12.113 -0.2353  0.4407  0.2122
   69TMC2    C6 1054   3.915   2.377  12.061 -0.4486  0.5261 -0.2867
   69TMC2     C 1055   3.943   2.428  12.476  0.0627 -0.7224 -0.2461
   69TMC2     O 1056   3.886   2.334  12.526 -0.8518  0.0268  0.5835
   69TMC2     H 1057   3.734   2.351  12.346  1.3435 -2.8318  0.6060
   69TMC2    H1 1058   4.137   2.484  12.292  0.4877 -3.6641  1.4026
   69TMC2    H2 1059   3.915   2.332  11.962  0.4777  0.4736 -0.2590
   69TMC2    C7 1060   4.161   2.412  12.043  0.1289  0.0951 -0.5429
   69TMC2    C8 1061   3.703   2.263  12.109  0.0739  0.0437 -0.3954
   69TMC2    O1 1062   4.264   2.413  12.112  0.1549  0.2311 -0.1766
   69TMC2    O2 1063   3.681   2.164  12.177 -0.3780 -0.1169 -0.0420
   69TMC2    O5 1064   3.700   2.269  11.975  0.5240 -0.3766  0.1201
   69TMC2    H5 1065   3.710   2.363  11.950 -1.1246 -0.7709 -2.0180
   70MPD2     C 1066   4.155   2.636  12.685  0.3470  0.2526 -0.3530
   70MPD2    C1 1067   4.067   2.533  12.659  0.9496 -0.4466 -0.7028
   70MPD2    C2 1068   4.013   2.460  12.766  0.5352 -0.0101 -0.0179
   70MPD2    C3 1069   4.054   2.481  12.895  0.1443  0.1691 -0.5464
   70MPD2    C4 1070   4.142   2.586  12.918 -0.4288  0.3597 -0.7890
   70MPD2    C5 1071   4.187   2.656  12.814 -0.0633 -0.1151  0.7739
   70MPD2     H 1072   3.945   2.378  12.746  1.2749 -0.7149  0.3305
   70MPD2    H1 1073   4.175   2.603  13.020 -3.5174 -1.3338  0.4804
   70MPD2    H2 1074   4.204   2.685  12.602 -0.2590 -1.6867 -1.8354
   70MPD2    H3 1075   4.264   2.729  12.833  0.3679  0.0821 -1.6922
   70MPD2     N 1076   4.010   2.401  13.003  0.0172  1.0510 -0.0809
   70MPD2    H5 1077   4.045   2.426  13.095 -2.7804 -0.7562  1.4429
   70MPD2    N1 1078   4.031   2.518  12.523  0.1146 -0.2733  0.2238
   70MPD2    H7 1079   4.058   2.596  12.464  0.6600  0.0647  0.9258
   71TMC2    C1 1080   1.227   2.832   1.677  0.4375 -0.0027  0.1531
   71TMC2    C2 1081   1.341   2.825   1.752  0.3737 -0.4785 -0.0544
   71TMC2    C3 1082   1.330   2.836   1.888 -0.8158  0.4260  0.8432
   71TMC2    C4 1083   1.103   2.853   1.731 -1.1631 -0.3423 -0.2043
   71TMC2    C5 1084   1.098   2.856   1.868 -0.2178 -0.1251  0.1010
   71TMC2    C6 1085   1.208   2.855   1.949  0.4400  0.1645 -0.8178
   71TMC2     C 1086   1.238   2.845   1.530 -0.4668 -0.3602  0.5528
   71TMC2     O 1087   1.134   2.879   1.469 -0.2634 -0.4627  0.0982
   71TMC2     H 1088   1.442   2.809   1.715  0.0503  1.0901 -1.5868
   71TMC2    H1 1089   1.016   2.869   1.668 -1.5606  3.1374  1.2295
   71TMC2    H2 1090   1.207   2.844   2.057 -0.5359  0.4160 -0.8008
   71TMC2    C7 1091   0.971   2.857   1.929  0.0290 -0.0097 -0.4977
   71TMC2    C8 1092   1.436   2.782   1.962  0.6222 -0.2238  0.2677
   71TMC2    O1 1093   0.975   2.887   2.044  0.1528 -0.2926  0.6599
   71TMC2    O2 1094   1.473   2.833   2.069  0.3353  0.1155 -0.5418
   71TMC2    O5 1095   1.423   2.649   1.931  0.6689 -0.0083 -0.2532
   71TMC2    H5 1096   1.352   2.633   1.865 -0.1969  2.0713  0.1700
   72MPD2     C 1097   1.510   2.784   1.107  0.7098  1.1918 -0.0192
   72MPD2    C1 1098   1.390   2.858   1.131  0.3701  0.4112 -0.3934
   72MPD2    C2 1099   1.340   2.869   1.258  0.4070 -0.4471  0.0501
   72MPD2    C3 1100   1.404   2.804   1.357  0.5414  0.1109 -0.2131
   72MPD2    C4 1101   1.520   2.732   1.332  0.2900  0.1838 -0.6189
   72MPD2    C5 1102   1.578   2.739   1.217 -0.5700  0.1051  0.0326
   72MPD2     H 1103   1.249   2.922   1.282 -0.7080 -1.6037 -1.6411
   72MPD2    H1 1104   1.572   2.674   1.407 -1.7968  1.9239  2.1806
   72MPD2    H2 1105   1.552   2.772   1.008 -0.3958 -2.7877 -0.0280
   72MPD2    H3 1106   1.673   2.690   1.198 -0.3892  0.4903 -0.0502
   72MPD2     N 1107   1.361   2.802   1.487  0.7125 -0.4321  0.5463
   72MPD2    H5 1108   1.428   2.758   1.549 -0.3516 -1.8329  0.7226
   72MPD2    N1 1109   1.314   2.911   1.024  0.3509  0.7918  0.8370
   72MPD2    H7 1110   1.234   2.966   1.054 -1.2236 -0.3350 -1.2446
   73TMC2    C1 1111   1.359   4.219  14.453 -0.1460 -0.0069  0.1362
   73TMC2    C2 1112   1.388   4.164  14.579  0.0118  0.5650  0.1883
   73TMC2    C3 1113   1.369   4.248  14.687 -0.7487  0.3583 -0.6058
   73TMC2    C4 1114   1.318   4.350  14.444 -0.6636 -0.5030 -0.1810
   73TMC2    C5 1115   1.319   4.432  14.556 -0.6533  0.3314 -0.0812
   73TMC2    C6 1116   1.363   4.388  14.680 -0.9061 -0.1481  0.2831
   73TMC2     C 1117   1.332   4.133  14.339  0.2427 -0.0170 -0.4274
   73TMC2     O 1118   1.362   4.012  14.339 -0.2133  0.7336  0.6874
   73TMC2     H 1119   1.430   4.065  14.590 -0.0206  0.5308  0.0063
   73TMC2    H1 1120   1.330   4.386  14.342  1.1894 -4.0074 -1.2122
   73TMC2    H2 1121   1.358   4.449  14.770 -3.1955  0.6290 -0.3810
   73TMC2    C7 1122   1.308   4.573  14.536  0.1960  0.5303 -0.4192
   73TMC2    C8 1123   1.391   4.197  14.824  0.0963  0.2290  0.2578
   73TMC2    O1 1124   1.351   4.655  14.618 -0.2284 -0.4016 -0.6340
   73TMC2    O2 1125   1.414   4.273  14.916 -0.5434 -0.0708 -0.5847
   73TMC2    O5 1126   1.387   4.066  14.837 -0.3395  0.6198 -0.1200
   73TMC2    H5 1127   1.380   4.009  14.758 -0.6729 -1.4742  1.4224
   74MPD2     C 1128   1.155   4.125  13.849  0.5105  0.0492 -0.3012
   74MPD2    C1 1129   1.140   4.247  13.902 -0.1358 -0.6264  0.1087
   74MPD2    C2 1130   1.172   4.262  14.040  0.1838  0.0751 -0.8947
   74MPD2    C3 1131   1.215   4.159  14.109  0.5581  0.1015  0.0713
   74MPD2    C4 1132   1.237   4.031  14.055 -0.0515 -0.0424 -0.0253
   74MPD2    C5 1133   1.207   4.025  13.922 -0.3793  0.7355  0.5182
   74MPD2     H 1134   1.163   4.358  14.091  1.3933 -1.3475  1.9925
   74MPD2    H1 1135   1.285   3.949  14.107  1.7835  0.3987 -1.0124
   74MPD2    H2 1136   1.130   4.106  13.745  0.9186 -1.4142 -0.1424
   74MPD2    H3 1137   1.228   3.935  13.866 -2.4280 -0.8449  2.3269
   74MPD2     N 1138   1.254   4.200  14.242 -0.0802  0.2951 -0.5172
   74MPD2    H5 1139   1.231   4.296  14.267 -1.5186 -0.3762  0.6574
   74MPD2    N1 1140   1.087   4.344  13.819  0.3624  0.6772 -0.4523
   74MPD2    H7 1141   1.080   4.329  13.719  0.0425  1.5004 -0.5475
   75TCq2    C1 1142   0.858   1.101  14.413  0.1220 -0.3041 -0.1861
   75TCq2    O2 1143   0.870   1.099  14.536  0.4073  0.0517  0.2907
   75TCq2    C2 1144   0.727   1.133  14.361  0.1535 -0.3653  0.7553
   75TCq2    C3 1145   0.630   1.154  14.451  0.3115  0.2552 -0.1177
   75TCq2    C4 1146   0.525   1.230  14.415  0.3175 -0.3505  0.1639
   75TCq2    C5 1147   0.517   1.289  14.291 -0.7227 -0.5015 -0.3837
   75TCq2    C6 1148   0.609   1.256  14.202 -0.6769  0.3532  0.5896
   75TCq2    C7 1149   0.720   1.186  14.235  0.3056  0.7181 -0.2506
   75TCq2    C8 1150   0.596   1.284  14.066  0.0779 -0.0740  0.0716
   75TCq2    O4 1151   0.675   1.233  13.988 -0.0570  0.4829  0.3831
   75TCq2    C9 1152   0.416   1.234  14.509 -0.1441  0.1109 -0.7491
   75TCq2    O5 1153   0.417   1.163  14.613  0.2544 -0.0046  0.2320
   75TCq2    O6 1154   0.316   1.306  14.475  0.0503 -1.0100  0.1790
   75TCq2    H2 1155   0.634   1.105  14.548  1.3253 -1.4993 -1.0485
   75TCq2    H3 1156   0.423   1.333  14.259  0.2155  0.3204 -2.0478
   75TCq2    H4 1157   0.797   1.169  14.160 -1.3337  1.1643 -2.0083
   76MPD2     C 1158   0.391   1.765  12.253 -0.3969  0.1723  0.1354
   76MPD2    C1 1159   0.344   1.727  12.132 -0.1684  0.0970  0.0377
   76MPD2    C2 1160   0.344   1.590  12.109 -0.4379 -1.1916 -0.1339
   76MPD2    C3 1161   0.399   1.505  12.205 -0.0286 -0.2684 -0.6454
   76MPD2    C4 1162   0.449   1.552  12.325 -0.2371  1.1114  0.2708
   76MPD2    C5 1163   0.442   1.681  12.351 -0.2342  0.2423  0.2674
   76MPD2     H 1164   0.315   1.550  12.013 -1.6127 -1.1990  0.2235
   76MPD2    H1 1165   0.509   1.490  12.390 -1.9990  0.1144  0.9539
   76MPD2    H2 1166   0.401   1.868  12.285 -0.0280  0.4410 -0.8405
   76MPD2    H3 1167   0.472   1.718  12.448 -1.7583 -0.3714  0.9680
   76MPD2     N 1168   0.416   1.366  12.185 -0.2085  0.1420  0.0672
   76MPD2    H5 1169   0.465   1.315  12.258 -0.2938 -0.8505 -0.5607
   76MPD2    N1 1170   0.292   1.810  12.032 -0.1628  0.2628  0.2450
   76MPD2    H7 1171   0.264   1.768  11.943 -1.5539  2.1227 -0.2005
   77TCq2    C1 1172   0.364   1.295  12.072  0.3158 -0.8040  0.3090
   77TCq2    O2 1173   0.287   1.332  11.983 -0.2774 -0.0233  0.3387
   77TCq2    C2 1174   0.404   1.160  12.075  0.5959  0.1602  0.8005
   77TCq2    C3 1175   0.303   1.080  12.032 -0.6009  0.2827 -0.0773
   77TCq2    C4 1176   0.302   0.948  12.059  0.3809  0.9466  0.1272
   77TCq2    C5 1177   0.406   0.901  12.136 -0.5738  0.5905 -0.1845
   77TCq2    C6 1178   0.504   0.981  12.178  0.9950  0.4622  0.7087
   77TCq2    C7 1179   0.504   1.114  12.149  0.3183 -0.6952 -0.6013
   77TCq2    C8 1180   0.602   0.922  12.264 -0.4039  0.1345  0.3367
   77TCq2    O4 1181   0.618   0.802  12.254 -0.4021  0.2962  0.0810
   77TCq2    C9 1182   0.190   0.868  12.011  0.1309  0.1098  0.8527
   77TCq2    O5 1183   0.203   0.744  12.014 -0.1631  0.6441 -0.5204
   77TCq2    O6 1184   0.101   0.926  11.944 -0.4464 -0.5930 -0.1145
   77TCq2    H2 1185   0.222   1.117  11.970 -1.5812 -1.6789  0.0436
   77TCq2    H3 1186   0.398   0.796  12.161  2.0449  0.4837  0.1748
   77TCq2    H4 1187   0.588   1.176  12.181 -0.1059  0.0309 -0.8971
   78MPD1     C 1188   0.753   1.882   0.709  0.4388 -0.2989  0.7149
   78MPD1    C1 1189   0.817   1.778   0.769  0.1827  0.0997  0.0548
   78MPD1    C2 1190   0.879   1.799   0.888 -0.3298  0.6982 -0.8782
   78MPD1    C3 1191   0.880   1.925   0.947  0.3083 -0.0220  0.2596
   78MPD1    C4 1192   0.825   2.033   0.885  0.0943  0.6703 -0.2307
   78MPD1    C5 1193   0.760   2.005   0.764  0.5108 -0.1255 -0.0371
   78MPD1     H 1194   0.922   1.714   0.939 -3.2068  0.3556  0.9540
   78MPD1    H1 1195   0.832   2.135   0.919  2.0572  0.6432 -0.5432
   78MPD1    H2 1196   0.711   1.874   0.610 -0.6355  1.1621  1.0640
   78MPD1    H3 1197   0.718   2.089   0.711  1.2745  1.0857  1.2770
   78MPD1     N 1198   0.935   1.954   1.075 -0.1700  0.4214 -0.2347
   78MPD1    H5 1199   0.913   2.047   1.109 -1.6185  0.2304 -0.6411
   78MPD1    N1 1200   0.793   1.645   0.728 -0.3655  0.0036  0.2557
   78MPD1    H6 1201   0.873   1.589   0.756  0.7630  1.5013  0.0446
   78MPD1    H7 1202   0.779   1.645   0.627 -0.8001  0.1510  0.3146
   79TCq2    C1 1203   1.010   1.862   1.156 -0.4351  0.4544 -0.0388
   79TCq2    O2 1204   1.034   1.742   1.144  0.0069 -0.0404  0.6085
   79TCq2    C2 1205   1.072   1.911   1.277  0.3626 -0.2751  0.4961
   79TCq2    C3 1206   1.101   2.047   1.291 -0.1900  0.8834  0.0448
   79TCq2    C4 1207   1.165   2.092   1.407  0.4434  0.1321  0.4720
   79TCq2    C5 1208   1.210   2.002   1.501  0.0814 -0.0911 -0.8576
   79TCq2    C6 1209   1.188   1.867   1.479  0.1218  0.5243 -0.4288
   79TCq2    C7 1210   1.117   1.822   1.370 -0.2714  0.0216  0.0768
   79TCq2    C8 1211   1.265   1.770   1.545  0.8605  0.9407  0.4491
   79TCq2    O4 1212   1.234   1.654   1.520  0.2430  0.8673  0.0458
   79TCq2    C9 1213   1.205   2.229   1.421 -0.4513 -0.5507  0.1551
   79TCq2    O5 1214   1.282   2.252   1.518 -0.5602  0.7178 -0.5024
   79TCq2    O6 1215   1.158   2.307   1.330  0.8467  0.3891  0.5937
   79TCq2    H2 1216   1.078   2.123   1.217  1.1762  1.2199 -0.0383
   79TCq2    H3 1217   1.274   2.029   1.585 -1.2567 -0.5336  0.3047
   79TCq2    H4 1218   1.094   1.717   1.358  1.0769 -0.2407 -0.1240
   80MPD2     C 1219   4.223   1.614  12.268  0.5856 -0.5285  0.0210
   80MPD2    C1 1220   4.131   1.666  12.176 -0.2595  0.1790 -0.8599
   80MPD2    C2 1221   4.009   1.716  12.218 -0.6345 -0.4149 -0.6628
   80MPD2    C3 1222   3.986   1.719  12.360  0.5415  0.0498 -0.0945
   80MPD2    C4 1223   4.085   1.671  12.447 -0.8054 -0.1156 -0.1588
   80MPD2    C5 1224   4.197   1.620  12.401  0.5998  0.9204  0.3226
   80MPD2     H 1225   3.930   1.760  12.159  0.4730  2.5207  0.0453
   80MPD2    H1 1226   4.062   1.670  12.553 -1.1604  1.1474 -0.2262
   80MPD2    H2 1227   4.310   1.559  12.236  0.5187 -0.4542 -0.2934
   80MPD2    H3 1228   4.268   1.582  12.474  3.0268  2.9965 -0.9545
   80MPD2     N 1229   3.872   1.778  12.420 -0.6698 -0.5471  0.4415
   80MPD2    H5 1230   3.857   1.766  12.520 -0.8228 -0.3775  0.4374
   80MPD2    N1 1231   4.142   1.654  12.039 -0.0106 -0.1543  0.2782
   80MPD2    H7 1232   4.068   1.693  11.982  0.5035  0.1635 -0.1710
   81TCq2    C1 1233   4.253   1.602  11.970 -0.2086 -0.6400 -0.1013
   81TCq2    O2 1234   4.358   1.559  12.013 -0.1840  0.2066  0.1132
   81TCq2    C2 1235   4.228   1.584  11.823 -0.0712 -0.5065  0.4743
   81TCq2    C3 1236   4.337   1.549  11.742 -0.4303 -0.2732  0.1748
   81TCq2    C4 1237   4.307   1.468  11.635 -0.0549 -0.5511  0.7706
   81TCq2    C5 1238   4.184   1.431  11.604 -0.1288 -0.4869 -0.4120
   81TCq2    C6 1239   4.086   1.486  11.677  0.5946 -0.0877 -0.1037
   81TCq2    C7 1240   4.106   1.572  11.783 -0.1101  0.0276  0.2155
   81TCq2    C8 1241   3.953   1.428  11.677 -0.6914  0.4298  0.2772
   81TCq2    O4 1242   3.953   1.307  11.656  0.1760 -0.2456  0.5049
   81TCq2    C9 1243   4.408   1.414  11.552 -0.2034  0.2398  0.2019
   81TCq2    O5 1244   4.372   1.331  11.465  0.1211 -0.0160  0.0775
   81TCq2    O6 1245   4.520   1.475  11.548 -1.0198  0.0331 -0.0655
   81TCq2    H2 1246   4.441   1.571  11.767 -0.0387 -1.8116 -0.1225
   81TCq2    H3 1247   4.164   1.361  11.524  0.7367  0.2659 -1.2956
   81TCq2    H4 1248   4.018   1.596  11.841 -0.8186  1.6823 -1.5393
   82MPD2     C 1249   2.242   0.739  10.563 -0.0104  0.6391 -0.2003
   82MPD2    C1 1250   2.227   0.624  10.481  0.1384  0.5552 -0.0506
   82MPD2    C2 1251   2.224   0.497  10.539  0.0788  0.1452 -0.0744
   82MPD2    C3 1252   2.253   0.490  10.678 -0.0136 -0.0147  0.0740
   82MPD2    C4 1253   2.266   0.603  10.752 -0.2526  0.8743  0.3861
   82MPD2    C5 1254   2.256   0.724  10.696  0.3883 -0.1621  0.4853
   82MPD2     H 1255   2.202   0.409  10.480  0.1523  0.2010 -0.1861
   82MPD2    H1 1256   2.279   0.592  10.859 -1.2311  1.3787  0.5578
   82MPD2    H2 1257   2.232   0.840  10.525 -0.7150  0.4529 -0.5118
   82MPD2    H3 1258   2.260   0.814  10.755  0.4090  0.5433 -0.5801
   82MPD2     N 1259   2.272   0.368  10.744 -0.0608 -0.2335  0.2832
   82MPD2    H5 1260   2.292   0.373  10.844  1.3077  0.0815 -0.0101
   82MPD2    N1 1261   2.198   0.652  10.349  0.2632  0.2910  0.1486
   82MPD2    H7 1262   2.198   0.750  10.321 -0.4957  0.4779  0.7802
   83TCq2    C1 1263   2.263   0.238  10.694  0.0139 -0.6197 -0.1220
   83TCq2    O2 1264   2.249   0.201  10.577 -0.0238  0.3503  0.1733
   83TCq2    C2 1265   2.300   0.148  10.801  0.2495  0.0203 -0.4642
   83TCq2    C3 1266   2.378   0.200  10.903  0.0005  0.5377 -0.4242
   83TCq2    C4 1267   2.383   0.142  11.027  0.3664  0.2393 -0.3621
   83TCq2    C5 1268   2.291   0.047  11.063  0.5757 -0.2701  0.1597
   83TCq2    C6 1269   2.198   0.000  10.970  0.2589 -0.2505 -1.2187
   83TCq2    C7 1270   2.205   0.052  10.843 -0.4873 -0.4386 -0.0729
   83TCq2    C8 1271   2.099   4.621  11.016 -0.2657  0.0167  0.2040
   83TCq2    O4 1272   2.123   4.572  11.124  0.1636  0.8414  0.3447
   83TCq2    C9 1273   2.468   0.207  11.127  0.3242  0.2917 -0.0795
   83TCq2    O5 1274   2.452   0.162  11.243  0.0741 -0.0062  0.3774
   83TCq2    O6 1275   2.540   0.305  11.092 -0.3589 -0.5522  0.2363
   83TCq2    H2 1276   2.456   0.274  10.887  2.8508 -2.6111 -1.1315
   83TCq2    H3 1277   2.282   0.011  11.165  0.6076 -3.6833 -1.0147
   83TCq2    H4 1278   2.121   0.040  10.776 -0.1779 -0.7194 -0.4156
   84TCq2    C1 1279   3.107   4.055  10.667  0.0782  0.3554 -0.5765
   84TCq2    O2 1280   3.066   4.169  10.666  0.6763  0.3945 -0.1654
   84TCq2    C2 1281   3.149   3.994  10.790  0.6625 -0.7726  0.3284
   84TCq2    C3 1282   3.159   3.855  10.799  0.3614  0.0994 -0.3723
   84TCq2    C4 1283   3.219   3.796  10.910 -0.5029  0.1439  0.8980
   84TCq2    C5 1284   3.270   3.864  11.008  0.1032 -0.7443  0.0791
   84TCq2    C6 1285   3.241   3.995  11.010 -0.3352  0.7949  0.2940
   84TCq2    C7 1286   3.185   4.063  10.899  0.0588 -0.0528  0.1780
   84TCq2    C8 1287   3.255   4.079  11.127 -0.0100  0.0310  0.3053
   84TCq2    O4 1288   3.231   4.198  11.121 -0.2621 -0.1368 -1.3032
   84TCq2    C9 1289   3.217   3.656  10.916 -0.3734  0.1021  0.5363
   84TCq2    O5 1290   3.222   3.605  11.032 -0.2967  0.5250  0.1777
   84TCq2    O6 1291   3.245   3.590  10.813  0.1292  0.5885  0.0156
   84TCq2    H2 1292   3.108   3.795  10.725 -0.0282  1.1575 -0.9681
   84TCq2    H3 1293   3.323   3.811  11.087  0.3587 -2.1879 -1.0544
   84TCq2    H4 1294   3.199   4.171  10.892 -2.9247  0.2087 -2.1645
   85MPD2     C 1295   3.586   2.277  16.498 -0.3772 -0.1536 -0.9677
   85MPD2    C1 1296   3.479   2.343  16.438  0.3532  0.3647  0.2334
   85MPD2    C2 1297   3.513   2.457  16.363 -0.1151 -0.1749 -0.6827
   85MPD2    C3 1298   3.641   2.501  16.341 -0.5418  0.1282  0.3535
   85MPD2    C4 1299   3.741   2.425  16.389  0.5944  0.7112 -0.4953
   85MPD2    C5 1300   3.708   2.318  16.469 -0.6776  0.7026  1.0370
   85MPD2     H 1301   3.434   2.514  16.316 -0.3453 -0.8633 -1.1257
   85MPD2    H1 1302   3.843   2.462  16.378  0.4333  1.7056  1.3403
   85MPD2    H2 1303   3.571   2.191  16.562 -0.8055  0.8332  0.2501
   85MPD2    H3 1304   3.796   2.261  16.495  0.3989  1.2523 -1.4532
   85MPD2     N 1305   3.666   2.624  16.272  0.0603  0.1351  0.0470
   85MPD2    H5 1306   3.582   2.675  16.248  0.9733  0.6095 -2.1509
   85MPD2    N1 1307   3.347   2.307  16.445 -0.5454 -0.0310  0.5821
   85MPD2    H7 1308   3.280   2.362  16.393  0.1187 -1.7417 -2.1064
   86TCq2    C1 1309   3.796   2.679  16.243 -0.2332 -0.8072 -0.8039
   86TCq2    O2 1310   3.907   2.634  16.259  0.1265  0.1053  0.1174
   86TCq2    C2 1311   3.791   2.812  16.171 -0.0143 -0.3255  0.0336
   86TCq2    C3 1312   3.673   2.877  16.134  0.3970  0.4791  0.5846
   86TCq2    C4 1313   3.684   2.983  16.048 -0.2166 -0.7792 -0.1012
   86TCq2    C5 1314   3.806   3.032  15.997  0.3265 -0.5013 -0.6149
   86TCq2    C6 1315   3.922   2.974  16.038  0.3781 -0.3318 -0.6653
   86TCq2    C7 1316   3.909   2.864  16.128 -0.1076 -0.2626 -0.1310
   86TCq2    C8 1317   4.050   2.993  15.974  0.3852  0.0820  0.4785
   86TCq2    O4 1318   4.153   2.951  16.027  0.1440 -0.9465 -0.2300
   86TCq2    C9 1319   3.568   3.056  16.008  0.1034 -0.0628 -0.7675
   86TCq2    O5 1320   3.462   3.001  16.038 -0.2911 -0.2157 -0.1341
   86TCq2    O6 1321   3.581   3.177  15.972  0.2180  0.0121  0.1914
   86TCq2    H2 1322   3.576   2.828  16.140  0.4883  0.2027 -0.2597
   86TCq2    H3 1323   3.805   3.126  15.944  3.5420 -0.8031 -1.2461
   86TCq2    H4 1324   4.006   2.825  16.156 -0.0081  0.7503  0.9685
   87MPD2     C 1325   0.789   1.895   1.423  0.0097 -0.1212  0.2648
   87MPD2    C1 1326   0.711   1.832   1.323  0.4322 -0.8563 -0.4267
   87MPD2    C2 1327   0.626   1.903   1.238 -0.5831  0.3063 -0.5345
   87MPD2    C3 1328   0.615   2.043   1.252  0.0482  0.0885  0.5138
   87MPD2    C4 1329   0.699   2.108   1.341 -0.2868 -0.2360  0.2495
   87MPD2    C5 1330   0.778   2.035   1.422  0.2730 -0.0883  0.3811
   87MPD2     H 1331   0.572   1.853   1.158 -0.7960  0.3820 -0.4366
   87MPD2    H1 1332   0.702   2.216   1.348  0.8659 -0.2264 -0.4185
   87MPD2    H2 1333   0.836   1.848   1.508  2.2827  0.6341 -0.5646
   87MPD2    H3 1334   0.834   2.090   1.497  0.2866 -0.0524  0.3442
   87MPD2     N 1335   0.548   2.122   1.157  0.1701 -0.0631  0.0604
   87MPD2    H5 1336   0.573   2.219   1.143 -0.1660  0.0914  0.5642
   87MPD2    N1 1337   0.729   1.694   1.310 -0.0861 -0.2450 -0.5747
   87MPD2    H7 1338   0.802   1.645   1.361  0.7005  0.9831 -0.5126
   88TCq2    C1 1339   0.651   1.611   1.241 -0.2853  0.1964 -0.3309
   88TCq2    O2 1340   0.538   1.637   1.206  0.7282 -0.4094 -0.0962
   88TCq2    C2 1341   0.689   1.471   1.237 -0.6904  0.7104  0.2891
   88TCq2    C3 1342   0.588   1.385   1.195 -0.4542  0.2236 -0.0415
   88TCq2    C4 1343   0.613   1.267   1.138  0.7397  0.2951 -0.4197
   88TCq2    C5 1344   0.740   1.229   1.129 -0.2578  0.1181  0.2082
   88TCq2    C6 1345   0.841   1.305   1.179  0.8457 -1.2858  0.1756
   88TCq2    C7 1346   0.819   1.432   1.227 -0.2974 -0.7958 -0.9412
   88TCq2    C8 1347   0.970   1.279   1.123 -0.0231  0.4669  0.6215
   88TCq2    O4 1348   1.047   1.371   1.092 -0.0476  0.5365  0.9570
   88TCq2    C9 1349   0.507   1.169   1.091 -0.1920 -0.1464 -0.0902
   88TCq2    O5 1350   0.383   1.191   1.114 -0.0995 -0.5992  0.7685
   88TCq2    O6 1351   0.547   1.053   1.065 -0.0418 -0.3128  0.2540
   88TCq2    H2 1352   0.483   1.413   1.195 -0.2430  0.9659 -2.0558
   88TCq2    H3 1353   0.768   1.145   1.066  1.1068 -0.9442  2.2440
   88TCq2    H4 1354   0.899   1.504   1.239 -1.2716  0.1532 -0.1941
   89MPD2     C 1355   1.942   3.258   2.036 -0.3377 -0.2527  0.3202
   89MPD2    C1 1356   1.834   3.338   2.001 -0.3439  0.5925 -0.8378
   89MPD2    C2 1357   1.861   3.459   1.938 -0.9679  0.7407 -0.1361
   89MPD2    C3 1358   1.987   3.496   1.901  0.1738 -0.0220  0.3918
   89MPD2    C4 1359   2.094   3.413   1.935 -0.9269  0.3538 -0.3227
   89MPD2    C5 1360   2.069   3.300   2.002 -0.8624  0.0034  0.5911
   89MPD2     H 1361   1.775   3.516   1.904 -1.1639 -1.2175 -2.8918
   89MPD2    H1 1362   2.196   3.426   1.899 -1.5063  0.6314 -1.8392
   89MPD2    H2 1363   1.931   3.162   2.086 -0.0352 -3.2175 -5.3246
   89MPD2    H3 1364   2.164   3.256   2.030 -0.3460  1.1235  0.5964
   89MPD2     N 1365   1.994   3.608   1.816 -0.1958  0.6120  0.0908
   89MPD2    H5 1366   1.904   3.650   1.796 -0.4835 -0.5732 -1.1462
   89MPD2    N1 1367   1.703   3.307   2.034  0.2290 -0.6014 -0.2694
   89MPD2    H7 1368   1.633   3.356   1.979  1.6714  1.6553 -0.0711
   90TCq2    C1 1369   2.113   3.651   1.753  0.0350 -0.1595 -0.7213
   90TCq2    O2 1370   2.225   3.604   1.764 -0.2198 -0.4886  0.1088
   90TCq2    C2 1371   2.083   3.732   1.639  0.7494 -0.4371  0.1956
   90TCq2    C3 1372   1.976   3.819   1.655  0.3522 -0.1194  0.1947
   90TCq2    C4 1373   1.936   3.892   1.549  0.1547  0.2172  0.3061
   90TCq2    C5 1374   1.995   3.885   1.427 -0.2394 -0.2846  0.0723
   90TCq2    C6 1375   2.105   3.798   1.421  0.7062  0.2798  0.2668
   90TCq2    C7 1376   2.152   3.727   1.527  0.1934  0.4623 -0.4022
   90TCq2    C8 1377   2.145   3.763   1.283 -0.6223  0.4011  0.0591
   90TCq2    O4 1378   2.192   3.651   1.271 -0.0605 -0.5350 -0.7974
   90TCq2    C9 1379   1.815   3.975   1.550  0.1587  0.7145 -0.3051
   90TCq2    O5 1380   1.773   3.996   1.668  0.1237  0.5025  0.0047
   90TCq2    O6 1381   1.781   4.044   1.449  0.3457 -0.2362  0.6886
   90TCq2    H2 1382   1.934   3.835   1.754 -1.0666  1.7669 -0.7281
   90TCq2    H3 1383   1.960   3.935   1.338  0.3022  0.2773  0.1729
   90TCq2    H4 1384   2.230   3.653   1.515 -0.1119  0.1876 -0.6831
   91TMC2    C1 1385   3.728   3.576  16.723  0.4882  0.8253  0.5249
   91TMC2    C2 1386   3.806   3.578  16.839 -0.2068 -0.1872  0.2292
   91TMC2    C3 1387   3.768   3.664  16.940 -0.4069 -0.2737 -0.0687
   91TMC2    C4 1388   3.622   3.663  16.709 -0.2471 -0.2326  0.2820
   91TMC2    C5 1389   3.587   3.742  16.811 -0.5433 -0.2498 -0.4824
   91TMC2    C6 1390   3.653   3.735  16.934 -0.1476 -0.5089  0.0213
   91TMC2     C 1391   3.768   3.494  16.607 -0.3809  1.0849 -0.1031
   91TMC2     O 1392   3.685   3.470  16.524  0.0911  0.0332  0.3175
   91TMC2     H 1393   3.879   3.499  16.853 -2.2684 -2.1529 -0.1606
   91TMC2    H1 1394   3.553   3.648  16.627  1.2934 -1.7560 -0.7368
   91TMC2    H2 1395   3.633   3.813  17.006  2.0665 -0.2789  0.3998
   91TMC2    C7 1396   3.494   3.855  16.806  0.3322  0.2307  0.5797
   91TMC2    C8 1397   3.868   3.695  17.042 -0.4412  0.7930 -0.3661
   91TMC2    O1 1398   3.465   3.910  16.913 -0.3568 -0.5020  0.6179
   91TMC2    O2 1399   3.833   3.744  17.150 -0.0401  0.6097  0.0010
   91TMC2    O5 1400   3.990   3.704  16.986  0.0218 -0.3307  0.1157
   91TMC2    H5 1401   3.999   3.699  16.888  3.6023 -1.0183  0.4654
   92MPD2     C 1402   3.914   3.286  16.434  0.0898  0.1510  0.4711
   92MPD2    C1 1403   3.973   3.394  16.502 -0.5915 -0.5499  0.2097
   92MPD2    C2 1404   4.099   3.432  16.476  0.4792 -0.0894 -0.2102
   92MPD2    C3 1405   4.173   3.363  16.384  0.6618  0.1557 -0.2927
   92MPD2    C4 1406   4.120   3.249  16.324 -0.2844 -1.1263  0.9741
   92MPD2    C5 1407   3.991   3.214  16.346 -0.2174  0.4969  0.1301
   92MPD2     H 1408   4.143   3.519  16.524 -1.0680  0.2348  0.6281
   92MPD2    H1 1409   4.185   3.195  16.256 -0.7576  2.7972 -2.6279
   92MPD2    H2 1410   3.817   3.249  16.461  0.4540 -1.4258 -0.3718
   92MPD2    H3 1411   3.949   3.128  16.294  1.8305 -1.8827  2.4047
   92MPD2     N 1412   4.295   3.421  16.348  0.5819  0.3439 -0.1862
   92MPD2    H5 1413   4.312   3.516  16.381  1.4067 -0.7493  2.5723
   92MPD2    N1 1414   3.901   3.470  16.605 -0.9873  0.6791 -0.3103
   92MPD2    H7 1415   3.961   3.538  16.651  0.0141  1.3895 -2.6941
   93MPD2     C 1416   0.885   3.720  13.709  0.4438 -0.8088 -0.6601
   93MPD2    C1 1417   0.848   3.672  13.832 -0.7642  0.6462  0.9671
   93MPD2    C2 1418   0.710   3.644  13.854  0.3127 -0.4436  0.0584
   93MPD2    C3 1419   0.616   3.668  13.753 -0.0036 -0.3535  0.2648
   93MPD2    C4 1420   0.660   3.730  13.636  0.0408  0.9245  0.2171
   93MPD2    C5 1421   0.795   3.758  13.615 -0.1048 -0.3595 -0.1215
   93MPD2     H 1422   0.687   3.600  13.950  0.1783 -0.8385 -0.1558
   93MPD2    H1 1423   0.590   3.737  13.554  0.5044 -0.7729 -0.3268
   93MPD2    H2 1424   0.990   3.733  13.688  0.3926 -0.7509 -0.8835
   93MPD2    H3 1425   0.846   3.776  13.521  0.1198 -0.6285 -0.0499
   93MPD2     N 1426   0.478   3.637  13.770 -0.0318  0.1693 -0.4599
   93MPD2    H5 1427   0.415   3.663  13.694  1.7503  1.8019 -1.3783
   93MPD2    N1 1428   0.943   3.649  13.935 -0.6811  0.3196  0.1690
   93MPD2    H7 1429   0.908   3.621  14.026 -0.8507 -1.2303 -0.3794
   94TCq2    C1 1430   1.083   3.645  13.919 -0.8061  0.4626 -0.3387
   94TCq2    O2 1431   1.145   3.630  13.813  0.3837 -0.1900 -0.5622
   94TCq2    C2 1432   1.154   3.652  14.045  0.2693  0.3419 -0.0361
   94TCq2    C3 1433   1.083   3.677  14.162 -0.0553  0.0310 -0.0235
   94TCq2    C4 1434   1.159   3.718  14.264  0.3109 -0.5559 -0.0082
   94TCq2    C5 1435   1.293   3.734  14.272 -0.2632 -0.0378  0.3108
   94TCq2    C6 1436   1.361   3.691  14.162 -0.7172 -0.4205 -0.2716
   94TCq2    C7 1437   1.294   3.656  14.045  0.1653 -0.5935 -0.5934
   94TCq2    C8 1438   1.498   3.727  14.135  0.0001 -0.6293 -0.8294
   94TCq2    O4 1439   1.538   3.714  14.019 -0.7713  0.2696  0.4271
   94TCq2    C9 1440   1.079   3.736  14.388 -0.2621  0.0865  0.2519
   94TCq2    O5 1441   0.962   3.695  14.401  0.3117 -0.2806 -0.1685
   94TCq2    O6 1442   1.138   3.795  14.483 -0.2175 -0.5661 -0.7134
   94TCq2    H2 1443   0.976   3.664  14.171  0.5202 -4.2222  0.8125
   94TCq2    H3 1444   1.337   3.758  14.368 -1.6755  1.2528  0.6316
   94TCq2    H4 1445   1.349   3.627  13.956 -0.7408 -0.1890 -1.2851
   95TMC2    C1 1446   0.949   0.347  16.081 -0.3167  0.0176 -0.0448
   95TMC2    C2 1447   1.030   0.237  16.095 -0.4285  0.2553  0.0761
   95TMC2    C3 1448   0.967   0.116  16.124  0.3399 -0.3727 -0.8038
   95TMC2    C4 1449   0.812   0.352  16.098  0.0690  0.5585 -0.4897
   95TMC2    C5 1450   0.754   0.228  16.121  0.2112  0.2800  0.3279
   95TMC2    C6 1451   0.829   0.114  16.143 -0.8224 -0.7023  0.2950
   95TMC2     C 1452   1.010   0.469  16.042  0.1488 -0.1920 -0.3702
   95TMC2     O 1453   1.123   0.469  16.001 -0.0020 -0.3230 -0.3004
   95TMC2     H 1454   1.137   0.233  16.078 -0.3365  3.2481  0.0326
   95TMC2    H1 1455   0.746   0.433  16.069 -0.5484 -0.0612 -0.7826
   95TMC2    H2 1456   0.769   0.025  16.155 -0.3232 -1.2959 -1.7141
   95TMC2    C7 1457   0.604   0.211  16.133  0.1599 -0.3361  0.1129
   95TMC2    C8 1458   1.034   4.708  16.107  0.3151  0.2390  0.0277
   95TMC2    O1 1459   0.563   0.147  16.228 -0.1813  0.2395  0.1013
   95TMC2    O2 1460   0.969   4.609  16.130  0.1605  0.1136  0.0038
   95TMC2    O5 1461   1.159   4.715  16.152 -0.2925  0.3617  0.5155
   95TMC2    H5 1462   1.203   0.080  16.169 -0.5265  0.6562 -0.3682
   96MPD2     C 1463   1.014   0.982  16.063 -0.2240  0.6442  0.2282
   96MPD2    C1 1464   1.076   0.896  15.975  0.7610 -0.2025 -0.1833
   96MPD2    C2 1465   1.062   0.757  15.996 -0.2918  0.2681 -0.0454
   96MPD2    C3 1466   0.976   0.706  16.096 -0.1400  0.4677  1.3536
   96MPD2    C4 1467   0.907   0.795  16.175  0.4764  0.5870 -0.4002
   96MPD2    C5 1468   0.924   0.932  16.156  0.7316 -0.2220  0.0502
   96MPD2     H 1469   1.119   0.685  15.940 -0.5578  0.9284 -1.1551
   96MPD2    H1 1470   0.838   0.755  16.248 -0.7955  1.8848 -0.8997
   96MPD2    H2 1471   1.008   1.086  16.032  1.1355  0.4418 -0.7126
   96MPD2    H3 1472   0.851   1.000  16.198  0.2038 -0.1740 -0.9520
   96MPD2     N 1473   0.947   0.569  16.117 -0.8139  0.1230  0.1370
   96MPD2    H5 1474   0.884   0.543  16.192 -2.2001  0.2135 -1.0006
   96MPD2    N1 1475   1.152   0.952  15.868  0.0588 -0.0583  0.2572
   96MPD2    H7 1476   1.155   1.053  15.871 -1.9060 -0.0500  2.1900
   97MPD2     C 1477   2.976   2.809   0.989  0.2446  0.0051 -0.1088
   97MPD2    C1 1478   2.970   2.910   1.081  0.6268  0.3723 -0.5470
   97MPD2    C2 1479   3.013   3.038   1.049  0.1661 -0.4204  0.3048
   97MPD2    C3 1480   3.060   3.069   0.925 -0.1049 -0.0490  0.1532
   97MPD2    C4 1481   3.057   2.966   0.829  0.1630  0.9311  0.0539
   97MPD2    C5 1482   3.012   2.842   0.858 -0.5384  0.0789 -0.1750
   97MPD2     H 1483   3.016   3.113   1.127  1.7640 -0.2041  0.0268
   97MPD2    H1 1484   3.099   2.973   0.729 -1.1003 -0.9187 -0.6139
   97MPD2    H2 1485   2.936   2.709   1.001 -2.8100  1.2229 -0.0025
   97MPD2    H3 1486   3.028   2.758   0.791 -1.1912 -0.9204  0.9214
   97MPD2     N 1487   3.123   3.187   0.886 -0.0924  0.8377 -0.2593
   97MPD2    H5 1488   3.150   3.196   0.789 -0.8279 -0.2290 -0.5579
   97MPD2    N1 1489   2.933   2.882   1.215 -0.1845 -0.9563 -0.3686
   97MPD2    H7 1490   2.916   2.784   1.235  0.2092 -0.9686 -0.1064
   98TCq2    C1 1491   3.132   3.309   0.960 -0.8285 -0.2183  0.5871
   98TCq2    O2 1492   3.105   3.335   1.077 -0.0231 -0.7305 -0.4456
   98TCq2    C2 1493   3.161   3.417   0.872  0.3371  0.5207  0.1624
   98TCq2    C3 1494   3.123   3.419   0.745  0.5293 -0.5758  0.0885
   98TCq2    C4 1495   3.145   3.532   0.673  0.0915 -0.2193 -0.2079
   98TCq2    C5 1496   3.187   3.649   0.734  0.5129 -0.2824 -0.0534
   98TCq2    C6 1497   3.221   3.645   0.873  0.0866  0.4885 -0.2327
   98TCq2    C7 1498   3.206   3.529   0.940 -0.4530 -0.0298 -0.5280
   98TCq2    C8 1499   3.301   3.757   0.923  0.7174  0.6797  0.1257
   98TCq2    O4 1500   3.349   3.834   0.839 -0.3558 -0.0040  0.3527
   98TCq2    C9 1501   3.117   3.525   0.533  0.4264 -0.4153  0.5311
   98TCq2    O5 1502   3.118   3.635   0.471  0.1790 -0.7106  0.4614
   98TCq2    O6 1503   3.051   3.424   0.497  0.3697 -0.4394 -0.1304
   98TCq2    H2 1504   3.098   3.329   0.689 -1.9846 -0.5409  1.1808
   98TCq2    H3 1505   3.175   3.741   0.677  2.6318  0.7693  1.1790
   98TCq2    H4 1506   3.237   3.509   1.042 -2.0369  0.7431  0.1208
   99MPD2     C 1507   1.867   0.860   1.609  0.7111 -0.0903 -0.2304
   99MPD2    C1 1508   1.779   0.841   1.710  0.4154 -0.4010  0.2005
   99MPD2    C2 1509   1.732   0.711   1.741 -0.0071 -0.5297 -0.4571
   99MPD2    C3 1510   1.772   0.605   1.657  0.7741 -0.3244 -0.4617
   99MPD2    C4 1511   1.858   0.635   1.557 -0.0795 -0.3130 -0.7358
   99MPD2    C5 1512   1.904   0.758   1.530 -0.0423 -0.0593 -0.5825
   99MPD2     H 1513   1.669   0.697   1.829  0.7277 -0.6475  0.0481
   99MPD2    H1 1514   1.888   0.557   1.487 -0.7882  1.5229 -3.0908
   99MPD2    H2 1515   1.889   0.961   1.577  0.5259 -0.3857 -1.3060
   99MPD2    H3 1516   1.965   0.770   1.441 -0.7825 -2.0071 -1.3468
   99MPD2     N 1517   1.732   0.471   1.687  0.8379  0.0788 -0.0265
   99MPD2    H5 1518   1.773   0.406   1.621  1.8895  0.4617  0.2362
   99MPD2    N1 1519   1.729   0.944   1.791 -0.2870  0.4713 -0.1415
   99MPD2    H7 1520   1.668   0.915   1.867  1.3124 -4.1169 -0.5942
  100TCq2    C1 1521   1.777   1.074   1.796  0.8136 -0.1481  0.2280
  100TCq2    O2 1522   1.880   1.114   1.741  0.1746 -0.0373 -1.0951
  100TCq2    C2 1523   1.709   1.162   1.884 -0.6259  0.8763 -0.6945
  100TCq2    C3 1524   1.789   1.265   1.931  0.4516  0.3924  0.6244
  100TCq2    C4 1525   1.728   1.369   1.992  0.2329  0.3383 -0.2755
  100TCq2    C5 1526   1.593   1.378   2.001 -0.5073  0.0239 -1.2496
  100TCq2    C6 1527   1.516   1.274   1.950  0.2385 -0.6005 -0.4980
  100TCq2    C7 1528   1.572   1.168   1.882  0.3260  0.7087  0.5622
  100TCq2    C8 1529   1.379   1.303   1.915  0.3519 -0.1903 -0.3218
  100TCq2    O4 1530   1.340   1.418   1.929 -0.5739  0.1080  0.9090
  100TCq2    C9 1531   1.810   1.459   2.070  0.4213 -0.2008 -0.0567
  100TCq2    O5 1532   1.751   1.539   2.147 -0.3712 -0.1381  0.4377
  100TCq2    O6 1533   1.931   1.430   2.072  0.1797 -0.2769 -0.7599
  100TCq2    H2 1534   1.897   1.263   1.921  0.4301 -0.5358  0.6565
  100TCq2    H3 1535   1.554   1.459   2.063 -2.3572 -0.5306 -1.6961
  100TCq2    H4 1536   1.514   1.088   1.838 -1.0253  1.7649  0.4076
  101MPD2     C 1537   2.548   1.218  13.115  0.0902 -0.0568 -0.1938
  101MPD2    C1 1538   2.455   1.320  13.129  0.6745  0.8977 -0.1269
  101MPD2    C2 1539   2.339   1.289  13.201  0.1359  0.5436  0.3969
  101MPD2    C3 1540   2.307   1.157  13.246  0.3256  0.5477 -0.8478
  101MPD2    C4 1541   2.403   1.060  13.231  0.7883  0.0761 -0.4344
  101MPD2    C5 1542   2.520   1.096  13.163 -0.1331  0.4246  0.0473
  101MPD2     H 1543   2.276   1.373  13.225 -0.1620  0.1672  0.9250
  101MPD2    H1 1544   2.390   0.956  13.260 -1.2104  0.3632 -0.3395
  101MPD2    H2 1545   2.639   1.245  13.063  1.0125 -0.6671  1.0887
  101MPD2    H3 1546   2.588   1.016  13.137 -1.0093 -0.5115  0.6056
  101MPD2     N 1547   2.179   1.131  13.306 -0.7368  0.3954  0.5040
  101MPD2    H5 1548   2.127   1.216  13.328 -1.6808  0.4070 -1.7852
  101MPD2    N1 1549   2.486   1.447  13.071  0.6056  0.1256 -0.3411
  101MPD2    H7 1550   2.584   1.466  13.051  0.7281  1.4244  1.3889
  102TCq2    C1 1551   2.727   1.882  12.951 -0.0252  0.0841 -0.0619
  102TCq2    O2 1552   2.753   1.978  12.878 -0.3202 -0.0832  0.4822
  102TCq2    C2 1553   2.591   1.823  12.938 -0.1039 -0.0558 -0.3285
  102TCq2    C3 1554   2.508   1.886  12.849 -0.7360  0.2379  0.2476
  102TCq2    C4 1555   2.396   1.827  12.800 -0.1048 -0.2076  0.1136
  102TCq2    C5 1556   2.363   1.709  12.859 -0.4675  0.4393  0.5595
  102TCq2    C6 1557   2.439   1.647  12.955  0.2152 -0.0137  0.1593
  102TCq2    C7 1558   2.553   1.706  13.002 -0.5716  0.4786  0.3314
  102TCq2    C8 1559   2.389   1.533  13.025 -0.1949  0.3420 -0.2669
  102TCq2    O4 1560   2.268   1.525  13.031 -0.0742 -0.5348 -0.4207
  102TCq2    C9 1561   2.312   1.890  12.700 -0.4788  0.1065  0.8616
  102TCq2    O5 1562   2.364   1.988  12.640  0.0957 -0.2302  0.3214
  102TCq2    O6 1563   2.206   1.831  12.657 -0.2836 -0.2288  0.4766
  102TCq2    H2 1564   2.539   1.982  12.809  1.1223 -0.3401  0.2706
  102TCq2    H3 1565   2.272   1.663  12.824 -1.4001  1.3901  1.7101
  102TCq2    H4 1566   2.615   1.660  13.078  3.6309  1.5558 -2.4721
  103TMC2    C1 1567   1.014   1.369  12.829  0.4955 -0.6838  0.1820
  103TMC2    C2 1568   0.998   1.471  12.744  0.2278  0.3545 -1.0988
  103TMC2    C3 1569   1.075   1.584  12.757  0.0571  0.2414 -0.5059
  103TMC2    C4 1570   1.088   1.382  12.939 -0.4001 -0.0093 -0.1086
  103TMC2    C5 1571   1.145   1.505  12.965  0.1541  0.3906  0.4643
  103TMC2    C6 1572   1.150   1.603  12.870  0.4388 -0.1164 -0.5220
  103TMC2     C 1573   0.993   1.232  12.790 -0.5380  0.8597  0.1132
  103TMC2     O 1574   1.046   1.144  12.854  0.1938  0.0239  0.1283
  103TMC2     H 1575   0.959   1.456  12.644  1.0931 -0.1858 -1.3623
  103TMC2    H1 1576   1.087   1.304  13.014 -0.7365  0.5926  0.5198
  103TMC2    H2 1577   1.194   1.701  12.886  0.0612  0.1856 -1.3506
  103TMC2    C7 1578   1.108   1.560  13.094  0.5922 -0.0642 -0.1590
  103TMC2    C8 1579   1.062   1.687  12.654 -0.0117  0.4496 -0.1215
  103TMC2    O1 1580   1.031   1.492  13.163 -0.5075 -0.6630 -0.2455
  103TMC2    O2 1581   0.959   1.705  12.592  0.0506  0.2354  0.0125
  103TMC2    O5 1582   1.186   1.710  12.606 -0.2237  0.1660 -0.2735
  103TMC2    H5 1583   1.243   1.663  12.671 -0.0816  1.0166  0.2118
  104MPD2     C 1584   0.958   0.970  12.637 -0.1910 -0.5011 -0.0558
  104MPD2    C1 1585   0.890   1.089  12.616 -0.0038 -1.8687  0.4426
  104MPD2    C2 1586   0.796   1.096  12.520  0.9587  0.1647 -0.0461
  104MPD2    C3 1587   0.757   0.988  12.447  0.8404 -0.0116 -0.0514
  104MPD2    C4 1588   0.834   0.871  12.450  0.0455  0.5691 -0.0547
  104MPD2    C5 1589   0.933   0.862  12.545  0.1374  0.8239  0.0736
  104MPD2     H 1590   0.751   1.193  12.499  2.6907  0.5846 -1.9010
  104MPD2    H1 1591   0.824   0.784  12.386  0.4101 -0.5552  1.4122
  104MPD2    H2 1592   1.027   0.959  12.720 -1.0090  2.2605  1.0340
  104MPD2    H3 1593   0.986   0.770  12.567  2.3580  2.4714  1.6753
  104MPD2     N 1594   0.657   1.016  12.350 -0.5565 -0.1518 -0.0353
  104MPD2    H5 1595   0.611   1.106  12.352  1.1653  0.7370  0.3007
  104MPD2    N1 1596   0.913   1.215  12.680 -0.2669  0.4840  0.1432
  104MPD2    H7 1597   0.860   1.299  12.658  0.6504  0.9652 -0.2106
  105MPD2     C 1598   2.300   0.993   0.228  0.1445 -0.3280 -0.4817
  105MPD2    C1 1599   2.197   1.062   0.169  0.7228 -0.2319 -0.2165
  105MPD2    C2 1600   2.094   1.102   0.251 -0.5137 -0.4333 -0.3194
  105MPD2    C3 1601   2.082   1.088   0.385 -0.3567  0.8573  0.1322
  105MPD2    C4 1602   2.181   1.009   0.437  0.1066  0.1848 -0.0377
  105MPD2    C5 1603   2.285   0.963   0.364  0.1032 -0.2068 -0.0315
  105MPD2     H 1604   2.019   1.168   0.209 -0.1156  0.3811  0.2452
  105MPD2    H1 1605   2.196   1.008   0.545  0.7571  0.9994 -0.1134
  105MPD2    H2 1606   2.398   0.976   0.184 -1.0260 -0.6711 -2.9329
  105MPD2    H3 1607   2.371   0.924   0.418 -0.5836  0.2680  1.4194
  105MPD2     N 1608   1.970   1.135   0.457  0.8700  0.3624 -0.3697
  105MPD2    H5 1609   1.907   1.199   0.409  0.9960  0.3497 -0.5512
  105MPD2    N1 1610   2.197   1.095   0.032 -0.6028 -0.1101  0.5043
  105MPD2    H7 1611   2.115   1.144   0.000 -1.7361 -0.2128  3.2535
  106TCq2    C1 1612   1.951   1.144   0.591  0.2293  0.2227 -0.6950
  106TCq2    O2 1613   2.007   1.102   0.691  0.1659  0.5657 -0.5772
  106TCq2    C2 1614   1.825   1.204   0.632  0.1140 -0.5921 -0.2509
  106TCq2    C3 1615   1.750   1.264   0.535  0.9224  0.5843  0.0989
  106TCq2    C4 1616   1.613   1.283   0.559  0.4681 -0.3931  0.7683
  106TCq2    C5 1617   1.564   1.264   0.691 -0.0787 -0.3921  0.2708
  106TCq2    C6 1618   1.643   1.197   0.783  0.4917  0.0418  0.2408
  106TCq2    C7 1619   1.775   1.160   0.751  0.3600  0.1836 -0.8357
  106TCq2    C8 1620   1.574   1.124   0.888  0.3619  0.2019 -0.4258
  106TCq2    O4 1621   1.638   1.033   0.945 -0.6374  0.2456 -0.3902
  106TCq2    C9 1622   1.527   1.345   0.459  0.2774 -0.0222  0.1762
  106TCq2    O5 1623   1.563   1.341   0.338 -0.2515  0.2210  0.3253
  106TCq2    O6 1624   1.406   1.367   0.498  0.5814 -0.2554  0.6225
  106TCq2    H2 1625   1.770   1.276   0.430 -1.1961  1.0444 -0.2467
  106TCq2    H3 1626   1.461   1.286   0.718  0.0373  3.1627 -2.1266
  106TCq2    H4 1627   1.832   1.099   0.819 -0.5920  0.7031  0.4195
  107TMC2    C1 1628   3.035   4.712  11.729 -0.7924 -0.4855  0.2719
  107TMC2    C2 1629   3.101   0.071  11.643 -0.1440 -0.1448 -0.3342
  107TMC2    C3 1630   3.206   0.020  11.567 -0.0846 -0.1025  0.5533
  107TMC2    C4 1631   3.084   4.588  11.763 -0.2218 -0.1557  0.5905
  107TMC2    C5 1632   3.177   4.534  11.674 -0.7652 -0.2536 -0.9359
  107TMC2    C6 1633   3.236   4.613  11.581 -0.4956 -0.2018 -0.1546
  107TMC2     C 1634   2.910   0.028  11.789 -0.2428  0.9899 -0.7630
  107TMC2     O 1635   2.885   4.701  11.900  0.5205 -0.1128 -0.4805
  107TMC2     H 1636   3.075   0.176  11.629  1.2435  0.2135 -0.1911
  107TMC2    H1 1637   3.034   4.525  11.835 -3.5166 -0.4620 -1.9283
  107TMC2    H2 1638   3.332   4.583  11.544 -0.0933 -1.1083  1.6066
  107TMC2    C7 1639   3.202   4.390  11.690  0.4610  0.1480 -0.2769
  107TMC2    C8 1640   3.281   0.108  11.480 -0.6249  0.6509  0.3095
  107TMC2    O1 1641   3.198   4.339  11.801  0.2663 -0.1258  0.5271
  107TMC2    O2 1642   3.307   0.223  11.509  0.1466 -0.0764 -0.1205
  107TMC2    O5 1643   3.361   0.049  11.388  0.1990  0.1522  0.7620
  107TMC2    H5 1644   3.338   4.677  11.369  0.1397  0.0153  1.4882
  108MPD2     C 1645   2.669   0.237  11.636  0.8756  0.3405 -0.0199
  108MPD2    C1 1646   2.711   0.154  11.731 -0.6632 -0.7535 -0.1174
  108MPD2    C2 1647   2.639   0.154  11.852  0.2586  0.0813 -0.1961
  108MPD2    C3 1648   2.528   0.227  11.874  0.2560 -0.2768  0.3011
  108MPD2    C4 1649   2.475   0.299  11.766  0.7085 -0.6251 -0.2828
  108MPD2    C5 1650   2.556   0.307  11.650  0.1605  0.3079 -0.5711
  108MPD2     H 1651   2.681   0.103  11.938 -0.9637 -2.5888 -1.1605
  108MPD2    H1 1652   2.381   0.354  11.771  1.7612  1.2832 -1.4612
  108MPD2    H2 1653   2.716   0.236  11.538  2.7402  1.2200  0.8562
  108MPD2    H3 1654   2.519   0.374  11.574  0.8501  0.5036 -0.7299
  108MPD2     N 1655   2.452   0.224  11.990  0.3477 -0.0880  0.1464
  108MPD2    H5 1656   2.366   0.278  11.991 -0.1427 -0.8908  0.8787
  108MPD2    N1 1657   2.841   0.111  11.711 -0.2605 -0.3918 -0.1841
  108MPD2    H7 1658   2.877   0.134  11.619  0.9144  0.3166  0.4513
  109MPD2     C 1659   2.602   1.597   1.699 -0.3143 -0.1384 -0.0340
  109MPD2    C1 1660   2.589   1.731   1.732  0.2768  0.6007  0.4024
  109MPD2    C2 1661   2.701   1.803   1.765  0.0252 -0.1510 -0.1289
  109MPD2    C3 1662   2.831   1.745   1.777  0.5877 -0.0374  0.1691
  109MPD2    C4 1663   2.847   1.607   1.737 -0.3710  0.2032 -0.5496
  109MPD2    C5 1664   2.727   1.540   1.710  0.1845  0.1988 -1.0802
  109MPD2     H 1665   2.690   1.899   1.815  0.2437 -0.7585  1.0667
  109MPD2    H1 1666   2.941   1.553   1.744  0.7699  2.4485  1.2819
  109MPD2    H2 1667   2.512   1.546   1.669 -0.0228  0.6460 -2.2369
  109MPD2    H3 1668   2.727   1.437   1.678 -1.5623  0.5837 -2.3452
  109MPD2     N 1669   2.931   1.821   1.835  0.0235 -0.3008 -0.4239
  109MPD2    H5 1670   2.916   1.914   1.872  1.4705 -0.3554  0.2778
  109MPD2    N1 1671   2.467   1.791   1.719  0.3281  0.2122  0.6264
  109MPD2    H7 1672   2.478   1.892   1.720  0.9471  0.1740 -1.9380
  110TCq2    C1 1673   3.058   1.776   1.863  0.4593  0.4869  0.4276
  110TCq2    O2 1674   3.109   1.668   1.842 -0.1704  0.3879 -0.1691
  110TCq2    C2 1675   3.138   1.887   1.916  0.6654  0.1532 -0.6804
  110TCq2    C3 1676   3.223   1.851   2.010 -0.1825  0.5619 -0.1207
  110TCq2    C4 1677   3.267   1.951   2.099 -0.1343 -0.1541  0.3667
  110TCq2    C5 1678   3.219   2.087   2.085  0.4461 -0.0044  0.2629
  110TCq2    C6 1679   3.137   2.114   1.979  0.5378  0.7297  0.3017
  110TCq2    C7 1680   3.088   2.014   1.895  0.1845  0.6746  0.4901
  110TCq2    C8 1681   3.089   2.249   1.944 -0.0600  0.5663 -0.1159
  110TCq2    O4 1682   3.047   2.265   1.828  0.4811  0.6398  0.5389
  110TCq2    C9 1683   3.372   1.922   2.189  0.3813 -0.2294 -0.2175
  110TCq2    O5 1684   3.419   2.014   2.251  0.2892 -0.3580 -0.5988
  110TCq2    O6 1685   3.423   1.806   2.174 -0.7216 -0.2659  0.3615
  110TCq2    H2 1686   3.266   1.751   2.010  0.5240  0.8603  1.4039
  110TCq2    H3 1687   3.259   2.163   2.151  1.3563  0.4021 -0.7693
  110TCq2    H4 1688   3.023   2.046   1.814  0.5108 -1.7598 -0.7381
  111TMC2    C1 1689   3.380   2.755  11.746  0.2089 -1.3835 -0.1887
  111TMC2    C2 1690   3.468   2.854  11.700  0.3672  0.3716 -0.2747
  111TMC2    C3 1691   3.572   2.879  11.785 -0.4845 -0.3019  0.5410
  111TMC2    C4 1692   3.395   2.677  11.858  0.0759  0.2698  0.3455
  111TMC2    C5 1693   3.489   2.732  11.945 -0.6787  0.3212  1.4465
  111TMC2    C6 1694   3.574   2.834  11.913  0.5454  0.9789 -0.3146
  111TMC2     C 1695   3.290   2.710  11.641  0.1459 -0.2989  0.2286
  111TMC2     O 1696   3.322   2.725  11.525 -0.6299  0.2703  0.4843
  111TMC2     H 1697   3.454   2.903  11.605  0.0011  0.9356  0.0700
  111TMC2    H1 1698   3.325   2.600  11.887  1.9062 -1.9391 -1.0952
  111TMC2    H2 1699   3.634   2.892  11.982 -0.1519  0.7577  0.4728
  111TMC2    C7 1700   3.503   2.652  12.069 -0.7021 -0.5662 -0.4634
  111TMC2    C8 1701   3.636   3.001  11.754 -0.1266  0.0822  0.3383
  111TMC2    O1 1702   3.436   2.549  12.076 -0.2857 -0.3634 -0.0698
  111TMC2    O2 1703   3.563   3.096  11.738  0.1613 -0.1623  0.2017
  111TMC2    O5 1704   3.757   2.995  11.813 -1.0843 -0.2569 -0.5817
  111TMC2    H5 1705   3.781   2.900  11.807  1.5480  0.7619 -5.5605
  112MPD2     C 1706   2.794   2.593  11.517  0.5520  0.4188  0.1952
  112MPD2    C1 1707   2.905   2.619  11.436 -0.0233 -0.4247 -0.3357
  112MPD2    C2 1708   3.032   2.634  11.493  0.2473 -0.7212 -0.2987
  112MPD2    C3 1709   3.051   2.641  11.631 -0.0368 -0.7456  0.9500
  112MPD2    C4 1710   2.937   2.624  11.716  0.2493  0.4977 -0.3117
  112MPD2    C5 1711   2.815   2.603  11.654  0.4881  0.1307 -0.6306
  112MPD2     H 1712   3.116   2.646  11.425  0.5829 -2.1720 -0.1582
  112MPD2    H1 1713   2.944   2.627  11.824  0.0688  1.8189 -0.3464
  112MPD2    H2 1714   2.697   2.561  11.482  0.1011  1.1094  0.8289
  112MPD2    H3 1715   2.727   2.583  11.715 -0.3795 -0.8924 -2.2122
  112MPD2     N 1716   3.171   2.668  11.695  1.2751  0.4137 -0.4323
  112MPD2    H5 1717   3.159   2.677  11.795  1.4831 -0.9963 -0.2717
  112MPD2    N1 1718   2.903   2.618  11.297 -0.0080  0.0536  0.4040
  112MPD2    H7 1719   2.988   2.643  11.247  0.5382  0.4302  1.5248
  113MPD2     C 1720   0.496   0.543   1.208  0.0692  0.2952 -0.6614
  113MPD2    C1 1721   0.422   0.638   1.150 -0.3751 -0.4303  0.1996
  113MPD2    C2 1722   0.358   0.611   1.029 -0.5195  0.0631 -0.1337
  113MPD2    C3 1723   0.377   0.487   0.973  0.1876 -0.4748  0.0610
  113MPD2    C4 1724   0.469   0.396   1.028  0.2538 -0.0826 -0.0091
  113MPD2    C5 1725   0.527   0.425   1.152  0.3512  0.0304  0.0240
  113MPD2     H 1726   0.284   0.683   0.994 -2.3841 -1.9891 -0.3835
  113MPD2    H1 1727   0.495   0.310   0.968  1.2724 -0.7763  1.4568
  113MPD2    H2 1728   0.534   0.567   1.307  0.2151  0.3911 -0.7399
  113MPD2    H3 1729   0.590   0.349   1.197 -0.1070 -0.0189  0.5830
  113MPD2     N 1730   0.304   0.450   0.858  0.2721  0.0552  0.2410
  113MPD2    H5 1731   0.316   0.352   0.833 -0.3019  0.4326 -1.4792
  113MPD2    N1 1732   0.411   0.771   1.189 -0.1840 -0.1469  0.0649
  113MPD2    H7 1733   0.356   0.834   1.133 -1.7928  0.6857  2.5722
  114TCq2    C1 1734   0.224   0.521   0.772  0.0355 -0.3238 -0.3489
  114TCq2    O2 1735   0.190   0.640   0.782 -0.4759  0.1612  0.3062
  114TCq2    C2 1736   0.167   0.435   0.670  0.0477  1.1176 -0.3456
  114TCq2    C3 1737   0.124   0.488   0.554  0.0872 -0.1980 -0.1510
  114TCq2    C4 1738   0.059   0.420   0.464 -0.3223 -0.4349 -0.5311
  114TCq2    C5 1739   0.026   0.283   0.489 -0.0086  0.2985 -0.2070
  114TCq2    C6 1740   0.077   0.230   0.607 -0.0504  0.0567 -0.0375
  114TCq2    C7 1741   0.150   0.302   0.703  0.3503 -0.5641 -0.2660
  114TCq2    C8 1742   0.047   0.081   0.633 -0.4267 -1.0374  0.0561
  114TCq2    O4 1743   4.710   0.024   0.542  0.4918  0.6805 -0.1054
  114TCq2    C9 1744   0.011   0.483   0.344 -0.0384  0.0850  0.1000
  114TCq2    O5 1745   4.649   0.428   0.265  0.1466  0.7424 -0.7140
  114TCq2    O6 1746   0.047   0.597   0.318 -0.6721  0.6288 -0.0049
  114TCq2    H2 1747   0.152   0.592   0.543 -1.4593  0.0687 -1.5260
  114TCq2    H3 1748   4.684   0.229   0.420  3.0092 -1.2615 -1.7780
  114TCq2    H4 1749   0.165   0.268   0.805  2.6690 -0.2316 -0.5014
  115TMC2    C1 1750   1.119   3.080   0.039 -0.4923  1.0157 -0.6200
  115TMC2    C2 1751   1.064   3.081   0.166 -0.5525 -0.3834 -0.0554
  115TMC2    C3 1752   1.078   3.197   0.237  0.3011  0.0396 -0.3537
  115TMC2    C4 1753   1.169   3.194  17.675  0.1036 -0.0033  0.4024
  115TMC2    C5 1754   1.178   3.308   0.065  0.2804 -0.1469  0.3708
  115TMC2    C6 1755   1.125   3.310   0.193  0.4651 -0.1912 -0.0086
  115TMC2     C 1756   1.120   2.953  17.662  0.4003 -0.0073  0.1409
  115TMC2     O 1757   1.036   2.869  17.688 -0.1937 -0.3857 -0.1496
  115TMC2     H 1758   1.028   2.990   0.213 -1.4629  1.2157  2.3538
  115TMC2    H1 1759   1.208   3.193  17.574  1.1078  2.7038  0.7829
  115TMC2    H2 1760   1.128   3.395   0.260  2.8243 -0.1304 -0.2094
  115TMC2    C7 1761   1.225   3.440   0.022  0.5918 -0.0196  0.0251
  115TMC2    C8 1762   1.034   3.206   0.374 -0.5441  0.1689 -0.2902
  115TMC2    O1 1763   1.209   3.531   0.098  0.5033 -0.7338 -0.2238
  115TMC2    O2 1764   1.056   3.298   0.452  0.1927  0.8390  0.3212
  115TMC2    O5 1765   0.919   3.138   0.379  0.5601 -0.2912 -0.7637
  115TMC2    H5 1766   0.876   3.120   0.293 -0.3983 -2.2991  0.1403
  116MPD2     C 1767   1.365   2.632  17.340  0.3848 -0.6089 -0.0401
  116MPD2    C1 1768   1.245   2.623  17.410  0.2213  0.3525 -0.7630
  116MPD2    C2 1769   1.198   2.728  17.488 -0.2394  0.1911 -0.3473
  116MPD2    C3 1770   1.273   2.844  17.501 -0.1832 -0.3587 -0.0679
  116MPD2    C4 1771   1.387   2.852  17.420 -0.3916  0.2262 -0.8439
  116MPD2    C5 1772   1.430   2.750  17.345  0.0591 -0.8109  0.7913
  116MPD2     H 1773   1.103   2.709  17.538  0.6986  1.0021  1.7455
  116MPD2    H1 1774   1.444   2.945  17.416 -0.0549  0.0843  0.8608
  116MPD2    H2 1775   1.401   2.562  17.266  0.6634  0.4082 -0.8726
  116MPD2    H3 1776   1.520   2.764  17.288 -0.9462  1.7636 -0.1499
  116MPD2     N 1777   1.240   2.947  17.589  0.2855 -0.3670  0.0263
  116MPD2    H5 1778   1.303   3.026  17.594 -1.3872  0.8639  1.6667
  116MPD2    N1 1779   1.171   2.509  17.385  0.2302  0.5910  0.6417
  116MPD2    H7 1780   1.219   2.443  17.325 -1.9335  0.0370 -0.4836
  117TMC2    C1 1781   0.581   4.174  13.764  0.5142 -1.1239 -0.1732
  117TMC2    C2 1782   0.640   4.058  13.809 -0.3220  1.0189 -0.3397
  117TMC2    C3 1783   0.731   4.076  13.916  0.3964  0.9159 -0.4914
  117TMC2    C4 1784   0.626   4.300  13.794  0.6368  0.0554  0.4511
  117TMC2    C5 1785   0.711   4.308  13.901  0.8057  0.0569  0.0325
  117TMC2    C6 1786   0.763   4.198  13.960 -0.5926 -0.0401 -0.4304
  117TMC2     C 1787   0.484   4.159  13.654  1.2172  0.6795  0.2425
  117TMC2     O 1788   0.498   4.065  13.577 -0.4725  0.0907 -0.1584
  117TMC2     H 1789   0.610   3.960  13.774 -2.3601  1.4057  0.3320
  117TMC2    H1 1790   0.577   4.390  13.760  0.6956 -0.6380 -1.4779
  117TMC2    H2 1791   0.834   4.202  14.042 -0.7398 -0.0083 -0.3044
  117TMC2    C7 1792   0.724   4.440  13.951  0.8421 -0.0739 -0.8188
  117TMC2    C8 1793   0.777   3.958  13.987 -0.1556 -0.1400  0.2736
  117TMC2    O1 1794   0.710   4.529  13.871  0.0075  0.0443  0.3697
  117TMC2    O2 1795   0.869   3.960  14.065 -0.2494  0.0409 -0.2396
  117TMC2    O5 1796   0.663   3.892  14.009 -0.3527 -0.0922  0.2724
  117TMC2    H5 1797   0.583   3.910  13.955 -0.7515  0.1901  0.9482
  118MPD2     C 1798   0.723   4.522  14.311  0.2741  0.1643 -0.2461
  118MPD2    C1 1799   0.732   4.556  14.179 -0.1598 -0.0833 -0.5040
  118MPD2    C2 1800   0.722   4.686  14.132 -0.7091  0.8247  0.0518
  118MPD2    C3 1801   0.725   0.066  14.222 -0.1881 -0.3215  0.5354
  118MPD2    C4 1802   0.728   0.035  14.351  0.5466 -0.5065 -0.7994
  118MPD2    C5 1803   0.719   4.628  14.393 -0.2451 -0.5169  0.4346
  118MPD2     H 1804   0.717   4.702  14.025 -1.6238 -0.6502 -0.1402
  118MPD2    H1 1805   0.723   0.117  14.422  3.3553 -0.8112 -0.2760
  118MPD2    H2 1806   0.724   4.418  14.342 -0.0710  0.2225 -0.0400
  118MPD2    H3 1807   0.721   4.613  14.500  1.3680  1.3253  0.6851
  118MPD2     N 1808   0.719   0.203  14.181  0.4823  0.2716  0.1621
  118MPD2    H5 1809   0.716   0.274  14.253  1.5491  0.0042  0.4794
  118MPD2    N1 1810   0.733   4.442  14.092 -0.2316 -0.0848  0.0642
  118MPD2    H7 1811   0.747   4.358  14.147 -0.9352  1.1326  2.1089
  119MPD2     C 1812   3.574   1.199  13.618  0.3259  1.5627  0.1118
  119MPD2    C1 1813   3.452   1.144  13.652  0.3672 -0.6040  0.3619
  119MPD2    C2 1814   3.362   1.130  13.542  0.0120  0.4858  0.5297
  119MPD2    C3 1815   3.392   1.157  13.411 -0.0502  0.4218 -0.0715
  119MPD2    C4 1816   3.516   1.221  13.390 -0.2905  0.6336  0.0945
  119MPD2    C5 1817   3.595   1.248  13.492 -0.5178  0.3957 -0.1337
  119MPD2     H 1818   3.259   1.099  13.559  0.5887 -0.7411  1.7538
  119MPD2    H1 1819   3.544   1.261  13.293 -0.7342 -1.1609 -0.7768
  119MPD2    H2 1820   3.660   1.220  13.681  0.4884 -0.4461  0.5536
  119MPD2    H3 1821   3.680   1.311  13.471  0.6752 -1.1256  0.1106
  119MPD2     N 1822   3.303   1.132  13.307  0.2659  0.8580 -0.6030
  119MPD2    H5 1823   3.327   1.180  13.221  1.4514  0.2940 -0.5900
  119MPD2    N1 1824   3.427   1.104  13.786  0.0284  0.1296 -0.2684
  119MPD2    H7 1825   3.500   1.095  13.857  0.1385  2.0030 -0.1316
  120TCq2    C1 1826   3.188   1.058  13.308  0.2539  0.1375 -0.5572
  120TCq2    O2 1827   3.137   0.997  13.401  0.0552 -0.4500  0.1231
  120TCq2    C2 1828   3.119   1.035  13.188  0.1151 -0.0256  0.9063
  120TCq2    C3 1829   3.196   1.025  13.070  0.5759  0.4911 -0.4952
  120TCq2    C4 1830   3.149   0.949  12.968  0.3873  0.3054  0.3094
  120TCq2    C5 1831   3.028   0.882  12.975 -0.0259 -0.4976  0.6125
  120TCq2    C6 1832   2.960   0.893  13.088  0.2845 -0.0497 -0.1610
  120TCq2    C7 1833   3.001   0.962  13.194 -0.3041  0.5124 -0.0443
  120TCq2    C8 1834   2.828   0.825  13.098  0.1018  0.3060 -0.3036
  120TCq2    O4 1835   2.789   0.779  12.988 -0.3595  0.3115  0.5096
  120TCq2    C9 1836   3.224   0.941  12.840  0.0962  0.0097  0.1479
  120TCq2    O5 1837   3.341   0.983  12.852 -0.1715  0.4798  0.7362
  120TCq2    O6 1838   3.179   0.866  12.754 -0.0493 -0.1135 -0.1673
  120TCq2    H2 1839   3.295   1.065  13.053 -0.0074  1.9139 -0.5814
  120TCq2    H3 1840   2.999   0.830  12.884 -0.5104  1.6528 -0.4706
  120TCq2    H4 1841   2.938   0.976  13.282  0.2591 -2.4158  0.8436
  121TMC2    C1 1842   4.660   2.355  14.138 -0.0993 -0.1032 -0.8006
  121TMC2    C2 1843   4.612   2.267  14.236  0.6885  0.6997  0.3432
  121TMC2    C3 1844   4.488   2.279  14.290  0.3242 -0.3690  0.9230
  121TMC2    C4 1845   4.577   2.455  14.095  0.8319 -0.3976  0.3635
  121TMC2    C5 1846   4.451   2.460  14.150  0.3367 -0.5647  0.4187
  121TMC2    C6 1847   4.402   2.381  14.250  0.0655  0.0843  0.0223
  121TMC2     C 1848   0.068   2.324  14.068 -0.1581  0.0857  0.0958
  121TMC2     O 1849   0.123   2.220  14.105  0.2102 -0.0316  0.4860
  121TMC2     H 1850   4.676   2.195  14.285  2.4855  1.1947 -1.2519
  121TMC2    H1 1851   4.613   2.528  14.023 -0.0969  1.6103  1.9125
  121TMC2    H2 1852   4.306   2.396  14.297 -0.0805 -0.3670 -0.1363
  121TMC2    C7 1853   4.379   2.575  14.103  0.0119  0.2334 -0.5746
  121TMC2    C8 1854   4.443   2.198  14.400  0.1841 -0.2564 -0.3310
  121TMC2    O1 1855   4.445   2.677  14.075  0.1292 -0.3145  0.6158
  121TMC2    O2 1856   4.323   2.185  14.431  0.0731  0.0264  0.2380
  121TMC2    O5 1857   4.544   2.180  14.493  0.1161  1.2580  0.2040
  121TMC2    H5 1858   4.627   2.224  14.465  1.1680 -0.5980  0.3987
  122MPD2     C 1859   0.309   2.315  13.909  0.1505 -0.0458  0.8954
  122MPD2    C1 1860   0.228   2.426  13.921 -0.1895 -0.3133  0.1877
  122MPD2    C2 1861   0.260   2.540  13.849  0.9753  0.0533  0.0749
  122MPD2    C3 1862   0.374   2.539  13.774 -0.3484 -0.2731 -0.2122
  122MPD2    C4 1863   0.462   2.435  13.778 -0.0375 -0.0002  0.1479
  122MPD2    C5 1864   0.424   2.319  13.842  0.1940 -0.9286 -0.1255
  122MPD2     H 1865   0.192   2.625  13.854  0.7235 -0.2553  1.9534
  122MPD2    H1 1866   0.539   2.427  13.702  0.0836  1.2176  0.1464
  122MPD2    H2 1867   0.285   2.215  13.944 -2.6436 -0.3559 -1.8695
  122MPD2    H3 1868   0.485   2.232  13.819  2.1962  0.1849  1.0104
  122MPD2     N 1869   0.409   2.655  13.707 -0.0158  0.9108  0.7118
  122MPD2    H5 1870   0.484   2.644  13.640 -0.5039 -0.5048  0.3982
  122MPD2    N1 1871   0.103   2.428  13.986  0.0744 -0.4217 -0.5399
  122MPD2    H7 1872   0.047   2.510  13.964 -1.1257 -0.7724  1.2213
  123MPD2     C 1873   2.341   1.416   9.644  0.3644 -0.2247  0.1730
  123MPD2    C1 1874   2.473   1.460   9.649 -0.5362  0.3945 -0.4010
  123MPD2    C2 1875   2.556   1.361   9.611 -0.2587 -0.2085  0.4967
  123MPD2    C3 1876   2.516   1.233   9.574  0.1808  0.5553 -0.1223
  123MPD2    C4 1877   2.387   1.191   9.577  0.3624 -0.0477  0.1642
  123MPD2    C5 1878   2.298   1.286   9.613  0.2717  0.0016  0.4862
  123MPD2     H 1879   2.662   1.385   9.601 -0.3700  0.0315 -0.0624
  123MPD2    H1 1880   2.348   1.096   9.543 -1.4681  0.4878  0.7863
  123MPD2    H2 1881   2.260   1.484   9.666  1.6799  1.9738 -1.7837
  123MPD2    H3 1882   2.192   1.264   9.617 -0.1329  1.5459 -1.3868
  123MPD2     N 1883   2.613   1.155   9.515 -0.3606 -0.4414  0.3094
  123MPD2    H5 1884   2.705   1.195   9.507 -0.5012 -0.2255 -0.2233
  123MPD2    N1 1885   2.514   1.587   9.698 -0.0659 -0.3226 -0.4344
  123MPD2    H7 1886   2.443   1.653   9.730 -0.2172 -0.7368  0.0891
  124TCq2    C1 1887   2.601   1.022   9.484 -0.4698 -0.0548  0.0491
  124TCq2    O2 1888   2.521   0.944   9.525 -0.1242 -0.1908 -0.0670
  124TCq2    C2 1889   2.720   0.974   9.417  0.2489  0.4318  0.7933
  124TCq2    C3 1890   2.808   1.065   9.371 -1.0755  0.5222 -0.0862
  124TCq2    C4 1891   2.933   1.023   9.345  0.0106 -0.4632  0.4818
  124TCq2    C5 1892   2.970   0.897   9.384  0.0207  0.1263  0.5056
  124TCq2    C6 1893   2.879   0.801   9.419 -0.5731 -0.8998 -0.5634
  124TCq2    C7 1894   2.751   0.840   9.455  0.3204  0.8625  0.3338
  124TCq2    C8 1895   2.927   0.679   9.491  0.2954  0.5342  0.0842
  124TCq2    O4 1896   3.034   0.700   9.543  0.1420  0.2149 -0.4124
  124TCq2    C9 1897   3.025   1.106   9.272  0.3893 -0.4670  0.2392
  124TCq2    O5 1898   2.982   1.206   9.212  0.0196  0.1804  0.3897
  124TCq2    O6 1899   3.148   1.075   9.273 -0.1009 -0.0004 -0.0629
  124TCq2    H2 1900   2.774   1.160   9.331 -2.2253  1.7174  3.7577
  124TCq2    H3 1901   3.072   0.863   9.371  0.5791  0.7037  3.4506
  124TCq2    H4 1902   2.684   0.768   9.501 -0.3755  1.2984 -0.0106
  125TMC2    C1 1903   1.417   2.379   8.183 -1.0949  0.1218 -0.1833
  125TMC2    C2 1904   1.546   2.348   8.189  0.0346  0.5515  0.0618
  125TMC2    C3 1905   1.589   2.306   8.307  0.0571  0.5679  0.1714
  125TMC2    C4 1906   1.326   2.375   8.283  0.1411  0.1579  0.2223
  125TMC2    C5 1907   1.375   2.331   8.405  0.0442 -0.2812 -1.4295
  125TMC2    C6 1908   1.512   2.294   8.419 -0.1688  0.8691 -0.2017
  125TMC2     C 1909   1.377   2.455   8.065  0.0018 -0.4158 -1.1263
  125TMC2     O 1910   1.285   2.535   8.080 -0.8535  0.5287 -0.1837
  125TMC2     H 1911   1.621   2.349   8.111  1.0407 -0.3490  1.0066
  125TMC2    H1 1912   1.222   2.404   8.268  0.3819  0.8126 -0.1729
  125TMC2    H2 1913   1.564   2.272   8.512 -3.1698  0.2424  1.3116
  125TMC2    C7 1914   1.302   2.357   8.527  0.6001  0.4019 -0.1514
  125TMC2    C8 1915   1.721   2.240   8.305 -0.1729  0.0790 -0.4271
  125TMC2    O1 1916   1.220   2.448   8.522  0.4576  0.2027  0.2213
  125TMC2    O2 1917   1.803   2.275   8.223  0.2559 -0.1345  0.3729
  125TMC2    O5 1918   1.716   2.127   8.378  0.2206 -0.1069 -0.3975
  125TMC2    H5 1919   1.627   2.097   8.407 -1.0435  1.5162 -2.5916
  126MPD1     C 1920   1.557   2.721   7.671  0.1241 -0.1744 -0.2848
  126MPD1    C1 1921   1.602   2.592   7.659  0.3779 -0.7105 -0.1164
  126MPD1    C2 1922   1.567   2.503   7.752  0.6301 -0.3022 -0.1628
  126MPD1    C3 1923   1.479   2.533   7.853 -0.1253 -0.7193  0.5496
  126MPD1    C4 1924   1.423   2.659   7.859 -0.5314  0.3393  0.0101
  126MPD1    C5 1925   1.465   2.751   7.764  0.3420 -0.1824  0.1025
  126MPD1     H 1926   1.617   2.407   7.751  0.8644 -0.2015  1.7668
  126MPD1    H1 1927   1.345   2.689   7.927  0.4211  2.3240  0.2162
  126MPD1    H2 1928   1.582   2.795   7.595 -0.1569  1.5030  1.2589
  126MPD1    H3 1929   1.412   2.846   7.771  0.6116  0.0102 -0.5144
  126MPD1     N 1930   1.459   2.438   7.955 -0.1801 -0.0029  0.4853
  126MPD1    H5 1931   1.507   2.349   7.957 -0.3644 -0.1078  0.3124
  126MPD1    N1 1932   1.709   2.571   7.571 -0.1207 -0.6963 -0.2715
  126MPD1    H6 1933   1.711   2.640   7.496  0.3618  1.6932  1.9483
  126MPD1    H7 1934   1.717   2.476   7.535 -0.8676 -0.9885  0.3306
  127MPD2     C 1935   0.893   0.890   9.559  0.2794 -0.9053 -0.4771
  127MPD2    C1 1936   0.857   0.848   9.686  0.0382 -0.6949 -0.2661
  127MPD2    C2 1937   0.897   0.922   9.797 -0.5054 -0.4273  0.1466
  127MPD2    C3 1938   0.966   1.043   9.776 -0.1448 -0.2417  0.7246
  127MPD2    C4 1939   0.989   1.089   9.646  0.2365  0.2315 -0.6135
  127MPD2    C5 1940   0.945   1.011   9.541 -0.9720  0.3301 -0.0444
  127MPD2     H 1941   0.865   0.907   9.900  1.1306  1.6079  0.9409
  127MPD2    H1 1942   1.047   1.176   9.620  1.6224 -0.8588 -1.1685
  127MPD2    H2 1943   0.867   0.841   9.466  0.5353  1.6522 -1.8890
  127MPD2    H3 1944   0.951   1.053   9.442  0.2729 -1.0832 -0.5700
  127MPD2     N 1945   1.016   1.117   9.887 -0.1452 -0.6485  0.0493
  127MPD2    H5 1946   0.994   1.085   9.980  1.0850  0.2712  0.6599
  127MPD2    N1 1947   0.769   0.741   9.686  0.6010  0.0654 -0.0979
  127MPD2    H7 1948   0.746   0.701   9.595  1.4998  1.1957 -0.8203
  128TCq2    C1 1949   0.710   0.692   9.796 -0.1568  0.5178 -0.4156
  128TCq2    O2 1950   0.719   0.730   9.916  0.0774  0.0091  0.3817
  128TCq2    C2 1951   0.601   0.601   9.777 -0.0760  0.6618 -0.0519
  128TCq2    C3 1952   0.516   0.590   9.879 -0.3068 -0.9180 -0.4629
  128TCq2    C4 1953   0.428   0.487   9.876  0.0250  0.3801 -0.5924
  128TCq2    C5 1954   0.408   0.413   9.760 -0.0723 -0.3322 -0.2296
  128TCq2    C6 1955   0.488   0.439   9.648 -0.2078 -0.3002  0.1512
  128TCq2    C7 1956   0.587   0.533   9.658 -0.5005  0.0386 -0.2889
  128TCq2    C8 1957   0.460   0.374   9.520 -0.9238 -0.0929  0.3247
  128TCq2    O4 1958   0.484   0.434   9.416  0.0879 -0.3461  0.3373
  128TCq2    C9 1959   0.357   0.450   9.998  0.5794 -0.4415  0.5299
  128TCq2    O5 1960   0.325   0.547  10.082  0.2332  0.1479  0.6656
  128TCq2    O6 1961   0.324   0.331  10.001  0.2360 -0.1192 -0.2160
  128TCq2    H2 1962   0.542   0.627   9.977  0.9072 -0.8085 -0.8255
  128TCq2    H3 1963   0.333   0.335   9.768 -1.5698  1.3245  2.0472
  128TCq2    H4 1964   0.652   0.533   9.571 -0.7298 -0.7421 -0.4583
  129MPD2     C 1965   3.494   1.681   1.636 -1.0618  0.0698  0.1396
  129MPD2    C1 1966   3.374   1.746   1.618  0.1884  0.3447  0.1716
  129MPD2    C2 1967   3.361   1.878   1.659 -0.0719 -0.3298  1.3765
  129MPD2    C3 1968   3.461   1.939   1.735  0.2692  0.1721  0.2246
  129MPD2    C4 1969   3.576   1.873   1.760 -0.0222  0.0436 -0.1713
  129MPD2    C5 1970   3.588   1.739   1.712 -0.4215  0.2258 -0.6154
  129MPD2     H 1971   3.268   1.931   1.646  0.1478 -0.4738 -0.8470
  129MPD2    H1 1972   3.658   1.919   1.815  0.9643 -0.7113 -1.0216
  129MPD2    H2 1973   3.516   1.584   1.592 -1.7102 -0.0287  0.0441
  129MPD2    H3 1974   3.681   1.688   1.735  1.3410  2.7598 -2.0704
  129MPD2     N 1975   3.446   2.078   1.773  0.0392  0.6456 -0.0219
  129MPD2    H5 1976   3.366   2.126   1.733 -0.7192 -0.1266  0.5628
  129MPD2    N1 1977   3.270   1.685   1.544 -0.2821  0.8245 -0.3582
  129MPD2    H7 1978   3.190   1.741   1.516 -0.3907  0.5869 -0.5218
  130TCq2    C1 1979   3.251   1.551   1.536  0.4600  0.0302 -0.1167
  130TCq2    O2 1980   3.325   1.466   1.582  0.0037  1.1238 -0.5739
  130TCq2    C2 1981   3.120   1.506   1.483 -1.0991 -0.1077  0.8436
  130TCq2    C3 1982   3.084   1.374   1.500 -0.2938  0.5610  0.2585
  130TCq2    C4 1983   2.971   1.328   1.433  0.0867 -0.2114 -0.5410
  130TCq2    C5 1984   2.901   1.412   1.356 -0.2048 -0.3135 -0.1942
  130TCq2    C6 1985   2.929   1.549   1.356 -0.2954  0.0126  0.2644
  130TCq2    C7 1986   3.041   1.596   1.422 -0.2927 -0.3930 -0.7117
  130TCq2    C8 1987   2.836   1.648   1.301 -0.2319 -0.0399 -0.5390
  130TCq2    O4 1988   2.844   1.764   1.337 -0.3186 -0.0112 -0.3224
  130TCq2    C9 1989   2.943   1.183   1.424  0.4535  0.3753  1.0017
  130TCq2    O5 1990   3.037   1.103   1.454 -0.1167  0.2155  0.1353
  130TCq2    O6 1991   2.841   1.154   1.362  0.2504  0.7669  0.2357
  130TCq2    H2 1992   3.134   1.305   1.566  0.0416 -0.3519 -0.9618
  130TCq2    H3 1993   2.810   1.380   1.307 -0.9271  0.2124  0.7984
  130TCq2    H4 1994   3.077   1.692   1.389 -1.5229  0.5344  0.6211
  131MPD2     C 1995   3.430   1.962   9.824  0.6718 -0.0557 -0.1231
  131MPD2    C1 1996   3.384   1.844   9.776 -0.0755 -0.1334  0.9592
  131MPD2    C2 1997   3.243   1.824   9.770 -0.4952 -0.1096 -0.1154
  131MPD2    C3 1998   3.165   1.919   9.832 -0.3215  0.3108  0.6662
  131MPD2    C4 1999   3.217   2.042   9.874  0.1165  0.6887 -0.4886
  131MPD2    C5 2000   3.348   2.060   9.873  0.6763 -0.3344 -0.3543
  131MPD2     H 2001   3.203   1.736   9.720 -0.9577 -0.4277  0.8198
  131MPD2    H1 2002   3.154   2.120   9.914 -1.1052 -0.9617  0.8255
  131MPD2    H2 2003   3.538   1.971   9.835  0.3538  2.1728  1.0818
  131MPD2    H3 2004   3.393   2.155   9.899  0.1146 -0.3428  0.6238
  131MPD2     N 2005   3.027   1.889   9.848 -0.4093 -0.0237  0.6540
  131MPD2    H5 2006   2.991   1.810   9.796 -0.7739  0.4001  0.2654
  131MPD2    N1 2007   3.490   1.757   9.746  0.1938  0.0525 -0.6124
  131MPD2    H7 2008   3.584   1.793   9.764  0.4568 -1.4654  1.0123
  132TCq2    C1 2009   3.935   1.554   9.812  0.4951 -0.9002  0.6318
  132TCq2    O2 2010   4.019   1.466   9.820  0.1163  0.3562 -0.7362
  132TCq2    C2 2011   3.814   1.519   9.737  0.3794  0.1914  0.0071
  132TCq2    C3 2012   3.810   1.403   9.667  0.4032  0.1365  0.7735
  132TCq2    C4 2013   3.688   1.354   9.623 -0.1578 -0.2764 -0.2417
  132TCq2    C5 2014   3.570   1.427   9.632  0.2061 -0.0986  0.0746
  132TCq2    C6 2015   3.590   1.552   9.688 -0.2088  0.4555  0.9457
  132TCq2    C7 2016   3.707   1.597   9.748 -0.0010 -0.4304  0.4172
  132TCq2    C8 2017   3.470   1.633   9.689  0.2721  0.6849 -0.1217
  132TCq2    O4 2018   3.371   1.593   9.635  0.1737 -0.0798 -0.9108
  132TCq2    C9 2019   3.696   1.221   9.562  0.2613  0.0570 -1.0708
  132TCq2    O5 2020   3.596   1.147   9.572  0.3264 -0.3923 -0.6285
  132TCq2    O6 2021   3.806   1.193   9.505  0.1759  0.5375 -0.1042
  132TCq2    H2 2022   3.897   1.341   9.652  1.7779  2.3563 -0.4444
  132TCq2    H3 2023   3.478   1.388   9.591 -0.3504  0.8888  0.3964
  132TCq2    H4 2024   3.701   1.669   9.829  2.2081  0.7790 -0.4914
  133MPD2     C 2025   2.987   1.969  10.340  0.4675  0.0581 -0.6318
  133MPD2    C1 2026   3.118   2.003  10.336 -0.3040 -0.0889  0.0998
  133MPD2    C2 2027   3.197   1.918  10.264 -0.3484 -0.4535 -0.0206
  133MPD2    C3 2028   3.147   1.799  10.205  0.0584  0.5076 -0.1272
  133MPD2    C4 2029   3.016   1.770  10.208 -0.1835  0.2478  0.1327
  133MPD2    C5 2030   2.939   1.863  10.268  0.4194 -0.3589  0.2546
  133MPD2     H 2031   3.298   1.950  10.240  0.4797 -2.1739  1.1179
  133MPD2    H1 2032   2.971   1.686  10.157  1.8898 -2.5675  2.9489
  133MPD2    H2 2033   2.910   2.036  10.377  0.1269 -0.3771 -0.5398
  133MPD2    H3 2034   2.833   1.843  10.265  0.5052 -0.6260 -1.4608
  133MPD2     N 2035   3.226   1.711  10.128  0.0241  0.0543  0.6087
  133MPD2    H5 2036   3.166   1.641  10.085  1.2105 -0.9758  0.6345
  133MPD2    N1 2037   3.157   2.133  10.394 -0.6566  0.5945 -0.1557
  133MPD2    H7 2038   3.088   2.185  10.449 -1.5449 -1.0369  0.2695
  134TCq2    C1 2039   3.275   2.196  10.374 -0.3131  0.0102  0.2378
  134TCq2    O2 2040   3.374   2.151  10.321 -0.4127  0.0089  0.5085
  134TCq2    C2 2041   3.274   2.327  10.436  0.9001 -0.2305 -0.0261
  134TCq2    C3 2042   3.153   2.395  10.445  0.3776  0.3261 -0.4192
  134TCq2    C4 2043   3.155   2.522  10.494 -0.2607  0.3920 -0.2372
  134TCq2    C5 2044   3.269   2.589  10.520 -0.5418 -0.1339 -0.6186
  134TCq2    C6 2045   3.384   2.524  10.492 -0.3076  0.4155 -0.1377
  134TCq2    C7 2046   3.390   2.388  10.467  0.2314  0.3845 -0.6555
  134TCq2    C8 2047   3.508   2.594  10.531 -0.6475  0.4414  0.4372
  134TCq2    O4 2048   3.614   2.549  10.486 -0.6759  0.4577  0.0783
  134TCq2    C9 2049   3.030   2.597  10.496 -0.3971 -0.1895 -0.2380
  134TCq2    O5 2050   3.028   2.705  10.559 -0.2042  0.4901  0.0196
  134TCq2    O6 2051   2.934   2.554  10.433  0.3216 -0.7827 -0.1511
  134TCq2    H2 2052   3.057   2.352  10.419  0.9199 -1.4827  0.5804
  134TCq2    H3 2053   3.268   2.696  10.532 -0.0459 -0.2388  0.3144
  134TCq2    H4 2054   3.481   2.332  10.452  0.0738  0.6734 -2.7407
  135MPD2     C 2055   0.805   2.879   8.711 -0.2892 -0.3324 -0.4387
  135MPD2    C1 2056   0.841   2.813   8.824  1.3662 -0.2035  0.3946
  135MPD2    C2 2057   0.965   2.771   8.830  0.0893 -0.2090  0.3571
  135MPD2    C3 2058   1.066   2.807   8.745  0.0757  0.2914  0.3230
  135MPD2    C4 2059   1.030   2.872   8.632 -0.4700 -0.0438 -0.0494
  135MPD2    C5 2060   0.896   2.902   8.613 -0.3902 -0.3571 -0.1763
  135MPD2     H 2061   0.989   2.694   8.902 -0.9092 -0.7868  0.0640
  135MPD2    H1 2062   1.110   2.892   8.561  0.0033  0.0655  0.5175
  135MPD2    H2 2063   0.702   2.910   8.694 -0.8343 -1.4182  0.8582
  135MPD2    H3 2064   0.860   2.955   8.526 -1.6908  3.3125  2.5926
  135MPD2     N 2065   1.201   2.782   8.765  0.1854 -0.3262 -0.0004
  135MPD2    H5 2066   1.265   2.787   8.686  0.0689  1.4284  0.0229
  135MPD2    N1 2067   0.753   2.772   8.928 -0.8939  0.0142  0.0733
  135MPD2    H7 2068   0.791   2.721   9.007  0.2076 -1.1208 -1.1860
  136TCq2    C1 2069   0.624   2.810   8.933 -0.2033  0.2284 -0.6041
  136TCq2    O2 2070   0.561   2.903   8.881 -0.0895  0.2483  0.1927
  136TCq2    C2 2071   0.560   2.728   9.032  0.1103  0.6147 -0.8474
  136TCq2    C3 2072   0.426   2.761   9.054  0.1419 -0.0688 -0.0893
  136TCq2    C4 2073   0.355   2.689   9.146  0.3968 -0.2297  1.1767
  136TCq2    C5 2074   0.406   2.572   9.207  0.3354 -0.4418  0.0703
  136TCq2    C6 2075   0.533   2.531   9.162 -0.2210  0.1080 -0.5324
  136TCq2    C7 2076   0.614   2.608   9.073  0.1249  0.2133  0.4657
  136TCq2    C8 2077   0.582   2.395   9.208  0.2742 -0.0971 -0.2300
  136TCq2    O4 2078   0.695   2.377   9.167 -0.4565 -0.5780  0.6593
  136TCq2    C9 2079   0.225   2.734   9.179  0.0841  0.1029  1.0151
  136TCq2    O5 2080   0.155   2.662   9.264  0.1146  0.1492 -0.4589
  136TCq2    O6 2081   0.178   2.820   9.104 -0.1689 -0.2331  0.1921
  136TCq2    H2 2082   0.387   2.856   9.019  2.9267  1.1856  0.1936
  136TCq2    H3 2083   0.348   2.525   9.285  0.6624  0.7238  1.0147
  136TCq2    H4 2084   0.710   2.569   9.042 -0.6308 -2.7511  1.8524
  137MPD2     C 2085   0.584   1.841   8.916 -0.4873 -0.1779  0.1313
  137MPD2    C1 2086   0.493   1.878   9.010  0.1497 -0.4428 -1.0391
  137MPD2    C2 2087   0.444   1.784   9.097 -0.0289 -0.3877  0.3095
  137MPD2    C3 2088   0.477   1.648   9.085 -0.1883  0.2697 -0.7959
  137MPD2    C4 2089   0.566   1.610   8.985 -0.3396 -0.6835 -0.4340
  137MPD2    C5 2090   0.618   1.711   8.909 -0.2755 -0.4076 -0.2876
  137MPD2     H 2091   0.389   1.812   9.186  0.8963  0.8415  0.5041
  137MPD2    H1 2092   0.596   1.508   8.963  1.5625 -0.8159  2.8537
  137MPD2    H2 2093   0.626   1.912   8.846  0.1562  0.5711  1.2881
  137MPD2    H3 2094   0.690   1.683   8.833 -1.4795 -2.5992 -0.6309
  137MPD2     N 2095   0.423   1.549   9.176 -0.3535 -0.4939  0.0620
  137MPD2    H5 2096   0.394   1.576   9.269  0.2669 -0.0982  0.1412
  137MPD2    N1 2097   0.437   2.010   8.996 -0.2353 -0.2372 -0.3580
  137MPD2    H7 2098   0.476   2.082   8.937  0.3044 -0.2058  0.0361
  138TCq2    C1 2099   0.324   2.048   9.065  0.0508  0.3040  0.0626
  138TCq2    O2 2100   0.241   1.979   9.119  0.5017  0.3175 -0.6242
  138TCq2    C2 2101   0.274   2.180   9.012 -0.4549 -0.2117 -0.4962
  138TCq2    C3 2102   0.353   2.261   8.933  0.2029 -0.5838  0.4115
  138TCq2    C4 2103   0.296   2.381   8.883  0.7353  0.4215 -0.3306
  138TCq2    C5 2104   0.169   2.409   8.913  0.1385 -0.0530 -0.0364
  138TCq2    C6 2105   0.097   2.332   9.003  0.1981  0.1182 -0.0974
  138TCq2    C7 2106   0.144   2.217   9.043 -0.4202 -0.4649 -0.6529
  138TCq2    C8 2107   4.676   2.357   9.007 -0.1820  0.6842  0.3474
  138TCq2    O4 2108   4.625   2.403   8.909 -0.0911 -0.6171 -0.1547
  138TCq2    C9 2109   0.380   2.455   8.787 -0.3569  0.8085  0.0283
  138TCq2    O5 2110   0.475   2.380   8.740  0.5037 -0.4020 -0.1068
  138TCq2    O6 2111   0.332   2.553   8.728 -0.5557 -0.3239 -0.4619
  138TCq2    H2 2112   0.455   2.237   8.904 -0.1095 -1.2551 -0.1353
  138TCq2    H3 2113   0.126   2.496   8.865  0.0077  1.7080  3.2276
  138TCq2    H4 2114   0.080   2.143   9.091  0.2653  0.0944  1.1470
  139TMC2    C1 2115   0.138   0.159  12.856 -0.1975 -0.0303 -0.2888
  139TMC2    C2 2116   0.153   0.222  12.741 -0.5673 -0.0101  0.2070
  139TMC2    C3 2117   0.162   0.357  12.750 -0.3015 -0.0170 -0.3015
  139TMC2    C4 2118   0.118   0.217  12.977  0.1587  0.0704 -0.5145
  139TMC2    C5 2119   0.116   0.350  12.987 -0.8518  0.2444 -0.3222
  139TMC2    C6 2120   0.143   0.424  12.873 -0.0482  0.1402 -0.3918
  139TMC2     C 2121   0.178   0.020  12.846 -0.1236 -0.4702 -0.1766
  139TMC2     O 2122   0.161   4.677  12.745  0.2360 -0.0687  0.2839
  139TMC2     H 2123   0.171   0.166  12.649  0.0821  0.2986  0.1480
  139TMC2    H1 2124   0.096   0.154  13.063  0.3444  0.8839  0.1365
  139TMC2    H2 2125   0.186   0.523  12.884 -0.6983  0.3845 -0.0047
  139TMC2    C7 2126   0.092   0.415  13.114  0.0339  0.2729 -0.3183
  139TMC2    C8 2127   0.243   0.419  12.644  0.0632 -0.2179 -0.0845
  139TMC2    O1 2128   0.071   0.533  13.104  0.0037  0.1121 -0.1560
  139TMC2    O2 2129   0.312   0.345  12.577 -0.2609 -0.5994 -0.0523
  139TMC2    O5 2130   0.178   0.533  12.603  0.2954 -0.5176  0.2461
  139TMC2    H5 2131   0.093   0.546  12.650  0.7426  2.3192  0.2611
  140MPD2     C 2132   0.377   4.533  13.081  0.0930 -0.2030  0.2087
  140MPD2    C1 2133   0.273   4.565  12.983  0.1550 -0.1866  0.0645
  140MPD2    C2 2134   0.184   4.469  12.937 -0.5842 -0.3636 -0.1441
  140MPD2    C3 2135   0.217   4.339  12.975 -0.6449  0.5916 -0.0224
  140MPD2    C4 2136   0.327   4.304  13.045  0.1605  0.2078 -0.1293
  140MPD2    C5 2137   0.405   4.399  13.108  0.0044 -0.2084 -0.6187
  140MPD2     H 2138   0.084   4.483  12.898 -0.0696 -1.2625 -1.8182
  140MPD2    H1 2139   0.340   4.204  13.086  0.9951 -0.0357 -0.9909
  140MPD2    H2 2140   0.445   4.601  13.131 -0.6580  0.6251  0.0847
  140MPD2    H3 2141   0.481   4.376  13.181 -0.6538  1.9205  0.7450
  140MPD2     N 2142   0.126   4.232  12.938  0.3637  0.3199 -0.0312
  140MPD2    H5 2143   0.063   4.261  12.863  0.6215 -1.1255 -0.8008
  140MPD2    N1 2144   0.248   4.700  12.954  0.5299 -0.1546 -0.7027
  140MPD2    H7 2145   0.292   0.046  13.016 -1.1202  1.0784 -0.9056
  141TCq2    C1 2146   0.574   1.838  14.566 -0.3812 -0.2354  0.0605
  141TCq2    O2 2147   0.583   1.930  14.487  0.1214 -0.5811  0.3257
  141TCq2    C2 2148   0.547   1.870  14.709 -0.2487 -0.2524  0.0151
  141TCq2    C3 2149   0.525   1.773  14.800  0.2427  0.2132  0.2319
  141TCq2    C4 2150   0.544   1.806  14.932 -0.4548 -0.0824 -0.2165
  141TCq2    C5 2151   0.572   1.938  14.970 -0.2607  0.0985  0.2386
  141TCq2    C6 2152   0.604   2.029  14.873  0.9037 -0.4129 -0.4144
  141TCq2    C7 2153   0.599   1.993  14.738  0.0005  0.2070 -0.2791
  141TCq2    C8 2154   0.690   2.142  14.908  0.2847 -0.2333  0.3227
  141TCq2    O4 2155   0.692   2.174  15.024 -0.4480 -0.5928  0.6353
  141TCq2    C9 2156   0.500   1.711  15.029  0.0188  0.2378  0.7315
  141TCq2    O5 2157   0.474   1.746  15.149 -0.1991 -0.0817  0.0718
  141TCq2    O6 2158   0.476   1.589  14.991  0.1678 -0.4137 -0.5626
  141TCq2    H2 2159   0.500   1.669  14.783 -3.4349  1.1816 -0.3144
  141TCq2    H3 2160   0.579   1.965  15.075  1.9998  0.4946 -0.0137
  141TCq2    H4 2161   0.616   2.064  14.657 -0.9439 -0.6892 -1.2724
  142MPD2     C 2162   3.029   4.663  10.696 -1.1298 -0.0254 -0.2957
  142MPD2    C1 2163   2.990   4.626  10.573 -0.1114  0.5605 -0.0502
  142MPD2    C2 2164   3.058   4.673  10.464  0.3521 -0.6938  0.4773
  142MPD2    C3 2165   3.157   0.048  10.481  0.0946 -0.1497 -0.1510
  142MPD2    C4 2166   3.205   0.076  10.605 -0.4055  0.1904  0.6713
  142MPD2    C5 2167   3.130   0.030  10.705 -0.2128  0.3810  0.4841
  142MPD2     H 2168   3.032   4.655  10.360  4.3750 -1.9787 -0.3094
  142MPD2    H1 2169   3.279   0.155  10.615  0.8042 -1.1341  2.0924
  142MPD2    H2 2170   2.984   4.625  10.786  0.3718  0.2894  0.5920
  142MPD2    H3 2171   3.158   0.072  10.801 -1.3027  0.6342  0.6943
  142MPD2     N 2172   3.224   0.098  10.370  0.0809 -0.7638  0.0973
  142MPD2    H5 2173   3.299   0.167  10.375  0.0631 -0.8497  1.4524
  142MPD2    N1 2174   2.891   4.530  10.561 -0.8966 -0.1999 -0.2171
  142MPD2    H7 2175   2.848   4.499  10.648  0.0971 -0.4963  0.1791
  143TCq2    C1 2176   3.181   0.093  10.238  0.6858  0.1205  0.3980
  143TCq2    O2 2177   3.076   0.055  10.196  0.1639  0.4339  0.2743
  143TCq2    C2 2178   3.268   0.166  10.136 -0.0743  0.0963  0.1227
  143TCq2    C3 2179   3.391   0.211  10.168 -0.4340  0.2611  0.1883
  143TCq2    C4 2180   3.455   0.293  10.084  0.4397 -1.0160  0.5737
  143TCq2    C5 2181   3.402   0.331   9.968  0.0234  0.8895 -0.0774
  143TCq2    C6 2182   3.284   0.274   9.929 -0.3198 -0.1183  0.0239
  143TCq2    C7 2183   3.217   0.191  10.015  0.1166  0.1423  0.1884
  143TCq2    C8 2184   3.201   0.334   9.823 -0.0403  0.3084 -0.8857
  143TCq2    O4 2185   3.248   0.425   9.757 -0.0834 -0.0227 -0.4421
  143TCq2    C9 2186   3.565   0.371  10.140  0.3288  0.2291 -0.0729
  143TCq2    O5 2187   3.633   0.440  10.060  0.1677  0.2920 -0.0179
  143TCq2    O6 2188   3.589   0.367  10.262 -0.2864  0.0613  0.2527
  143TCq2    H2 2189   3.428   0.206  10.270  2.0832 -1.8746 -0.8092
  143TCq2    H3 2190   3.441   0.414   9.910 -0.4226 -0.1291 -1.8552
  143TCq2    H4 2191   3.110   0.181  10.001 -0.1002  1.3934  0.9505
  144MPD2     C 2192   0.606   4.657   1.087 -0.0849 -0.0244 -0.1801
  144MPD2    C1 2193   0.640   4.525   1.081  0.4124  0.6308  0.0943
  144MPD2    C2 2194   0.763   4.485   1.139  0.1476  0.6034 -0.3102
  144MPD2    C3 2195   0.837   4.571   1.209 -0.5091  0.7648 -0.0882
  144MPD2    C4 2196   0.802   4.699   1.220 -0.1043 -0.4821  0.3269
  144MPD2    C5 2197   0.690   0.024   1.153 -0.3365  0.0732  0.0900
  144MPD2     H 2198   0.797   4.383   1.123  0.6107  0.9001 -1.2017
  144MPD2    H1 2199   0.863   0.053   1.269 -0.0833  0.1366 -0.6501
  144MPD2    H2 2200   0.513   4.689   1.041  0.9494  2.8021 -0.3276
  144MPD2    H3 2201   0.658   0.126   1.170 -1.2555 -0.4717  1.6250
  144MPD2     N 2202   0.965   4.541   1.271  0.4323  0.4183 -1.0049
  144MPD2    H5 2203   1.007   4.615   1.327 -1.1419  0.4401  0.1567
  144MPD2    N1 2204   0.574   4.427   1.011  0.6036 -0.0551  0.3322
  144MPD2    H7 2205   0.603   4.332   1.033 -1.6260 -0.2943  2.1730
  145TCq2    C1 2206   1.042   4.438   1.237  0.4751 -0.0594  0.6335
  145TCq2    O2 2207   1.015   4.339   1.173 -0.1135  0.3308  0.1809
  145TCq2    C2 2208   1.164   4.426   1.321  0.0723  0.1933 -0.3891
  145TCq2    C3 2209   1.255   4.323   1.291  0.0416 -0.8718 -0.1373
  145TCq2    C4 2210   1.344   4.287   1.399  0.5430  0.3930  0.2580
  145TCq2    C5 2211   1.343   4.362   1.518 -0.0669 -0.1611 -0.1913
  145TCq2    C6 2212   1.262   4.467   1.532  0.4728  0.0948  0.0633
  145TCq2    C7 2213   1.176   4.501   1.437  0.2943  0.5140  0.6587
  145TCq2    C8 2214   1.277   4.540   1.659  0.0100  0.4522  0.7658
  145TCq2    O4 2215   1.363   4.508   1.738 -0.4203 -0.3503 -0.2603
  145TCq2    C9 2216   1.425   4.168   1.382  0.9146  0.0277  0.7178
  145TCq2    O5 2217   1.476   4.121   1.491 -0.7011 -0.3530  0.3242
  145TCq2    O6 2218   1.421   4.098   1.274  0.3331  0.2087 -0.1880
  145TCq2    H2 2219   1.279   4.270   1.199 -0.0504 -2.8241  0.9495
  145TCq2    H3 2220   1.408   4.336   1.600  0.4144 -0.0941 -0.5509
  145TCq2    H4 2221   1.095   4.568   1.463  0.6857  1.8370 -1.5566
  146TMC2    C1 2222   2.213   2.606  12.444 -0.0954  0.2833  0.0871
  146TMC2    C2 2223   2.145   2.490  12.453  0.0205  0.5273  0.4521
  146TMC2    C3 2224   2.163   2.401  12.350 -0.3454  0.3417  0.0663
  146TMC2    C4 2225   2.296   2.637  12.341 -0.6080  0.3604 -0.3380
  146TMC2    C5 2226   2.298   2.547  12.241  0.1557 -0.3428 -0.2015
  146TMC2    C6 2227   2.239   2.429  12.238 -0.1462 -0.4462  1.3927
  146TMC2     C 2228   2.201   2.705  12.552 -0.0337 -0.0145  0.4037
  146TMC2     O 2229   2.163   2.820  12.523 -0.2675 -0.4463  0.1268
  146TMC2     H 2230   2.087   2.456  12.538 -2.6374  3.6303 -0.1102
  146TMC2    H1 2231   2.344   2.730  12.312 -1.1180  0.9907  0.8655
  146TMC2    H2 2232   2.249   2.364  12.152 -1.1364  0.1085  0.8624
  146TMC2    C7 2233   2.425   2.556  12.169  0.0351 -0.1696 -0.4255
  146TMC2    C8 2234   2.032   2.345  12.334 -0.0777  1.6100 -0.3875
  146TMC2    O1 2235   2.433   2.486  12.067 -0.0050  0.4491  0.3722
  146TMC2    O2 2236   1.931   2.410  12.370 -0.0863 -0.1749  0.3837
  146TMC2    O5 2237   2.033   2.264  12.227  0.4654 -0.7133  0.5297
  146TMC2    H5 2238   2.115   2.213  12.207  0.1231 -0.0312 -2.6104
  147MPD2     C 2239   2.939   2.566  12.175 -0.4885  0.4447 -0.2223
  147MPD2    C1 2240   2.893   2.579  12.303  0.1142 -0.1888  0.3504
  147MPD2    C2 2241   2.760   2.589  12.327 -0.1281 -1.2559 -0.0027
  147MPD2    C3 2242   2.667   2.568  12.227 -0.3778  0.0788  0.3937
  147MPD2    C4 2243   2.715   2.538  12.099 -0.8072 -0.7479 -0.3008
  147MPD2    C5 2244   2.847   2.531  12.080 -0.1138  0.3034  0.1126
  147MPD2     H 2245   2.729   2.607  12.430  1.7168 -0.5697  0.4383
  147MPD2    H1 2246   2.650   2.507  12.018  0.7029  1.1864 -2.2807
  147MPD2    H2 2247   3.044   2.555  12.153  0.1083  4.1544  0.6422
  147MPD2    H3 2248   2.888   2.498  11.985 -0.7829 -1.2762  0.3629
  147MPD2     N 2249   2.526   2.584  12.257  0.2965 -0.2298  0.2558
  147MPD2    H5 2250   2.502   2.619  12.350  0.4421 -0.4190  0.3631
  147MPD2    N1 2251   2.988   2.554  12.407  0.2951  0.5475 -0.1007
  147MPD2    H7 2252   3.084   2.547  12.374 -0.6474 -0.3078 -2.6570
  148MPD2     C 2253   2.913   1.068  10.249 -0.3658  0.2336  0.4008
  148MPD2    C1 2254   2.779   1.076  10.267 -0.1641  0.2593  0.3869
  148MPD2    C2 2255   2.700   1.006  10.184  0.2255 -1.0684  0.2644
  148MPD2    C3 2256   2.756   0.926  10.083  0.6416 -0.4655 -0.6398
  148MPD2    C4 2257   2.887   0.906  10.078 -0.0776  0.6808  0.7789
  148MPD2    C5 2258   2.968   0.980  10.156 -0.0107 -0.2229 -0.3290
  148MPD2     H 2259   2.593   1.000  10.201 -0.0213  0.2912 -0.7813
  148MPD2    H1 2260   2.925   0.829  10.012 -3.7484 -0.7868  0.3601
  148MPD2    H2 2261   2.993   1.113  10.307  0.5591  0.8296 -1.3352
  148MPD2    H3 2262   3.074   0.957  10.147  0.2007  0.1283  1.2208
  148MPD2     N 2263   2.682   0.852   9.988 -0.4386  0.0668 -0.1077
  148MPD2    H5 2264   2.737   0.777   9.947 -0.6233  1.2231 -2.5128
  148MPD2    N1 2265   2.726   1.149  10.378 -0.3298 -0.3309  0.4616
  148MPD2    H7 2266   2.626   1.141  10.399 -0.2199 -1.9403  0.3869
  149TCq2    C1 2267   2.791   1.238  10.462 -0.1596 -0.3588  0.4641
  149TCq2    O2 2268   2.899   1.292  10.446  0.6768  0.1675  0.0118
  149TCq2    C2 2269   2.709   1.287  10.571  0.9241 -0.0962  0.2209
  149TCq2    C3 2270   2.749   1.408  10.619  0.1457  0.6415 -0.2610
  149TCq2    C4 2271   2.731   1.434  10.752 -0.1360 -0.4326  0.1091
  149TCq2    C5 2272   2.654   1.348  10.828 -0.6395  0.5762  0.5311
  149TCq2    C6 2273   2.613   1.230  10.776 -0.4859 -0.1613 -0.2075
  149TCq2    C7 2274   2.639   1.192  10.645 -0.3429 -0.5550 -0.5366
  149TCq2    C8 2275   2.563   1.124  10.868  0.4810 -0.3250  0.5548
  149TCq2    O4 2276   2.509   1.158  10.970 -0.2492 -0.5757  0.9326
  149TCq2    C9 2277   2.762   1.560  10.807 -0.1206  0.1574 -0.4043
  149TCq2    O5 2278   2.820   1.644  10.732 -0.3790  0.2808  0.5078
  149TCq2    O6 2279   2.721   1.591  10.922 -0.1146  0.0831  0.4476
  149TCq2    H2 2280   2.793   1.483  10.553  1.1706  2.4301  2.4721
  149TCq2    H3 2281   2.629   1.366  10.932 -0.1515  0.4509  0.6688
  149TCq2    H4 2282   2.608   1.098  10.602 -1.2310 -1.3847  1.8906
  150MPD2     C 2283   4.027   1.271  12.038 -0.5149 -0.1902  0.3110
  150MPD2    C1 2284   4.097   1.165  11.981  0.5383  0.2036 -0.5676
  150MPD2    C2 2285   4.216   1.120  12.037  0.3723  0.0798  0.5147
  150MPD2    C3 2286   4.263   1.172  12.152 -0.1105  0.0548  0.4684
  150MPD2    C4 2287   4.198   1.276  12.209  0.3962  0.3917  0.3187
  150MPD2    C5 2288   4.079   1.328  12.154 -0.0798 -0.1238  0.4478
  150MPD2     H 2289   4.273   1.037  11.999 -1.3752 -1.0634  0.3629
  150MPD2    H1 2290   4.209   1.315  12.310 -1.2690  1.4210  0.1108
  150MPD2    H2 2291   3.936   1.308  11.993 -2.1508 -3.5250  0.8464
  150MPD2    H3 2292   4.017   1.404  12.200  2.0699  1.4980  0.6518
  150MPD2     N 2293   4.378   1.104  12.200 -0.4009  0.1848  0.2978
  150MPD2    H5 2294   4.408   1.026  12.143  2.2148  0.0582  1.8558
  150MPD2    N1 2295   4.037   1.102  11.873  0.4220  1.1876 -0.3122
  150MPD2    H7 2296   3.942   1.131  11.851  0.7449  1.0421 -1.9110
  151TCq2    C1 2297   4.459   1.148  12.301 -0.0845  0.0211  0.2303
  151TCq2    O2 2298   4.443   1.246  12.372 -0.1467 -0.2129  0.3285
  151TCq2    C2 2299   4.569   1.060  12.330 -0.2522 -0.4658  0.5092
  151TCq2    C3 2300   4.577   0.932  12.277 -0.5893  0.5892 -0.4832
  151TCq2    C4 2301   4.678   0.848  12.315  0.2601 -0.3703 -0.2465
  151TCq2    C5 2302   0.053   0.887  12.396  0.1442  0.3643  0.3591
  151TCq2    C6 2303   0.053   1.024  12.431 -0.3017 -0.2020  0.3114
  151TCq2    C7 2304   4.670   1.108  12.405  0.1048 -0.0227 -0.0994
  151TCq2    C8 2305   0.155   1.065  12.520  0.1474  0.5220  0.8313
  151TCq2    O4 2306   0.152   1.181  12.558 -0.2391  0.4830  0.0407
  151TCq2    C9 2307   4.664   0.719  12.264 -0.3869 -0.3119 -0.0308
  151TCq2    O5 2308   4.577   0.689  12.177  0.1284  0.1349  0.2209
  151TCq2    O6 2309   0.046   0.651  12.272  0.1969 -0.4202 -0.5610
  151TCq2    H2 2310   4.507   0.897  12.202  1.1327 -0.9495 -1.3631
  151TCq2    H3 2311   0.128   0.816  12.428 -0.1495  0.2245  0.7338
  151TCq2    H4 2312   4.666   1.209  12.443  0.1916  0.3911 -1.1920
  152MPD2     C 2313   3.932   0.435  12.407 -0.2964  0.4512 -0.2686
  152MPD2    C1 2314   3.981   0.557  12.373 -0.2739 -0.8092 -0.1117
  152MPD2    C2 2315   3.906   0.650  12.300 -0.3152 -0.0362  0.3307
  152MPD2    C3 2316   3.777   0.609  12.257  0.1091  0.3887 -0.7763
  152MPD2    C4 2317   3.729   0.483  12.290  0.0919  0.3070 -0.6209
  152MPD2    C5 2318   3.810   0.396  12.361 -0.3043  0.0534  0.2733
  152MPD2     H 2319   3.946   0.746  12.269 -2.2615  1.0617  1.1942
  152MPD2    H1 2320   3.626   0.463  12.262 -0.2150  0.8446  0.1143
  152MPD2    H2 2321   3.998   0.369  12.463 -1.5851 -1.7301 -1.3120
  152MPD2    H3 2322   3.783   0.293  12.383  1.0208 -0.3462  0.0637
  152MPD2     N 2323   3.694   0.705  12.193 -0.0295  0.4856  0.0500
  152MPD2    H5 2324   3.734   0.793  12.161 -0.2791  0.3693 -0.5718
  152MPD2    N1 2325   4.115   0.584  12.406 -0.6346  0.6409  0.3911
  152MPD2    H7 2326   4.159   0.512  12.464  1.2564 -0.2139 -2.1117
  153TCq2    C1 2327   4.176   0.713  12.394  0.2266  0.1885  0.2198
  153TCq2    O2 2328   4.144   0.817  12.340  0.0336 -0.3547 -0.4354
  153TCq2    C2 2329   4.296   0.727  12.483 -0.2960 -0.4774  0.1021
  153TCq2    C3 2330   4.373   0.616  12.513  0.0184  0.5972 -0.2431
  153TCq2    C4 2331   4.484   0.634  12.593 -0.0549 -0.0050  0.0937
  153TCq2    C5 2332   4.518   0.759  12.631 -0.2688 -0.1475  0.0950
  153TCq2    C6 2333   4.434   0.858  12.610 -0.2100 -0.2285  0.0998
  153TCq2    C7 2334   4.326   0.852  12.529 -0.0718  0.0736  0.0702
  153TCq2    C8 2335   4.461   0.989  12.670  0.0793  0.5783 -0.3864
  153TCq2    O4 2336   4.374   1.076  12.647  0.0682 -0.0143 -0.2705
  153TCq2    C9 2337   4.562   0.529  12.644 -0.2172 -0.2705  0.3778
  153TCq2    O5 2338   4.548   0.411  12.595  0.3522 -0.0942  0.4396
  153TCq2    O6 2339   4.659   0.565  12.716 -0.0109 -0.6773  0.7016
  153TCq2    H2 2340   4.344   0.516  12.482 -1.0905  0.9548 -0.3556
  153TCq2    H3 2341   4.613   0.771  12.684  0.6432 -1.4000 -1.2683
  153TCq2    H4 2342   4.257   0.932  12.505 -0.8054 -0.4491  0.4368
  154MPD2     C 2343   0.892   1.199   0.102  0.3120  0.7179 -0.1348
  154MPD2    C1 2344   0.843   1.330   0.137  0.1829 -0.4239 -0.5577
  154MPD2    C2 2345   0.711   1.345   0.186 -0.3876 -0.0657  0.4244
  154MPD2    C3 2346   0.640   1.231   0.215  0.6166 -0.1635 -0.6748
  154MPD2    C4 2347   0.686   1.104   0.185 -0.2609  0.1605 -0.4915
  154MPD2    C5 2348   0.809   1.093   0.133 -0.2731  0.9966  0.1283
  154MPD2     H 2349   0.671   1.442   0.211 -2.0991 -0.6788  0.0186
  154MPD2    H1 2350   0.625   1.016   0.203  0.1614 -0.6077 -2.7180
  154MPD2    H2 2351   0.990   1.182   0.060 -0.6150 -0.7008 -1.6825
  154MPD2    H3 2352   0.858   0.996   0.125  1.2672  1.8658 -1.0576
  154MPD2     N 2353   0.525   1.252   0.291  0.5394 -0.1509  0.0366
  154MPD2    H5 2354   0.502   1.351   0.298 -1.0301 -0.5170  0.0756
  154MPD2    N1 2355   0.937   1.433   0.119  0.0227 -0.3211  0.4271
  154MPD2    H7 2356   1.033   1.399   0.116 -0.2512 -1.0702  0.1352
  155TCq2    C1 2357   0.908   1.571   0.117 -0.2152 -0.0549  1.2446
  155TCq2    O2 2358   0.805   1.633   0.142 -0.2212 -0.0447  0.8137
  155TCq2    C2 2359   1.034   1.642   0.122 -0.2556  0.1581 -0.1349
  155TCq2    C3 2360   1.146   1.576   0.081 -0.1676 -0.6791 -0.5974
  155TCq2    C4 2361   1.267   1.637   0.107 -0.0885 -0.6722 -0.7564
  155TCq2    C5 2362   1.270   1.762   0.172  0.3682  0.2922  0.5050
  155TCq2    C6 2363   1.156   1.831   0.190 -0.5241 -0.8725  0.6232
  155TCq2    C7 2364   1.043   1.767   0.171 -0.5222  0.5646  0.0081
  155TCq2    C8 2365   1.158   1.958   0.261  0.5001  0.0534 -0.3003
  155TCq2    O4 2366   1.057   1.999   0.315  0.3732 -0.1870 -0.1837
  155TCq2    C9 2367   1.388   1.562   0.093 -0.9761  0.2214 -1.0220
  155TCq2    O5 2368   1.497   1.616   0.116 -0.1581  0.1077 -0.3074
  155TCq2    O6 2369   1.370   1.449   0.040  0.0672 -0.3775  0.1059
  155TCq2    H2 2370   1.151   1.484   0.023 -0.5001  0.8158 -2.9830
  155TCq2    H3 2371   1.368   1.803   0.191 -0.6753  1.3443  3.5952
  155TCq2    H4 2372   0.957   1.806   0.226 -0.2690 -2.7222  2.7541
  156MPD2     C 2373   4.460   2.721  12.392 -0.0464 -0.9211  0.3722
  156MPD2    C1 2374   4.390   2.805  12.304  0.2948 -1.5153  0.0827
  156MPD2    C2 2375   4.359   2.930  12.351  0.4411 -0.2925 -0.0632
  156MPD2    C3 2376   4.387   2.976  12.477 -0.3370  0.6263  0.3232
  156MPD2    C4 2377   4.443   2.885  12.568 -0.3788  0.0722 -0.2703
  156MPD2    C5 2378   4.481   2.761  12.524 -0.0268  0.7453 -0.0548
  156MPD2     H 2379   4.289   2.992  12.297  0.4688  0.0029  0.2413
  156MPD2    H1 2380   4.463   2.906  12.673 -2.8213  0.4349  0.1285
  156MPD2    H2 2381   4.490   2.619  12.372 -2.0345 -1.1035 -1.6501
  156MPD2    H3 2382   4.524   2.689  12.592  1.9706  1.8266 -0.1832
  156MPD2     N 2383   4.341   3.103  12.520 -0.3486 -0.1543  0.0022
  156MPD2    H5 2384   4.300   3.164  12.450 -0.1464  1.4762  1.3199
  156MPD2    N1 2385   4.354   2.764  12.173  0.2231  0.7108  0.0297
  156MPD2    H7 2386   4.409   2.688  12.134 -0.1402  0.3970  0.1306
  157TCq2    C1 2387   4.242   2.808  12.100  0.6019  0.4361  0.4219
  157TCq2    O2 2388   4.147   2.866  12.155  0.1151  0.1214 -0.5769
  157TCq2    C2 2389   4.231   2.764  11.961  0.0865  0.7693 -0.1278
  157TCq2    C3 2390   4.097   2.761  11.913 -0.5717  0.6951  0.3533
  157TCq2    C4 2391   4.078   2.757  11.779 -0.6816  0.7527 -0.3299
  157TCq2    C5 2392   4.187   2.760  11.695  0.0561  0.5764  0.3700
  157TCq2    C6 2393   4.320   2.775  11.744 -0.5683 -0.9373  0.2924
  157TCq2    C7 2394   4.340   2.780  11.880  0.5230 -0.3654 -0.7791
  157TCq2    C8 2395   4.408   2.849  11.653  0.0541 -0.5661 -0.6516
  157TCq2    O4 2396   4.355   2.905  11.559  0.5566  0.0511 -0.3897
  157TCq2    C9 2397   3.944   2.737  11.736  0.0450 -0.2786  0.2353
  157TCq2    O5 2398   3.939   2.644  11.646  0.2509  0.1553 -0.2332
  157TCq2    O6 2399   3.842   2.764  11.808 -0.5967 -0.7652 -0.6435
  157TCq2    H2 2400   4.013   2.746  11.980 -1.2683  1.4921 -0.3242
  157TCq2    H3 2401   4.158   2.762  11.590 -0.7915  0.5939  0.6096
  157TCq2    H4 2402   4.437   2.812  11.919  0.6295 -2.5862  0.7896
  158TMC2    C1 2403   4.586   1.956  14.109 -0.3690 -0.0206 -0.0446
  158TMC2    C2 2404   4.697   1.912  14.177  0.3196  0.6756  0.4399
  158TMC2    C3 2405   0.087   1.894  14.098 -0.8678  0.7033  0.6851
  158TMC2    C4 2406   4.571   1.970  13.973 -0.0544  1.0161  0.0733
  158TMC2    C5 2407   4.687   1.942  13.900 -0.5015 -0.1515 -0.4256
  158TMC2    C6 2408   0.080   1.906  13.956 -0.1616  0.8141  0.1773
  158TMC2     C 2409   4.460   1.954  14.182  0.0309  0.3613 -1.0015
  158TMC2     O 2410   4.374   2.024  14.129  0.5838  0.0417  0.0988
  158TMC2     H 2411   4.691   1.905  14.285  2.6509  1.1362  0.5938
  158TMC2    H1 2412   4.476   1.991  13.925  0.1002  1.1925 -0.1581
  158TMC2    H2 2413   0.157   1.868  13.889  1.0330  1.4810  1.1719
  158TMC2    C7 2414   4.667   1.894  13.766 -0.1109 -0.3985  0.0644
  158TMC2    C8 2415   0.191   1.811  14.156  0.3684  0.1778  0.2416
  158TMC2    O1 2416   4.599   1.971  13.695 -0.2624 -0.3349 -0.5846
  158TMC2    O2 2417   0.183   1.746  14.261  0.5013 -0.2602 -0.1356
  158TMC2    O5 2418   0.294   1.826  14.080 -0.2315  0.5985 -0.3976
  158TMC2    H5 2419   0.284   1.893  14.010 -1.5718  3.8464  2.9249
  159MPD2     C 2420   4.092   1.686  14.403  0.1118  0.8356 -0.1740
  159MPD2    C1 2421   4.212   1.613  14.419 -0.2415  0.1194 -0.7455
  159MPD2    C2 2422   4.323   1.670  14.368  0.8081 -0.0266  0.3137
  159MPD2    C3 2423   4.324   1.797  14.312 -0.2600 -0.5283 -0.3999
  159MPD2    C4 2424   4.204   1.870  14.303  0.0892 -0.0519  0.6116
  159MPD2    C5 2425   4.089   1.806  14.339 -0.3006 -0.5965 -0.3701
  159MPD2     H 2426   4.415   1.617  14.347  0.2393 -0.1578 -1.8964
  159MPD2    H1 2427   4.185   1.967  14.258 -1.9323 -0.9761 -0.5192
  159MPD2    H2 2428   3.995   1.649  14.434 -0.2198  1.8748  0.0213
  159MPD2    H3 2429   3.989   1.849  14.341 -1.1557 -2.5827  0.2744
  159MPD2     N 2430   4.442   1.844  14.264 -0.4033 -0.7763 -0.2013
  159MPD2    H5 2431   4.523   1.785  14.280 -0.9774 -1.5257 -0.0998
  159MPD2    N1 2432   4.211   1.486  14.487 -0.2222  0.6978  0.1586
  159MPD2    H7 2433   4.120   1.442  14.489  0.1014 -0.0190 -0.5311
  160TMC2    C1 2434   4.125   4.528   1.667  0.1583 -0.8408 -0.3338
  160TMC2    C2 2435   4.159   4.415   1.738 -0.0122 -0.2485  0.0038
  160TMC2    C3 2436   4.266   4.345   1.695 -0.0208  0.3088 -0.0709
  160TMC2    C4 2437   4.203   4.582   1.571 -0.0175  0.1307 -0.3235
  160TMC2    C5 2438   4.322   4.519   1.545  0.4774 -1.1070 -0.2096
  160TMC2    C6 2439   4.352   4.394   1.603  0.3569  0.3557  0.8535
  160TMC2     C 2440   3.980   4.568   1.670  0.2853  0.5302  0.3692
  160TMC2     O 2441   3.903   4.481   1.706  0.3216 -0.1380  0.5931
  160TMC2     H 2442   4.079   4.373   1.797  0.2449  1.0635  1.2692
  160TMC2    H1 2443   4.183   4.669   1.510  2.1920  0.5368 -0.4575
  160TMC2    H2 2444   4.440   4.340   1.570 -0.2426  1.2313 -2.2222
  160TMC2    C7 2445   4.396   4.541   1.425  0.0689 -0.4943 -0.1455
  160TMC2    C8 2446   4.249   4.207   1.690  0.0224 -0.2026 -0.8839
  160TMC2    O1 2447   4.447   4.444   1.373 -0.5172  0.9084 -0.0645
  160TMC2    O2 2448   4.143   4.154   1.723  0.0123  0.6448  0.1232
  160TMC2    O5 2449   4.363   4.139   1.665  0.9532 -0.1997 -0.0190
  160TMC2    H5 2450   4.432   4.202   1.694 -0.3541  1.8084 -1.3147
  161MPD2     C 2451   3.703   4.694   1.636 -0.2178  0.7297 -0.9204
  161MPD2    C1 2452   3.824   0.032   1.605  0.0446 -0.4088  0.2621
  161MPD2    C2 2453   3.827   0.145   1.523 -0.8731  0.3580 -0.2280
  161MPD2    C3 2454   3.710   0.200   1.474 -0.4631  0.1271  0.6071
  161MPD2    C4 2455   3.592   0.138   1.502 -0.2101 -0.0577  0.5928
  161MPD2    C5 2456   3.591   0.031   1.584  0.2045  0.7741 -0.2956
  161MPD2     H 2457   3.926   0.177   1.492 -0.5083  0.2461  0.8331
  161MPD2    H1 2458   3.501   0.176   1.458 -0.5048 -1.3003  0.1285
  161MPD2    H2 2459   3.696   4.603   1.695  3.0081  1.6179  0.8332
  161MPD2    H3 2460   3.492   4.711   1.596  0.2037  1.1978  1.1910
  161MPD2     N 2461   3.708   0.311   1.389  0.6228  0.5146 -0.2101
  161MPD2    H5 2462   3.616   0.334   1.352 -0.1270 -1.0258  0.7017
  161MPD2    N1 2463   3.949   4.696   1.634  0.5330  0.0931  0.2991
  161MPD2    H7 2464   4.028   0.037   1.626 -0.3409  1.2545  0.8444
  162TMC2    C1 2465   2.634   3.044   0.941 -0.2495  0.1818 -0.1346
  162TMC2    C2 2466   2.704   3.153   0.961  0.7518 -0.5308 -0.2309
  162TMC2    C3 2467   2.685   3.227   1.072 -0.1582 -0.3417  0.2884
  162TMC2    C4 2468   2.526   3.008   1.017  0.0360  0.8263  0.3355
  162TMC2    C5 2469   2.512   3.080   1.132  0.0608 -0.0253  0.0107
  162TMC2    C6 2470   2.587   3.193   1.161  0.0873  0.3657  0.7571
  162TMC2     C 2471   2.661   2.950   0.829 -0.5117 -0.1942  0.3061
  162TMC2     O 2472   2.595   2.848   0.829  0.1804 -0.0721 -0.6959
  162TMC2     H 2473   2.802   3.169   0.917  1.2016 -2.5211  0.0582
  162TMC2    H1 2474   2.465   2.922   0.994  2.5988 -0.6298 -0.9618
  162TMC2    H2 2475   2.575   3.254   1.249 -2.2661  0.9376  0.0324
  162TMC2    C7 2476   2.402   3.045   1.222  0.4322 -0.5539 -0.3406
  162TMC2    C8 2477   2.763   3.348   1.091 -0.2866  0.2049  0.3452
  162TMC2    O1 2478   2.335   3.140   1.265  0.4839 -0.1355  0.3548
  162TMC2    O2 2479   2.749   3.400   1.198  0.3694 -0.0054  0.2250
  162TMC2    O5 2480   2.793   3.403   0.970  0.5527  0.1265 -0.5151
  162TMC2    H5 2481   2.781   3.346   0.891  1.1887  0.6491 -0.9958
  163MPD2     C 2482   2.818   2.869   0.358  0.3381  0.0828  0.0592
  163MPD2    C1 2483   2.764   2.778   0.450 -0.8154  0.5394 -0.1853
  163MPD2    C2 2484   2.733   2.825   0.575  0.3705  0.9379  0.2791
  163MPD2    C3 2485   2.775   2.949   0.609 -0.1115  0.0670  1.1659
  163MPD2    C4 2486   2.846   3.028   0.521 -0.3003  0.0429 -0.2124
  163MPD2    C5 2487   2.859   2.991   0.392 -0.8713  0.5815  0.6619
  163MPD2     H 2488   2.693   2.753   0.645 -0.4664  2.5972  1.5008
  163MPD2    H1 2489   2.888   3.122   0.553  0.3632 -0.5569  0.6851
  163MPD2    H2 2490   2.834   2.840   0.255  0.4040 -0.4218  0.2099
  163MPD2    H3 2491   2.913   3.051   0.319 -0.3490 -0.2826  0.3361
  163MPD2     N 2492   2.740   3.016   0.731 -0.0138 -0.1235 -0.1446
  163MPD2    H5 2493   2.771   3.113   0.733  0.9599 -0.4877  2.1077
  163MPD2    N1 2494   2.732   2.653   0.401  0.5222 -1.3435 -0.0762
  163MPD2    H7 2495   2.770   2.640   0.308 -0.3367  4.1308 -1.1452
  164TCq2    C1 2496   2.719   1.788  12.131 -0.6153 -0.6306 -0.5253
  164TCq2    O2 2497   2.692   1.726  12.234  0.2934 -0.1719  0.1698
  164TCq2    C2 2498   2.613   1.874  12.078  0.6187 -0.2162 -0.2952
  164TCq2    C3 2499   2.515   1.919  12.169 -0.2089  0.0714  0.7370
  164TCq2    C4 2500   2.427   2.005  12.113  0.0650 -0.0705  0.2787
  164TCq2    C5 2501   2.419   2.041  11.982 -1.1377 -0.0000 -0.2509
  164TCq2    C6 2502   2.513   1.988  11.898 -0.2638 -0.6467 -0.2642
  164TCq2    C7 2503   2.603   1.893  11.943 -0.3327  0.2552 -0.5485
  164TCq2    C8 2504   2.473   1.969  11.758  0.1051 -0.5509  0.5295
  164TCq2    O4 2505   2.503   1.867  11.705  0.3256 -0.0735 -0.2503
  164TCq2    C9 2506   2.332   2.061  12.204 -0.1751 -0.0326  0.2570
  164TCq2    O5 2507   2.356   2.053  12.327  0.1468 -0.2160  0.1292
  164TCq2    O6 2508   2.238   2.128  12.152  0.0548 -0.1676  0.1747
  164TCq2    H2 2509   2.512   1.882  12.270 -0.9956  0.8935  1.0184
  164TCq2    H3 2510   2.340   2.106  11.946 -1.3549  0.1489  0.4840
  164TCq2    H4 2511   2.661   1.845  11.865  1.1426 -0.8491  1.2287
  165MPD2     C 2512   3.965   3.395   2.343 -0.0224 -0.1083 -0.2114
  165MPD2    C1 2513   3.860   3.479   2.345 -0.1454  0.3791 -0.8069
  165MPD2    C2 2514   3.870   3.618   2.324 -0.4456 -0.0405  0.7865
  165MPD2    C3 2515   3.996   3.668   2.297 -0.1225 -0.3200  0.2149
  165MPD2    C4 2516   4.108   3.578   2.287  0.6827  0.1468  0.5057
  165MPD2    C5 2517   4.086   3.446   2.304 -0.4646 -0.6718  0.1970
  165MPD2     H 2518   3.787   3.686   2.336  0.1392  0.8627 -0.2367
  165MPD2    H1 2519   4.206   3.614   2.256  0.2272 -0.4364 -1.6041
  165MPD2    H2 2520   3.956   3.296   2.386  0.7849 -0.5253 -1.0223
  165MPD2    H3 2521   4.161   3.370   2.284 -0.2848 -0.1507 -1.0832
  165MPD2     N 2522   4.019   3.809   2.288  0.2887  0.0484  0.3814
  165MPD2    H5 2523   3.935   3.862   2.310  2.2910  3.6325 -0.4426
  165MPD2    N1 2524   3.739   3.413   2.386  0.6446  0.4813  0.4815
  165MPD2    H7 2525   3.749   3.314   2.405  1.5880  0.5810  0.5332
  166TCq2    C1 2526   4.136   3.873   2.239 -0.3456  0.2362  0.6241
  166TCq2    O2 2527   4.241   3.828   2.190 -0.4143  0.5316  0.3280
  166TCq2    C2 2528   4.113   4.018   2.232  0.0638  0.2803 -0.2836
  166TCq2    C3 2529   3.992   4.070   2.262 -0.1769  0.1465 -0.6259
  166TCq2    C4 2530   3.969   4.207   2.258 -0.4432 -0.3295 -0.1287
  166TCq2    C5 2531   4.073   4.294   2.236 -0.1353  0.0113 -0.2983
  166TCq2    C6 2532   4.199   4.239   2.201 -0.2181  0.7231  1.0623
  166TCq2    C7 2533   4.216   4.097   2.202  0.2818  1.0489 -0.4355
  166TCq2    C8 2534   4.296   4.314   2.123 -0.5719 -0.0783 -0.2998
  166TCq2    O4 2535   4.395   4.257   2.082  0.2077  0.3665 -0.3133
  166TCq2    C9 2536   3.840   4.253   2.299 -0.4977  0.1423 -0.4850
  166TCq2    O5 2537   3.843   4.355   2.375  0.3373  0.1891  0.3312
  166TCq2    O6 2538   3.753   4.163   2.301 -0.0488 -0.1617 -0.3371
  166TCq2    H2 2539   3.905   4.007   2.275  0.7440 -1.0261 -0.1649
  166TCq2    H3 2540   4.060   4.401   2.248  3.1560  0.0519  2.8414
  166TCq2    H4 2541   4.318   4.064   2.184 -1.3804 -2.3629 -3.5697
  167TMC2    C1 2542   2.247   1.298  12.724 -0.0446  0.2503 -0.6600
  167TMC2    C2 2543   2.164   1.330  12.830  0.3317  0.0731 -0.4253
  167TMC2    C3 2544   2.135   1.244  12.937 -0.1217  0.8354 -0.2774
  167TMC2    C4 2545   2.298   1.167  12.725  0.4680 -0.5415  0.5139
  167TMC2    C5 2546   2.264   1.087  12.838  0.9653  0.2235  0.5658
  167TMC2    C6 2547   2.179   1.119  12.935 -0.2017 -0.7893 -0.0182
  167TMC2     C 2548   2.253   1.387  12.607  0.9983 -0.2608 -0.0556
  167TMC2     O 2549   2.216   1.503  12.624  0.1020 -0.2611 -0.2212
  167TMC2     H 2550   2.118   1.428  12.826  0.4086  0.2023  1.5620
  167TMC2    H1 2551   2.377   1.140  12.656 -0.5234 -1.1504 -0.3910
  167TMC2    H2 2552   2.151   1.053  13.016 -1.2552 -1.0072 -0.5616
  167TMC2    C7 2553   2.307   0.949  12.843 -0.2885  0.3164  0.0047
  167TMC2    C8 2554   2.032   1.283  13.034  0.5316  0.1042 -0.2221
  167TMC2    O1 2555   2.295   0.910  12.958 -0.1239  0.2230 -0.3797
  167TMC2    O2 2556   1.942   1.210  13.076  0.2936 -0.0672  0.1648
  167TMC2    O5 2557   2.048   1.414  13.078  0.0516 -0.2120  0.3337
  167TMC2    H5 2558   2.129   1.455  13.040  0.9012 -1.7107  0.5311
  168MPD2     C 2559   2.148   1.470  12.326 -0.9158 -0.4892  0.7837
  168MPD2    C1 2560   2.216   1.351  12.361 -0.3941 -0.0941 -0.0123
  168MPD2    C2 2561   2.223   1.251  12.262  0.1438 -0.4055 -0.2254
  168MPD2    C3 2562   2.151   1.266  12.144  0.1300  0.2028  0.0598
  168MPD2    C4 2563   2.098   1.390  12.112 -0.3489  0.0438 -0.0201
  168MPD2    C5 2564   2.088   1.492  12.203 -0.4812  0.2221  0.1750
  168MPD2     H 2565   2.288   1.167  12.284  1.6888  1.1811  1.3634
  168MPD2    H1 2566   2.052   1.400  12.014  0.0727 -0.4436 -0.2629
  168MPD2    H2 2567   2.132   1.555  12.392 -0.1519 -0.1783  0.5717
  168MPD2    H3 2568   2.033   1.585  12.194 -2.0905 -0.7232  0.2175
  168MPD2     N 2569   2.140   1.156  12.056 -0.4330  0.3486 -0.0760
  168MPD2    H5 2570   2.091   1.170  11.968 -2.2404 -3.7034  0.3063
  168MPD2    N1 2571   2.264   1.313  12.491  0.6507  1.0326 -0.3485
  168MPD2    H7 2572   2.288   1.215  12.503  1.7644  1.6317  2.4363
  169MPD1     C 2573   0.636   0.613   8.671 -0.0805  0.3760 -0.1860
  169MPD1    C1 2574   0.574   0.626   8.794  0.3970  0.5734 -0.6992
  169MPD1    C2 2575   0.591   0.528   8.887  0.2041  0.8142 -0.1223
  169MPD1    C3 2576   0.644   0.407   8.856 -0.0810  0.4245  0.4454
  169MPD1    C4 2577   0.687   0.386   8.729 -0.5634 -0.9706  0.5681
  169MPD1    C5 2578   0.700   0.498   8.647  0.8981  0.2145  0.0832
  169MPD1     H 2579   0.561   0.546   8.990 -1.8830 -1.3019 -0.3688
  169MPD1    H1 2580   0.727   0.292   8.693  0.0831 -0.5618  0.2152
  169MPD1    H2 2581   0.632   0.690   8.595 -1.1351  0.1710 -0.3415
  169MPD1    H3 2582   0.755   0.483   8.555  0.4116  0.7718 -0.2996
  169MPD1     N 2583   0.646   0.302   8.962  0.0082 -0.3316  0.0616
  169MPD1    H5 2584   0.636   0.325   9.060 -2.0728 -0.5505 -0.0978
  169MPD1    N1 2585   0.513   0.743   8.828  0.0624 -0.3212  0.0177
  169MPD1    H6 2586   0.443   0.739   8.901 -1.2736 -0.2806 -1.2516
  169MPD1    H7 2587   0.481   0.796   8.747  1.2815 -0.8860 -0.8382
  170MPD1     C 2588   2.700   3.915  12.950 -0.0205 -0.4597  0.1150
  170MPD1    C1 2589   2.813   3.997  12.970 -0.1158 -0.3785  0.1270
  170MPD1    C2 2590   2.896   3.962  13.076 -0.8573  0.2851  0.0915
  170MPD1    C3 2591   2.872   3.844  13.151 -0.2630  0.2800  0.2755
  170MPD1    C4 2592   2.766   3.768  13.120 -0.4589  0.1844  0.5892
  170MPD1    C5 2593   2.686   3.800  13.014  0.1469 -0.7832 -0.2088
  170MPD1     H 2594   2.976   4.024  13.114  0.0739 -0.4879 -0.6189
  170MPD1    H1 2595   2.747   3.682  13.184 -0.5169  0.6100  1.1435
  170MPD1    H2 2596   2.632   3.928  12.867 -0.8605 -0.9536  0.7375
  170MPD1    H3 2597   2.608   3.730  12.987  1.0472 -1.5650 -0.7778
  170MPD1     N 2598   2.963   3.818  13.258 -0.2164  0.3044  0.2365
  170MPD1    H5 2599   3.019   3.901  13.276 -1.9983  1.5655 -0.1123
  170MPD1    N1 2600   2.823   4.122  12.909 -0.0190 -0.0538  0.5020
  170MPD1    H6 2601   2.920   4.153  12.914  0.5721 -1.7374 -0.5385
  170MPD1    H7 2602   2.799   4.133  12.811  1.6814 -0.2094  0.0644
  171MPD1     C 2603   1.567   4.678  15.252  0.6942  0.2997  0.2513
  171MPD1    C1 2604   1.566   4.540  15.252  0.5599 -0.1206 -0.4358
  171MPD1    C2 2605   1.606   4.472  15.365 -0.3360 -0.3890 -0.2940
  171MPD1    C3 2606   1.638   4.534  15.484  0.2199 -0.2562  0.3032
  171MPD1    C4 2607   1.632   4.670  15.484  0.7252 -0.8527 -0.2420
  171MPD1    C5 2608   1.593   0.021  15.373 -0.4062  0.3080 -0.0777
  171MPD1     H 2609   1.623   4.365  15.357 -0.4473 -0.3732 -0.7414
  171MPD1    H1 2610   1.647   0.003  15.577 -0.9732  0.4497 -0.7337
  171MPD1    H2 2611   1.548   0.011  15.160  2.2608 -2.9504 -2.0204
  171MPD1    H3 2612   1.603   0.129  15.372 -0.4264  0.3415  3.8756
  171MPD1     N 2613   1.670   4.473  15.606  0.0065 -0.0074 -0.8032
  171MPD1    H5 2614   1.715   4.530  15.677 -2.3436 -1.2325  1.6684
  171MPD1    N1 2615   1.546   4.473  15.133  0.2268  0.3842  0.2338
  171MPD1    H6 2616   1.521   4.375  15.133  1.4145  0.0816 -0.3171
  171MPD1    H7 2617   1.493   4.521  15.059 -2.5276 -2.4112  0.3945
  172MPD1     C 2618   1.135   3.939   0.943 -0.2562  0.7495 -0.9268
  172MPD1    C1 2619   1.238   4.035   0.966 -0.5202  0.4003 -0.4338
  172MPD1    C2 2620   1.220   4.167   0.930 -0.2790 -0.0920 -0.1398
  172MPD1    C3 2621   1.095   4.210   0.894 -0.2311  0.6244 -0.2296
  172MPD1    C4 2622   0.990   4.123   0.878 -0.8503  0.9751  0.0484
  172MPD1    C5 2623   1.016   3.991   0.899 -0.1349 -0.0769 -0.1100
  172MPD1     H 2624   1.301   4.239   0.940  0.5377 -1.4425  3.1249
  172MPD1    H1 2625   0.887   4.153   0.860 -0.7083  2.0226  1.0088
  172MPD1    H2 2626   1.150   3.832   0.952 -0.4189  0.7923 -0.1639
  172MPD1    H3 2627   0.954   3.914   0.855  0.3965 -0.6043  0.0609
  172MPD1     N 2628   1.076   4.345   0.857 -0.4943  0.0143  0.2066
  172MPD1    H5 2629   1.158   4.405   0.855 -0.5063  0.1081  2.0038
  172MPD1    N1 2630   1.365   3.988   1.010  0.3542  0.5347 -0.3213
  172MPD1    H6 2631   1.355   3.903   1.066  0.8300  0.0911 -0.9182
  172MPD1    H7 2632   1.403   4.055   1.076 -1.3902  0.4098  0.8275
  173MPD1     C 2633   2.891   4.638  14.616  0.4422  0.3515  0.4612
  173MPD1    C1 2634   2.757   4.605  14.600 -0.1401 -0.0854  0.2290
  173MPD1    C2 2635   2.712   4.476  14.574  0.0283  0.4011  0.4142
  173MPD1    C3 2636   2.803   4.370  14.579 -0.3994  0.0463  0.1463
  173MPD1    C4 2637   2.936   4.410  14.597  0.0088  0.0681 -0.4212
  173MPD1    C5 2638   2.979   4.534  14.619 -0.0681  0.0862  0.3878
  173MPD1     H 2639   2.612   4.444  14.547  0.7862 -0.9228 -0.8093
  173MPD1    H1 2640   3.012   4.333  14.594  2.2638  2.2894 -0.0549
  173MPD1    H2 2641   2.919   0.017  14.646  0.4044  0.2473  0.8333
  173MPD1    H3 2642   3.083   4.560  14.637 -0.0819  1.1642 -1.0690
  173MPD1     N 2643   2.751   4.239  14.580  0.0060  0.6910 -0.0142
  173MPD1    H5 2644   2.651   4.223  14.569  0.5514 -1.4608 -1.8729
  173MPD1    N1 2645   2.667   4.712  14.624 -0.0509  0.0385  0.3062
  173MPD1    H6 2646   2.584   4.697  14.568 -0.9080  0.7352  1.3840
  173MPD1    H7 2647   2.705   0.081  14.598  0.0566 -0.1875 -0.3247
  174MPD1     C 2648   3.165   3.355  14.535 -0.6193  0.2398  0.3913
  174MPD1    C1 2649   3.059   3.331  14.615 -0.2055 -0.2065  0.0762
  174MPD1    C2 2650   2.957   3.424  14.623  0.7641 -0.5062  0.5858
  174MPD1    C3 2651   2.969   3.542  14.549 -0.9958 -0.0710 -0.2523
  174MPD1    C4 2652   3.081   3.560  14.467 -0.6386  0.0883  0.4312
  174MPD1    C5 2653   3.176   3.464  14.454 -0.1229 -0.1255 -0.7418
  174MPD1     H 2654   2.883   3.405  14.700  0.2030  0.9969  0.4104
  174MPD1    H1 2655   3.089   3.646  14.401  0.5345 -0.7916 -0.5968
  174MPD1    H2 2656   3.248   3.287  14.525 -1.0794 -0.2253 -0.2400
  174MPD1    H3 2657   3.268   3.476  14.397  0.5921  1.3248  0.7206
  174MPD1     N 2658   2.888   3.651  14.565  0.4822 -0.3285  0.0282
  174MPD1    H5 2659   2.915   3.740  14.525  2.5610 -0.8808  0.2323
  174MPD1    N1 2660   3.061   3.229  14.708  0.1927  0.1918 -0.2568
  174MPD1    H6 2661   2.966   3.203  14.732  0.4940 -0.3154  0.3746
  174MPD1    H7 2662   3.101   3.144  14.669 -0.4848 -0.1760 -0.1543
  175MPD1     C 2663   0.832   4.708  15.606  0.0260  0.0718  0.1245
  175MPD1    C1 2664   0.701   0.012  15.649 -0.1271 -0.4556 -0.1247
  175MPD1    C2 2665   0.673   4.691  15.776  0.0764 -0.1330 -0.1141
  175MPD1    C3 2666   0.761   4.620  15.864  0.0001  0.0827 -0.2272
  175MPD1    C4 2667   0.884   4.595  15.811  0.5014 -1.1000 -0.5899
  175MPD1    C5 2668   0.919   4.639  15.687 -0.2332  0.2393 -0.0071
  175MPD1     H 2669   0.572   4.699  15.814 -1.0341 -3.8825 -2.2585
  175MPD1    H1 2670   0.957   4.545  15.874  1.5484  2.2077  0.7904
  175MPD1    H2 2671   0.872   0.022  15.512 -1.8750  0.0666 -0.6681
  175MPD1    H3 2672   1.020   4.623  15.648  0.2045  2.0246  0.3975
  175MPD1     N 2673   0.714   4.563  15.989 -0.1854  0.5513  0.0101
  175MPD1    H5 2674   0.782   4.519  16.050 -0.8294  0.9571  1.0144
  175MPD1    N1 2675   0.609   0.084  15.578  0.0551 -0.3179 -0.0496
  175MPD1    H6 2676   0.598   0.052  15.481 -1.0538  2.2653 -0.7822
  175MPD1    H7 2677   0.515   0.081  15.617 -0.7838  2.9722 -1.8214
  176MPD1     C 2678   1.820   2.267   0.942  0.1533 -0.0337 -0.4078
  176MPD1    C1 2679   1.730   2.364   0.963  0.4815 -0.1174 -0.2512
  176MPD1    C2 2680   1.763   2.489   1.005  0.3202 -0.4511 -0.4988
  176MPD1    C3 2681   1.899   2.520   1.019 -0.2927  0.4433 -0.1016
  176MPD1    C4 2682   1.991   2.411   1.009  0.3389 -0.3380  0.0645
  176MPD1    C5 2683   1.948   2.282   0.978 -0.2328 -0.0270 -0.2227
  176MPD1     H 2684   1.684   2.562   1.019  1.1118  0.0006  1.6773
  176MPD1    H1 2685   2.098   2.424   1.018  0.6852 -2.2545 -1.3562
  176MPD1    H2 2686   1.792   2.164   0.923 -0.1779  0.3762 -2.1768
  176MPD1    H3 2687   2.021   2.203   0.964  1.7615  1.6302  0.8227
  176MPD1     N 2688   1.938   2.657   1.032  0.2646  0.2260 -0.4072
  176MPD1    H5 2689   1.868   2.731   1.024 -0.3950 -0.4672 -1.0223
  176MPD1    N1 2690   1.596   2.328   0.951 -0.2115  0.1911  0.6527
  176MPD1    H6 2691   1.558   2.404   0.895 -1.1745 -1.2432 -0.6410
  176MPD1    H7 2692   1.582   2.245   0.894 -1.0397  0.3527  0.6259
  177MPD1     C 2693   1.517   0.850  10.685  0.2076 -0.7222 -0.6005
  177MPD1    C1 2694   1.542   0.978  10.709 -0.5830  0.4589  0.4424
  177MPD1    C2 2695   1.510   1.070  10.611 -0.1660  0.7498  0.0783
  177MPD1    C3 2696   1.441   1.029  10.495 -0.5644  0.0872  0.8003
  177MPD1    C4 2697   1.427   0.893  10.478  0.4505 -0.1963  0.9932
  177MPD1    C5 2698   1.467   0.804  10.569 -0.1410  0.4943  0.1933
  177MPD1     H 2699   1.512   1.174  10.643  3.0216  0.6536  0.1376
  177MPD1    H1 2700   1.394   0.846  10.386 -1.6112  1.6484  0.7618
  177MPD1    H2 2701   1.544   0.774  10.757 -0.8521  0.3652  0.9438
  177MPD1    H3 2702   1.458   0.698  10.551 -0.0581  0.4437  0.4539
  177MPD1     N 2703   1.391   1.119  10.400  0.1281  0.1721  0.2350
  177MPD1    H5 2704   1.429   1.213  10.413  1.3401 -0.0368 -1.8306
  177MPD1    N1 2705   1.615   1.022  10.820  0.0397 -1.3857 -0.4885
  177MPD1    H6 2706   1.687   1.088  10.790 -1.3611 -0.1309 -1.0687
  177MPD1    H7 2707   1.656   0.943  10.870 -1.1091 -1.6204  0.0676
  178MPD1     C 2708   2.693   2.882  17.651  0.0519  0.5575  0.0005
  178MPD1    C1 2709   2.791   2.982  17.667 -0.2400 -0.0811  0.0845
  178MPD1    C2 2710   2.916   2.956  17.616 -0.8232  1.0415 -0.4372
  178MPD1    C3 2711   2.949   2.834  17.566  0.0729 -0.7089 -0.2613
  178MPD1    C4 2712   2.851   2.738  17.552  0.7993  0.2387 -0.3861
  178MPD1    C5 2713   2.718   2.759  17.594  1.2166 -0.6714  0.9763
  178MPD1     H 2714   2.995   3.031  17.627 -0.4996  0.6460 -0.0463
  178MPD1    H1 2715   2.878   2.646  17.501  0.8333  0.3025 -0.4854
  178MPD1    H2 2716   2.592   2.903  17.685 -0.6238  0.6419 -2.0770
  178MPD1    H3 2717   2.638   2.690  17.572  0.0989  1.7580 -2.5994
  178MPD1     N 2718   3.080   2.804  17.517 -0.1339  0.2820  0.2107
  178MPD1    H5 2719   3.094   2.719  17.463  1.4707 -0.2512  1.4672
  178MPD1    N1 2720   2.750   3.102   0.016 -0.1842  1.0164  0.1339
  178MPD1    H6 2721   2.827   3.163   0.045  0.7449 -1.9496  3.9856
  178MPD1    H7 2722   2.682   3.099   0.092  2.1059 -0.0533  2.1577
  179MPD1     C 2723   2.825   1.604  16.316  0.4853  0.0327 -0.4058
  179MPD1    C1 2724   2.841   1.526  16.201 -0.1983  0.4327  0.7440
  179MPD1    C2 2725   2.784   1.403  16.212 -0.6819 -0.3988  0.2951
  179MPD1    C3 2726   2.731   1.352  16.334 -0.0429 -0.1293 -0.1332
  179MPD1    C4 2727   2.719   1.434  16.442  0.5985 -0.5315  0.0235
  179MPD1    C5 2728   2.774   1.558  16.437  0.5909 -0.3578  0.1638
  179MPD1     H 2729   2.792   1.338  16.126  0.1591 -1.3451  1.0969
  179MPD1    H1 2730   2.677   1.400  16.537  1.6297 -0.2503  0.5782
  179MPD1    H2 2731   2.871   1.703  16.323  1.2412 -0.3656  0.3242
  179MPD1    H3 2732   2.755   1.626  16.519  1.6904  0.8898 -0.6255
  179MPD1     N 2733   2.668   1.225  16.337 -0.3631 -0.2885 -0.0908
  179MPD1    H5 2734   2.643   1.194  16.430  1.0108 -0.4930  0.2081
  179MPD1    N1 2735   2.935   1.552  16.103  0.0186 -0.0113 -0.8302
  179MPD1    H6 2736   2.924   1.503  16.014  0.0971 -1.7520  0.1256
  179MPD1    H7 2737   2.952   1.645  16.063  2.8142  0.8325  2.3313
  180MPD1     C 2738   2.592   2.458  14.563  0.3295 -0.1282 -0.0612
  180MPD1    C1 2739   2.584   2.428  14.430  0.5279 -0.1211 -0.2079
  180MPD1    C2 2740   2.526   2.310  14.394  0.0031 -0.1295 -0.0390
  180MPD1    C3 2741   2.486   2.211  14.480 -0.0949  0.5227  0.5861
  180MPD1    C4 2742   2.495   2.240  14.616 -0.4598  0.9815  0.3160
  180MPD1    C5 2743   2.561   2.357  14.651 -0.1833  0.0809 -0.0164
  180MPD1     H 2744   2.522   2.285  14.289  1.2403 -0.1886 -0.0713
  180MPD1    H1 2745   2.461   2.171  14.693  1.2337  0.3338  0.4787
  180MPD1    H2 2746   2.620   2.552  14.610 -0.0114 -1.1639  2.1812
  180MPD1    H3 2747   2.559   2.367  14.759  1.1703 -1.1785  0.1250
  180MPD1     N 2748   2.443   2.086  14.423 -0.1918  0.2359  0.0764
  180MPD1    H5 2749   2.430   2.079  14.323  1.2926  0.8947 -0.1689
  180MPD1    N1 2750   2.615   2.530  14.341 -0.3193  0.0375 -0.4228
  180MPD1    H6 2751   2.660   2.484  14.262  0.6586 -0.1427  0.2374
  180MPD1    H7 2752   2.672   2.609  14.371  0.1929 -0.5178  0.0523
  181MPD1     C 2753   4.275   3.424  10.241 -0.2993 -0.1747  0.0878
  181MPD1    C1 2754   4.321   3.550  10.273  0.9302  0.0364  0.4932
  181MPD1    C2 2755   4.447   3.581  10.230 -0.2527 -0.0139  0.0910
  181MPD1    C3 2756   4.528   3.483  10.173  0.0254 -0.8305 -0.6892
  181MPD1    C4 2757   4.486   3.352  10.167 -0.0424 -0.1866 -0.1767
  181MPD1    C5 2758   4.357   3.326  10.203 -0.5927  0.3798 -0.4810
  181MPD1     H 2759   4.492   3.676  10.258  0.7753 -0.3266 -0.5264
  181MPD1    H1 2760   4.543   3.263  10.147  2.8928  1.8677 -0.9361
  181MPD1    H2 2761   4.176   3.392  10.271 -1.7068  1.8637 -2.3666
  181MPD1    H3 2762   4.321   3.224  10.204  0.7893 -0.0640  2.2320
  181MPD1     N 2763   4.659   3.512  10.132 -0.9175 -0.5213  0.1091
  181MPD1    H5 2764   4.702   3.432  10.088  1.3544  1.4775 -1.3229
  181MPD1    N1 2765   4.251   3.628  10.363  0.0186  0.5385 -0.3018
  181MPD1    H6 2766   4.153   3.599  10.364  0.4158 -0.7977  0.7383
  181MPD1    H7 2767   4.271   3.726  10.345  1.5160  0.5988  1.6636
  182MPD1     C 2768   0.764   3.181   2.102 -0.1652  0.3881  0.0335
  182MPD1    C1 2769   0.742   3.228   1.974  0.0121 -0.3041 -0.9336
  182MPD1    C2 2770   0.623   3.282   1.943  0.4282  1.1854  0.1905
  182MPD1    C3 2771   0.520   3.298   2.039 -0.0563 -0.4959  0.2057
  182MPD1    C4 2772   0.543   3.245   2.160 -0.3046 -0.5289  0.5237
  182MPD1    C5 2773   0.662   3.189   2.193  0.2241 -0.1527 -0.2598
  182MPD1     H 2774   0.608   3.296   1.837 -1.0555  0.7405  0.3377
  182MPD1    H1 2775   0.466   3.246   2.237 -0.6254  0.0036  0.1955
  182MPD1    H2 2776   0.847   3.113   2.115 -0.2855  0.0357 -1.0560
  182MPD1    H3 2777   0.677   3.148   2.293  0.5697  0.0136 -0.2428
  182MPD1     N 2778   0.389   3.340   2.007  0.1677  0.9298 -0.5758
  182MPD1    H5 2779   0.325   3.318   2.082 -0.2626 -0.4983 -1.3679
  182MPD1    N1 2780   0.830   3.195   1.873 -0.4536 -0.3290 -0.6475
  182MPD1    H6 2781   0.927   3.189   1.904 -1.1243 -1.8376  1.1202
  182MPD1    H7 2782   0.813   3.246   1.786  0.7726  3.1409  1.1717
  183MPD1     C 2783   1.773   2.855   8.925 -0.2617  0.3589  0.0228
  183MPD1    C1 2784   1.760   2.793   9.048 -0.6925  0.7239 -0.0339
  183MPD1    C2 2785   1.662   2.831   9.138 -0.9601 -0.5111  0.0188
  183MPD1    C3 2786   1.562   2.923   9.106  0.5118  0.4901 -0.2788
  183MPD1    C4 2787   1.571   2.987   8.988  0.3349 -0.2996 -0.4422
  183MPD1    C5 2788   1.678   2.955   8.908 -0.0844  0.0364  0.1983
  183MPD1     H 2789   1.656   2.771   9.228  0.6821 -1.0170 -0.1993
  183MPD1    H1 2790   1.518   3.074   8.954 -1.2574 -1.1575 -0.1642
  183MPD1    H2 2791   1.841   2.829   8.844  0.8563  2.6988  0.2273
  183MPD1    H3 2792   1.689   3.016   8.819  1.3017 -1.4185 -0.6300
  183MPD1     N 2793   1.453   2.943   9.198 -0.5606  0.3752 -0.6373
  183MPD1    H5 2794   1.461   2.906   9.292  2.4500 -1.3910 -1.5814
  183MPD1    N1 2795   1.855   2.694   9.081  0.5690  0.2654 -0.2104
  183MPD1    H6 2796   1.808   2.643   9.156  1.0123  0.5507  0.2622
  183MPD1    H7 2797   1.874   2.642   8.995  0.7884 -0.2660  0.1579
  184MPD1     C 2798   0.045   1.462  10.349 -0.0735  0.2101 -0.6283
  184MPD1    C1 2799   0.021   1.374  10.245 -0.1471  0.3904 -0.4920
  184MPD1    C2 2800   0.126   1.319  10.176 -1.4439  0.1765  0.1808
  184MPD1    C3 2801   0.256   1.356  10.203 -0.3127 -0.3546 -0.3280
  184MPD1    C4 2802   0.282   1.451  10.296 -0.0757 -0.2319 -0.2895
  184MPD1    C5 2803   0.176   1.504  10.372 -0.2072 -0.7470  0.2299
  184MPD1     H 2804   0.101   1.258  10.090 -1.2960 -0.1266  0.3524
  184MPD1    H1 2805   0.381   1.484  10.325 -0.0839  0.5123 -1.1134
  184MPD1    H2 2806   4.682   1.484  10.412 -0.0117 -0.4322 -0.3204
  184MPD1    H3 2807   0.176   1.565  10.462  1.1478  0.6909 -0.7527
  184MPD1     N 2808   0.368   1.310  10.121  0.6239 -0.0664  0.3787
  184MPD1    H5 2809   0.455   1.362  10.131  0.7073  0.2045 -1.8120
  184MPD1    N1 2810   4.606   1.331  10.210  0.6862 -0.2760 -0.0611
  184MPD1    H6 2811   4.591   1.319  10.110  0.2470 -2.4031  0.2425
  184MPD1    H7 2812   4.531   1.387  10.249  0.0750 -1.2931  0.2498
  185MPD1     C 2813   0.608   0.954   9.138 -0.1719 -0.1999  0.7578
  185MPD1    C1 2814   0.537   0.872   9.226 -0.2910 -0.4322  0.5986
  185MPD1    C2 2815   0.533   0.913   9.355 -0.6025  0.3107 -0.7667
  185MPD1    C3 2816   0.591   1.030   9.402 -0.1829 -0.0379  0.4301
  185MPD1    C4 2817   0.656   1.113   9.308  0.2911  0.5735 -0.2761
  185MPD1    C5 2818   0.652   1.076   9.180 -0.5470  0.3465  0.0006
  185MPD1     H 2819   0.475   0.857   9.427 -0.2384  0.0381 -0.6900
  185MPD1    H1 2820   0.694   1.210   9.337 -0.5528  0.2732  1.8514
  185MPD1    H2 2821   0.616   0.929   9.033 -0.2334  0.5251  0.5834
  185MPD1    H3 2822   0.692   1.144   9.106  3.8014 -2.9356 -0.6564
  185MPD1     N 2823   0.586   1.080   9.534 -0.1050  0.6003 -0.6513
  185MPD1    H5 2824   0.623   1.174   9.546 -1.8436  1.2244 -0.2602
  185MPD1    N1 2825   0.494   0.739   9.194  0.1136  0.3384 -0.5328
  185MPD1    H6 2826   0.404   0.726   9.239  0.9415 -0.9270  0.7545
  185MPD1    H7 2827   0.475   0.741   9.094 -1.7383 -0.0998 -0.1800
  186MPD1     C 2828   3.000   0.631  16.050  0.4108  0.4197  0.2693
  186MPD1    C1 2829   2.985   0.620  16.183 -0.5938  0.4022  0.4624
  186MPD1    C2 2830   2.982   0.732  16.265 -0.0095  0.2004 -0.2717
  186MPD1    C3 2831   3.003   0.859  16.210  0.4563 -0.7865  0.3231
  186MPD1    C4 2832   3.022   0.871  16.076  0.1607 -0.6825 -0.2817
  186MPD1    C5 2833   3.016   0.757  15.997  0.4669 -0.1617  1.3037
  186MPD1     H 2834   2.975   0.716  16.372 -0.7767 -1.7010 -0.6130
  186MPD1    H1 2835   3.024   0.967  16.026 -0.3320  0.6216  2.2120
  186MPD1    H2 2836   2.987   0.547  15.983  1.9795  1.9304 -1.8969
  186MPD1    H3 2837   3.028   0.766  15.889 -2.5839  0.5252  1.0302
  186MPD1     N 2838   2.992   0.981  16.280 -0.7912 -0.5489  0.4071
  186MPD1    H5 2839   2.993   1.064  16.222  1.9124 -0.5130  0.4898
  186MPD1    N1 2840   2.934   0.497  16.232  0.1954  0.0169  0.2693
  186MPD1    H6 2841   2.958   0.421  16.170  1.7049  0.4114  0.3753
  186MPD1    H7 2842   2.955   0.476  16.330  0.5872 -0.7148  0.0267
  187MPD1     C 2843   1.666   2.850   0.572 -0.7463  0.1738  0.0505
  187MPD1    C1 2844   1.649   2.987   0.576  1.0229  0.2415  0.4511
  187MPD1    C2 2845   1.715   3.066   0.485  0.0082  0.0886 -0.2558
  187MPD1    C3 2846   1.766   3.015   0.368  0.3271  0.7087  0.2593
  187MPD1    C4 2847   1.758   2.881   0.354  0.2093 -0.6136 -0.2280
  187MPD1    C5 2848   1.718   2.800   0.456 -0.5439 -0.6908  0.1165
  187MPD1     H 2849   1.698   3.173   0.486  1.6771  0.3452  0.6883
  187MPD1    H1 2850   1.798   2.832   0.266  0.5004  0.3504 -0.6368
  187MPD1    H2 2851   1.623   2.780   0.643  0.9157 -0.1995  0.6818
  187MPD1    H3 2852   1.712   2.693   0.441  3.5028 -1.5386  4.3775
  187MPD1     N 2853   1.820   3.081   0.254 -0.2846  0.4610 -0.4238
  187MPD1    H5 2854   1.833   3.027   0.170  2.9285 -0.7041  0.8409
  187MPD1    N1 2855   1.607   3.045   0.696 -0.5343 -0.0963 -0.2241
  187MPD1    H6 2856   1.529   2.994   0.737  0.9048 -2.2385 -0.1333
  187MPD1    H7 2857   1.556   3.130   0.674  1.9927  1.2117 -1.0248
  188MPD1     C 2858   0.033   1.927  10.639 -0.1625 -0.1914  0.0611
  188MPD1    C1 2859   4.633   1.976  10.670 -0.1477  0.1984 -0.2236
  188MPD1    C2 2860   4.530   1.884  10.662 -0.5094 -0.0925  1.0157
  188MPD1    C3 2861   4.547   1.743  10.652 -1.3243  0.0345  0.1863
  188MPD1    C4 2862   4.679   1.702  10.644 -0.2837 -0.4341 -0.1654
  188MPD1    C5 2863   0.059   1.795  10.640 -0.5766 -0.5801  0.2033
  188MPD1     H 2864   4.434   1.934  10.664 -0.2919  0.3713 -0.5229
  188MPD1    H1 2865   4.713   1.607  10.604  3.0246 -0.8491  3.5678
  188MPD1    H2 2866   0.118   1.993  10.630  0.8701 -1.4025  0.9238
  188MPD1    H3 2867   0.156   1.759  10.611 -0.2566 -0.9958  1.7856
  188MPD1     N 2868   4.445   1.646  10.645 -0.0813  0.0485 -0.4539
  188MPD1    H5 2869   4.470   1.547  10.641  1.3402  0.4178 -0.7999
  188MPD1    N1 2870   4.596   2.109  10.658  0.1155 -0.4433  0.7940
  188MPD1    H6 2871   4.680   2.164  10.678 -0.6253  1.2443 -0.7751
  188MPD1    H7 2872   4.516   2.143  10.711 -0.1973 -1.7508  1.1404
  189MPD1     C 2873   4.267   3.845   0.597 -0.1116  0.1772  0.6667
  189MPD1    C1 2874   4.159   3.801   0.674 -0.1593  0.5263 -0.0658
  189MPD1    C2 2875   4.089   3.892   0.752  0.3106 -0.9701  0.2266
  189MPD1    C3 2876   4.104   4.034   0.736 -0.3034  0.3124 -0.3908
  189MPD1    C4 2877   4.203   4.069   0.643  0.1361 -0.6975 -0.5559
  189MPD1    C5 2878   4.291   3.977   0.591 -0.2553 -0.1618 -0.0300
  189MPD1     H 2879   4.013   3.859   0.821 -0.2381  1.1639  0.6612
  189MPD1    H1 2880   4.224   4.170   0.613 -1.2618 -0.2890 -0.1721
  189MPD1    H2 2881   4.333   3.778   0.543  1.5585  1.8926  0.6217
  189MPD1    H3 2882   4.369   4.014   0.525  0.0754  2.2080  1.6791
  189MPD1     N 2883   4.024   4.126   0.805  0.1113 -0.0196 -0.4643
  189MPD1    H5 2884   3.945   4.081   0.850 -0.8302  0.2680 -1.8596
  189MPD1    N1 2885   4.147   3.662   0.695 -0.1204  0.1979  0.0256
  189MPD1    H6 2886   4.052   3.641   0.724 -0.0169  0.9770  0.9737
  189MPD1    H7 2887   4.186   3.604   0.622 -0.9282 -1.7481  1.1403
  190MPD1     C 2888   2.249   2.044  16.040  0.2641  0.0511  0.4286
  190MPD1    C1 2889   2.354   2.020  15.956  0.1568  0.4146  0.4161
  190MPD1    C2 2890   2.463   2.108  15.951  1.0723 -0.5385 -0.1968
  190MPD1    C3 2891   2.453   2.225  16.039 -0.0368  0.1377  0.2941
  190MPD1    C4 2892   2.344   2.245  16.121  0.3895  0.1298 -0.6717
  190MPD1    C5 2893   2.243   2.156  16.115 -0.1690 -0.5513 -0.0462
  190MPD1     H 2894   2.554   2.094  15.895  1.8035 -0.5805  1.0126
  190MPD1    H1 2895   2.334   2.324  16.194 -1.8917 -0.2820 -0.5382
  190MPD1    H2 2896   2.161   1.981  16.043 -0.3557  0.9195  0.5236
  190MPD1    H3 2897   2.156   2.179  16.175  1.5942  1.8700  1.5826
  190MPD1     N 2898   2.561   2.314  16.041  0.3221  0.6093 -0.0947
  190MPD1    H5 2899   2.635   2.285  15.978 -0.2452 -2.8270  0.8383
  190MPD1    N1 2900   2.370   1.896  15.884 -0.0227  0.0154  0.6267
  190MPD1    H6 2901   2.289   1.842  15.853  1.1942  0.0509 -2.6509
  190MPD1    H7 2902   2.449   1.884  15.821  0.3713  1.4842  0.8364
  191MPD1     C 2903   2.332   3.678  12.889 -0.5833  0.0216  0.4379
  191MPD1    C1 2904   2.335   3.698  12.749  0.0315 -0.2244 -0.4890
  191MPD1    C2 2905   2.317   3.829  12.703 -0.1658  0.7962  0.2131
  191MPD1    C3 2906   2.291   3.925  12.793 -0.3905 -0.1434  0.2360
  191MPD1    C4 2907   2.300   3.909  12.931 -0.7114  0.0421  0.3583
  191MPD1    C5 2908   2.323   3.787  12.975 -0.3261 -0.8144  0.0859
  191MPD1     H 2909   2.321   3.849  12.597 -1.0931 -0.1597  0.0012
  191MPD1    H1 2910   2.299   3.988  13.004 -1.7674  2.6015 -2.4126
  191MPD1    H2 2911   2.368   3.596  12.950  0.8013  0.1474 -0.2073
  191MPD1    H3 2912   2.329   3.768  13.082 -1.0953 -2.5787 -0.1880
  191MPD1     N 2913   2.271   4.049  12.737 -0.0241 -0.1879 -0.0508
  191MPD1    H5 2914   2.272   4.046  12.635 -0.3435 -0.4669 -0.0451
  191MPD1    N1 2915   2.360   3.595  12.662 -0.5567 -0.2855  0.7738
  191MPD1    H6 2916   2.302   3.599  12.579 -0.3833 -2.4139  0.5576
  191MPD1    H7 2917   2.357   3.507  12.713  0.0943 -0.5367  0.3804
  192MPD1     C 2918   1.499   4.640  12.955 -0.0491  1.1168  0.5145
  192MPD1    C1 2919   1.604   4.718  12.913 -0.0324 -0.2757  1.3131
  192MPD1    C2 2920   1.709   4.657  12.850  0.4149  0.0390  0.1822
  192MPD1    C3 2921   1.724   4.517  12.844 -0.2068  0.0918  0.3829
  192MPD1    C4 2922   1.624   4.440  12.895  0.1990  0.2645  0.9149
  192MPD1    C5 2923   1.505   4.503  12.939 -0.3463  0.4061  0.2674
  192MPD1     H 2924   1.791   0.001  12.825  1.5544 -1.8678 -1.1147
  192MPD1    H1 2925   1.626   4.332  12.887 -3.2502  0.4033 -1.9981
  192MPD1    H2 2926   1.419   4.695  13.003  0.2933  0.0471  2.3026
  192MPD1    H3 2927   1.428   4.442  12.984 -0.2899  0.4787  0.4632
  192MPD1     N 2928   1.845   4.460  12.802  0.1026 -0.1622  0.5419
  192MPD1    H5 2929   1.860   4.359  12.806  1.4240  0.1942  4.7059
  192MPD1    N1 2930   1.612   0.131  12.936 -0.0599  0.0792 -0.7603
  192MPD1    H6 2931   1.704   0.170  12.953 -0.2954 -0.0785  0.8528
  192MPD1    H7 2932   1.558   0.169  13.014  1.4280 -0.5685  0.5799
  193MPD1     C 2933   1.518   4.328  17.588  0.2628 -0.0203 -0.5893
  193MPD1    C1 2934   1.504   4.287  17.461 -0.2470 -0.0558  0.2815
  193MPD1    C2 2935   1.594   4.339  17.369 -0.6488  0.1651 -0.7652
  193MPD1    C3 2936   1.671   4.456  17.404  0.2470 -0.7598  0.7655
  193MPD1    C4 2937   1.663   4.505  17.530  0.0326  0.4424 -0.3112
  193MPD1    C5 2938   1.591   4.436  17.622 -0.1493  0.1809  0.1617
  193MPD1     H 2939   1.583   4.296  17.270  0.6260 -0.1641 -0.7697
  193MPD1    H1 2940   1.727   4.586  17.563 -0.4392  0.3073  0.9410
  193MPD1    H2 2941   1.466   4.278  17.669  1.3230 -2.3621 -1.3476
  193MPD1    H3 2942   1.589   4.469   0.036 -2.8807 -0.7825  0.4313
  193MPD1     N 2943   1.756   4.512  17.314 -0.3398 -0.1135 -0.3792
  193MPD1    H5 2944   1.797   4.600  17.343  2.3409 -0.9906 -1.5157
  193MPD1    N1 2945   1.426   4.172  17.442  0.3104 -0.1016  0.1191
  193MPD1    H6 2946   1.355   4.166  17.515 -0.5582 -3.6120 -1.0257
  193MPD1    H7 2947   1.389   4.177  17.347 -1.2017  1.7590  0.8083
  194MPD1     C 2948   4.030   2.071  16.956  0.2136 -0.1091 -0.0723
  194MPD1    C1 2949   4.071   2.042  16.837 -0.1570 -0.1446 -0.6439
  194MPD1    C2 2950   4.148   1.928  16.805 -0.3445 -0.5013 -0.0646
  194MPD1    C3 2951   4.201   1.862  16.908 -0.6117 -0.0505  0.5116
  194MPD1    C4 2952   4.170   1.902  17.040  0.0421  0.1040  0.4296
  194MPD1    C5 2953   4.067   1.996  17.060 -0.1739 -0.1354 -0.5845
  194MPD1     H 2954   4.176   1.906  16.703 -0.0843 -2.2969  0.3941
  194MPD1    H1 2955   4.215   1.858  17.128  1.3109 -1.1799 -0.8452
  194MPD1    H2 2956   3.966   2.154  16.986  1.4670  0.3653  1.3062
  194MPD1    H3 2957   4.042   2.021  17.162  0.0817 -2.7390  0.0932
  194MPD1     N 2958   4.294   1.747  16.898  0.4215  0.4048 -0.7738
  194MPD1    H5 2959   4.348   1.724  16.981  3.1123 -2.4316 -3.3103
  194MPD1    N1 2960   4.016   2.105  16.730 -0.1120  0.0881  0.3555
  194MPD1    H6 2961   4.006   2.202  16.761 -2.8716  0.2955 -1.2305
  194MPD1    H7 2962   4.076   2.102  16.649  1.8730  1.0526  1.7984
  195MPD1     C 2963   1.310   4.300   0.429 -0.6421  0.7499  0.8476
  195MPD1    C1 2964   1.297   4.205   0.328 -0.2642  0.1510  0.1427
  195MPD1    C2 2965   1.275   4.077   0.374 -0.9795 -0.4130 -0.4815
  195MPD1    C3 2966   1.301   4.036   0.503 -0.9547  0.1200 -0.1439
  195MPD1    C4 2967   1.325   4.128   0.593  0.5707  0.2195  0.8463
  195MPD1    C5 2968   1.318   4.263   0.560 -0.0102 -0.3339 -0.3054
  195MPD1     H 2969   1.245   4.006   0.298  2.3068  1.0566 -3.1139
  195MPD1    H1 2970   1.337   4.105   0.698  3.1551  2.3392  1.0390
  195MPD1    H2 2971   1.307   4.408   0.419  1.5697  0.8217  0.9511
  195MPD1    H3 2972   1.332   4.341   0.635 -0.7700  0.3579 -0.8812
  195MPD1     N 2973   1.297   3.902   0.546  0.2034  0.0993  0.0412
  195MPD1    H5 2974   1.321   3.890   0.644  2.9212  0.5764 -0.5805
  195MPD1    N1 2975   1.290   4.231   0.185 -0.0316  0.4490 -0.1011
  195MPD1    H6 2976   1.285   4.150   0.123  1.1032  0.0117  0.3850
  195MPD1    H7 2977   1.321   4.317   0.140  0.9092 -0.0509 -0.3968
  196MPD1     C 2978   0.767   2.580   0.279  0.3090  0.7896  0.3877
  196MPD1    C1 2979   0.870   2.655   0.227  0.0345 -0.2999  0.3700
  196MPD1    C2 2980   0.948   2.730   0.318  0.2763 -0.2445  0.3022
  196MPD1    C3 2981   0.904   2.749   0.449  0.1188  0.1888 -0.3174
  196MPD1    C4 2982   0.795   2.683   0.498 -0.4286  0.0072  0.1260
  196MPD1    C5 2983   0.734   2.597   0.408  0.0790 -0.2925 -0.1637
  196MPD1     H 2984   1.029   2.786   0.272  0.5599  1.1252  2.4590
  196MPD1    H1 2985   0.756   2.698   0.598  0.5224 -1.7486  0.7612
  196MPD1    H2 2986   0.717   2.508   0.215 -0.0278  0.5501  0.9247
  196MPD1    H3 2987   0.654   2.535   0.447 -0.7840  0.8354 -0.1395
  196MPD1     N 2988   0.965   2.842   0.536  0.4156 -0.1090 -0.0621
  196MPD1    H5 2989   0.920   2.854   0.626 -0.5777 -0.0986 -0.5649
  196MPD1    N1 2990   0.917   2.630   0.099  0.7583 -0.7901 -0.1147
  196MPD1    H6 2991   0.840   2.595   0.042 -0.5403  0.0568  1.1155
  196MPD1    H7 2992   0.963   2.704   0.047 -3.1766  0.7838 -1.3460
  197MPD1     C 2993   0.539   4.524   0.162 -0.0357  0.1463 -0.0305
  197MPD1    C1 2994   0.603   4.640   0.193 -0.3993  1.0409 -0.5654
  197MPD1    C2 2995   0.595   0.026   0.104  0.2929 -0.0910  0.6121
  197MPD1    C3 2996   0.531   0.008  17.673  0.1484 -0.0288 -0.0435
  197MPD1    C4 2997   0.456   4.621  17.643 -0.3365  1.1118 -0.4062
  197MPD1    C5 2998   0.454   4.520   0.048  0.0245  0.1364  0.3321
  197MPD1     H 2999   0.645   0.119   0.128 -2.3530  2.0383 -2.0589
  197MPD1    H1 3000   0.401   4.603  17.551 -1.0378 -0.0656  0.2360
  197MPD1    H2 3001   0.539   4.440   0.230 -1.3593  1.1354  1.2093
  197MPD1    H3 3002   0.381   4.441   0.045  0.6462 -0.4289  0.0341
  197MPD1     N 3003   0.542   0.102  17.565 -0.0774 -0.1799  0.2363
  197MPD1    H5 3004   0.509   0.070  17.474 -1.6317 -0.7261  0.9987
  197MPD1    N1 3005   0.662   4.656   0.316 -0.2160 -0.1496 -0.0844
  197MPD1    H6 3006   0.749   4.710   0.320 -2.1597  2.9643  0.2133
  197MPD1    H7 3007   0.700   4.566   0.345 -0.9952 -0.7743 -1.0076
  198MPD1     C 3008   2.394   4.030  15.534 -0.3832 -0.2591  0.5845
  198MPD1    C1 3009   2.527   4.015  15.493 -0.1530  0.5398  0.4315
  198MPD1    C2 3010   2.635   4.018  15.583 -0.3177 -0.4376  0.5820
  198MPD1    C3 3011   2.606   4.044  15.713  0.4531 -0.5621 -0.1783
  198MPD1    C4 3012   2.479   4.097  15.747  0.3927 -0.7550 -0.2465
  198MPD1    C5 3013   2.375   4.075  15.666  0.1045 -0.0936  0.7769
  198MPD1     H 3014   2.731   3.974  15.561  0.0366  0.8068 -0.4054
  198MPD1    H1 3015   2.454   4.131  15.847 -0.4450  2.3731 -1.5393
  198MPD1    H2 3016   2.308   4.014  15.469 -1.3206 -1.5573  2.1539
  198MPD1    H3 3017   2.273   4.103  15.692  0.5144  0.0166  2.2273
  198MPD1     N 3018   2.716   4.043  15.804  0.4846 -0.4253  0.3199
  198MPD1    H5 3019   2.794   3.987  15.772  0.1903  0.2730 -1.6307
  198MPD1    N1 3020   2.542   3.927  15.377 -0.0653 -0.0224 -0.2709
  198MPD1    H6 3021   2.468   3.943  15.309 -1.0576  0.6119  0.9433
  198MPD1    H7 3022   2.633   3.950  15.339 -0.3501  0.3454 -0.7298
  199MPD1     C 3023   1.131   3.232   9.825  0.4949  0.2286  0.3141
  199MPD1    C1 3024   1.163   3.359   9.772 -0.3530  0.8480  0.5810
  199MPD1    C2 3025   1.057   3.446   9.726 -0.2831  0.3399 -0.4690
  199MPD1    C3 3026   0.928   3.395   9.723  0.1857  0.1420  0.2400
  199MPD1    C4 3027   0.901   3.274   9.782  0.4462  0.4712  0.1133
  199MPD1    C5 3028   1.000   3.192   9.829  0.5711 -0.7635 -0.6574
  199MPD1     H 3029   1.075   3.544   9.682  2.5426 -0.7404 -1.6970
  199MPD1    H1 3030   0.801   3.233   9.782  1.6161 -2.3899  0.6428
  199MPD1    H2 3031   1.202   3.164   9.870 -0.4176 -1.9279 -1.5545
  199MPD1    H3 3032   0.989   3.091   9.866  0.4701 -1.0270 -1.3986
  199MPD1     N 3033   0.810   3.469   9.692  0.8657 -0.0031 -0.5134
  199MPD1    H5 3034   0.726   3.412   9.689  0.1229  1.0747 -0.5527
  199MPD1    N1 3035   1.302   3.393   9.760 -0.2171  0.1751 -0.4707
  199MPD1    H6 3036   1.361   3.356   9.834  2.0847  1.7082 -1.5169
  199MPD1    H7 3037   1.322   3.493   9.752 -0.2023  0.1608 -0.6031
  200MPD1     C 3038   3.943   4.408  15.629  0.6233  0.3014  0.3882
  200MPD1    C1 3039   3.822   4.427  15.568  0.4013  0.6508  0.5825
  200MPD1    C2 3040   3.825   4.445  15.429  0.3761 -0.5666  0.1362
  200MPD1    C3 3041   3.948   4.459  15.363 -0.4986  0.1963  0.3517
  200MPD1    C4 3042   4.065   4.456  15.432 -0.0585 -0.5480 -0.4717
  200MPD1    C5 3043   4.064   4.436  15.569  0.1514 -0.3144  0.5876
  200MPD1     H 3044   3.735   4.456  15.370  0.1292 -2.2659  0.1847
  200MPD1    H1 3045   4.162   4.455  15.384  0.0544 -2.6032 -0.2324
  200MPD1    H2 3046   3.955   4.406  15.736  2.2274 -0.8991  0.1948
  200MPD1    H3 3047   4.160   4.429  15.618 -0.5023  0.3892  1.9517
  200MPD1     N 3048   3.943   4.465  15.225  0.0400  0.0473  0.1068
  200MPD1    H5 3049   3.853   4.477  15.181 -0.7689  1.5176  2.1713
  200MPD1    N1 3050   3.700   4.396  15.637 -0.3425 -0.3763  0.6609
  200MPD1    H6 3051   3.710   4.411  15.737 -0.3565  0.6467  0.5071
  200MPD1    H7 3052   3.624   4.459  15.611 -0.4166 -1.7750 -2.4860
  201MPD1     C 3053   1.544   3.757  13.213  0.2441  0.7385 -0.3455
  201MPD1    C1 3054   1.628   3.710  13.316  0.2998  0.6013  0.1044
  201MPD1    C2 3055   1.674   3.584  13.297  0.2164  0.3145 -1.1701
  201MPD1    C3 3056   1.668   3.514  13.176 -0.0521 -0.3632 -0.2664
  201MPD1    C4 3057   1.595   3.569  13.070  0.7883 -0.6552  0.6276
  201MPD1    C5 3058   1.539   3.691  13.092 -0.3971 -0.0486 -0.1311
  201MPD1     H 3059   1.717   3.530  13.381  0.6001  0.9198 -0.9747
  201MPD1    H1 3060   1.576   3.516  12.978  1.7601  0.2011 -0.0798
  201MPD1    H2 3061   1.495   3.854  13.213 -0.3188  0.4547 -3.1534
  201MPD1    H3 3062   1.480   3.739  13.014  0.9170  0.8350 -0.5869
  201MPD1     N 3063   1.718   3.381  13.177 -0.1260 -0.2600 -0.3184
  201MPD1    H5 3064   1.768   3.356  13.261 -1.1442  0.6401  0.5554
  201MPD1    N1 3065   1.625   3.761  13.449  0.2364 -0.1999  0.8581
  201MPD1    H6 3066   1.696   3.737  13.517  1.6098 -2.0196 -1.2310
  201MPD1    H7 3067   1.619   3.863  13.448 -0.7988 -0.2598  0.4354
  202MPD1     C 3068   2.328   2.435   9.034 -0.1182  0.0340 -0.3303
  202MPD1    C1 3069   2.219   2.520   9.070  0.8886 -0.4676  0.4359
  202MPD1    C2 3070   2.175   2.515   9.202  0.3929  0.0095  0.2517
  202MPD1    C3 3071   2.209   2.406   9.279 -0.4477 -0.0371  0.9090
  202MPD1    C4 3072   2.303   2.314   9.238 -0.3467  0.1276 -0.0360
  202MPD1    C5 3073   2.369   2.339   9.119 -0.3280  0.3877 -1.1527
  202MPD1     H 3074   2.097   2.584   9.232  0.6689  0.3538  0.1938
  202MPD1    H1 3075   2.322   2.225   9.296  2.6506  0.9915  0.3039
  202MPD1    H2 3076   2.373   2.433   8.936  0.3567  0.2821 -0.1169
  202MPD1    H3 3077   2.449   2.275   9.085  0.6161 -0.2337  2.2337
  202MPD1     N 3078   2.147   2.386   9.407  1.4098 -0.5265 -0.0200
  202MPD1    H5 3079   2.185   2.305   9.454 -0.2566 -1.2536  0.0636
  202MPD1    N1 3080   2.214   2.640   8.994 -0.1786  0.0250 -0.1581
  202MPD1    H6 3081   2.227   2.618   8.896  0.1042  0.8792 -0.3042
  202MPD1    H7 3082   2.122   2.684   8.994 -1.8364 -3.4457 -1.3096
  203MPD1     C 3083   0.343   4.244  12.416 -0.0298  0.7059 -0.6966
  203MPD1    C1 3084   0.398   4.155  12.330 -1.1143  0.2317  0.0005
  203MPD1    C2 3085   0.418   4.021  12.372 -0.7105 -0.0935 -0.4691
  203MPD1    C3 3086   0.391   3.981  12.500  0.1364 -0.6446 -0.0736
  203MPD1    C4 3087   0.335   4.072  12.580  0.4313 -0.3286 -0.3249
  203MPD1    C5 3088   0.307   4.200  12.540  0.2914  0.1214  0.3887
  203MPD1     H 3089   0.468   3.949  12.309 -1.5300  0.9359 -2.2994
  203MPD1    H1 3090   0.323   4.043  12.684  0.7670  0.1607 -0.1458
  203MPD1    H2 3091   0.328   4.348  12.389  0.2148  0.6719 -0.9654
  203MPD1    H3 3092   0.259   4.269  12.608  0.3437  1.2997 -0.7726
  203MPD1     N 3093   0.411   3.850  12.537  0.0041  0.1908  0.0533
  203MPD1    H5 3094   0.465   3.790  12.476 -1.3707 -1.4860  0.4754
  203MPD1    N1 3095   0.415   4.192  12.196 -0.1061  1.0514  0.5665
  203MPD1    H6 3096   0.497   4.151  12.153 -0.3182  0.3565  0.8269
  203MPD1    H7 3097   0.414   4.294  12.198  0.8122  1.0981 -1.5736
  204MPD1     C 3098   3.678   0.345   0.029 -0.3635 -0.1908 -0.0829
  204MPD1    C1 3099   3.731   0.357  17.591  0.1739  0.2578  0.1614
  204MPD1    C2 3100   3.767   0.235  17.529 -0.3370 -0.0131 -0.2929
  204MPD1    C3 3101   3.749   0.115  17.586  0.4113 -0.0490  0.1048
  204MPD1    C4 3102   3.680   0.107   0.010 -0.3227  0.0044 -0.0500
  204MPD1    C5 3103   3.646   0.224   0.078  0.0238 -0.2742  0.4191
  204MPD1     H 3104   3.821   0.237  17.435 -2.0725  1.7079 -1.2307
  204MPD1    H1 3105   3.660   0.005   0.042  1.2405 -0.6181 -1.1041
  204MPD1    H2 3106   3.657   0.434   0.087  0.6678  0.3338 -0.5191
  204MPD1    H3 3107   3.615   0.212   0.181 -0.7655 -0.7073  0.1299
  204MPD1     N 3108   3.791   0.000  17.531 -0.0507  0.3251 -0.2607
  204MPD1    H5 3109   3.836   0.016  17.441  1.3486  1.2310  0.6050
  204MPD1    N1 3110   3.760   0.479  17.527 -0.2571 -0.0892 -0.3864
  204MPD1    H6 3111   3.693   0.549  17.558 -0.7571 -0.4121 -0.7272
  204MPD1    H7 3112   3.766   0.471  17.426 -0.7313 -1.1018 -0.3409
  205MPD1     C 3113   4.126   2.789  17.086  0.5276  0.7313 -0.4870
  205MPD1    C1 3114   4.027   2.872  17.110  0.7937 -0.3912  0.0691
  205MPD1    C2 3115   4.049   2.979  17.199 -0.7068 -0.5217 -0.2970
  205MPD1    C3 3116   4.168   2.995  17.262 -0.4060  0.7686 -0.0723
  205MPD1    C4 3117   4.274   2.908  17.232 -0.3602 -0.9805  0.3496
  205MPD1    C5 3118   4.250   2.807  17.141  0.2143  1.1033  0.2825
  205MPD1     H 3119   3.965   3.045  17.217 -0.2058 -0.3911  1.6367
  205MPD1    H1 3120   4.376   2.916  17.265 -0.0850  0.5494 -0.8842
  205MPD1    H2 3121   4.112   2.721  17.002 -1.1080  1.2750 -0.6611
  205MPD1    H3 3122   4.339   2.764  17.097 -0.2398  0.8315 -0.3761
  205MPD1     N 3123   4.191   3.090  17.363  0.5500  0.3738 -0.3140
  205MPD1    H5 3124   4.279   3.085  17.414 -0.5430  0.7905  1.6160
  205MPD1    N1 3125   3.917   2.863  17.023  0.3223  0.0553 -0.4159
  205MPD1    H6 3126   3.883   2.767  17.017  0.6439 -0.2459  2.3889
  205MPD1    H7 3127   3.843   2.908  17.077  1.8228 -0.8073  2.3473
  206MPD1     C 3128   0.007   1.865  16.765  0.6915  0.4819  0.2957
  206MPD1    C1 3129   4.619   1.929  16.728  0.3698  0.6418 -0.0559
  206MPD1    C2 3130   4.548   1.890  16.620 -0.1732  0.5858 -0.4678
  206MPD1    C3 3131   4.602   1.795  16.534  0.2226  0.8986 -1.3103
  206MPD1    C4 3132   4.717   1.730  16.567  0.0247  0.0803  0.3796
  206MPD1    C5 3133   0.056   1.764  16.689 -0.5590  0.0226  0.5119
  206MPD1     H 3134   4.450   1.933  16.604 -0.3024 -0.8434 -3.3999
  206MPD1    H1 3135   0.035   1.649  16.508 -2.1373 -1.5248  1.1326
  206MPD1    H2 3136   0.055   1.883  16.860  1.1534  1.3627 -0.1016
  206MPD1    H3 3137   0.147   1.712  16.716 -0.0080  0.9141  0.3792
  206MPD1     N 3138   4.542   1.767  16.413  0.6035 -0.5825 -0.1783
  206MPD1    H5 3139   4.581   1.684  16.369  0.9190  0.6252 -2.2105
  206MPD1    N1 3140   4.570   2.031  16.812 -0.6035 -0.1508 -0.2588
  206MPD1    H6 3141   4.497   2.087  16.770 -0.9708 -0.7416 -0.4071
  206MPD1    H7 3142   4.650   2.091  16.833 -0.2951 -0.8724  0.6322
  207MPD1     C 3143   2.270   3.906   9.943 -0.5717 -0.5657 -0.5401
  207MPD1    C1 3144   2.324   4.028   9.907 -0.8428  0.1731  0.0864
  207MPD1    C2 3145   2.412   4.077   9.992 -0.5208  0.0090  0.0196
  207MPD1    C3 3146   2.437   4.012  10.109 -0.3613  0.1727 -0.2088
  207MPD1    C4 3147   2.397   3.884  10.130 -0.4588  0.6277  0.3510
  207MPD1    C5 3148   2.312   3.825  10.045  0.2231  0.3887 -0.0115
  207MPD1     H 3149   2.456   4.172   9.963 -1.4099  0.6059  0.6356
  207MPD1    H1 3150   2.429   3.826  10.215  1.5552 -0.3936 -1.1100
  207MPD1    H2 3151   2.198   3.861   9.875 -0.7242 -2.2174  0.7132
  207MPD1    H3 3152   2.266   3.727  10.053  0.9202  0.0543 -0.0834
  207MPD1     N 3153   2.504   4.075  10.215  0.3639 -0.5615  0.1410
  207MPD1    H5 3154   2.512   4.028  10.305  0.3987  1.1557  1.0443
  207MPD1    N1 3155   2.293   4.085   9.781  0.2291  0.1016 -0.4172
  207MPD1    H6 3156   2.197   4.079   9.746 -0.2151  1.2246  0.5940
  207MPD1    H7 3157   2.315   4.184   9.785  1.3411 -0.1503 -0.4420
  208MPD1     C 3158   0.493   3.715   0.274  0.0919  0.0146  0.4137
  208MPD1    C1 3159   0.357   3.707   0.255  0.5755  0.4178  0.3265
  208MPD1    C2 3160   0.269   3.705   0.359  0.5011 -0.6141 -0.1874
  208MPD1    C3 3161   0.314   3.718   0.489 -0.3762 -0.0699 -0.2339
  208MPD1    C4 3162   0.445   3.767   0.512 -0.1055  0.2463  0.2427
  208MPD1    C5 3163   0.536   3.751   0.407  0.2039 -0.1791  0.3599
  208MPD1     H 3164   0.171   3.663   0.340  0.7919 -2.4524  2.3086
  208MPD1    H1 3165   0.495   3.769   0.608 -2.0957 -1.5556  1.3378
  208MPD1    H2 3166   0.565   3.695   0.196 -0.0533  1.3537 -0.0742
  208MPD1    H3 3167   0.642   3.769   0.423 -0.0731  1.6939  0.0719
  208MPD1     N 3168   0.234   3.682   0.602  0.4377  0.0237  0.7562
  208MPD1    H5 3169   0.151   3.634   0.570  1.0224 -0.3999 -0.1022
  208MPD1    N1 3170   0.316   3.643   0.136 -0.5459  0.3791 -0.0534
  208MPD1    H6 3171   0.376   3.666   0.057  0.4181 -2.6614 -0.2066
  208MPD1    H7 3172   0.219   3.664   0.114  0.0930  0.7901 -2.4309
  209MPD1     C 3173   3.130   2.939  11.328  0.3378 -0.2290 -0.1272
  209MPD1    C1 3174   3.180   3.040  11.239  0.3612 -0.3133 -0.3678
  209MPD1    C2 3175   3.110   3.160  11.235 -0.1060  0.0458 -0.5534
  209MPD1    C3 3176   2.997   3.177  11.314  0.5300 -1.3264  0.2822
  209MPD1    C4 3177   2.947   3.070  11.390  0.2547  0.4647 -0.2868
  209MPD1    C5 3178   3.021   2.963  11.399 -0.0572  0.1188  0.0716
  209MPD1     H 3179   3.160   3.236  11.176  0.7295 -0.2582 -0.2257
  209MPD1    H1 3180   2.858   3.072  11.451 -0.7098 -0.0277 -1.6897
  209MPD1    H2 3181   3.191   2.851  11.341  0.0367 -0.3221  0.6640
  209MPD1    H3 3182   2.987   2.891  11.472 -0.9546  0.5667  0.0853
  209MPD1     N 3183   2.927   3.302  11.312 -0.0499 -0.4947  0.1385
  209MPD1    H5 3184   2.959   3.365  11.239 -0.1403  0.0656  0.5802
  209MPD1    N1 3185   3.308   3.041  11.190  0.0697 -0.5002 -0.0958
  209MPD1    H6 3186   3.355   2.952  11.174 -0.0862 -0.4572 -0.8315
  209MPD1    H7 3187   3.314   3.092  11.102  0.0249  2.4026  1.5903
  210MPD1     C 3188   2.477   4.173  11.843 -0.0239  0.2358  0.9342
  210MPD1    C1 3189   2.523   4.054  11.888  0.0892 -1.1188 -0.0970
  210MPD1    C2 3190   2.560   3.957  11.791 -0.5062 -0.3742  0.0752
  210MPD1    C3 3191   2.563   3.988  11.656  0.6618 -0.8494 -0.2354
  210MPD1    C4 3192   2.534   4.122  11.620  0.5195  1.1505 -0.3370
  210MPD1    C5 3193   2.488   4.213  11.711 -0.5003  0.0084  0.6735
  210MPD1     H 3194   2.579   3.856  11.825 -0.7823 -0.1625  0.8603
  210MPD1    H1 3195   2.552   4.154  11.518 -1.1741  0.0486 -0.9751
  210MPD1    H2 3196   2.447   4.249  11.914  0.4129 -0.0779  1.4511
  210MPD1    H3 3197   2.462   4.316  11.688 -0.0722  0.6661  3.1331
  210MPD1     N 3198   2.600   3.894  11.560  0.1814  0.1678 -0.2505
  210MPD1    H5 3199   2.599   3.925  11.463  3.0666  2.4604  0.4604
  210MPD1    N1 3200   2.519   4.025  12.022  0.1594 -0.0731 -0.4301
  210MPD1    H6 3201   2.549   4.104  12.078 -0.8619  0.4411 -0.6106
  210MPD1    H7 3202   2.578   3.944  12.040 -1.9730 -1.2855  1.1343
  211MPD1     C 3203   0.630   3.395  15.992  0.5750 -0.1126 -0.4650
  211MPD1    C1 3204   0.568   3.502  15.928 -0.0870  0.0247 -0.0988
  211MPD1    C2 3205   0.436   3.531  15.953  0.2890  0.3150  0.1398
  211MPD1    C3 3206   0.363   3.469  16.056  0.6867 -0.4905  0.8517
  211MPD1    C4 3207   0.436   3.378  16.131  0.3316 -0.0512  0.7739
  211MPD1    C5 3208   0.565   3.349  16.102  0.4072 -0.1117 -0.1081
  211MPD1     H 3209   0.385   3.606  15.894 -0.3881 -0.6397 -0.4910
  211MPD1    H1 3210   0.392   3.343  16.224 -0.3188  0.3623  0.6143
  211MPD1    H2 3211   0.727   3.356  15.964  0.4993 -0.0796 -0.7704
  211MPD1    H3 3212   0.618   3.273  16.161  0.8153  0.7739  0.6691
  211MPD1     N 3213   0.232   3.502  16.091 -0.0715  0.5582 -0.1214
  211MPD1    H5 3214   0.194   3.579  16.036  0.1667  2.0232  1.7586
  211MPD1    N1 3215   0.637   3.562  15.828  0.1684  0.1442  0.5321
  211MPD1    H6 3216   0.587   3.647  15.803  0.0810  0.1847  0.8401
  211MPD1    H7 3217   0.724   3.585  15.874  1.8984 -0.7894 -2.2854
  212MPD1     C 3218   4.486   1.571  17.335 -0.1254 -0.3004 -0.0913
  212MPD1    C1 3219   4.382   1.658  17.370  0.1310 -0.3470 -0.6277
  212MPD1    C2 3220   4.255   1.634  17.320  0.5327  0.3556  0.2753
  212MPD1    C3 3221   4.229   1.527  17.234 -0.4224  0.2562  0.6805
  212MPD1    C4 3222   4.331   1.444  17.199  0.2337 -0.0613 -0.7134
  212MPD1    C5 3223   4.457   1.466  17.255  0.7917  0.3840 -0.5061
  212MPD1     H 3224   4.177   1.707  17.337 -0.5481 -0.6020 -0.5627
  212MPD1    H1 3225   4.315   1.358  17.135 -4.4310  0.0293  0.3093
  212MPD1    H2 3226   4.586   1.580  17.373  0.0176 -1.9840 -0.0693
  212MPD1    H3 3227   4.544   1.404  17.236  2.2696  2.2020  0.2515
  212MPD1     N 3228   4.101   1.492  17.185  0.4840 -0.2563  0.2438
  212MPD1    H5 3229   4.102   1.408  17.128  0.1051 -0.1942  0.1413
  212MPD1    N1 3230   4.408   1.759  17.467  0.1220 -0.1737  0.0023
  212MPD1    H6 3231   4.320   1.803  17.493  0.3041 -0.2629  0.7688
  212MPD1    H7 3232   4.437   1.711  17.552 -1.8128 -0.4186  0.5206
  213MPD1     C 3233   1.485   3.327  16.252  0.2226 -0.2972 -0.0171
  213MPD1    C1 3234   1.451   3.194  16.294 -1.0590 -0.1193 -0.2286
  213MPD1    C2 3235   1.456   3.099  16.189 -0.4684 -0.1529  0.4114
  213MPD1    C3 3236   1.476   3.120  16.056  0.1296  0.1863  0.2850
  213MPD1    C4 3237   1.490   3.255  16.017  0.4621  0.7023 -0.2553
  213MPD1    C5 3238   1.500   3.352  16.115 -0.0608  0.3375 -0.3406
  213MPD1     H 3239   1.456   2.993  16.212 -1.0006 -0.0032  1.0796
  213MPD1    H1 3240   1.508   3.283  15.914 -2.1630  1.9272 -0.3880
  213MPD1    H2 3241   1.508   3.410  16.317 -0.1934  0.3042 -0.6415
  213MPD1    H3 3242   1.529   3.453  16.089 -0.9532  0.3389 -1.3289
  213MPD1     N 3243   1.472   3.016  15.962 -0.0892  0.5498 -0.0089
  213MPD1    H5 3244   1.455   2.922  15.996  0.3827  0.7174  0.6755
  213MPD1    N1 3245   1.473   3.152  16.427 -0.6457  0.1433 -0.1361
  213MPD1    H6 3246   1.451   3.219  16.499  0.6055 -1.6844  1.9397
  213MPD1    H7 3247   1.419   3.070  16.454  0.8016 -0.4774  0.8759
  214MPD1     C 3248   1.181   2.100  15.686 -0.2657  1.0029  0.0458
  214MPD1    C1 3249   1.190   2.176  15.798  0.1426 -0.2595 -0.3398
  214MPD1    C2 3250   1.252   2.301  15.788 -0.1493  0.4493  0.3603
  214MPD1    C3 3251   1.318   2.340  15.671  0.2030  0.4014  0.2899
  214MPD1    C4 3252   1.318   2.255  15.563  0.1057  0.0230  0.1034
  214MPD1    C5 3253   1.248   2.136  15.575 -0.1359  0.7046 -0.2848
  214MPD1     H 3254   1.269   2.360  15.876  0.5244  1.2572 -0.3117
  214MPD1    H1 3255   1.373   2.281  15.474  1.3345  1.6489  1.3294
  214MPD1    H2 3256   1.131   2.004  15.682  1.0495  0.2099  2.4322
  214MPD1    H3 3257   1.234   2.071  15.489 -0.2896 -0.1221  0.3573
  214MPD1     N 3258   1.381   2.470  15.663 -0.2827  0.3431 -0.7226
  214MPD1    H5 3259   1.427   2.491  15.575 -0.2061  0.9922 -0.5285
  214MPD1    N1 3260   1.121   2.138  15.914  0.3075  0.1280 -0.0729
  214MPD1    H6 3261   1.115   2.037  15.923 -0.2510  0.1964  0.3583
  214MPD1    H7 3262   1.174   2.176  15.992  2.3004  1.7280 -2.1761
  215MPD1     C 3263   2.781   3.093  10.581 -0.7458 -0.0159 -0.3080
  215MPD1    C1 3264   2.652   3.132  10.537  0.0254 -0.5492  0.4501
  215MPD1    C2 3265   2.592   3.235  10.609 -0.2757  0.0165  0.2042
  215MPD1    C3 3266   2.643   3.295  10.724 -0.5735 -0.1804 -0.1232
  215MPD1    C4 3267   2.767   3.251  10.763 -0.0474 -0.5607 -1.3754
  215MPD1    C5 3268   2.828   3.144  10.693  0.0559 -0.1139 -0.5004
  215MPD1     H 3269   2.489   3.264  10.591 -0.8011 -1.4530  0.9185
  215MPD1    H1 3270   2.809   3.284  10.857  1.2464  0.3518 -2.2645
  215MPD1    H2 3271   2.840   3.010  10.543 -1.2849 -0.3092 -0.4988
  215MPD1    H3 3272   2.924   3.103  10.725 -0.6764 -1.7362 -0.3901
  215MPD1     N 3273   2.562   3.388  10.795  0.5038  0.2776  0.6626
  215MPD1    H5 3274   2.476   3.405  10.745  1.7438  2.8299 -0.5804
  215MPD1    N1 3275   2.587   3.060  10.446 -0.8006  0.2647 -0.0290
  215MPD1    H6 3276   2.523   3.114  10.388  0.9134  0.8601 -1.3776
  215MPD1    H7 3277   2.650   3.015  10.380  0.1506 -2.0243  2.4432
  216MPD1     C 3278   3.865   1.634  16.676  0.1109  0.3394 -0.3623
  216MPD1    C1 3279   3.834   1.525  16.598 -0.2711  0.2471  0.0826
  216MPD1    C2 3280   3.908   1.407  16.625 -0.3212  0.9244  0.0084
  216MPD1    C3 3281   3.994   1.398  16.734  0.1682  1.3478  0.1182
  216MPD1    C4 3282   4.022   1.506  16.813  0.2675  1.0219  0.2540
  216MPD1    C5 3283   3.955   1.625  16.782  0.4321  0.0554 -0.5269
  216MPD1     H 3284   3.904   1.327  16.553  2.8589  0.5729  0.2349
  216MPD1    H1 3285   4.092   1.506  16.896  0.2324 -0.8064  0.2972
  216MPD1    H2 3286   3.821   1.731  16.655 -0.1372 -0.0481 -1.6114
  216MPD1    H3 3287   3.958   1.714  16.844  0.8940  0.6361 -1.3833
  216MPD1     N 3288   4.048   1.277  16.766 -0.0728  0.1456  0.7995
  216MPD1    H5 3289   4.028   1.198  16.705  0.0950  1.0829 -0.4920
  216MPD1    N1 3290   3.779   1.538  16.472 -0.6134  0.2062 -0.4630
  216MPD1    H6 3291   3.698   1.597  16.460 -1.5096 -0.2507  3.4689
  216MPD1    H7 3292   3.752   1.448  16.431 -0.4723  0.8603 -2.0106
  217MPD1     C 3293   1.726   2.710   8.116  0.7110 -0.0259 -0.0190
  217MPD1    C1 3294   1.802   2.649   8.216  0.7104 -0.1728  0.6650
  217MPD1    C2 3295   1.755   2.641   8.346  0.4323 -0.3398  0.4757
  217MPD1    C3 3296   1.628   2.690   8.378 -0.0683 -0.0951 -0.4946
  217MPD1    C4 3297   1.550   2.753   8.281 -0.1438 -0.2707  0.0775
  217MPD1    C5 3298   1.607   2.760   8.151 -0.5900  0.2539 -0.0235
  217MPD1     H 3299   1.815   2.585   8.418  4.1390  2.3809 -0.4817
  217MPD1    H1 3300   1.454   2.799   8.303  0.6855  0.3103  2.4305
  217MPD1    H2 3301   1.770   2.724   8.018  1.3862 -1.4709  0.0769
  217MPD1    H3 3302   1.564   2.816   8.070  0.8262  2.5595  0.8250
  217MPD1     N 3303   1.568   2.677   8.513  0.1559  0.5924  0.3359
  217MPD1    H5 3304   1.474   2.713   8.524  0.1582  1.0952 -1.2971
  217MPD1    N1 3305   1.933   2.619   8.196 -0.5774  0.1941 -0.4187
  217MPD1    H6 3306   1.953   2.606   8.097  1.3430  2.0507 -0.2927
  217MPD1    H7 3307   1.961   2.531   8.238 -2.1073  0.5586  1.3488
  218MPD1     C 3308   1.440   4.222  13.611 -0.0988 -0.4634 -0.6777
  218MPD1    C1 3309   1.526   4.132  13.659 -0.0142  1.1868  0.0227
  218MPD1    C2 3310   1.618   4.084  13.573 -0.3422 -0.0666  0.1310
  218MPD1    C3 3311   1.633   4.128  13.440 -0.3311 -0.0823  0.5163
  218MPD1    C4 3312   1.545   4.224  13.394  0.7126 -0.1447  0.8707
  218MPD1    C5 3313   1.451   4.273  13.483 -0.2694  0.7736 -0.7133
  218MPD1     H 3314   1.684   4.005  13.609 -0.0552  0.5694  1.0267
  218MPD1    H1 3315   1.541   4.279  13.301 -1.6473 -3.3287 -0.8587
  218MPD1    H2 3316   1.372   4.264  13.684  0.3173 -0.6615 -0.1819
  218MPD1    H3 3317   1.374   4.343  13.453  0.4195  2.3769  1.2734
  218MPD1     N 3318   1.734   4.072  13.359 -0.5417 -0.5186 -0.2888
  218MPD1    H5 3319   1.811   4.021  13.402 -0.5809 -0.9643 -0.7482
  218MPD1    N1 3320   1.538   4.104  13.795  0.4796  0.2085  0.5376
  218MPD1    H6 3321   1.448   4.085  13.838 -0.3861  0.5184 -1.1827
  218MPD1    H7 3322   1.586   4.014  13.800 -0.3191 -0.1450  1.8950
  219MPD1     C 3323   1.979   3.971  12.289 -0.2613  0.4077  0.6434
  219MPD1    C1 3324   1.946   4.086  12.355 -0.5598 -1.1370  0.2209
  219MPD1    C2 3325   1.943   4.071  12.492  0.3981 -0.2033 -0.5474
  219MPD1    C3 3326   1.967   3.951  12.551  0.2892 -0.1723  0.1716
  219MPD1    C4 3327   1.992   3.842  12.480 -0.6505  0.0613  0.9430
  219MPD1    C5 3328   1.998   3.851  12.347  0.0805 -0.2737 -0.0692
  219MPD1     H 3329   1.927   4.159  12.553  0.2648 -0.0552 -0.7948
  219MPD1    H1 3330   2.020   3.745  12.521 -1.9931 -0.9254 -0.4591
  219MPD1    H2 3331   1.994   3.983  12.183 -0.6269  1.6002  0.7277
  219MPD1    H3 3332   2.024   3.762  12.290 -0.7583 -0.0595 -0.7796
  219MPD1     N 3333   1.945   3.924  12.693  0.1980 -0.6043 -0.2352
  219MPD1    H5 3334   1.970   3.831  12.725 -0.3933 -0.2533  1.2832
  219MPD1    N1 3335   1.952   4.211  12.291 -0.7821 -0.1128 -0.1657
  219MPD1    H6 3336   1.894   4.284  12.333 -0.2294  0.2766 -0.0750
  219MPD1    H7 3337   1.935   4.202  12.191 -1.3141  0.3963 -0.1258
  220MPD1     C 3338   1.760   4.115   9.335  0.5456  0.0387 -0.1392
  220MPD1    C1 3339   1.733   3.992   9.389  0.3574 -0.4352 -0.0197
  220MPD1    C2 3340   1.763   3.966   9.522 -0.3052 -0.2579 -0.7846
  220MPD1    C3 3341   1.808   4.065   9.604  0.2551 -0.2478  0.4016
  220MPD1    C4 3342   1.814   4.190   9.553 -1.1116 -0.0095  0.2710
  220MPD1    C5 3343   1.793   4.219   9.417  0.1498 -0.2552 -0.6522
  220MPD1     H 3344   1.753   3.865   9.562 -0.3772  0.0668  0.0190
  220MPD1    H1 3345   1.855   4.272   9.610  0.2723 -0.1130 -0.5715
  220MPD1    H2 3346   1.758   4.126   9.228 -0.6066  1.6254  0.0412
  220MPD1    H3 3347   1.813   4.320   9.384  0.8051 -1.4756 -4.0194
  220MPD1     N 3348   1.840   4.028   9.737 -0.4054 -0.1731  0.2853
  220MPD1    H5 3349   1.818   3.935   9.771  1.8734 -1.4616 -1.7696
  220MPD1    N1 3350   1.712   3.886   9.305 -0.3488  0.2237 -0.3076
  220MPD1    H6 3351   1.659   3.906   9.221  0.6414 -1.6093 -1.3822
  220MPD1    H7 3352   1.670   3.811   9.359  1.0490  0.3290  0.9432
  221MPD1     C 3353   3.403   3.193  16.522  0.0962 -0.0292  0.4668
  221MPD1    C1 3354   3.490   3.114  16.453 -0.0383 -0.4643  0.5240
  221MPD1    C2 3355   3.605   3.077  16.515 -0.4956 -0.1176 -0.3587
  221MPD1    C3 3356   3.632   3.117  16.652  0.2747  1.2633 -1.1166
  221MPD1    C4 3357   3.535   3.184  16.727 -0.7655 -0.9336  0.4035
  221MPD1    C5 3358   3.422   3.225  16.655 -0.2486 -0.1824  0.2725
  221MPD1     H 3359   3.679   3.012  16.470  0.3332  0.3485  0.3354
  221MPD1    H1 3360   3.549   3.207  16.832  2.3423  3.6451 -1.0050
  221MPD1    H2 3361   3.313   3.231  16.475  0.8828  0.4027 -0.6774
  221MPD1    H3 3362   3.339   3.277  16.702 -0.6986 -0.0577 -0.6555
  221MPD1     N 3363   3.756   3.084  16.717 -0.0627 -0.0145 -0.2142
  221MPD1    H5 3364   3.766   3.140  16.801  1.2713 -1.6186  0.6863
  221MPD1    N1 3365   3.465   3.089  16.318 -0.8197  0.4372  0.0015
  221MPD1    H6 3366   3.494   2.998  16.283  0.6890  0.1994  1.8852
  221MPD1    H7 3367   3.367   3.097  16.291 -0.7300 -0.7224 -0.6630
  222MPD1     C 3368   3.473   1.668  17.674  0.3892  0.6401 -0.0255
  222MPD1    C1 3369   3.476   1.801  17.683  0.2241  0.5027 -0.3828
  222MPD1    C2 3370   3.438   1.864   0.112 -0.8721  0.3148 -0.6171
  222MPD1    C3 3371   3.392   1.793   0.220  0.2437  0.5617 -0.2329
  222MPD1    C4 3372   3.378   1.657   0.202 -0.5931 -0.1020  0.3601
  222MPD1    C5 3373   3.416   1.596   0.086  0.4616 -0.8095  0.3543
  222MPD1     H 3374   3.445   1.972   0.113  1.1173  0.1649 -0.2916
  222MPD1    H1 3375   3.350   1.585   0.278 -3.2682  0.8391  0.2561
  222MPD1    H2 3376   3.506   1.606  17.592  0.1118 -1.1368  1.1930
  222MPD1    H3 3377   3.405   1.489   0.072 -1.5015 -0.8252  2.0360
  222MPD1     N 3378   3.357   1.846   0.348  0.2482 -0.3866 -0.7785
  222MPD1    H5 3379   3.318   1.779   0.414  1.0144 -1.0167 -0.9608
  222MPD1    N1 3380   3.539   1.878  17.589  0.0736 -0.5320  0.1586
  222MPD1    H6 3381   3.504   1.846  17.499  2.0121  0.8746 -1.0875
  222MPD1    H7 3382   3.497   1.969  17.602  0.7245 -0.1650 -0.3252
  223MPD1     C 3383   3.118   1.466   1.099  0.2371 -0.4053  0.0253
  223MPD1    C1 3384   3.035   1.485   0.992  0.3278 -0.1281 -0.1939
  223MPD1    C2 3385   3.064   1.587   0.903 -0.2919  0.4680  0.3072
  223MPD1    C3 3386   3.181   1.661   0.918 -0.1640  0.1118 -0.5362
  223MPD1    C4 3387   3.271   1.619   1.005  0.2522  0.4037 -0.2727
  223MPD1    C5 3388   3.240   1.523   1.100  0.1045  0.2033  0.7375
  223MPD1     H 3389   2.987   1.606   0.830 -1.6351 -0.5576  1.4597
  223MPD1    H1 3390   3.370   1.664   1.014  0.6549 -1.0745  2.8945
  223MPD1    H2 3391   3.100   1.386   1.171  1.4136 -1.7099 -1.1401
  223MPD1    H3 3392   3.313   1.502   1.178  0.6985  0.3775  0.2300
  223MPD1     N 3393   3.207   1.769   0.836 -0.4507  0.0391  0.2887
  223MPD1    H5 3394   3.133   1.791   0.770  0.4514  0.1185 -0.6968
  223MPD1    N1 3395   2.913   1.413   0.994  0.5859 -0.3129  0.7085
  223MPD1    H6 3396   2.868   1.398   0.904  2.4388 -1.5805 -0.0002
  223MPD1    H7 3397   2.921   1.320   1.035  0.3103 -0.9802 -0.7528
  224MPD1     C 3398   0.768   3.096   9.047  0.0962 -0.3642  0.1324
  224MPD1    C1 3399   0.875   3.020   9.090  0.0126  0.2846  0.4212
  224MPD1    C2 3400   0.861   2.953   9.208 -0.0687 -0.9234 -0.9317
  224MPD1    C3 3401   0.737   2.946   9.272  0.1088 -0.6258 -0.0867
  224MPD1    C4 3402   0.630   3.014   9.224  0.7037 -0.0348  1.1329
  224MPD1    C5 3403   0.647   3.087   9.109 -0.5368 -0.2243  0.6797
  224MPD1     H 3404   0.941   2.895   9.253 -0.1108  0.6697  1.1629
  224MPD1    H1 3405   0.538   3.022   9.282 -0.1295  0.8656 -0.3104
  224MPD1    H2 3406   0.771   3.146   8.951 -0.1740  1.3884  1.0360
  224MPD1    H3 3407   0.572   3.160   9.079  0.3431  0.6785  0.6788
  224MPD1     N 3408   0.721   2.886   9.400 -0.4391  0.3003 -0.4815
  224MPD1    H5 3409   0.637   2.905   9.455  0.5246  0.4893  0.9312
  224MPD1    N1 3410   1.003   3.021   9.017 -0.7511 -0.2672 -0.3925
  224MPD1    H6 3411   0.990   3.038   8.918  0.9311  1.8289 -0.2612
  224MPD1    H7 3412   1.054   2.935   9.037 -0.1650  0.1078 -0.2602
  225MPD1     C 3413   1.938   0.002  12.392 -0.3830 -0.1205 -0.1280
  225MPD1    C1 3414   1.830   0.066  12.448  0.0500  0.3673 -0.0351
  225MPD1    C2 3415   1.706   0.063  12.386 -0.5591  0.9415 -0.3082
  225MPD1    C3 3416   1.694   4.682  12.283  0.3755  0.7655  0.4050
  225MPD1    C4 3417   1.809   4.606  12.245  0.3795  0.5408 -0.6879
  225MPD1    C5 3418   1.936   4.630  12.295  0.1764  0.1194  0.5539
  225MPD1     H 3419   1.625   0.125  12.423 -1.5339 -0.3304 -0.3293
  225MPD1    H1 3420   1.793   4.534  12.166  3.5790 -0.7454 -0.1322
  225MPD1    H2 3421   2.035   0.014  12.439  0.4601 -1.4749 -1.5239
  225MPD1    H3 3422   2.018   4.564  12.270 -0.4212 -0.0103 -1.0433
  225MPD1     N 3423   1.573   4.652  12.211  0.6912  0.1561  0.0477
  225MPD1    H5 3424   1.568   4.589  12.132 -0.1268  1.3047 -0.8092
  225MPD1    N1 3425   1.852   0.145  12.557 -0.5113 -0.2775 -0.2754
  225MPD1    H6 3426   1.920   0.105  12.621 -1.9260 -1.6806  0.3406
  225MPD1    H7 3427   1.769   0.156  12.616 -2.6989 -1.7856 -3.0844
  226MPD1     C 3428   4.585   4.280   8.789 -0.3398  0.3244  1.1692
  226MPD1    C1 3429   4.703   4.354   8.810 -0.1311  0.5115 -0.0551
  226MPD1    C2 3430   0.097   4.289   8.852 -0.3699  0.0834 -0.3345
  226MPD1    C3 3431   0.101   4.152   8.863  0.3578 -0.0072 -0.0089
  226MPD1    C4 3432   4.703   4.083   8.845 -0.1292 -0.0454  0.3291
  226MPD1    C5 3433   4.591   4.148   8.798 -0.3860 -0.4849 -0.0297
  226MPD1     H 3434   0.188   4.347   8.865 -1.9269  2.2650  0.7895
  226MPD1    H1 3435   4.696   3.975   8.851 -1.6702  0.0514  0.5083
  226MPD1    H2 3436   4.495   4.328   8.752  1.2553  1.8479 -0.7720
  226MPD1    H3 3437   4.501   4.088   8.792  0.7833 -2.4585  2.3554
  226MPD1     N 3438   0.227   4.091   8.900  0.5988  0.0628 -0.6886
  226MPD1    H5 3439   0.302   4.148   8.936 -0.8299 -0.8560  3.6747
  226MPD1    N1 3440   4.701   4.491   8.786  0.1246  0.0456  0.3924
  226MPD1    H6 3441   0.047   4.538   8.846 -1.5003  0.3785  1.9763
  226MPD1    H7 3442   4.612   4.537   8.803  0.9274  0.5791  3.2882
  227MPD1     C 3443   0.972   4.495   8.974  0.3597 -0.1575 -0.1615
  227MPD1    C1 3444   0.857   4.512   8.898 -0.3603 -0.0257  0.1759
  227MPD1    C2 3445   0.773   4.402   8.894 -0.2172 -0.2149  0.1146
  227MPD1    C3 3446   0.791   4.281   8.967  0.9234  0.4444  0.3764
  227MPD1    C4 3447   0.900   4.272   9.049  0.8353  0.0492 -0.4395
  227MPD1    C5 3448   0.984   4.383   9.047 -0.0397 -0.6763 -0.5078
  227MPD1     H 3449   0.684   4.412   8.833  0.0281 -1.5019 -0.4685
  227MPD1    H1 3450   0.918   4.184   9.110 -2.8760 -0.0779  0.5287
  227MPD1    H2 3451   1.044   4.575   8.981 -0.4268  0.5708 -0.3511
  227MPD1    H3 3452   1.070   4.362   9.109  0.0197  0.8131 -0.0688
  227MPD1     N 3453   0.691   4.181   8.968 -0.4025  0.6664  1.0775
  227MPD1    H5 3454   0.599   4.214   8.943 -0.6745 -0.7775  0.2200
  227MPD1    N1 3455   0.846   4.624   8.821 -0.5330 -0.2049  0.2857
  227MPD1    H6 3456   0.754   4.661   8.845 -0.6710  1.1878 -2.3136
  227MPD1    H7 3457   0.903   4.701   8.855  2.0137 -2.7501  1.7210
  228MPD1     C 3458   3.466   3.219  12.488  0.1312  0.8216 -0.3162
  228MPD1    C1 3459   3.396   3.159  12.392 -0.1500 -0.4196  0.2090
  228MPD1    C2 3460   3.361   3.029  12.416 -0.1097 -0.5504 -0.2039
  228MPD1    C3 3461   3.395   2.973  12.538  0.8780 -0.5748 -0.7686
  228MPD1    C4 3462   3.452   3.039  12.639 -0.1396 -0.7513  0.0008
  228MPD1    C5 3463   3.493   3.168  12.607 -0.1516 -0.4878  0.7873
  228MPD1     H 3464   3.300   2.971  12.348  1.1484 -0.9627 -0.9645
  228MPD1    H1 3465   3.476   3.001  12.738  1.3233  1.4237  0.5019
  228MPD1    H2 3466   3.484   3.326  12.479  2.0117  0.5118 -0.3233
  228MPD1    H3 3467   3.545   3.238  12.672  1.0486 -0.5248 -0.1317
  228MPD1     N 3468   3.349   2.842  12.556 -0.0089 -0.0990 -0.0319
  228MPD1    H5 3469   3.289   2.804  12.484 -0.4885  0.0235  0.3047
  228MPD1    N1 3470   3.385   3.218  12.263  0.0856 -0.1321  0.4269
  228MPD1    H6 3471   3.312   3.184  12.201 -1.7558  3.1826  0.7541
  228MPD1    H7 3472   3.397   3.319  12.264 -0.2206 -0.0997  0.8186
  229MPD1     C 3473   2.308   0.646  15.499  0.0820  0.4892 -0.7661
  229MPD1    C1 3474   2.384   0.635  15.611  0.0383 -0.0781 -0.0855
  229MPD1    C2 3475   2.517   0.623  15.591  0.2423  0.2027 -0.3069
  229MPD1    C3 3476   2.579   0.614  15.466 -0.7572  0.4337 -0.0124
  229MPD1    C4 3477   2.497   0.632  15.358  0.1031 -0.1913  0.2100
  229MPD1    C5 3478   2.363   0.634  15.371  0.4404 -0.5080  0.5254
  229MPD1     H 3479   2.580   0.595  15.675  1.0594  0.5999 -0.7933
  229MPD1    H1 3480   2.539   0.625  15.259  0.4419  0.1281  0.3309
  229MPD1    H2 3481   2.200   0.643  15.509  0.2681  0.2318  1.2259
  229MPD1    H3 3482   2.305   0.619  15.281 -2.2862  1.6381  1.9083
  229MPD1     N 3483   2.717   0.592  15.442  0.0340 -0.3802  0.5518
  229MPD1    H5 3484   2.745   0.561  15.349 -2.3932  0.1470 -0.3634
  229MPD1    N1 3485   2.321   0.600  15.733 -0.0207  0.4088  0.4422
  229MPD1    H6 3486   2.380   0.625  15.812  0.9467  1.3616 -0.5960
  229MPD1    H7 3487   2.229   0.644  15.739 -0.2988 -0.3738  2.1592
  230MPD1     C 3488   3.548   0.070  15.945 -0.9229  0.0833 -0.1679
  230MPD1    C1 3489   3.568   0.070  15.807  0.4957 -0.4352  0.1953
  230MPD1    C2 3490   3.466   0.124  15.728 -0.3606  0.0024  0.0657
  230MPD1    C3 3491   3.362   0.207  15.778 -0.0986  0.0798 -0.7135
  230MPD1    C4 3492   3.357   0.219  15.920  0.2752 -0.0841  0.0446
  230MPD1    C5 3493   3.443   0.141  16.001 -0.1058 -0.0641 -0.4527
  230MPD1     H 3494   3.471   0.110  15.620  2.0794  0.8168  0.0705
  230MPD1    H1 3495   3.285   0.282  15.971 -0.6727 -0.7996 -0.4173
  230MPD1    H2 3496   3.620   0.022  16.009 -0.7144 -0.5394 -0.8659
  230MPD1    H3 3497   3.439   0.151  16.108 -1.4148  0.8928 -0.5862
  230MPD1     N 3498   3.281   0.269  15.688  0.6096  0.6099  0.3849
  230MPD1    H5 3499   3.288   0.253  15.588 -1.8487 -0.1945  0.3322
  230MPD1    N1 3500   3.667   4.711  15.751  0.3209 -0.4357 -0.2651
  230MPD1    H6 3501   3.687   0.014  15.654  0.2315 -0.4831 -0.2949
  230MPD1    H7 3502   3.754   4.716  15.804  0.4680 -2.9520 -0.2671
  231MPD1     C 3503   1.268   2.875  15.448  0.0319 -0.2429  0.7557
  231MPD1    C1 3504   1.298   2.850  15.315 -0.3363  0.4587  0.2526
  231MPD1    C2 3505   1.397   2.920  15.248  0.2751 -0.5403  0.6933
  231MPD1    C3 3506   1.463   3.010  15.323 -0.6204  0.4839 -0.0237
  231MPD1    C4 3507   1.428   3.042  15.454 -0.2717  0.4559  0.3145
  231MPD1    C5 3508   1.327   2.971  15.517 -0.1397 -0.0433  0.0901
  231MPD1     H 3509   1.426   2.891  15.148 -1.8952 -4.2998  1.1559
  231MPD1    H1 3510   1.481   3.115  15.514 -0.0916  0.0781  0.6107
  231MPD1    H2 3511   1.200   2.809  15.500 -2.4050  2.4490  1.0189
  231MPD1    H3 3512   1.289   2.996  15.615 -1.9911 -0.2301 -0.5841
  231MPD1     N 3513   1.564   3.088  15.267  0.4259 -0.0029  0.1840
  231MPD1    H5 3514   1.568   3.081  15.166 -2.2318  0.7742  0.0131
  231MPD1    N1 3515   1.242   2.745  15.260  0.3342 -0.2662  0.1057
  231MPD1    H6 3516   1.240   2.754  15.159 -2.0256  0.3209  0.1976
  231MPD1    H7 3517   1.153   2.723  15.305  0.2350  0.4508  0.2581
  232MPD1     C 3518   3.469   0.689   0.327 -0.2824  0.7055 -0.5139
  232MPD1    C1 3519   3.406   0.658   0.446  0.0770  0.6634 -0.1637
  232MPD1    C2 3520   3.313   0.557   0.444 -0.6490  0.2141 -0.0707
  232MPD1    C3 3521   3.258   0.505   0.325 -0.0123 -0.3993  0.0441
  232MPD1    C4 3522   3.313   0.547   0.205  0.0262  0.0286  0.4521
  232MPD1    C5 3523   3.412   0.644   0.211  1.0536  0.4177 -0.0015
  232MPD1     H 3524   3.259   0.525   0.533  0.2395  2.2092  1.1864
  232MPD1    H1 3525   3.278   0.520   0.106  1.0278  0.1991  0.0483
  232MPD1    H2 3526   3.546   0.765   0.322 -0.2201  0.6946  0.2570
  232MPD1    H3 3527   3.446   0.693   0.120 -0.6984  0.9117 -0.3952
  232MPD1     N 3528   3.139   0.426   0.336 -0.1320  0.3808 -0.1865
  232MPD1    H5 3529   3.100   0.415   0.429  0.0054  0.1695 -0.1542
  232MPD1    N1 3530   3.462   0.708   0.568 -0.4626 -0.4984  0.5771
  232MPD1    H6 3531   3.390   0.698   0.639 -0.4172  0.1171  0.7163
  232MPD1    H7 3532   3.488   0.805   0.550 -1.1138 -0.2635  0.8999
  233MPD1     C 3533   3.683   2.696   2.711 -0.4455 -0.6897  0.3529
  233MPD1    C1 3534   3.794   2.615   2.733 -0.0341 -0.2062 -0.1212
  233MPD1    C2 3535   3.908   2.640   2.664 -0.0204  0.1067  0.2600
  233MPD1    C3 3536   3.911   2.714   2.543 -0.4463  0.5430 -0.3713
  233MPD1    C4 3537   3.801   2.789   2.516 -0.5964  0.2540  0.3015
  233MPD1    C5 3538   3.692   2.782   2.604 -0.1372 -0.2537 -0.3033
  233MPD1     H 3539   4.002   2.606   2.706  1.0274  1.4692 -0.9727
  233MPD1    H1 3540   3.803   2.861   2.434 -0.6264 -0.4974 -0.3662
  233MPD1    H2 3541   3.589   2.697   2.765 -0.3206  2.4603  0.4805
  233MPD1    H3 3542   3.618   2.855   2.573 -1.4342 -0.3787  2.4847
  233MPD1     N 3543   4.024   2.719   2.460  0.0416  0.0356  0.0592
  233MPD1    H5 3544   4.012   2.778   2.378  1.1827  1.1932  0.7169
  233MPD1    N1 3545   3.799   2.523   2.845 -0.5905 -0.7262 -0.1455
  233MPD1    H6 3546   3.853   2.442   2.815  2.0441  0.5602  1.1004
  233MPD1    H7 3547   3.705   2.496   2.871 -0.9285  0.3707 -0.2274
  234MPD1     C 3548   1.772   1.423   9.717  0.4135 -0.2210 -0.4474
  234MPD1    C1 3549   1.843   1.493   9.622  0.6161  0.3312 -0.0990
  234MPD1    C2 3550   1.871   1.627   9.656  1.1915  0.2309  0.1987
  234MPD1    C3 3551   1.838   1.685   9.776 -0.3337 -0.7455  0.5073
  234MPD1    C4 3552   1.782   1.600   9.873  0.0577  0.4085  0.3890
  234MPD1    C5 3553   1.751   1.472   9.845  0.2129 -0.3924  0.2073
  234MPD1     H 3554   1.925   1.685   9.581  2.5436 -2.0057 -0.5677
  234MPD1    H1 3555   1.749   1.635   9.971  1.3882 -1.7138  1.5971
  234MPD1    H2 3556   1.734   1.325   9.690  1.2592 -0.7774  0.3564
  234MPD1    H3 3557   1.714   1.409   9.925 -0.5780 -0.9748 -0.6168
  234MPD1     N 3558   1.850   1.823   9.789  0.2660 -0.0115  0.4120
  234MPD1    H5 3559   1.873   1.871   9.703 -4.1846 -0.2437 -0.9172
  234MPD1    N1 3560   1.846   1.439   9.492  0.2153  0.3909 -0.0449
  234MPD1    H6 3561   1.931   1.468   9.443  0.3037  0.7956  0.3515
  234MPD1    H7 3562   1.850   1.338   9.492  1.2722  0.4253 -0.0049
  235MPD1     C 3563   2.316   2.554   9.754  0.4183  0.0662  0.6881
  235MPD1    C1 3564   2.322   2.508   9.880 -0.2933 -0.1246  0.1572
  235MPD1    C2 3565   2.394   2.390   9.909 -0.0351 -0.4651 -0.5557
  235MPD1    C3 3566   2.437   2.315   9.801 -0.1804  0.0681  0.0357
  235MPD1    C4 3567   2.425   2.359   9.669  0.1230  0.1947  0.6366
  235MPD1    C5 3568   2.360   2.477   9.650  0.0951  0.2833 -0.2680
  235MPD1     H 3569   2.421   2.348  10.005  0.0151  1.4382  0.2655
  235MPD1    H1 3570   2.476   2.309   9.588 -0.0746  1.0558 -0.0228
  235MPD1    H2 3571   2.291   2.654   9.721  0.3092  0.0627  0.7595
  235MPD1    H3 3572   2.352   2.519   9.551  3.2862 -0.8352 -0.9940
  235MPD1     N 3573   2.507   2.200   9.833  0.0664  0.0776  0.0471
  235MPD1    H5 3574   2.518   2.180   9.932 -2.6934  0.1818  0.3993
  235MPD1    N1 3575   2.286   2.596   9.985 -0.5270 -0.0622  0.0478
  235MPD1    H6 3576   2.278   2.560  10.079 -0.0188 -1.2491 -0.3579
  235MPD1    H7 3577   2.210   2.661   9.966  1.3036  1.6783 -1.4130
  236MPD1     C 3578   2.017   0.967   9.237 -0.2059 -0.6594 -1.1396
  236MPD1    C1 3579   1.959   0.871   9.323 -0.0555 -0.8995 -0.3412
  236MPD1    C2 3580   2.046   0.831   9.424  0.0500  0.0158 -0.1165
  236MPD1    C3 3581   2.177   0.878   9.445  0.0627 -0.1804  0.2279
  236MPD1    C4 3582   2.224   0.975   9.364 -0.1066  1.1263  0.1242
  236MPD1    C5 3583   2.143   1.021   9.267 -0.5626 -0.2616  0.3064
  236MPD1     H 3584   2.014   0.763   9.501  0.0819 -0.0817 -0.1901
  236MPD1    H1 3585   2.328   1.007   9.367 -0.3500  1.8846  0.6360
  236MPD1    H2 3586   1.962   1.000   9.149  1.0384  1.3913 -1.1536
  236MPD1    H3 3587   2.178   1.102   9.205 -0.3940 -0.3299  0.3125
  236MPD1     N 3588   2.273   0.822   9.529  0.1200 -0.3688 -0.3860
  236MPD1    H5 3589   2.355   0.877   9.552 -0.5766  0.5105  0.0256
  236MPD1    N1 3590   1.842   0.805   9.287  0.1837  0.0551 -0.1345
  236MPD1    H6 3591   1.764   0.848   9.239  0.6157  0.7168 -0.2468
  236MPD1    H7 3592   1.799   0.756   9.366 -0.9721  0.5654 -0.4545
  237MPD1     C 3593   1.561   3.947  15.728 -0.2808  0.6618  0.0851
  237MPD1    C1 3594   1.587   3.894  15.600 -0.2380 -0.0267  0.7379
  237MPD1    C2 3595   1.492   3.893  15.503 -0.2915 -0.0496  0.4952
  237MPD1    C3 3596   1.369   3.949  15.534  0.4958 -0.3470  0.5111
  237MPD1    C4 3597   1.350   4.010  15.655 -0.0466 -0.2614  0.5154
  237MPD1    C5 3598   1.445   4.008  15.752  0.1302  0.2380 -0.3973
  237MPD1     H 3599   1.519   3.854  15.406 -0.8599 -0.6130  0.5606
  237MPD1    H1 3600   1.254   4.057  15.672  1.6907  2.5794  2.6970
  237MPD1    H2 3601   1.625   3.931  15.814 -0.5596 -1.2126 -0.0484
  237MPD1    H3 3602   1.421   4.052  15.848 -0.7132 -1.0457 -0.0137
  237MPD1     N 3603   1.260   3.954  15.442 -0.2931 -0.2961 -0.2268
  237MPD1    H5 3604   1.171   4.000  15.463 -0.9667 -0.5406 -2.4793
  237MPD1    N1 3605   1.701   3.818  15.594  0.0205  0.1352  0.5321
  237MPD1    H6 3606   1.782   3.844  15.651 -0.4749  0.5548  1.0505
  237MPD1    H7 3607   1.733   3.803  15.499 -0.0549 -1.8717  0.8365
  238MPD1     C 3608   4.048   2.474  15.265 -0.1578 -0.3438  0.2917
  238MPD1    C1 3609   3.954   2.454  15.366 -0.1593 -0.5796 -1.1415
  238MPD1    C2 3610   3.819   2.444  15.331  0.3480  0.1886  0.1184
  238MPD1    C3 3611   3.781   2.450  15.195  0.4199 -0.3604  0.3847
  238MPD1    C4 3612   3.871   2.472  15.096  0.8388  0.1188 -0.0053
  238MPD1    C5 3613   4.002   2.482  15.135 -0.0376  0.1018  0.1014
  238MPD1     H 3614   3.757   2.411  15.414  0.5049 -1.4232 -0.3994
  238MPD1    H1 3615   3.829   2.489  14.998  0.0707  0.2366  0.3473
  238MPD1    H2 3616   4.150   2.500  15.291 -1.0436  1.1424  2.2585
  238MPD1    H3 3617   4.067   2.496  15.049  0.2000 -0.0493  0.2552
  238MPD1     N 3618   3.647   2.435  15.158  0.3980 -0.1706 -0.1997
  238MPD1    H5 3619   3.619   2.433  15.060  0.7516  0.8012 -0.3148
  238MPD1    N1 3620   3.998   2.427  15.495 -0.7131 -1.0341 -0.2972
  238MPD1    H6 3621   3.935   2.456  15.570 -0.1779 -0.3678 -0.1015
  238MPD1    H7 3622   4.091   2.467  15.511 -0.4614 -1.1909 -1.3611
  239MPD1     C 3623   3.273   3.191  15.517  0.0011 -0.3737 -0.7035
  239MPD1    C1 3624   3.335   3.142  15.404 -0.2160 -0.8529 -0.0081
  239MPD1    C2 3625   3.342   3.220  15.288  0.1268 -0.1599  0.0237
  239MPD1    C3 3626   3.288   3.345  15.290  0.2043  0.2221  0.3725
  239MPD1    C4 3627   3.228   3.399  15.401  0.1453 -0.3480  0.0619
  239MPD1    C5 3628   3.230   3.319  15.519 -0.3290  0.7116 -0.0842
  239MPD1     H 3629   3.385   3.181  15.196 -0.9058 -0.2532 -0.4127
  239MPD1    H1 3630   3.194   3.501  15.414 -2.6738 -1.3373  0.2629
  239MPD1    H2 3631   3.274   3.143  15.614  1.0433  0.7856 -0.1365
  239MPD1    H3 3632   3.183   3.364  15.606  0.3669 -0.0395  0.6788
  239MPD1     N 3633   3.278   3.435  15.177 -0.3658  0.1170  0.4539
  239MPD1    H5 3634   3.255   3.530  15.204 -0.6310  0.4904 -1.0773
  239MPD1    N1 3635   3.400   3.015  15.405  0.0154 -0.5467  0.1554
  239MPD1    H6 3636   3.407   2.978  15.310 -0.1664 -0.1307 -0.0216
  239MPD1    H7 3637   3.336   2.953  15.453 -0.3483 -0.2967 -0.0019
  240MPD1     C 3638   3.737   2.837  15.107  0.4457 -0.7015  0.1615
  240MPD1    C1 3639   3.676   2.878  14.996  0.3179  0.3336  0.1141
  240MPD1    C2 3640   3.539   2.899  14.994 -0.5762  0.1406 -0.2625
  240MPD1    C3 3641   3.459   2.849  15.090  0.1337 -0.3322 -0.4332
  240MPD1    C4 3642   3.524   2.773  15.192 -0.0540  0.0955  0.3907
  240MPD1    C5 3643   3.658   2.782  15.205 -0.2326  0.2792 -0.4128
  240MPD1     H 3644   3.487   2.960  14.921  1.0742  0.6919 -0.9916
  240MPD1    H1 3645   3.466   2.718  15.265 -2.3169  1.0710 -0.6725
  240MPD1    H2 3646   3.844   2.831  15.121  0.2601 -3.2377  0.4725
  240MPD1    H3 3647   3.704   2.730  15.289 -0.9732 -0.8469 -0.7118
  240MPD1     N 3648   3.324   2.864  15.075 -0.7600 -0.3213 -0.4663
  240MPD1    H5 3649   3.293   2.924  14.998  1.6602  0.9006 -0.4960
  240MPD1    N1 3650   3.754   2.929  14.891  0.3403 -0.4024 -0.4048
  240MPD1    H6 3651   3.707   2.907  14.804 -0.9009 -0.7666  0.3541
  240MPD1    H7 3652   3.839   2.874  14.883  0.9836  0.5126  0.0811
  241MPD1     C 3653   2.270   2.749  15.414  0.1276 -0.2519 -0.2965
  241MPD1    C1 3654   2.375   2.800  15.486  0.2644  0.1711  0.1170
  241MPD1    C2 3655   2.500   2.792  15.429  0.4728 -0.3923  0.6999
  241MPD1    C3 3656   2.519   2.734  15.302 -0.0568 -0.1837  0.0170
  241MPD1    C4 3657   2.418   2.676  15.244  0.3316  0.0606 -0.3196
  241MPD1    C5 3658   2.296   2.676  15.302  0.3186 -0.1594  0.1509
  241MPD1     H 3659   2.584   2.833  15.483  1.0413 -0.1960 -0.3160
  241MPD1    H1 3660   2.413   2.625  15.149  1.0537 -1.3384  0.3970
  241MPD1    H2 3661   2.166   2.749  15.445 -0.1281 -0.6822 -1.1367
  241MPD1    H3 3662   2.213   2.630  15.250 -0.2822  0.6227  0.4139
  241MPD1     N 3663   2.642   2.720  15.242  0.3586  0.4174  0.1157
  241MPD1    H5 3664   2.634   2.676  15.151 -2.1920 -0.9219  0.9916
  241MPD1    N1 3665   2.350   2.864  15.612 -0.3430  0.6592  0.4294
  241MPD1    H6 3666   2.275   2.819  15.664 -0.2230  0.2056  0.2070
  241MPD1    H7 3667   2.436   2.853  15.667  0.1443  0.7432 -0.3156
  242MPD1     C 3668   2.082   1.592  16.262 -0.3763 -0.2274  0.4569
  242MPD1    C1 3669   2.068   1.694  16.171 -0.0051 -0.1274  0.2259
  242MPD1    C2 3670   2.122   1.673  16.043 -0.1669 -0.3651 -0.0523
  242MPD1    C3 3671   2.181   1.553  16.003 -0.0253  0.8259 -0.0955
  242MPD1    C4 3672   2.190   1.449  16.101 -0.1119 -0.3290 -0.1092
  242MPD1    C5 3673   2.142   1.468  16.230 -0.0682  0.2357 -0.4799
  242MPD1     H 3674   2.113   1.751  15.968  0.8150 -0.4559 -0.2617
  242MPD1    H1 3675   2.232   1.353  16.075  0.7106 -0.1106  0.3984
  242MPD1    H2 3676   2.049   1.614  16.363  0.5771 -4.3383  1.6616
  242MPD1    H3 3677   2.142   1.390  16.304 -1.1359 -0.6647 -1.4370
  242MPD1     N 3678   2.230   1.532  15.872  0.0206  0.0074  0.4139
  242MPD1    H5 3679   2.262   1.438  15.851  0.0723  0.5091 -1.7902
  242MPD1    N1 3680   2.017   1.820  16.215 -0.5462 -0.2096  0.5789
  242MPD1    H6 3681   1.976   1.865  16.133 -1.6706 -1.2497  0.5723
  242MPD1    H7 3682   1.942   1.810  16.282 -0.5192 -1.0625  0.4856
  243MPD1     C 3683   0.248   4.571  16.954  0.8483  0.0418 -0.1838
  243MPD1    C1 3684   0.193   4.572  17.082  0.1923 -0.1646 -0.4325
  243MPD1    C2 3685   0.056   4.602  17.100 -0.4007  0.5863  0.0324
  243MPD1    C3 3686   4.692   4.630  16.995  0.1498  0.1612 -1.2000
  243MPD1    C4 3687   0.028   4.624  16.865 -0.2380  0.3526 -0.3177
  243MPD1    C5 3688   0.162   4.611  16.847  0.0242 -0.1934 -0.1972
  243MPD1     H 3689   0.020   4.608  17.202  1.7542  1.6767  0.7237
  243MPD1    H1 3690   4.689   4.633  16.775  0.7736 -2.7364 -1.3147
  243MPD1    H2 3691   0.351   4.544  16.935  0.2093 -1.7628 -1.0307
  243MPD1    H3 3692   0.201   4.620  16.746  0.0812  1.4152 -0.0331
  243MPD1     N 3693   4.560   4.688  17.016  0.1124 -0.2411 -0.3761
  243MPD1    H5 3694   4.541   4.701  17.115  0.9085 -0.7419 -0.1546
  243MPD1    N1 3695   0.284   4.556  17.187  0.3065 -0.1347  0.3444
  243MPD1    H6 3696   0.240   4.494  17.255 -1.0859  1.4188  0.8714
  243MPD1    H7 3697   0.372   4.514  17.160  0.7404 -0.2034  1.8617
  244MPD1     C 3698   4.456   0.409   0.019  0.1236 -0.4132 -0.1869
  244MPD1    C1 3699   4.535   0.307  17.660 -0.7259 -0.1391 -0.2628
  244MPD1    C2 3700   4.511   0.267  17.534 -0.5382 -0.2837 -0.6614
  244MPD1    C3 3701   4.386   0.282  17.476 -0.3716  0.3786  0.1787
  244MPD1    C4 3702   4.291   0.362  17.547 -0.2839  0.0800 -0.9152
  244MPD1    C5 3703   4.330   0.430  17.661 -0.4148 -0.7993  0.5170
  244MPD1     H 3704   4.586   0.214  17.477 -1.3237 -1.6085 -0.4722
  244MPD1    H1 3705   4.192   0.389  17.511 -0.5750 -1.1619 -1.0595
  244MPD1    H2 3706   4.488   0.476   0.098  1.5123 -1.7727  0.3929
  244MPD1    H3 3707   4.270   0.503   0.025 -1.6158 -0.2332 -1.5714
  244MPD1     N 3708   4.361   0.231  17.340 -0.7908  0.5103  0.2500
  244MPD1    H5 3709   4.433   0.179  17.291 -1.7168 -0.7152  0.1916
  244MPD1    N1 3710   4.659   0.290   0.031 -0.4156  0.4174 -0.2344
  244MPD1    H6 3711   4.662   0.320   0.128  2.0903 -0.9561  0.1226
  244MPD1    H7 3712   4.703   0.200   0.009 -2.4504 -1.0300  1.6295
  245MPD1     C 3713   1.532   0.973  13.183  0.1368 -0.4074 -0.2404
  245MPD1    C1 3714   1.433   0.980  13.280  0.5419  0.2193 -1.1518
  245MPD1    C2 3715   1.453   1.080  13.378 -0.0082  0.5001  0.1076
  245MPD1    C3 3716   1.563   1.161  13.384  0.2022  0.7530 -0.1056
  245MPD1    C4 3717   1.656   1.145  13.278 -0.4900  0.4975 -0.1536
  245MPD1    C5 3718   1.629   1.064  13.173  0.0151 -0.4961 -1.4127
  245MPD1     H 3719   1.377   1.103  13.452 -0.4440  1.6105 -0.7033
  245MPD1    H1 3720   1.754   1.193  13.279 -0.1285 -0.2328 -0.1728
  245MPD1    H2 3721   1.532   0.907  13.096 -0.6078 -0.1947 -0.4018
  245MPD1    H3 3722   1.700   1.059  13.091  0.5641 -0.3187 -0.9499
  245MPD1     N 3723   1.577   1.245  13.492 -0.4283  0.0360  0.1312
  245MPD1    H5 3724   1.494   1.248  13.551 -0.2952 -4.5801  0.5205
  245MPD1    N1 3725   1.305   0.917  13.266  0.1765  0.0796  0.6515
  245MPD1    H6 3726   1.244   0.923  13.347  1.6005  0.7491  1.6751
  245MPD1    H7 3727   1.314   0.823  13.227  1.9723  0.3992  0.2685
  246MPD1     C 3728   3.734   2.978  10.780 -0.2608 -0.3225  0.0956
  246MPD1    C1 3729   3.625   2.938  10.857 -0.2373  0.4662  0.1530
  246MPD1    C2 3730   3.548   2.840  10.803 -0.1046 -0.2511 -0.2019
  246MPD1    C3 3731   3.583   2.773  10.689  0.4831 -0.0389  0.2431
  246MPD1    C4 3732   3.704   2.796  10.625  0.9888 -0.4024  0.4492
  246MPD1    C5 3733   3.768   2.908  10.669 -0.1162  0.7025 -0.5667
  246MPD1     H 3734   3.458   2.808  10.854 -0.6604  1.7128  0.0479
  246MPD1    H1 3735   3.733   2.750  10.531  0.2313  2.9096 -1.3923
  246MPD1    H2 3736   3.802   3.058  10.806  0.8183 -1.3447  0.4128
  246MPD1    H3 3737   3.859   2.935  10.617  0.9025 -2.1147 -0.2265
  246MPD1     N 3738   3.483   2.683  10.633  0.3621  0.2149 -0.7240
  246MPD1    H5 3739   3.386   2.707  10.652 -0.0245  1.7539 -4.5136
  246MPD1    N1 3740   3.586   3.006  10.972  0.0046  0.0714 -0.3921
  246MPD1    H6 3741   3.670   3.039  11.020  1.2622  0.9005 -3.1613
  246MPD1    H7 3742   3.534   2.936  11.024 -0.0167 -0.4120 -1.0584
  247MPD1     C 3743   0.133   0.289  15.949  0.2217  1.0186 -0.8453
  247MPD1    C1 3744   0.173   0.205  16.057  0.1964 -0.3953 -1.0221
  247MPD1    C2 3745   0.311   0.205  16.082  0.1930 -0.7217 -0.2318
  247MPD1    C3 3746   0.399   0.275  16.002 -0.7978 -0.5942  0.5486
  247MPD1    C4 3747   0.356   0.354  15.891 -0.4919 -0.0688  0.9616
  247MPD1    C5 3748   0.220   0.364  15.874  0.8628  0.3288  0.1198
  247MPD1     H 3749   0.339   0.153  16.173 -0.9418 -2.8635 -1.0875
  247MPD1    H1 3750   0.419   0.429  15.845  1.3743 -1.3302  1.4624
  247MPD1    H2 3751   0.029   0.286  15.921  0.0677 -0.4503 -0.0840
  247MPD1    H3 3752   0.167   0.438  15.814  0.8318  1.4261  1.5146
  247MPD1     N 3753   0.540   0.271  16.027 -0.1507 -1.1731 -1.1473
  247MPD1    H5 3754   0.600   0.318  15.960 -0.7003  1.3513  0.1168
  247MPD1    N1 3755   0.076   0.157  16.142  0.4774 -0.3398 -0.0282
  247MPD1    H6 3756   0.105   0.070  16.186  0.9659 -0.5840 -0.8383
  247MPD1    H7 3757   4.718   0.131  16.085 -2.1350  4.2382  1.5208
  248MPD1     C 3758   1.472   2.316   0.484 -0.0950 -0.0069 -0.6543
  248MPD1    C1 3759   1.510   2.302   0.355  0.0681  0.2368  0.2733
  248MPD1    C2 3760   1.444   2.201   0.280 -0.5672  0.3571  0.3475
  248MPD1    C3 3761   1.324   2.139   0.325  0.7003 -0.2303  0.0109
  248MPD1    C4 3762   1.280   2.170   0.446 -0.3736  0.2788  0.4211
  248MPD1    C5 3763   1.354   2.255   0.528 -1.0779  0.8419  0.3616
  248MPD1     H 3764   1.491   2.172   0.187 -0.1957 -1.7646  1.1882
  248MPD1    H1 3765   1.205   2.102   0.485  2.4022 -1.8961  1.9594
  248MPD1    H2 3766   1.537   2.381   0.542 -1.5274 -1.3273  2.4183
  248MPD1    H3 3767   1.333   2.256   0.634  0.4983  1.8700  0.6651
  248MPD1     N 3768   1.279   2.027   0.243  0.0203 -0.5271 -0.4424
  248MPD1    H5 3769   1.327   1.997   0.160 -1.7126 -1.7284 -1.0207
  248MPD1    N1 3770   1.631   2.360   0.312  0.6547 -0.0853  0.3605
  248MPD1    H6 3771   1.621   2.391   0.216 -0.1063 -2.7246 -0.4110
  248MPD1    H7 3772   1.662   2.444   0.361 -0.5175  0.9404 -0.6588
  249MPD1     C 3773   2.414   0.048   9.383 -0.3342  0.2603  0.5999
  249MPD1    C1 3774   2.548   0.073   9.379 -0.6948 -0.0468 -0.1176
  249MPD1    C2 3775   2.637   0.011   9.463 -0.1267  0.1309 -0.2949
  249MPD1    C3 3776   2.590   4.653   9.564 -0.4600 -0.3187  0.2233
  249MPD1    C4 3777   2.455   4.635   9.571  0.8276 -0.0286  0.0581
  249MPD1    C5 3778   2.368   4.693   9.487  0.6806 -0.3094  0.2329
  249MPD1     H 3779   2.743   0.030   9.460 -0.2072  0.7927  1.1922
  249MPD1    H1 3780   2.416   4.576   9.654  0.7672 -0.1553 -0.0604
  249MPD1    H2 3781   2.351   0.090   9.306  1.9394  2.0257 -0.3051
  249MPD1    H3 3782   2.262   4.674   9.499  0.7127 -0.4472  0.3046
  249MPD1     N 3783   2.679   4.605   9.660  0.7010 -0.1136 -0.2452
  249MPD1    H5 3784   2.776   4.629   9.646  1.5299 -3.0816  0.4351
  249MPD1    N1 3785   2.591   0.141   9.268 -0.0085  0.1699  0.3881
  249MPD1    H6 3786   2.516   0.191   9.219 -0.2728 -0.0022  0.6192
  249MPD1    H7 3787   2.666   0.205   9.291 -1.0603  0.8529  1.9033
  250MPD2     C 3788   3.572   4.626  13.288 -0.0810 -0.6576  1.1005
  250MPD2    C1 3789   3.624   4.635  13.156  0.2820  0.3888 -0.6039
  250MPD2    C2 3790   3.592   4.544  13.064 -0.3930 -0.4802 -0.7379
  250MPD2    C3 3791   3.503   4.445  13.103  1.3182 -1.1162 -0.6282
  250MPD2    C4 3792   3.449   4.434  13.236 -0.1596  0.9610  0.1742
  250MPD2    C5 3793   3.493   4.527  13.327 -0.2143  0.2046 -0.0264
  250MPD2     H 3794   3.632   4.529  12.965  0.8856 -0.4605 -0.2294
  250MPD2    H1 3795   3.389   4.356  13.280  2.0782 -1.0259 -0.2528
  250MPD2    H2 3796   3.607   4.698  13.360  1.2871  0.0682 -0.3133
  250MPD2    H3 3797   3.452   4.524  13.428  1.1118  2.0050  0.5494
  250MPD2     N 3798   3.477   4.336  13.004 -0.4515 -0.0182  0.0925
  250MPD2    H5 3799   3.524   4.347  12.915  1.3741  1.1696  1.2124
  250MPD2    N1 3800   3.726   0.012  13.136  0.6144  0.0702  0.6415
  250MPD2    H7 3801   3.729   0.085  13.207 -1.9848 -1.7888  2.6481
  251TMC3    C1 3802   3.938   0.098  13.064 -0.3530 -0.6289  0.7183
  251TMC3    C2 3803   3.965   0.100  13.195 -0.1095  0.1902  0.3870
  251TMC3    C3 3804   4.096   0.079  13.230 -0.0264 -0.1541  0.4524
  251TMC3    C4 3805   4.026   0.084  12.966  0.1634 -0.6009 -0.8241
  251TMC3    C5 3806   4.155   0.039  13.002  0.0741 -0.0754  0.2967
  251TMC3    C6 3807   4.188   0.039  13.134 -0.7024  0.0120 -0.3053
  251TMC3     C 3808   3.824   0.007  13.036 -0.3883  0.0568 -0.4316
  251TMC3     O 3809   3.833   4.654  12.935 -0.4207 -0.4772  0.7994
  251TMC3     H 3810   3.891   0.117  13.272  2.0284  0.6816  2.3305
  251TMC3    H1 3811   3.992   0.081  12.864 -1.6431 -2.1902 -0.1792
  251TMC3    H2 3812   4.285   0.007  13.170 -0.8952 -1.2718 -0.9650
  251TMC3    C7 3813   4.204   4.640  12.940 -0.2379  0.0292 -0.2486
  251TMC3    C8 3814   4.150   0.146  13.353 -0.2887 -0.4708  0.4328
  251TMC3    O1 3815   4.318   4.601  12.957 -0.3500  0.5674  0.0658
  251TMC3    O2 3816   4.072   0.192  13.434 -0.4088 -0.6078 -0.5896
  252TMC3    C1 3817   0.656   0.079   9.049 -0.0575  0.4789 -0.0990
  252TMC3    C2 3818   0.703   0.122   9.171  0.8115  0.2320  0.0214
  252TMC3    C3 3819   0.665   0.041   9.280 -0.4247 -0.5090 -0.2679
  252TMC3    C4 3820   0.605   4.677   9.036  0.1789  0.4160  0.6308
  252TMC3    C5 3821   0.573   4.603   9.149  0.4742 -0.5462 -0.3760
  252TMC3    C6 3822   0.596   4.647   9.274 -0.2174 -0.4938  0.8125
  252TMC3     C 3823   0.652   0.167   8.931 -0.0198  0.4831 -0.6165
  252TMC3     O 3824   0.631   0.121   8.819  0.0378  0.3809  0.4675
  252TMC3     H 3825   0.770   0.207   9.174  0.5956  0.4042 -0.0357
  252TMC3    H1 3826   0.562   4.649   8.941  0.8975 -1.0276  0.7330
  252TMC3    H2 3827   0.558   4.594   9.361 -0.8751 -0.3851  0.5900
  252TMC3    C7 3828   0.465   4.505   9.128  0.2430 -0.4723  0.3995
  252TMC3    C8 3829   0.722   0.065   9.407 -0.5105 -0.0384 -0.4190
  252TMC3    O1 3830   0.389   4.516   9.028 -0.0754  0.0598  0.1666
  252TMC3    O2 3831   0.701   4.705   9.495 -0.5116 -0.3113 -0.0207
  253MPD2     C 3832   1.301   4.417  15.603 -0.5565  0.5453  0.0279
  253MPD2    C1 3833   1.181   4.347  15.576 -0.3241 -0.1624  0.5643
  253MPD2    C2 3834   1.112   4.285  15.675  0.1287 -0.0652 -0.3551
  253MPD2    C3 3835   1.150   4.299  15.807  0.3448 -0.5033  0.3448
  253MPD2    C4 3836   1.266   4.370  15.829  0.5189 -0.8695 -0.7569
  253MPD2    C5 3837   1.335   4.432  15.734  0.9478  0.1926  0.2074
  253MPD2     H 3838   1.019   4.236  15.645 -0.0786  0.1644 -0.0886
  253MPD2    H1 3839   1.299   4.390  15.930  2.4052 -0.1316 -1.5226
  253MPD2    H2 3840   1.356   4.470  15.526  1.6415 -1.6955  0.0406
  253MPD2    H3 3841   1.428   4.477  15.767  1.7283 -1.6262  0.4800
  253MPD2     N 3842   1.083   4.250  15.921 -0.1933 -0.4132 -0.1259
  253MPD2    H5 3843   1.139   4.250  16.006  0.6515 -2.2997 -0.6754
  253MPD2    N1 3844   1.132   4.367  15.438 -0.3336  0.1190 -0.2494
  253MPD2    H7 3845   1.172   4.442  15.383  1.1253 -0.2732  0.2527
  254TMC3    C1 3846   0.905   4.175  16.055  0.7546 -1.3222 -0.3156
  254TMC3    C2 3847   0.770   4.161  16.059  0.7137  0.2850  0.5341
  254TMC3    C3 3848   0.718   4.127  16.176  0.9960  0.0442 -0.2431
  254TMC3    C4 3849   0.991   4.149  16.158  0.1123 -0.5128  0.4263
  254TMC3    C5 3850   0.928   4.103  16.267  0.5276  0.2669 -0.1399
  254TMC3    C6 3851   0.794   4.085  16.280  0.2078 -0.4434  0.7206
  254TMC3     C 3852   0.953   4.216  15.923 -0.3122  0.0631  0.0752
  254TMC3     O 3853   0.868   4.210  15.836  0.7312  0.8325 -0.5652
  254TMC3     H 3854   0.714   4.184  15.969 -0.6498 -1.5436  0.9056
  254TMC3    H1 3855   1.098   4.152  16.142  0.1983 -2.6861  0.6094
  254TMC3    H2 3856   0.752   4.044  16.372 -0.1695  1.6140  1.4640
  254TMC3    C7 3857   1.006   4.075  16.391  0.0019  0.8279  0.5379
  254TMC3    C8 3858   0.577   4.141  16.209 -0.2557 -0.0304  0.3986
  254TMC3    O1 3859   0.947   4.020  16.485 -0.0995  0.2226  0.1945
  254TMC3    O2 3860   0.550   4.126  16.325  0.2353  0.3358  0.2978
  255MPD2     C 3861   4.552   1.251   9.587 -0.5522  0.3068 -0.7182
  255MPD2    C1 3862   4.652   1.309   9.511  0.1797 -1.2333 -0.1419
  255MPD2    C2 3863   4.714   1.225   9.417 -0.6997  0.4790 -0.0061
  255MPD2    C3 3864   4.704   1.084   9.414  0.9828  0.4208  0.7268
  255MPD2    C4 3865   4.610   1.033   9.500 -0.0711 -0.1101 -0.4716
  255MPD2    C5 3866   4.546   1.118   9.587 -0.0263  0.2011  0.4869
  255MPD2     H 3867   0.043   1.276   9.336  0.7917 -1.3150 -0.1884
  255MPD2    H1 3868   4.592   0.931   9.533 -0.5308 -1.0883 -3.7276
  255MPD2    H2 3869   4.488   1.299   9.660  0.7215  0.8875  0.0044
  255MPD2    H3 3870   4.481   1.067   9.657  1.7590 -0.7531  1.4525
  255MPD2     N 3871   0.060   0.988   9.341  0.6352 -0.5838 -0.6765
  255MPD2    H5 3872   0.020   0.895   9.340 -1.9530  0.4847  1.8084
  255MPD2    N1 3873   4.678   1.440   9.507  0.3864 -0.1175  0.0336
  255MPD2    H7 3874   0.019   1.475   9.435 -0.0876  0.7981  0.0659
  256TMC3    C1 3875   4.693   1.666   9.594  0.2435  0.0183 -0.1899
  256TMC3    C2 3876   0.089   1.673   9.523  0.3331  0.6893 -0.1287
  256TMC3    C3 3877   0.181   1.759   9.571  0.1434 -0.3443 -0.2077
  256TMC3    C4 3878   4.677   1.745   9.703  0.7286  0.0631  0.3345
  256TMC3    C5 3879   0.052   1.828   9.752  0.7081  0.3290  1.3973
  256TMC3    C6 3880   0.168   1.842   9.684 -0.5471 -0.4033 -0.6833
  256TMC3     C 3881   4.631   1.532   9.605 -0.5090 -0.2154 -0.1994
  256TMC3     O 3882   4.569   1.505   9.711  0.3845 -0.3982 -0.4365
  256TMC3     H 3883   0.118   1.613   9.437  0.6656 -0.7756  1.0142
  256TMC3    H1 3884   4.589   1.738   9.766  0.8155 -1.3798  0.2974
  256TMC3    H2 3885   0.243   1.913   9.716 -0.3120 -0.5889 -0.8279
  256TMC3    C7 3886   0.017   1.922   9.849  0.8555  0.5143  0.0291
  256TMC3    C8 3887   0.302   1.780   9.486 -0.2468 -0.1174  0.3874
  256TMC3    O1 3888   4.615   1.934   9.859  0.4523  0.2967  0.1771
  256TMC3    O2 3889   0.359   1.687   9.431 -0.8554 -0.3791  0.1408
  257MPD2     C 3890   3.201   4.542  13.621 -0.6971  0.2816 -0.1335
  257MPD2    C1 3891   3.176   4.486  13.491 -0.5231  0.0506  0.9288
  257MPD2    C2 3892   3.159   4.348  13.485 -0.1261 -0.4721  0.6243
  257MPD2    C3 3893   3.185   4.269  13.596 -0.4381 -0.1457  0.5480
  257MPD2    C4 3894   3.210   4.320  13.721  0.7189 -0.3248  0.2793
  257MPD2    C5 3895   3.218   4.457  13.731  0.0164  0.2186 -0.4591
  257MPD2     H 3896   3.127   4.293  13.397  1.1563 -1.0887  0.5394
  257MPD2    H1 3897   3.221   4.250  13.803  0.4808 -0.0346  0.5611
  257MPD2    H2 3898   3.198   4.650  13.634 -0.8192  0.1638  0.7659
  257MPD2    H3 3899   3.261   4.504  13.819 -1.3702  0.8848 -0.1322
  257MPD2     N 3900   3.170   4.130  13.576 -0.9678 -0.3801 -0.1845
  257MPD2    H5 3901   3.155   4.093  13.483  1.5333  0.0147 -0.7547
  257MPD2    N1 3902   3.151   4.565  13.377 -0.0821 -0.0314  0.2652
  257MPD2    H7 3903   3.156   4.666  13.386  0.8095 -0.0962  0.4331
  258TMC3    C1 3904   3.132   3.897  13.622  0.2665 -1.0881  0.2751
  258TMC3    C2 3905   3.067   3.883  13.507 -0.5443  0.8825 -0.3272
  258TMC3    C3 3906   3.035   3.750  13.468 -0.2454  0.2726  0.1179
  258TMC3    C4 3907   3.172   3.785  13.704  0.7914 -0.7010  0.1408
  258TMC3    C5 3908   3.133   3.660  13.663  0.2744 -0.2726 -0.8053
  258TMC3    C6 3909   3.071   3.640  13.540 -0.0678 -0.7241  0.2305
  258TMC3     C 3910   3.162   4.032  13.672  0.3090 -0.3171 -0.4554
  258TMC3     O 3911   3.185   4.037  13.792  0.4631 -0.2314  0.9827
  258TMC3     H 3912   3.030   3.970  13.453 -0.5089  1.7462  1.0225
  258TMC3    H1 3913   3.211   3.807  13.803  2.8233 -0.9018 -0.6103
  258TMC3    H2 3914   3.039   3.541  13.509 -0.8423  0.7079 -3.5311
  258TMC3    C7 3915   3.150   3.548  13.751  0.1167 -0.2882 -0.1069
  258TMC3    C8 3916   2.965   3.719  13.344  0.4550 -0.7617  1.2136
  258TMC3    O1 3917   3.070   3.451  13.753 -0.4480 -0.7222 -0.0552
  258TMC3    O2 3918   2.912   3.605  13.326 -0.0343  0.3870  0.1568
  259MPD2     C 3919   1.487   0.671   1.395  0.1013  0.4133  0.1444
  259MPD2    C1 3920   1.558   0.774   1.340 -0.8453  0.5087  0.2353
  259MPD2    C2 3921   1.661   0.751   1.252  0.7274 -0.2971 -0.1848
  259MPD2    C3 3922   1.702   0.624   1.220 -0.5299 -0.0603 -0.1930
  259MPD2    C4 3923   1.632   0.517   1.271 -0.0125  0.2953 -0.0427
  259MPD2    C5 3924   1.522   0.541   1.354 -0.0129  0.3315  0.5408
  259MPD2     H 3925   1.720   0.834   1.215  1.0251  0.7283  2.5529
  259MPD2    H1 3926   1.653   0.411   1.261  0.5392  0.2494  1.7233
  259MPD2    H2 3927   1.410   0.685   1.470  0.6875  1.7912  0.4820
  259MPD2    H3 3928   1.459   0.458   1.383 -0.1367  0.6467  1.1718
  259MPD2     N 3929   1.823   0.617   1.150  0.0325  0.6803 -0.2825
  259MPD2    H5 3930   1.848   0.684   1.078  1.9337  0.9380  0.6006
  259MPD2    N1 3931   1.518   0.905   1.370  0.1421  0.4686 -0.4603
  259MPD2    H7 3932   1.428   0.903   1.416  0.7604 -0.8697  0.6723
  260TMC3    C1 3933   1.990   0.505   1.051 -0.3888  1.0401 -0.0245
  260TMC3    C2 3934   2.121   0.485   1.088 -0.3654 -0.3665 -0.9706
  260TMC3    C3 3935   2.222   0.513   0.993  0.5969 -0.1039 -0.1357
  260TMC3    C4 3936   1.953   0.559   0.931  0.0680  0.3554  0.6957
  260TMC3    C5 3937   2.054   0.600   0.848  0.8195 -0.0983 -0.0412
  260TMC3    C6 3938   2.191   0.582   0.877  0.5601 -0.5710 -0.3474
  260TMC3     C 3939   1.892   0.499   1.152  0.1256 -1.0357  0.0068
  260TMC3     O 3940   1.898   0.411   1.234 -0.6922 -0.3094  0.1854
  260TMC3     H 3941   2.142   0.435   1.182  1.6016  0.2608 -1.0672
  260TMC3    H1 3942   1.851   0.562   0.895  1.0139  0.9687 -1.9861
  260TMC3    H2 3943   2.267   0.605   0.803 -0.6547  1.5319 -0.9365
  260TMC3    C7 3944   2.025   0.637   0.712 -0.8214  0.3001 -0.3471
  260TMC3    C8 3945   2.360   0.496   1.026 -0.4220 -0.7757  0.3563
  260TMC3    O1 3946   2.108   0.609   0.631 -0.0019  0.0484  0.1354
  260TMC3    O2 3947   2.401   0.504   1.138 -0.2861  0.0308 -0.6090
  261MPD2     C 3948   3.303   4.124  12.309  0.2173 -0.1491  0.0328
  261MPD2    C1 3949   3.369   4.206  12.396  0.3472 -0.3147 -0.8139
  261MPD2    C2 3950   3.430   4.317  12.337 -0.3310  0.3407  0.1178
  261MPD2    C3 3951   3.436   4.331  12.199 -0.6456  0.3074  0.3649
  261MPD2    C4 3952   3.358   4.245  12.116  0.3856 -0.0107  0.1137
  261MPD2    C5 3953   3.293   4.139  12.172 -0.1503 -0.3410  0.4420
  261MPD2     H 3954   3.486   4.386  12.399 -1.1087 -0.2694  1.5111
  261MPD2    H1 3955   3.356   4.264  12.010  1.5527 -0.7502 -0.0441
  261MPD2    H2 3956   3.250   4.034  12.341  2.8543 -1.8397 -0.3736
  261MPD2    H3 3957   3.223   4.080  12.113 -1.7865  2.0473 -0.0094
  261MPD2     N 3958   3.515   4.425  12.131  0.5570 -0.1626  0.6256
  261MPD2    H5 3959   3.536   4.415  12.032 -1.2143 -1.0393  0.3288
  261MPD2    N1 3960   3.392   4.178  12.529 -0.4684 -0.1606  0.4823
  261MPD2    H7 3961   3.440   4.251  12.581  1.9817 -1.7583  0.4354
  262TMC3    C1 3962   3.689   4.576  12.104  0.5496  0.2055  0.7031
  262TMC3    C2 3963   3.718   4.707  12.100  0.2971  0.0406 -0.4642
  262TMC3    C3 3964   3.824   0.015  12.019  0.2909  0.4746 -0.0972
  262TMC3    C4 3965   3.755   4.484  12.023  0.5099 -0.4558  0.3954
  262TMC3    C5 3966   3.860   4.525  11.946 -0.2323 -0.1049  0.2792
  262TMC3    C6 3967   3.896   4.652  11.942  1.0416 -0.5492  0.0330
  262TMC3     C 3968   3.588   4.527  12.186 -0.2532 -0.5201  0.0832
  262TMC3     O 3969   3.578   4.566  12.303 -0.1983 -0.4927 -0.1212
  262TMC3     H 3970   3.676   0.064  12.162 -2.0090 -1.4417 -0.1337
  262TMC3    H1 3971   3.732   4.378  12.023 -1.2538 -0.0741 -2.7832
  262TMC3    H2 3972   3.977   4.695  11.883 -1.7086  0.6034 -2.8754
  262TMC3    C7 3973   3.962   4.432  11.899  0.0148  0.4841 -0.3515
  262TMC3    C8 3974   3.824   0.157  11.975 -0.1286  0.2570 -0.9776
  262TMC3    O1 3975   3.926   4.342  11.819 -0.4127  0.3293  0.1776
  262TMC3    O2 3976   3.913   0.195  11.905  0.3344  0.1561  0.3958
  263MPD2     C 3977   0.246   2.891  11.302 -0.1176  0.3290  0.0261
  263MPD2    C1 3978   0.306   3.007  11.339  0.1458  0.6326  0.5471
  263MPD2    C2 3979   0.297   3.124  11.260 -0.1128  0.1043  0.2283
  263MPD2    C3 3980   0.232   3.121  11.145 -0.0346 -0.0244  0.7940
  263MPD2    C4 3981   0.171   3.003  11.098 -0.0167  0.0615  0.3775
  263MPD2    C5 3982   0.181   2.886  11.176 -0.3681  0.5275  0.6845
  263MPD2     H 3983   0.338   3.218  11.296 -0.9741  0.5813 -0.0200
  263MPD2    H1 3984   0.122   2.999  11.001  1.6008  1.8487 -0.5127
  263MPD2    H2 3985   0.255   2.798  11.357  0.9530 -0.1445 -0.9540
  263MPD2    H3 3986   0.133   2.797  11.136 -0.5789  0.1085  1.8816
  263MPD2     N 3987   0.261   3.232  11.070 -0.3257  0.1350  0.0339
  263MPD2    H5 3988   0.305   3.304  11.126  0.0879  0.1502 -0.3164
  263MPD2    N1 3989   0.379   3.011  11.456 -0.0977 -0.0352  0.8617
  263MPD2    H7 3990   0.396   2.917  11.493 -0.0712 -0.1014  0.6798
  264TMC3    C1 3991   0.288   3.385  10.889 -0.7050  0.1436  0.2617
  264TMC3    C2 3992   0.272   3.494  10.968  0.1634  0.0568 -0.2601
  264TMC3    C3 3993   0.299   3.616  10.921  0.0270 -0.3926 -0.5665
  264TMC3    C4 3994   0.315   3.396  10.759 -0.3084  0.7860  0.4416
  264TMC3    C5 3995   0.347   3.520  10.709 -0.5344 -0.7737 -0.6495
  264TMC3    C6 3996   0.349   3.627  10.793 -0.3766  0.5256  0.6235
  264TMC3     C 3997   0.248   3.252  10.935 -0.7867 -0.2139  0.4423
  264TMC3     O 3998   0.232   3.166  10.846  0.0659  0.2764  0.8262
  264TMC3     H 3999   0.236   3.484  11.070  0.9405 -0.6691 -0.0496
  264TMC3    H1 4000   0.331   3.310  10.695  1.8292  1.0741  0.5840
  264TMC3    H2 4001   0.378   3.725  10.758 -1.7146  0.4622 -0.6597
  264TMC3    C7 4002   0.404   3.521  10.577 -0.0448  0.1993  0.1796
  264TMC3    C8 4003   0.275   3.738  11.001  0.9663 -0.2679  0.2172
  264TMC3    O1 4004   0.477   3.420  10.550 -0.1080  0.7660 -0.0548
  264TMC3    O2 4005   0.255   3.848  10.951 -0.4837 -0.0294  0.6086
  265MPD2     C 4006   1.977   3.750  15.912 -0.4257 -0.0047  0.5012
  265MPD2    C1 4007   1.996   3.856  15.818  0.1046  0.5837 -0.7587
  265MPD2    C2 4008   2.049   3.800  15.696  0.1584 -0.0831 -0.8227
  265MPD2    C3 4009   2.073   3.669  15.669 -0.7145  0.3693  0.5332
  265MPD2    C4 4010   2.062   3.579  15.771 -0.3134 -0.1338 -0.1931
  265MPD2    C5 4011   2.009   3.624  15.892 -0.1735 -0.4914 -0.2667
  265MPD2     H 4012   2.055   3.861  15.607 -1.6194  1.3193  0.0140
  265MPD2    H1 4013   2.075   3.472  15.763  3.3568  0.6312 -4.2176
  265MPD2    H2 4014   1.926   3.765  16.007  0.5697  1.1881  0.8568
  265MPD2    H3 4015   2.007   3.561  15.980 -0.6837  0.7909  0.6434
  265MPD2     N 4016   2.111   3.611  15.551 -0.0882 -0.1424  0.3211
  265MPD2    H5 4017   2.135   3.514  15.566 -1.4193 -0.4740  0.3117
  265MPD2    N1 4018   1.948   3.986  15.823  0.4515  0.6059  0.1043
  265MPD2    H7 4019   1.968   4.038  15.738 -0.6485  0.5548 -0.1844
  266TMC3    C1 4020   1.829   4.164  15.910 -0.2386 -0.5174 -0.6737
  266TMC3    C2 4021   1.793   4.248  16.013 -0.1009 -0.4147 -0.2930
  266TMC3    C3 4022   1.733   4.369  15.990  0.1338  0.0927  0.1155
  266TMC3    C4 4023   1.771   4.187  15.791  0.2350  0.0020  0.9949
  266TMC3    C5 4024   1.701   4.300  15.765 -0.4131  0.1190 -0.6708
  266TMC3    C6 4025   1.685   4.396  15.863  0.1396  0.0791  0.0118
  266TMC3     C 4026   1.882   4.037  15.938 -0.1461  0.2454 -0.6162
  266TMC3     O 4027   1.866   3.986  16.048 -0.0196 -0.7963  0.4189
  266TMC3     H 4028   1.830   4.231  16.113  2.3908  0.6462 -1.0380
  266TMC3    H1 4029   1.783   4.116  15.709 -0.6950 -0.0002  0.8647
  266TMC3    H2 4030   1.614   4.477  15.856 -1.6989 -1.2956  2.4658
  266TMC3    C7 4031   1.661   4.334  15.630  0.6133  0.3468 -0.0186
  266TMC3    C8 4032   1.649   4.414  16.098 -0.1542 -0.1120  0.0302
  266TMC3    O1 4033   1.636   4.245  15.551 -1.5022 -0.3400  0.1629
  266TMC3    O2 4034   1.524   4.405  16.093  0.0318 -0.4734  0.2765
  267MPD2     C 4035   4.635   0.554  17.389 -0.5554  0.1067  0.6167
  267MPD2    C1 4036   4.641   0.692  17.399 -0.6014 -0.0198 -0.0095
  267MPD2    C2 4037   4.571   0.765  17.300  0.4217  0.1212  0.1198
  267MPD2    C3 4038   4.495   0.708  17.199  0.4429  0.2923  0.7514
  267MPD2    C4 4039   4.496   0.573  17.192  0.6885 -0.0909 -0.3574
  267MPD2    C5 4040   4.561   0.493  17.286 -0.7132  0.1444 -0.1118
  267MPD2     H 4041   4.570   0.874  17.308 -0.7995  0.2704 -2.1961
  267MPD2    H1 4042   4.440   0.529  17.109  0.4257 -0.5977  0.0885
  267MPD2    H2 4043   4.679   0.488  17.463 -0.2424 -0.2659  0.0966
  267MPD2    H3 4044   4.561   0.385  17.279 -1.1724  0.0511  1.3356
  267MPD2     N 4045   4.406   0.775  17.107 -0.1573 -0.9152 -0.5286
  267MPD2    H5 4046   4.356   0.712  17.045 -0.5663  2.6229 -3.7685
  267MPD2    N1 4047   0.002   0.756  17.490 -0.0145 -0.0869  0.2043
  267MPD2    H7 4048   0.044   0.699  17.563  1.5855 -1.6279 -1.8897
  268TMC3    C1 4049   0.148   0.911  17.594 -0.1013  0.3882  0.1250
  268TMC3    C2 4050   0.245   0.992  17.540 -0.6141 -0.6563 -0.3783
  268TMC3    C3 4051   0.283   1.090  17.626  0.4833  0.1550 -0.1835
  268TMC3    C4 4052   0.096   0.924   0.028  0.4253 -0.0433 -0.3533
  268TMC3    C5 4053   0.151   1.012   0.110 -0.2656 -0.4918 -0.8975
  268TMC3    C6 4054   0.235   1.104   0.067 -0.2043 -0.3441 -0.1243
  268TMC3     C 4055   0.049   0.887  17.488  0.3750  0.1575 -0.7000
  268TMC3     O 4056   0.056   0.962  17.390 -0.0027 -0.1021 -0.0738
  268TMC3     H 4057   0.288   0.981  17.441 -1.3237 -1.8061 -0.5583
  268TMC3    H1 4058   0.029   0.850   0.069  2.1091 -1.0998  0.5080
  268TMC3    H2 4059   0.265   1.192   0.122 -0.5258 -0.8325  0.8196
  268TMC3    C7 4060   0.052   1.057   0.204  0.1338 -0.0839  0.5043
  268TMC3    C8 4061   0.337   1.206  17.556 -0.1581 -0.4015  0.2532
  268TMC3    O1 4062   4.714   1.165   0.195 -0.3030 -0.2823  0.0450
  268TMC3    O2 4063   0.421   1.271  17.618 -0.3870 -0.0368  0.7037
  269MPD2     C 4064   4.510   4.333  15.815  0.2349 -0.4894 -0.1941
  269MPD2    C1 4065   4.388   4.353  15.853  0.0890  0.0115  0.4296
  269MPD2    C2 4066   4.350   4.468  15.914  0.1841  0.1315 -0.1891
  269MPD2    C3 4067   4.433   4.582  15.926  0.8003 -0.0687 -0.1712
  269MPD2    C4 4068   4.559   4.559  15.869 -0.6526 -0.2242  0.1968
  269MPD2    C5 4069   4.600   4.433  15.824  0.0040 -0.1227  0.1731
  269MPD2     H 4070   4.250   4.474  15.955 -0.0519  2.1514 -1.0931
  269MPD2    H1 4071   4.633   4.638  15.865 -0.1858 -0.8232 -2.7075
  269MPD2    H2 4072   4.545   4.233  15.791 -0.6636 -1.0791  0.8921
  269MPD2    H3 4073   4.703   4.424  15.793  0.2635  2.3961  0.2520
  269MPD2     N 4074   4.379   4.705  15.971  0.1779  0.0189  0.3014
  269MPD2    H5 4075   4.281   4.707  15.994  0.0576 -1.1525 -0.1053
  269MPD2    N1 4076   4.307   4.238  15.843 -0.0099 -0.2453 -0.0122
  269MPD2    H7 4077   4.347   4.152  15.806 -0.0826  0.0876 -0.8604
  270TMC3    C1 4078   4.131   4.094  15.868 -0.3946  0.3554  0.2607
  270TMC3    C2 4079   4.047   4.062  15.778 -0.3818  0.5319 -0.2316
  270TMC3    C3 4080   4.017   3.929  15.759  0.1501  0.0341 -0.2818
  270TMC3    C4 4081   4.196   4.004  15.946  0.1534 -0.5298 -0.1945
  270TMC3    C5 4082   4.179   3.871  15.919  0.3485 -0.2455  0.0161
  270TMC3    C6 4083   4.080   3.834  15.832  0.4395  0.4159  0.2278
  270TMC3     C 4084   4.175   4.233  15.875  0.7811  0.1062  0.3920
  270TMC3     O 4085   4.098   4.323  15.899 -0.2736 -0.0431  0.4856
  270TMC3     H 4086   3.998   4.141  15.723  0.6984  0.5755 -1.1150
  270TMC3    H1 4087   4.271   4.036  16.017 -2.3912  0.9971  1.8463
  270TMC3    H2 4088   4.052   3.730  15.817  0.2117  0.6280 -0.7768
  270TMC3    C7 4089   4.285   3.783  15.944  0.5593  0.1255  0.2620
  270TMC3    C8 4090   3.991   3.903  15.621  0.1868  0.4666  0.2756
  270TMC3    O1 4091   4.398   3.834  15.962 -0.1593 -0.4966 -0.0582
  270TMC3    O2 4092   4.045   3.991  15.551 -0.0645 -0.5327 -0.2809
  271MPD2     C 4093   3.648   4.393  14.189 -0.6895 -0.4239  0.0629
  271MPD2    C1 4094   3.576   4.290  14.256  0.0229 -0.0417 -0.0196
  271MPD2    C2 4095   3.440   4.289  14.253  0.9235  0.3669 -0.3311
  271MPD2    C3 4096   3.368   4.388  14.188 -0.2908 -0.4132  0.2632
  271MPD2    C4 4097   3.441   4.486  14.122 -0.4110 -0.4918 -0.2677
  271MPD2    C5 4098   3.583   4.488  14.120 -0.4882  0.2870 -0.1966
  271MPD2     H 4099   3.390   4.215  14.313  0.9165 -0.0938 -0.9001
  271MPD2    H1 4100   3.400   4.567  14.063  1.8143  1.3792  0.7496
  271MPD2    H2 4101   3.756   4.395  14.185 -0.7210  0.4465 -0.2162
  271MPD2    H3 4102   3.643   4.551  14.056 -1.6300 -0.5264 -2.0559
  271MPD2     N 4103   3.229   4.400  14.187  1.0450 -0.2464  0.0361
  271MPD2    H5 4104   3.190   4.478  14.136  1.4080 -0.1646 -0.1149
  271MPD2    N1 4105   3.638   4.187  14.332  0.6064 -0.1601  0.0947
  271MPD2    H7 4106   3.572   4.122  14.372  1.1160 -0.2294  0.8146
  272TMC3    C1 4107   3.817   4.064  14.431  1.0493 -0.4471 -0.4162
  272TMC3    C2 4108   3.925   3.997  14.390  0.0106  0.3880  0.0125
  272TMC3    C3 4109   3.987   3.905  14.469  0.7132  0.2974 -0.0808
  272TMC3    C4 4110   3.753   4.044  14.550  0.0060 -0.1670 -0.4902
  272TMC3    C5 4111   3.823   3.962  14.632  0.6677  0.0179 -0.0119
  272TMC3    C6 4112   3.938   3.894  14.597  0.2489  0.1593 -0.3829
  272TMC3     C 4113   3.775   4.169  14.347  0.3325 -0.2597 -0.1674
  272TMC3     O 4114   3.870   4.240  14.307 -0.1091  0.5613  0.2888
  272TMC3     H 4115   3.953   4.012  14.287 -2.8269  0.3895 -0.7523
  272TMC3    H1 4116   3.678   4.111  14.589 -0.1799 -0.8464  0.3292
  272TMC3    H2 4117   3.991   3.832  14.670  1.2114  0.9678 -0.3840
  272TMC3    C7 4118   3.783   3.964  14.767  0.0867  0.7946  0.0338
  272TMC3    C8 4119   4.116   3.854  14.417 -0.3791  0.0051  0.0778
  272TMC3    O1 4120   3.665   3.994  14.778 -0.2483 -0.1956  0.8633
  272TMC3    O2 4121   4.146   3.884  14.305  0.4542 -0.3189  0.0497
  273MPD2     C 4122   0.894   2.678  11.920  0.1813  0.3865 -0.3291
  273MPD2    C1 4123   1.028   2.639  11.899 -0.0564  0.0179  0.4990
  273MPD2    C2 4124   1.046   2.536  11.812 -0.0259  0.2428 -0.7785
  273MPD2    C3 4125   0.944   2.473  11.734  0.5274  0.3122 -0.7515
  273MPD2    C4 4126   0.820   2.523  11.754 -0.0803  0.0676  0.1941
  273MPD2    C5 4127   0.800   2.620  11.850 -0.3376 -0.2512 -0.2601
  273MPD2     H 4128   1.148   2.509  11.788 -0.1793 -1.4699  0.4815
  273MPD2    H1 4129   0.737   2.483  11.697  0.2516 -1.3023  0.6658
  273MPD2    H2 4130   0.858   2.760  11.981 -2.2438 -1.2049  0.3736
  273MPD2    H3 4131   0.704   2.668  11.865 -0.2526 -0.7135  1.7946
  273MPD2     N 4132   0.975   2.382  11.627  0.0800 -0.4935  0.4274
  273MPD2    H5 4133   0.897   2.360  11.565 -0.6605  1.2317  0.7585
  273MPD2    N1 4134   1.131   2.705  11.970 -0.0647 -0.9146 -1.3507
  273MPD2    H7 4135   1.104   2.779  12.034  1.8759 -1.7468  0.4618
  274TMC3    C1 4136   1.122   2.280  11.480 -0.3502  0.8351  0.3036
  274TMC3    C2 4137   1.028   2.233  11.392  0.0774  0.3598  0.3783
  274TMC3    C3 4138   1.022   2.285  11.269 -1.1406 -0.4377  0.3453
  274TMC3    C4 4139   1.215   2.373  11.430 -0.2323 -0.5528  0.7159
  274TMC3    C5 4140   1.203   2.428  11.299 -0.9593 -0.1742 -0.7333
  274TMC3    C6 4141   1.112   2.373  11.217  0.7099  0.0071  0.3752
  274TMC3     C 4142   1.090   2.304  11.612 -1.2002 -0.1658  0.5552
  274TMC3     O 4143   1.184   2.302  11.692  0.6731  0.0916 -0.2569
  274TMC3     H 4144   0.951   2.169  11.433 -0.0081  0.0707 -0.2377
  274TMC3    H1 4145   1.284   2.410  11.505 -0.6603  0.4607  0.6035
  274TMC3    H2 4146   1.090   2.428  11.126  2.5144  1.0360  0.5629
  274TMC3    C7 4147   1.188   2.575  11.305  0.2799 -0.5146  0.4102
  274TMC3    C8 4148   0.902   2.248  11.190  0.0631 -0.1509 -0.0114
  274TMC3    O1 4149   1.102   2.631  11.232 -0.2401  0.3792  0.1385
  274TMC3    O2 4150   0.807   2.190  11.251  0.2343  0.7707 -0.3415
  275MPD2     C 4151   0.524   0.370  14.445 -0.0922 -0.3651 -0.2751
  275MPD2    C1 4152   0.511   0.332  14.577  0.7817 -0.4145  0.1913
  275MPD2    C2 4153   0.422   0.233  14.612 -0.8097  0.5212 -0.4016
  275MPD2    C3 4154   0.345   0.174  14.516 -0.0384 -0.3131  0.3201
  275MPD2    C4 4155   0.365   0.204  14.382  0.0312 -0.9379 -0.2257
  275MPD2    C5 4156   0.455   0.299  14.348  0.2539  0.1711 -0.2506
  275MPD2     H 4157   0.398   0.196  14.711  1.3242  0.9172  0.2539
  275MPD2    H1 4158   0.315   0.156  14.299 -0.2416 -1.9817  0.5400
  275MPD2    H2 4159   0.595   0.446  14.415  0.2593 -0.1456  1.1085
  275MPD2    H3 4160   0.466   0.319  14.242 -0.9980 -0.0147 -0.4089
  275MPD2     N 4161   0.230   0.093  14.552 -0.2267 -0.1436 -0.0899
  275MPD2    H5 4162   0.184   0.046  14.475  2.1665 -0.6496 -1.1997
  275MPD2    N1 4163   0.562   0.404  14.684  0.5964 -0.1000 -0.1268
  275MPD2    H7 4164   0.524   0.381  14.775 -0.2311  2.1688  0.0923
  276TMC3    C1 4165   0.688   0.563  14.810 -0.3865 -0.5969  0.6543
  276TMC3    C2 4166   0.584   0.564  14.906  0.3914  1.0337 -1.0994
  276TMC3    C3 4167   0.621   0.600  15.035 -0.1733  0.4256  0.6959
  276TMC3    C4 4168   0.812   0.599  14.843  0.2672  0.2747 -0.1397
  276TMC3    C5 4169   0.843   0.632  14.975 -0.0720 -0.0491 -0.4620
  276TMC3    C6 4170   0.750   0.619  15.076 -0.2344  0.1293 -0.1421
  276TMC3     C 4171   0.662   0.501  14.679 -0.2566 -0.1564 -0.1949
  276TMC3     O 4172   0.736   0.542  14.590 -0.4633 -0.2703  0.2057
  276TMC3     H 4173   0.481   0.535  14.884  0.3240  2.0794 -2.1591
  276TMC3    H1 4174   0.891   0.610  14.770  1.4369  0.0983  1.0877
  276TMC3    H2 4175   0.774   0.622  15.182 -2.2638  0.6771  0.2904
  276TMC3    C7 4176   0.966   0.682  15.024 -0.6024 -0.2042  1.0444
  276TMC3    C8 4177   0.534   0.527  15.133 -0.0138 -0.9054  0.3517
  276TMC3    O1 4178   0.986   0.658  15.143 -0.1638  0.8197 -0.1256
  276TMC3    O2 4179   0.416   0.562  15.133  0.1185  0.3747  0.1796
  277MPD2     C 4180   2.391   4.125  13.192 -0.2719 -0.3174 -1.0935
  277MPD2    C1 4181   2.274   4.150  13.260  0.2293 -0.1523  0.6247
  277MPD2    C2 4182   2.253   4.090  13.387  0.3882  0.0377  0.0092
  277MPD2    C3 4183   2.350   4.007  13.434  0.1531 -0.4794 -0.8720
  277MPD2    C4 4184   2.461   3.968  13.357 -0.3938 -0.0317  0.1462
  277MPD2    C5 4185   2.481   4.037  13.241 -0.5742  0.1180  0.2000
  277MPD2     H 4186   2.167   4.101  13.452 -0.3135  0.0257 -0.9312
  277MPD2    H1 4187   2.547   3.906  13.380 -1.0465 -0.6840  0.8354
  277MPD2    H2 4188   2.428   4.184  13.108  1.6471  0.7762  0.5157
  277MPD2    H3 4189   2.571   4.017  13.184 -1.6900 -2.1182 -0.7845
  277MPD2     N 4190   2.334   3.948  13.563  0.1503  0.9204  1.1798
  277MPD2    H5 4191   2.243   3.968  13.605  1.1759  3.4240  2.1713
  277MPD2    N1 4192   2.181   4.233  13.201 -0.1472 -0.2794 -0.3749
  277MPD2    H7 4193   2.210   4.265  13.110  0.5272  0.0640 -0.0376
  278TMC3    C1 4194   2.354   3.806  13.748 -0.2129 -0.4675 -0.2273
  278TMC3    C2 4195   2.379   3.676  13.770 -0.3103  0.2929  0.4050
  278TMC3    C3 4196   2.317   3.617  13.877 -0.6111 -0.0216 -0.2940
  278TMC3    C4 4197   2.267   3.887  13.820  0.6076 -0.3001  0.0958
  278TMC3    C5 4198   2.207   3.825  13.929  0.0124  0.0336 -0.4118
  278TMC3    C6 4199   2.231   3.688  13.958 -0.5931 -0.8490  0.4586
  278TMC3     C 4200   2.420   3.855  13.625 -0.1387 -0.5465 -0.5385
  278TMC3     O 4201   2.528   3.809  13.600  1.1175 -0.3792  0.2969
  278TMC3     H 4202   2.452   3.619  13.713 -0.8313 -2.0796  2.0665
  278TMC3    H1 4203   2.258   3.995  13.821  1.9145 -0.1764 -0.5018
  278TMC3    H2 4204   2.175   3.637  14.035 -0.0634  1.4268  2.3529
  278TMC3    C7 4205   2.127   3.896  14.022 -0.1722 -0.3465  0.0732
  278TMC3    C8 4206   2.294   3.478  13.868  0.0968 -0.6838 -0.7654
  278TMC3    O1 4207   2.178   3.998  14.067  0.5010  0.3667 -0.7462
  278TMC3    O2 4208   2.286   3.408  13.969  0.0683 -0.2060 -0.0961
  279MPD2     C 4209   1.230   0.359   0.510 -0.2341 -0.6832  0.1805
  279MPD2    C1 4210   1.281   0.233   0.522 -0.3118 -0.5653  0.2814
  279MPD2    C2 4211   1.328   0.171   0.405 -0.4902  0.3699  0.6067
  279MPD2    C3 4212   1.312   0.226   0.282  0.5262 -0.0175  0.0149
  279MPD2    C4 4213   1.274   0.355   0.281  0.2841  0.8158 -0.3330
  279MPD2    C5 4214   1.243   0.423   0.390 -0.0487 -0.4220 -0.0595
  279MPD2     H 4215   1.354   0.066   0.407  1.0850  0.7396 -1.0244
  279MPD2    H1 4216   1.284   0.410   0.189 -0.1548 -0.0876 -0.9270
  279MPD2    H2 4217   1.184   0.411   0.593 -1.7725 -0.3368 -0.9010
  279MPD2    H3 4218   1.221   0.528   0.375 -0.7330 -0.2347  2.2823
  279MPD2     N 4219   1.329   0.162   0.161 -0.0689 -0.4493 -0.1808
  279MPD2    H5 4220   1.325   0.228   0.085 -0.5400 -0.2119  0.0504
  279MPD2    N1 4221   1.261   0.167   0.644  0.3711  0.5885 -0.2422
  279MPD2    H7 4222   1.211   0.216   0.717 -0.1027  1.4568 -1.1543
  280TMC3    C1 4223   1.176   4.711   0.776 -0.3511 -0.3100 -0.0507
  280TMC3    C2 4224   1.129   4.583   0.764  0.1955  0.4654  0.0577
  280TMC3    C3 4225   0.997   4.559   0.791 -0.4688 -0.0282  0.8507
  280TMC3    C4 4226   1.091   0.089   0.826  0.5977 -0.6419  0.3214
  280TMC3    C5 4227   0.965   0.053   0.866 -0.0467  0.4219 -0.0199
  280TMC3    C6 4228   0.911   4.655   0.830 -0.7275 -0.2983 -0.2924
  280TMC3     C 4229   1.258   0.032   0.657 -0.4538 -0.5988  0.3235
  280TMC3     O 4230   1.292   4.658   0.582  0.4094 -0.2186  0.0555
  280TMC3     H 4231   1.190   4.515   0.706  0.2244  0.1821  0.4200
  280TMC3    H1 4232   1.116   0.192   0.847 -2.5087  0.0216  0.8280
  280TMC3    H2 4233   0.814   4.622   0.866 -1.2661  1.3995 -0.2250
  280TMC3    C7 4234   0.873   0.167   0.869  0.5231  0.0189 -0.7249
  280TMC3    C8 4235   0.967   4.419   0.820 -1.0070 -0.1714  0.0215
  280TMC3    O1 4236   0.895   0.253   0.948  0.4303 -0.1169  0.3645
  280TMC3    O2 4237   0.846   4.392   0.816  0.0071 -0.1403 -0.2201
  281TMC3    C1 4238   0.019   4.030  12.905 -0.4540  0.4912  0.0298
  281TMC3    C2 4239   4.670   4.093  12.810  0.2567  0.7647  0.3546
  281TMC3    C3 4240   4.542   4.062  12.796 -0.0657 -0.0876 -0.5019
  281TMC3    C4 4241   4.682   3.938  12.992 -0.3295  0.0094  0.3035
  281TMC3    C5 4242   4.552   3.897  12.968  0.5116 -0.0237 -0.4357
  281TMC3    C6 4243   4.478   3.966  12.874 -0.4751  0.1110  0.3964
  281TMC3     C 4244   0.129   4.100  12.971 -0.1232 -0.0419  0.1791
  281TMC3     O 4245   0.194   4.036  13.049  0.4286 -0.6888  0.3965
  281TMC3     H 4246   0.005   4.153  12.740  1.7545 -1.9380 -0.7484
  281TMC3    H1 4247   0.017   3.894  13.073  0.6018  2.3284  0.8964
  281TMC3    H2 4248   4.375   3.936  12.857 -0.6780 -0.0532  1.9196
  281TMC3    C7 4249   4.474   3.816  13.054 -0.5778 -0.7908  0.0119
  281TMC3    C8 4250   4.460   4.184  12.777  0.1174 -0.0652 -0.1452
  281TMC3    O1 4251   4.367   3.779  13.005  0.4002 -0.0802  0.6317
  281TMC3    O2 4252   4.515   4.290  12.756  0.1613  0.2027  0.2706
  282MPD2     C 4253   2.070   1.211  15.436  1.0776 -0.5019  0.3443
  282MPD2    C1 4254   1.955   1.284  15.463  0.8708 -0.3498 -0.2672
  282MPD2    C2 4255   1.870   1.321  15.360 -0.4229  0.1431 -0.0738
  282MPD2    C3 4256   1.889   1.268  15.235  0.1014  0.0366 -0.3949
  282MPD2    C4 4257   2.004   1.191  15.211  0.4632  0.0570 -0.3608
  282MPD2    C5 4258   2.095   1.167  15.307 -0.3062  0.3333 -0.3780
  282MPD2     H 4259   1.782   1.380  15.383 -0.6762 -0.6511  0.9723
  282MPD2    H1 4260   2.034   1.146  15.117  2.2263 -0.5604  0.4975
  282MPD2    H2 4261   2.140   1.179  15.513  0.7253  0.0112  0.8768
  282MPD2    H3 4262   2.182   1.110  15.274  0.0655 -1.1077  3.1666
  282MPD2     N 4263   1.793   1.285  15.132 -0.3111  0.1712  0.0295
  282MPD2    H5 4264   1.713   1.342  15.156 -0.9561  0.3249 -2.4530
  282MPD2    N1 4265   1.917   1.331  15.596 -0.5390 -0.0408  0.1402
  282MPD2    H7 4266   1.839   1.395  15.608  0.3077  1.1424 -0.6384
  283TMC3    C1 4267   1.895   1.352  15.832  0.2159  0.3926  0.0094
  283TMC3    C2 4268   1.878   1.480  15.851 -0.3235  0.0075  0.2215
  283TMC3    C3 4269   1.803   1.525  15.956  0.1004 -0.0992  0.3091
  283TMC3    C4 4270   1.830   1.262  15.905  0.5655 -0.6934  0.0994
  283TMC3    C5 4271   1.749   1.299  16.004 -0.4024  0.2956  0.0747
  283TMC3    C6 4272   1.728   1.435  16.028  0.1732 -0.5837 -0.5608
  283TMC3     C 4273   1.977   1.300  15.718 -0.1306 -0.7634 -0.6361
  283TMC3     O 4274   2.059   1.212  15.747  0.3282 -0.2941 -0.1528
  283TMC3     H 4275   1.943   1.547  15.795  1.9413 -2.3754 -0.0412
  283TMC3    H1 4276   1.849   1.157  15.887  1.3246 -0.2686 -1.5195
  283TMC3    H2 4277   1.641   1.463  16.087 -1.6427 -2.3539 -2.4104
  283TMC3    C7 4278   1.654   1.199  16.046  0.4100 -0.8111 -0.0339
  283TMC3    C8 4279   1.798   1.664  15.997  0.6106 -0.3017  0.2425
  283TMC3    O1 4280   1.568   1.249  16.118  0.3724  0.5319 -0.3088
  283TMC3    O2 4281   1.754   1.687  16.109 -0.0656  0.2103  0.4552
  284MPD2     C 4282   0.346   0.706  11.561 -0.3801 -0.3253 -0.3071
  284MPD2    C1 4283   0.388   0.621  11.466 -0.1650  0.4600 -0.3896
  284MPD2    C2 4284   0.460   0.508  11.496  0.2579  0.0070 -0.5838
  284MPD2    C3 4285   0.469   0.464  11.628  0.0768 -0.3830 -0.2182
  284MPD2    C4 4286   0.424   0.547  11.727 -0.0376  0.1234 -0.1063
  284MPD2    C5 4287   0.374   0.673  11.688 -0.1627  0.2224  0.0409
  284MPD2     H 4288   0.500   0.445  11.418  0.5711  0.3029 -0.6600
  284MPD2    H1 4289   0.436   0.519  11.831  1.9495 -0.6394 -0.5415
  284MPD2    H2 4290   0.296   0.798  11.536  0.5385  0.9203  2.4477
  284MPD2    H3 4291   0.322   0.735  11.760 -1.7097 -2.2475  1.0308
  284MPD2     N 4292   0.548   0.346  11.649  0.0729 -0.0309 -0.3970
  284MPD2    H5 4293   0.584   0.297  11.567  0.9173 -0.7239  0.3913
  284MPD2    N1 4294   0.381   0.645  11.330  0.8908  0.6944  0.1643
  284MPD2    H7 4295   0.408   0.570  11.267  2.6036  1.2001  0.2892
  285TMC3    C1 4296   0.402   0.755  11.132  0.3077  0.0132 -0.3173
  285TMC3    C2 4297   0.422   0.622  11.099 -0.4211  0.4500  0.3877
  285TMC3    C3 4298   0.535   0.586  11.031  0.2869  0.0303 -0.5324
  285TMC3    C4 4299   0.499   0.846  11.113 -0.0072  1.2686 -0.5155
  285TMC3    C5 4300   0.615   0.800  11.051 -0.1270 -0.4076 -1.0665
  285TMC3    C6 4301   0.639   0.668  11.010 -0.1849 -0.1339 -0.0252
  285TMC3     C 4302   0.346   0.768  11.265  0.5340  0.1315  0.2854
  285TMC3     O 4303   0.314   0.878  11.302  0.2012  0.5527  0.0104
  285TMC3     H 4304   0.331   0.562  11.100  0.9830 -1.6811  0.0268
  285TMC3    H1 4305   0.491   0.943  11.160  1.4193  0.8678  0.5725
  285TMC3    H2 4306   0.735   0.638  10.970 -0.5250  1.0149 -1.6939
  285TMC3    C7 4307   0.735   0.865  11.106 -0.2641 -0.1173 -0.1670
  285TMC3    C8 4308   0.554   0.443  11.031 -0.2665 -0.1463 -0.2196
  285TMC3    O1 4309   0.731   0.983  11.131 -0.3255 -0.1356 -0.4382
  285TMC3    O2 4310   0.486   0.374  11.108 -0.1294  0.0171  0.3432
  286MPD2     C 4311   0.537   4.166   1.698 -0.0599 -0.1919  0.4193
  286MPD2    C1 4312   0.449   4.127   1.599 -0.6747  0.1156 -0.8719
  286MPD2    C2 4313   0.454   3.995   1.548 -0.9035  0.0035 -0.7303
  286MPD2    C3 4314   0.548   3.905   1.597 -0.7825  0.6910 -0.3488
  286MPD2    C4 4315   0.634   3.953   1.695 -0.1406  0.0304  0.2718
  286MPD2    C5 4316   0.632   4.080   1.744 -0.4544  0.2270  0.0849
  286MPD2     H 4317   0.379   3.960   1.478 -0.8623  0.4547 -1.0006
  286MPD2    H1 4318   0.714   3.885   1.719  1.1735  0.9559 -1.5101
  286MPD2    H2 4319   0.532   4.262   1.749 -0.2900 -0.6714  1.3024
  286MPD2    H3 4320   0.707   4.103   1.819 -0.4392  2.3223 -0.5859
  286MPD2     N 4321   0.573   3.775   1.547  0.0280 -0.4274 -0.0392
  286MPD2    H5 4322   0.623   3.719   1.616  0.9895  0.4509 -0.0240
  286MPD2    N1 4323   0.348   4.216   1.550 -0.3278  0.3387 -0.1645
  286MPD2    H7 4324   0.306   4.189   1.461 -0.3644  1.2786 -0.4364
  287TMC3    C1 4325   0.571   3.585   1.414 -0.0007 -0.3472 -0.2877
  287TMC3    C2 4326   0.512   3.509   1.315  0.0968 -0.1658  0.2072
  287TMC3    C3 4327   0.565   3.380   1.299 -0.5668 -0.5224  0.5108
  287TMC3    C4 4328   0.671   3.532   1.495 -0.1097  0.2886  0.4848
  287TMC3    C5 4329   0.706   3.401   1.474  0.0651  0.0561 -0.1681
  287TMC3    C6 4330   0.670   3.328   1.367 -0.1085 -0.4403 -0.1393
  287TMC3     C 4331   0.522   3.719   1.432  0.2306  0.7228 -0.1303
  287TMC3     O 4332   0.443   3.766   1.351  0.2258  0.2208 -0.2973
  287TMC3     H 4333   0.414   3.527   1.273 -0.2104  1.3496  1.5828
  287TMC3    H1 4334   0.723   3.592   1.569  0.3252  0.1106  0.3198
  287TMC3    H2 4335   0.709   3.229   1.343  3.9986  1.1063  0.2612
  287TMC3    C7 4336   0.834   3.360   1.551 -0.5846 -0.1063  0.1877
  287TMC3    C8 4337   0.542   3.311   1.172 -0.2147 -0.8859 -0.0308
  287TMC3    O1 4338   0.842   3.386   1.673  0.2202  0.4136  0.0167
  287TMC3    O2 4339   0.550   3.188   1.170  0.6187  0.1950  0.1372
  288TMC3    C1 4340   2.718   3.783  14.654 -0.0388  0.1378  0.2490
  288TMC3    C2 4341   2.588   3.798  14.693 -0.1987  0.3484 -0.3262
  288TMC3    C3 4342   2.526   3.917  14.680  0.1748 -0.3094 -0.3115
  288TMC3    C4 4343   2.791   3.889  14.612  0.6725 -0.0663 -0.2373
  288TMC3    C5 4344   2.734   4.011  14.599 -0.5124 -0.6232 -0.9125
  288TMC3    C6 4345   2.600   4.025  14.624 -0.4224 -0.1785  0.2973
  288TMC3     C 4346   2.771   3.652  14.634 -0.2065 -0.0324 -0.9078
  288TMC3     O 4347   2.710   3.551  14.670 -0.1282 -0.2562 -0.3198
  288TMC3     H 4348   2.549   3.715  14.751 -2.8201  2.5659  1.0728
  288TMC3    H1 4349   2.896   3.888  14.586  1.3249  2.2858  2.4247
  288TMC3    H2 4350   2.544   4.114  14.600 -0.1739 -0.3084 -0.7716
  288TMC3    C7 4351   2.824   4.127  14.598 -0.3968 -0.2480 -0.4406
  288TMC3    C8 4352   2.402   3.938  14.759  0.4318  0.2767 -0.7923
  288TMC3    O1 4353   2.943   4.116  14.624 -0.0930  0.2855  0.1613
  288TMC3    O2 4354   2.358   4.053  14.754 -0.2650  0.2062  0.4726
  289MPD2     C 4355   2.990   2.701  14.513  0.3440 -0.3566  0.2990
  289MPD2    C1 4356   2.904   2.782  14.589  0.2532 -0.3039 -0.0097
  289MPD2    C2 4357   2.795   2.829  14.527  0.5462 -0.0468 -0.3191
  289MPD2    C3 4358   2.760   2.793  14.395 -0.8579 -0.0246  0.2951
  289MPD2    C4 4359   2.845   2.711  14.320  0.1480 -0.0956  0.0545
  289MPD2    C5 4360   2.958   2.668  14.385 -0.2518 -0.7802  0.0233
  289MPD2     H 4361   2.719   2.893  14.571 -0.1441 -1.1457  0.1054
  289MPD2    H1 4362   2.810   2.694  14.219  2.4314 -0.2170 -0.7260
  289MPD2    H2 4363   3.091   2.676  14.541  0.7504  2.6058  1.3998
  289MPD2    H3 4364   3.036   2.610  14.335 -1.0984 -1.8937 -0.0185
  289MPD2     N 4365   2.643   2.832  14.325  0.3679 -0.1659  0.1303
  289MPD2    H5 4366   2.625   2.789  14.235 -1.3443  0.7037  0.0638
  289MPD2    N1 4367   2.937   2.797  14.724  0.0240 -0.6162 -0.0571
  289MPD2    H7 4368   3.019   2.747  14.757  0.7850 -0.0362 -1.1027
  290TMC3    C1 4369   2.430   2.917  14.273 -0.0263 -0.1680 -0.3850
  290TMC3    C2 4370   2.349   3.027  14.267  0.1394 -0.6878 -1.1912
  290TMC3    C3 4371   2.256   3.036  14.170 -0.7563 -0.1492  0.2602
  290TMC3    C4 4372   2.401   2.798  14.213  0.2301 -0.5601  0.4189
  290TMC3    C5 4373   2.300   2.810  14.114  0.7932  0.7711  0.7549
  290TMC3    C6 4374   2.237   2.928  14.083 -0.0448 -0.1197 -0.4195
  290TMC3     C 4375   2.547   2.924  14.362 -0.6194  0.2555 -0.1245
  290TMC3     O 4376   2.569   3.007  14.454  0.3676  0.5230  0.2906
  290TMC3     H 4377   2.393   3.122  14.294  0.1022 -1.0991  0.3309
  290TMC3    H1 4378   2.462   2.709  14.228  2.0757  0.8278  1.1473
  290TMC3    H2 4379   2.158   2.947  14.012  0.3623 -2.5618 -1.5250
  290TMC3    C7 4380   2.233   2.691  14.070  0.1666  0.1143 -0.4326
  290TMC3    C8 4381   2.152   3.139  14.167 -0.1136 -0.0615 -0.6217
  290TMC3    O1 4382   2.137   2.706  13.996 -0.0462  0.0140 -0.9616
  290TMC3    O2 4383   2.059   3.119  14.089 -0.5260  0.6166 -0.0085
  291MPD2     C 4384   1.522   3.052   0.112 -0.3225  0.0829 -0.7209
  291MPD2    C1 4385   1.447   3.016   0.217 -0.2469 -0.4059 -0.0399
  291MPD2    C2 4386   1.423   3.111   0.311 -0.7252 -1.2106 -0.3143
  291MPD2    C3 4387   1.456   3.246   0.294 -0.1242 -0.8241 -0.4058
  291MPD2    C4 4388   1.521   3.278   0.177 -0.3462  0.6367  0.5728
  291MPD2    C5 4389   1.555   3.181   0.093  0.3051 -0.7919  0.3586
  291MPD2     H 4390   1.358   3.082   0.392 -0.5115 -0.0375  0.2798
  291MPD2    H1 4391   1.557   3.379   0.167 -1.9406  0.9849 -1.7139
  291MPD2    H2 4392   1.544   2.977   0.038 -2.0738  0.3923 -1.5495
  291MPD2    H3 4393   1.604   3.206  17.689  0.3280  0.8201  0.8125
  291MPD2     N 4394   1.409   3.350   0.378 -0.2440 -0.4940 -0.4350
  291MPD2    H5 4395   1.413   3.448   0.354  1.0738 -0.3122  0.5080
  291MPD2    N1 4396   1.410   2.879   0.235 -0.5801  0.4182  0.1604
  291MPD2    H7 4397   1.347   2.865   0.313  0.2069 -0.9564  0.5525
  292TMC3    C1 4398   1.368   2.652   0.216  0.0138 -0.6541 -0.5362
  292TMC3    C2 4399   1.328   2.651   0.351  0.1858  0.5561  0.3417
  292TMC3    C3 4400   1.249   2.545   0.398  0.4459  0.9332  0.4768
  292TMC3    C4 4401   1.306   2.569   0.132  0.3506 -0.1260  0.3008
  292TMC3    C5 4402   1.205   2.488   0.179  0.0412  0.3381 -0.1710
  292TMC3    C6 4403   1.178   2.470   0.310  0.0427  0.6817  0.1894
  292TMC3     C 4404   1.439   2.764   0.160  0.0405  0.4799  0.0248
  292TMC3     O 4405   1.512   2.755   0.058  0.0796 -0.1023 -0.0505
  292TMC3     H 4406   1.381   2.704   0.430 -1.7259 -0.6731  2.4554
  292TMC3    H1 4407   1.330   2.556   0.027 -1.3306 -0.1281 -0.0801
  292TMC3    H2 4408   1.111   2.389   0.336 -1.3461  1.2732 -1.5961
  292TMC3    C7 4409   1.174   2.373   0.095  0.2747 -0.0167 -0.8449
  292TMC3    C8 4410   1.225   2.549   0.542  0.1786 -0.1525  0.7764
  292TMC3    O1 4411   1.267   2.325   0.036  0.3642  0.0866  0.0920
  292TMC3    O2 4412   1.311   2.603   0.606  0.0586  0.1124  0.3382
  293MPD2     C 4413   3.267   3.503  13.268 -0.4698 -0.4415  0.0034
  293MPD2    C1 4414   3.282   3.628  13.223 -1.2502  0.6996 -0.4779
  293MPD2    C2 4415   3.350   3.718  13.303  0.1437  0.6934 -0.1564
  293MPD2    C3 4416   3.408   3.678  13.422 -0.5654 -0.3636 -0.4345
  293MPD2    C4 4417   3.399   3.549  13.464 -0.1028  0.3889  0.5208
  293MPD2    C5 4418   3.327   3.462  13.378 -0.4682 -0.1129 -0.1423
  293MPD2     H 4419   3.348   3.825  13.289  0.3644  0.9356  1.7140
  293MPD2    H1 4420   3.447   3.515  13.555  0.4541 -0.7611 -0.1986
  293MPD2    H2 4421   3.205   3.429  13.219  0.2126 -0.5431 -0.6943
  293MPD2    H3 4422   3.286   3.368  13.410  0.0508 -0.1751  0.3306
  293MPD2     N 4423   3.468   3.785  13.491  0.7493 -0.2001  0.6490
  293MPD2    H5 4424   3.468   3.874  13.442  2.1819  0.7868  2.4552
  293MPD2    N1 4425   3.222   3.661  13.099  0.5486 -0.7211 -0.6848
  293MPD2    H7 4426   3.176   3.581  13.056 -1.1347 -0.6488  1.0074
  294TMC3    C1 4427   3.151   3.799  12.915  0.3740 -0.1911 -0.1067
  294TMC3    C2 4428   3.078   3.698  12.859 -0.0899 -0.1304 -0.5628
  294TMC3    C3 4429   2.984   3.734  12.772 -0.4133 -0.7640 -0.4875
  294TMC3    C4 4430   3.151   3.926  12.853 -0.9294 -0.0204  0.2238
  294TMC3    C5 4431   3.076   3.946  12.745 -0.4683  0.4734 -0.2998
  294TMC3    C6 4432   2.987   3.856  12.707 -0.4313  0.3085 -0.2290
  294TMC3     C 4433   3.219   3.783  13.037 -0.1914 -0.4810 -0.0083
  294TMC3     O 4434   3.254   3.884  13.092  0.0425 -0.2579 -0.4682
  294TMC3     H 4435   3.072   3.597  12.899  0.2821 -0.6706 -1.8669
  294TMC3    H1 4436   3.218   4.000  12.896  2.0270 -2.4532 -0.2344
  294TMC3    H2 4437   2.914   3.881  12.630 -0.2307  0.1865 -0.4576
  294TMC3    C7 4438   3.081   4.083  12.686  0.0918 -0.6475 -0.1210
  294TMC3    C8 4439   2.895   3.632  12.709 -0.1394  0.6021  0.8184
  294TMC3    O1 4440   3.129   4.174  12.755 -0.3146  0.4583  0.0455
  294TMC3    O2 4441   2.884   3.638  12.586 -0.6880  0.0595 -0.1115
  295MPD2     C 4442   3.157   3.015   1.566 -0.4910  0.3882  0.0732
  295MPD2    C1 4443   3.229   2.919   1.498  0.3207  0.5172  0.2748
  295MPD2    C2 4444   3.268   2.807   1.564  0.3102 -0.2801 -0.5937
  295MPD2    C3 4445   3.232   2.778   1.691  0.6523  0.2136  0.6284
  295MPD2    C4 4446   3.166   2.875   1.761 -0.2618 -0.2389 -0.2847
  295MPD2    C5 4447   3.128   2.989   1.701  0.1658 -0.6132 -0.4613
  295MPD2     H 4448   3.336   2.741   1.511 -0.3649  1.1382 -3.2082
  295MPD2    H1 4449   3.156   2.872   1.869 -0.0072 -0.8181 -0.2779
  295MPD2    H2 4450   3.129   3.110   1.521  3.2802  0.0390 -2.9053
  295MPD2    H3 4451   3.063   3.057   1.754 -1.8624 -3.0518  0.1834
  295MPD2     N 4452   3.273   2.668   1.771 -0.1002  0.0631 -0.0078
  295MPD2    H5 4453   3.234   2.668   1.864 -1.6483 -0.8592 -0.6516
  295MPD2    N1 4454   3.275   2.939   1.363 -0.3666  0.7515  0.1368
  295MPD2    H7 4455   3.317   2.857   1.320 -0.2155  0.0120  1.7204
  296TMC3    C1 4456   3.367   2.467   1.837  0.1700 -0.0531  0.2125
  296TMC3    C2 4457   3.374   2.517   1.969  0.5987 -0.4505  0.5532
  296TMC3    C3 4458   3.420   2.426   2.063  0.4607  0.4843  0.5962
  296TMC3    C4 4459   3.412   2.344   1.807  0.1326 -0.1423 -0.1858
  296TMC3    C5 4460   3.472   2.273   1.902  0.0346  0.7689 -0.3600
  296TMC3    C6 4461   3.466   2.304   2.030  1.1286  0.1038 -0.4946
  296TMC3     C 4462   3.330   2.555   1.729 -0.4756 -0.0030  0.0607
  296TMC3     O 4463   3.370   2.526   1.620  0.7024  0.0497 -0.4249
  296TMC3     H 4464   3.326   2.607   2.008 -1.3645 -0.3976 -1.9363
  296TMC3    H1 4465   3.429   2.332   1.700 -1.7825  0.5143 -0.5656
  296TMC3    H2 4466   3.512   2.237   2.101 -0.5058  0.4265  0.8666
  296TMC3    C7 4467   3.520   2.146   1.872  0.0520  0.0552  0.2539
  296TMC3    C8 4468   3.401   2.441   2.207 -0.7817  0.4069 -0.3729
  296TMC3    O1 4469   3.607   2.097   1.937  0.1706  0.9186 -0.3715
  296TMC3    O2 4470   3.401   2.346   2.281  0.2631 -0.7897  0.1202
  297MPD2     C 4471   1.041   4.416  16.622  0.1507 -0.2075 -0.5179
  297MPD2    C1 4472   1.005   4.512  16.530  0.3138  0.4546 -0.4447
  297MPD2    C2 4473   1.088   4.625  16.508 -1.1470 -0.3927  0.9787
  297MPD2    C3 4474   1.204   4.646  16.585 -1.0374 -0.0628 -0.0016
  297MPD2    C4 4475   1.235   4.549  16.676 -0.4085  0.1361 -0.4768
  297MPD2    C5 4476   1.156   4.436  16.694 -0.6284 -0.0742 -1.0453
  297MPD2     H 4477   1.050   4.708  16.449 -3.5086 -1.7824  0.5347
  297MPD2    H1 4478   1.330   4.555  16.727 -0.2831  2.6829 -1.0088
  297MPD2    H2 4479   0.988   4.324  16.644 -3.3471  1.4980 -1.7957
  297MPD2    H3 4480   1.189   4.364  16.768 -1.1283  1.4165  0.6172
  297MPD2     N 4481   1.283   0.038  16.559 -0.2985  0.5951 -0.3336
  297MPD2    H5 4482   1.252   0.102  16.486  1.4689 -1.3168 -2.7297
  297MPD2    N1 4483   0.892   4.507  16.447  0.1767  0.0956 -0.5581
  297MPD2    H7 4484   0.880   4.572  16.371 -1.8748 -2.1976 -2.1748
  298TMC3    C1 4485   0.668   4.449  16.384 -0.5862 -0.2428 -0.3279
  298TMC3    C2 4486   0.691   4.498  16.258  1.0086 -0.7016  0.3053
  298TMC3    C3 4487   0.580   4.517  16.178  0.8506 -0.1421 -0.6215
  298TMC3    C4 4488   0.542   4.439  16.435  0.3028 -0.4125  0.0855
  298TMC3    C5 4489   0.437   4.488  16.359  0.0071  0.6070 -0.2504
  298TMC3    C6 4490   0.452   4.528  16.233  0.1248 -0.4526  0.3452
  298TMC3     C 4491   0.784   4.417  16.475 -0.4289 -1.1472 -1.1761
  298TMC3     O 4492   0.764   4.341  16.566 -0.0799  0.8421  0.0943
  298TMC3     H 4493   0.788   4.501  16.210  0.5277  1.0973 -0.5521
  298TMC3    H1 4494   0.524   4.412  16.538 -0.0897  2.0344  0.6645
  298TMC3    H2 4495   0.372   4.563  16.169 -1.3625  0.0095  2.4552
  298TMC3    C7 4496   0.320   4.527  16.438  0.3242 -0.4613 -0.6770
  298TMC3    C8 4497   0.589   4.560  16.040 -0.3472  0.7470  0.6432
  298TMC3    O1 4498   0.331   4.541  16.562  0.8555 -0.5912 -0.2156
  298TMC3    O2 4499   0.480   4.589  15.995  0.7626  0.1183 -0.7668
  299MPD2     C 4500   1.746   3.721  10.975 -0.4304 -0.6947 -0.2444
  299MPD2    C1 4501   1.762   3.827  10.884 -0.1223  0.3092  0.7922
  299MPD2    C2 4502   1.658   3.853  10.792 -0.5835  0.0334  0.2970
  299MPD2    C3 4503   1.537   3.789  10.793 -0.1582  0.3731 -0.1405
  299MPD2    C4 4504   1.524   3.680  10.879 -0.1836  0.1336 -0.1625
  299MPD2    C5 4505   1.625   3.655  10.967 -0.5955 -0.0115  0.5940
  299MPD2     H 4506   1.668   3.946  10.737 -2.4042  0.6742  1.0464
  299MPD2    H1 4507   1.432   3.623  10.881 -1.1350  1.8143  3.8866
  299MPD2    H2 4508   1.825   3.689  11.043  3.1212 -0.0523 -4.1198
  299MPD2    H3 4509   1.607   3.572  11.035 -3.2376 -1.2141 -1.5678
  299MPD2     N 4510   1.432   3.829  10.707 -0.0611  0.6784  0.3244
  299MPD2    H5 4511   1.435   3.911  10.647 -1.2161 -0.3380 -1.1292
  299MPD2    N1 4512   1.883   3.897  10.894  0.0236  0.1582  0.1388
  299MPD2    H7 4513   1.939   3.882  10.977  0.0476 -3.7962 -0.5536
  300TMC3    C1 4514   1.232   3.829  10.595 -0.0210 -0.1705  0.1839
  300TMC3    C2 4515   1.292   3.901  10.496 -0.7833 -0.2046 -0.1621
  300TMC3    C3 4516   1.227   3.934  10.382 -0.2550 -0.7548  0.8307
  300TMC3    C4 4517   1.094   3.811  10.591 -0.7203  0.5049  0.5279
  300TMC3    C5 4518   1.028   3.862  10.487 -0.8812  0.2118  0.6184
  300TMC3    C6 4519   1.091   3.928  10.376  0.0712 -0.4989 -0.9299
  300TMC3     C 4520   1.313   3.760  10.690  0.4785 -0.0676 -0.0078
  300TMC3     O 4521   1.253   3.696  10.776  0.2201 -0.2108 -0.3273
  300TMC3     H 4522   1.400   3.908  10.494 -0.5957 -2.4791  1.5654
  300TMC3    H1 4523   1.044   3.739  10.655 -2.5665  1.3747  0.0597
  300TMC3    H2 4524   1.042   3.973  10.291 -0.1316 -1.9996 -1.6023
  300TMC3    C7 4525   0.890   3.904  10.515 -0.4429  0.2314  0.5876
  300TMC3    C8 4526   1.298   4.033  10.298  1.1585 -0.4526  0.5580
  300TMC3    O1 4527   0.818   3.927  10.422  0.0251  0.3267 -0.1290
  300TMC3    O2 4528   1.370   4.120  10.352  0.2872 -0.2086 -0.1967
  301MPD2     C 4529   4.007   1.215   1.571  0.1084 -0.2472 -0.9191
  301MPD2    C1 4530   3.922   1.228   1.470 -0.0708  0.1953  0.1762
  301MPD2    C2 4531   3.883   1.121   1.398 -0.0999  0.3477  0.0941
  301MPD2    C3 4532   3.924   0.994   1.435 -0.4963 -0.3265  0.2283
  301MPD2    C4 4533   4.004   0.981   1.541  0.6866  0.0906  0.4422
  301MPD2    C5 4534   4.054   1.094   1.603 -0.4476 -0.6856  0.2138
  301MPD2     H 4535   3.835   1.139   1.303 -0.1126 -2.0889 -0.3773
  301MPD2    H1 4536   4.042   0.888   1.581 -0.3462 -0.3621  0.3417
  301MPD2    H2 4537   4.049   1.295   1.631 -2.6961  0.3091  0.2544
  301MPD2    H3 4538   4.125   1.075   1.683 -0.1771 -1.7216 -0.2670
  301MPD2     N 4539   3.885   0.881   1.367  0.4522 -0.1718  0.4034
  301MPD2    H5 4540   3.918   0.794   1.407  0.3927 -1.2453 -1.8935
  301MPD2    N1 4541   3.869   1.360   1.434 -0.6225 -0.1851 -0.0300
  301MPD2    H7 4542   3.791   1.355   1.370 -0.5811 -0.3217 -0.0701
  302TMC3    C1 4543   3.795   0.733   1.211 -0.5954 -0.1192 -0.4903
  302TMC3    C2 4544   3.840   0.627   1.289 -0.4321  0.1919 -0.6945
  302TMC3    C3 4545   3.771   0.506   1.275  0.4272 -0.2073 -0.1089
  302TMC3    C4 4546   3.672   0.726   1.138 -0.0464 -0.6575  0.3827
  302TMC3    C5 4547   3.602   0.609   1.139  0.5729 -0.2027  0.3189
  302TMC3    C6 4548   3.655   0.497   1.209  0.0028  0.5903 -0.4310
  302TMC3     C 4549   3.820   0.873   1.250 -0.0541 -0.4443  1.0081
  302TMC3     O 4550   3.775   0.967   1.181  0.0899 -0.3520  0.2887
  302TMC3     H 4551   3.923   0.636   1.359 -1.4235  0.2292  0.4840
  302TMC3    H1 4552   3.651   0.807   1.070  0.2909 -0.1097  0.9307
  302TMC3    H2 4553   3.609   0.404   1.181 -0.4345  0.8143 -0.4484
  302TMC3    C7 4554   3.486   0.598   1.048 -0.1174  0.6774  0.6076
  302TMC3    C8 4555   3.815   0.396   1.358 -0.6608  0.8243  0.4001
  302TMC3    O1 4556   3.457   0.481   1.019  0.0651  0.2135  0.7049
  302TMC3    O2 4557   3.932   0.395   1.391 -0.0533  0.4144  0.1866
  303MPD2     C 4558   4.421   4.415   9.823 -0.0722  0.2923  0.3853
  303MPD2    C1 4559   4.354   4.395   9.942 -0.2391 -0.0685 -0.2518
  303MPD2    C2 4560   4.326   4.266   9.986 -0.0992  0.0189 -0.8655
  303MPD2    C3 4561   4.356   4.157   9.901 -0.3685  0.3072  0.1488
  303MPD2    C4 4562   4.419   4.183   9.779 -0.4956 -0.3681 -0.3582
  303MPD2    C5 4563   4.449   4.310   9.745 -0.6974  0.5251 -0.2760
  303MPD2     H 4564   4.277   4.247  10.081  0.8292  1.0116 -0.1777
  303MPD2    H1 4565   4.438   4.107   9.705 -0.7399 -1.4660  0.6973
  303MPD2    H2 4566   4.444   4.517   9.794  1.1052 -0.0792  0.0289
  303MPD2    H3 4567   4.493   4.329   9.648  0.0362  0.3671  0.0215
  303MPD2     N 4568   4.337   4.017   9.936  0.2738 -0.0091 -0.4282
  303MPD2    H5 4569   4.367   3.953   9.863  0.0926  1.1306 -1.5073
  303MPD2    N1 4570   4.307   4.510  10.015  0.1592  0.6463  0.6795
  303MPD2    H7 4571   4.301   4.598   9.964 -1.4720 -0.2253 -0.6390
  304TMC3    C1 4572   4.225   4.644  10.190  0.2039 -0.3665 -0.8224
  304TMC3    C2 4573   4.174   0.010  10.094 -0.4447  0.6857 -0.0870
  304TMC3    C3 4574   4.081   0.102  10.136 -0.0571  0.4256  1.0214
  304TMC3    C4 4575   4.187   4.662  10.319  0.6308  0.4796 -0.1047
  304TMC3    C5 4576   4.098   0.027  10.364 -0.0516  0.0458 -0.2495
  304TMC3    C6 4577   4.050   0.116  10.267 -0.5673  0.8986  0.5018
  304TMC3     C 4578   4.279   4.511  10.151  0.0640  0.3235 -0.2906
  304TMC3     O 4579   4.322   4.439  10.235  0.5109 -0.0840  0.3778
  304TMC3     H 4580   4.190   4.718   9.987  0.5956  1.2185  0.0026
  304TMC3    H1 4581   4.220   4.585  10.389 -1.2045  0.9579  1.2785
  304TMC3    H2 4582   3.978   0.191  10.296 -0.3277  0.5918  1.8999
  304TMC3    C7 4583   3.982   4.693  10.430  0.0924 -0.0139 -0.3640
  304TMC3    C8 4584   3.968   0.122  10.043  0.0416  0.2840  0.3127
  304TMC3    O1 4585   3.882   4.711  10.366  0.4717 -0.0563 -0.3370
  304TMC3    O2 4586   3.994   0.142   9.924 -0.0762  0.1976 -0.1579
  305MPD2     C 4587   1.900   1.513  14.025  0.4026  0.4899 -0.0706
  305MPD2    C1 4588   1.884   1.383  14.062 -0.4984  0.7673  0.3193
  305MPD2    C2 4589   1.890   1.290  13.961 -0.3982  0.2428 -0.0427
  305MPD2    C3 4590   1.936   1.319  13.834 -0.1150  1.0233 -0.4190
  305MPD2    C4 4591   1.962   1.447  13.811 -0.2544  0.4035  0.0117
  305MPD2    C5 4592   1.939   1.548  13.897  0.2026  0.4781 -0.0812
  305MPD2     H 4593   1.846   1.193  13.984  1.6018 -0.6338  0.0959
  305MPD2    H1 4594   2.005   1.468  13.714  0.9655 -1.4796  0.1435
  305MPD2    H2 4595   1.884   1.600  14.087 -0.7356  0.8009 -0.7874
  305MPD2    H3 4596   1.955   1.654  13.881 -1.7346  0.9972  1.3570
  305MPD2     N 4597   1.934   1.233  13.720  0.1248  0.2595  0.4825
  305MPD2    H5 4598   1.957   1.279  13.633  0.5248  0.5725  0.7555
  305MPD2    N1 4599   1.860   1.358  14.201  0.4984  0.2743  0.4219
  305MPD2    H7 4600   1.848   1.436  14.265  1.3750  0.8595 -0.1232
  306TMC3    C1 4601   1.867   1.228  14.408 -0.3992  0.3057  0.5557
  306TMC3    C2 4602   1.914   1.110  14.458  0.0159 -0.7133  0.5336
  306TMC3    C3 4603   1.931   1.097  14.588 -0.0938 -0.1942  0.2744
  306TMC3    C4 4604   1.862   1.343  14.484 -0.0426 -0.5473  0.5431
  306TMC3    C5 4605   1.880   1.329  14.616 -0.5219  0.2109  0.2556
  306TMC3    C6 4606   1.924   1.207  14.670  0.1228 -0.4491  0.3318
  306TMC3     C 4607   1.853   1.234  14.260 -0.4797  0.3608  0.0469
  306TMC3     O 4608   1.856   1.126  14.203  0.4653  0.8217  0.2828
  306TMC3     H 4609   1.931   1.026  14.391  1.6806  0.2968 -0.3167
  306TMC3    H1 4610   1.844   1.439  14.437  0.5283 -0.1532  1.1290
  306TMC3    H2 4611   1.954   1.209  14.774 -1.1203 -0.2211  0.6849
  306TMC3    C7 4612   1.869   1.450  14.695 -0.3106 -0.4722 -0.3644
  306TMC3    C8 4613   2.031   0.995  14.623 -0.7566 -0.4619 -0.7653
  306TMC3    O1 4614   1.812   1.543  14.638 -0.0931  0.1052  0.7516
  306TMC3    O2 4615   2.111   0.964  14.538  0.0595  0.1511  0.0888
  307MPD2     C 4616   4.536   4.050   1.029  0.5473 -0.1074 -0.3195
  307MPD2    C1 4617   4.492   4.117   0.918 -0.3004 -0.5255 -0.3276
  307MPD2    C2 4618   4.397   4.212   0.931  0.0145  0.0292 -0.2502
  307MPD2    C3 4619   4.339   4.253   1.050 -1.1891  0.0575 -0.7363
  307MPD2    C4 4620   4.384   4.181   1.158  0.2084 -0.3951  0.0080
  307MPD2    C5 4621   4.479   4.086   1.149 -0.7875  0.0643 -0.1867
  307MPD2     H 4622   4.357   4.250   0.838  0.3414  1.7860  0.3231
  307MPD2    H1 4623   4.365   4.203   1.262  0.8606 -0.4469  0.1373
  307MPD2    H2 4624   4.615   3.976   1.034 -0.6315 -1.5129 -2.4335
  307MPD2    H3 4625   4.500   4.029   1.239 -0.3200 -1.6966 -1.4201
  307MPD2     N 4626   4.254   4.361   1.054  0.2759 -0.0039 -0.4240
  307MPD2    H5 4627   4.239   4.413   0.968 -0.3354 -0.3400 -0.5181
  307MPD2    N1 4628   4.549   4.097   0.792  0.3797  0.5732  0.0841
  307MPD2    H7 4629   4.516   4.156   0.716  0.5142 -1.0770 -1.2524
  308TMC3    C1 4630   3.900   4.629   1.214 -0.3118  0.1107  0.9057
  308TMC3    C2 4631   3.935   0.013   1.135  0.0057  0.3083 -0.4185
  308TMC3    C3 4632   4.053   4.721   1.068  0.0172 -0.1081 -0.6945
  308TMC3    C4 4633   3.988   4.521   1.225 -0.1039  0.0444 -0.2046
  308TMC3    C5 4634   4.104   4.514   1.154 -0.4895  0.1988 -0.6609
  308TMC3    C6 4635   4.147   4.620   1.080 -0.8385 -0.2454  0.6946
  308TMC3     C 4636   3.765   4.592   1.251  0.9459 -1.0687  0.1146
  308TMC3     O 4637   3.751   4.509   1.340 -0.7088 -0.0413 -1.1639
  308TMC3     H 4638   3.879   0.106   1.124  1.4527  1.4551  1.9956
  308TMC3    H1 4639   3.955   4.435   1.282  0.4629 -0.3874 -0.5237
  308TMC3    H2 4640   4.245   4.625   1.033 -0.4272  0.1251  1.5920
  308TMC3    C7 4641   4.179   4.391   1.164 -0.0518  0.0829  0.0447
  308TMC3    C8 4642   4.115   0.120   1.027 -0.0386  0.9252 -0.9057
  308TMC3    O1 4643   4.152   4.316   1.259  1.3322  0.1030 -0.4514
  308TMC3    O2 4644   4.091   0.228   1.082 -0.6261 -0.0812 -0.0554
  309MPD2     C 4645   3.654   4.079  17.173  0.0614 -0.5769  0.1034
  309MPD2    C1 4646   3.602   4.166  17.078  0.7815 -0.5556 -0.0634
  309MPD2    C2 4647   3.503   4.249  17.131 -0.4842  0.2083  0.2320
  309MPD2    C3 4648   3.457   4.249  17.260 -0.4117  0.4199  0.4048
  309MPD2    C4 4649   3.527   4.170  17.348  0.2321 -0.5762  0.0259
  309MPD2    C5 4650   3.619   4.079  17.306 -0.1386  0.0608  0.0693
  309MPD2     H 4651   3.452   4.320  17.067  1.4482  0.1203 -1.3965
  309MPD2    H1 4652   3.491   4.166  17.450 -3.0993 -0.3075 -1.1284
  309MPD2    H2 4653   3.733   4.009  17.147 -2.2109 -3.2580  0.4231
  309MPD2    H3 4654   3.668   4.008  17.371 -1.4818 -0.3611  0.6207
  309MPD2     N 4655   3.371   4.344  17.318  0.5741 -0.3135 -0.5973
  309MPD2    H5 4656   3.356   4.335  17.418  1.7088  0.5655 -0.3503
  309MPD2    N1 4657   3.648   4.172  16.939  0.2493  0.4345 -0.9240
  309MPD2    H7 4658   3.603   4.237  16.874  0.8920  1.6586 -0.1550
  310TMC3    C1 4659   3.773   4.102  16.747 -0.0132  0.0115 -0.1494
  310TMC3    C2 4660   3.680   4.152  16.659  0.1087  0.6783 -0.4420
  310TMC3    C3 4661   3.716   4.168  16.526 -0.1106  0.0383  0.2571
  310TMC3    C4 4662   3.899   4.077  16.709  0.7008 -1.4817  0.0573
  310TMC3    C5 4663   3.934   4.101  16.580 -0.9647 -0.4784  0.4200
  310TMC3    C6 4664   3.844   4.138  16.487 -0.2938  0.4456  0.3563
  310TMC3     C 4665   3.750   4.094  16.888 -0.0502 -0.1602 -0.3124
  310TMC3     O 4666   3.832   4.026  16.952 -0.2932 -0.3691 -0.2504
  310TMC3     H 4667   3.577   4.157  16.691  0.3967  1.6221  0.3519
  310TMC3    H1 4668   3.979   4.051  16.777 -0.4790 -3.4341  0.7088
  310TMC3    H2 4669   3.868   4.146  16.381  0.0261 -3.3226  0.1591
  310TMC3    C7 4670   4.071   4.056  16.543  0.1514  0.2184  0.1276
  310TMC3    C8 4671   3.627   4.235  16.432 -0.1783  0.1329  0.8117
  310TMC3    O1 4672   4.125   3.965  16.604 -0.6240 -0.7067  0.1252
  310TMC3    O2 4673   3.633   4.202  16.315 -0.2945  0.1061 -0.3019
  311MPD2     C 4674   1.083   0.740  13.140  0.3101 -0.2197 -0.6876
  311MPD2    C1 4675   1.062   0.851  13.060 -0.1997 -0.0710  0.0280
  311MPD2    C2 4676   0.949   0.935  13.084  0.3057  0.3459  0.6118
  311MPD2    C3 4677   0.854   0.896  13.180  0.6429  0.1577  0.5891
  311MPD2    C4 4678   0.873   0.784  13.262  0.2188 -0.6822 -0.3299
  311MPD2    C5 4679   0.992   0.722  13.238  0.3601  0.1812  0.3120
  311MPD2     H 4680   0.929   1.025  13.026 -0.0185 -0.6452 -0.8315
  311MPD2    H1 4681   0.805   0.751  13.340  0.0169 -0.9328 -0.6133
  311MPD2    H2 4682   1.172   0.678  13.143  0.8371  0.5143 -1.2421
  311MPD2    H3 4683   1.019   0.647  13.312 -0.1823 -1.8616 -1.5442
  311MPD2     N 4684   0.733   0.970  13.184  0.1232 -0.3517  0.2603
  311MPD2    H5 4685   0.706   1.023  13.102 -0.7143  0.1266  0.8475
  311MPD2    N1 4686   1.156   0.891  12.958  0.0231  0.4694  0.2723
  311MPD2    H7 4687   1.124   0.975  12.911  0.1228  0.7758  0.7453
  312TMC3    C1 4688   0.543   1.064  13.275 -0.1508 -1.2109 -0.2517
  312TMC3    C2 4689   0.463   1.043  13.167  0.1331  0.0372 -0.4942
  312TMC3    C3 4690   0.372   1.138  13.144 -0.3740 -0.0518  0.0433
  312TMC3    C4 4691   0.521   1.161  13.371  0.0051  0.7676  0.4954
  312TMC3    C5 4692   0.419   1.252  13.340 -0.5596  0.4003 -0.3665
  312TMC3    C6 4693   0.345   1.245  13.231  0.5655  0.5084  0.1357
  312TMC3     C 4694   0.654   0.968  13.297 -0.6434 -0.1508 -0.9163
  312TMC3     O 4695   0.677   0.943  13.415  0.0471 -0.3050 -0.0756
  312TMC3     H 4696   0.484   0.965  13.094  1.3182 -0.3112  0.2235
  312TMC3    H1 4697   0.604   1.175  13.438 -1.1032  0.0534  2.0240
  312TMC3    H2 4698   0.265   1.315  13.210  0.4577  0.8649  1.7402
  312TMC3    C7 4699   0.389   1.355  13.438  1.0216 -0.5415  0.1765
  312TMC3    C8 4700   0.263   1.088  13.059 -0.2624  0.6514  1.0096
  312TMC3    O1 4701   0.330   1.448  13.388 -0.1668 -0.4925 -0.6025
  312TMC3    O2 4702   0.257   0.970  13.017 -0.2878 -0.0684 -0.2159
  313MPD2     C 4703   1.681   0.178   9.925 -0.2519  0.0132 -0.9805
  313MPD2    C1 4704   1.624   0.166  10.050  0.2729  0.3299 -0.1688
  313MPD2    C2 4705   1.538   0.055  10.068 -0.2441  0.5072  0.1282
  313MPD2    C3 4706   1.508   4.684   9.968 -0.5035  0.8130  0.6792
  313MPD2    C4 4707   1.568   4.705   9.842  0.6282 -0.0933 -0.8209
  313MPD2    C5 4708   1.658   0.086   9.825  0.2879 -0.0100  0.2294
  313MPD2     H 4709   1.480   0.039  10.159 -0.3594  1.5782  0.2365
  313MPD2    H1 4710   1.543   4.641   9.758  1.0386 -0.6688 -0.5099
  313MPD2    H2 4711   1.738   0.264   9.891 -1.6076  0.5076 -2.0243
  313MPD2    H3 4712   1.708   0.110   9.733  3.2958 -0.3346  1.7660
  313MPD2     N 4713   1.409   4.586   9.986 -0.4484  1.2062  0.1435
  313MPD2    H5 4714   1.390   4.562  10.083  1.1251 -0.0398  0.1458
  313MPD2    N1 4715   1.646   0.265  10.147  0.5735  0.9048  0.4427
  313MPD2    H7 4716   1.597   0.253  10.234 -0.7778  0.7382 -0.3426
  314TMC3    C1 4717   1.738   0.458  10.259  0.0265 -0.0265  0.2862
  314TMC3    C2 4718   1.716   0.419  10.385 -0.1566 -0.6470  0.2340
  314TMC3    C3 4719   1.727   0.513  10.487  1.0213 -0.2638  0.5536
  314TMC3    C4 4720   1.774   0.587  10.234 -0.0095  0.4606  0.4726
  314TMC3    C5 4721   1.783   0.672  10.336 -0.2551 -0.4254  0.1652
  314TMC3    C6 4722   1.765   0.641  10.472  0.9838 -0.3131  0.3806
  314TMC3     C 4723   1.735   0.374  10.138 -0.2467  0.1757  0.6154
  314TMC3     O 4724   1.792   0.421  10.042  0.4491  0.6033  0.4335
  314TMC3     H 4725   1.682   0.318  10.408 -0.9221 -0.6229 -0.8000
  314TMC3    H1 4726   1.792   0.629  10.136  0.1822 -0.1643  0.2384
  314TMC3    H2 4727   1.757   0.712  10.554 -1.4708 -0.5447  0.3398
  314TMC3    C7 4728   1.763   0.813  10.297  0.0330  0.1206 -0.0122
  314TMC3    C8 4729   1.651   0.490  10.602 -0.3848 -0.2880  0.5774
  314TMC3    O1 4730   1.863   0.883  10.314  0.1257  0.2935  0.3659
  314TMC3    O2 4731   1.691   0.555  10.698  0.2423 -0.3881  0.2449
  315MPD2     C 4732   0.128   4.335   0.302  0.8769 -0.0127  0.8883
  315MPD2    C1 4733   0.186   4.412   0.392 -0.1274  0.0637 -0.1455
  315MPD2    C2 4734   0.209   4.548   0.376  0.5391  0.1900  0.1462
  315MPD2    C3 4735   0.163   4.601   0.258  0.6785  0.9263 -0.2408
  315MPD2    C4 4736   0.085   4.524   0.172 -0.3630 -0.3331  0.6697
  315MPD2    C5 4737   0.072   4.390   0.190  0.2399 -0.7030  0.2416
  315MPD2     H 4738   0.264   4.604   0.450  1.2958 -0.7790  0.3205
  315MPD2    H1 4739   0.036   4.557   0.081  2.1619  0.5074 -0.3781
  315MPD2    H2 4740   0.129   4.226   0.308 -3.8950 -0.1872 -1.5031
  315MPD2    H3 4741   0.032   4.319   0.119 -4.2260  0.9741  1.0667
  315MPD2     N 4742   0.210   0.009   0.238  0.3728  0.3875  0.4511
  315MPD2    H5 4743   0.275   0.034   0.312  0.0227  1.5507  0.3679
  315MPD2    N1 4744   0.260   4.358   0.499  0.2525 -0.1008 -0.4687
  315MPD2    H7 4745   0.314   4.431   0.545 -1.9590  0.0290  1.9330
  316TMC3    C1 4746   0.254   0.213   0.140  0.1167  0.1546 -0.7176
  316TMC3    C2 4747   0.297   0.254   0.266  0.4081  0.3674 -0.2874
  316TMC3    C3 4748   0.358   0.378   0.274 -0.1262  0.2291  0.0964
  316TMC3    C4 4749   0.263   0.288   0.023 -0.2931  0.7962 -0.6385
  316TMC3    C5 4750   0.318   0.410   0.043 -0.3523 -0.6160  0.9069
  316TMC3    C6 4751   0.364   0.450   0.158  0.4941  0.5530 -0.5222
  316TMC3     C 4752   0.180   0.090   0.133 -0.4630  0.2600  1.0166
  316TMC3     O 4753   0.119   0.058   0.034  0.0091  0.2587 -0.1064
  316TMC3     H 4754   0.275   0.196   0.354 -1.3569  0.4992 -0.6272
  316TMC3    H1 4755   0.234   0.249  17.615  0.3821  1.6102 -1.1607
  316TMC3    H2 4756   0.416   0.545   0.162  1.0685  0.2162  0.0353
  316TMC3    C7 4757   0.325   0.505  17.620  0.1829  0.4731 -0.2758
  316TMC3    C8 4758   0.411   0.437   0.388  0.4524 -0.3595 -0.4778
  316TMC3    O1 4759   0.376   0.610  17.650 -0.4280 -0.7588  0.1701
  316TMC3    O2 4760   0.446   0.556   0.388  0.2510  0.1899  0.0343
  317MPD2     C 4761   2.271   2.867  12.791 -0.4701 -0.1310 -0.3487
  317MPD2    C1 4762   2.291   2.731  12.781  0.2278  0.1761  0.5879
  317MPD2    C2 4763   2.373   2.674  12.881 -0.1169  0.0819  0.5014
  317MPD2    C3 4764   2.425   2.736  12.986  0.6443 -0.7409  0.1506
  317MPD2    C4 4765   2.392   2.871  13.000 -0.1822  0.2764 -0.0328
  317MPD2    C5 4766   2.320   2.929  12.904 -0.4458 -0.1238  0.1336
  317MPD2     H 4767   2.414   2.577  12.854 -1.3986 -0.4736  0.5678
  317MPD2    H1 4768   2.429   2.927  13.085 -0.6864 -0.5661  0.7407
  317MPD2    H2 4769   2.209   2.928  12.725 -0.7561  1.8413  1.7406
  317MPD2    H3 4770   2.296   3.035  12.909 -2.7524 -0.7700  2.7946
  317MPD2     N 4771   2.530   2.678  13.064 -0.2818  0.5962  0.3317
  317MPD2    H5 4772   2.542   2.577  13.058 -0.3585  0.6561 -0.9132
  317MPD2    N1 4773   2.254   2.652  12.669 -0.2732  0.4490  1.0436
  317MPD2    H7 4774   2.283   2.555  12.670 -0.1856  0.4578 -1.1722
  318TMC3    C1 4775   2.732   2.672  13.174 -0.0965  0.5838 -0.1085
  318TMC3    C2 4776   2.708   2.538  13.203 -0.4755  0.0235  0.2056
  318TMC3    C3 4777   2.816   2.463  13.245 -0.0243 -0.1402 -0.3613
  318TMC3    C4 4778   2.854   2.728  13.181 -0.7846 -0.8426  0.1918
  318TMC3    C5 4779   2.957   2.649  13.223  0.1178  0.1864 -0.2289
  318TMC3    C6 4780   2.945   2.513  13.249 -0.1447  0.6912 -0.1226
  318TMC3     C 4781   2.631   2.756  13.111  0.1438 -0.2587  0.1934
  318TMC3     O 4782   2.659   2.876  13.098 -0.3185 -0.6082  0.0828
  318TMC3     H 4783   2.607   2.502  13.224 -0.3533 -0.6037 -0.2711
  318TMC3    H1 4784   2.857   2.836  13.186  0.6561 -0.8073 -1.7867
  318TMC3    H2 4785   3.031   2.449  13.262 -2.0430 -1.6584  0.9096
  318TMC3    C7 4786   3.084   2.717  13.222 -0.0566 -0.2901  0.4781
  318TMC3    C8 4787   2.807   2.318  13.260  0.4869  0.0183 -0.3014
  318TMC3    O1 4788   3.103   2.811  13.148  0.3157  0.4422 -0.8001
  318TMC3    O2 4789   2.900   2.261  13.309  0.3766  0.8068  0.5582
  319MPD2     C 4790   2.934   4.248  17.113  0.6976  1.1958  0.3866
  319MPD2    C1 4791   2.954   4.113  17.123  0.3680  0.6233  0.7262
  319MPD2    C2 4792   2.942   4.038  17.009  0.0468  0.8705  0.1561
  319MPD2    C3 4793   2.909   4.085  16.883  0.4287  0.2951 -0.0623
  319MPD2    C4 4794   2.883   4.223  16.878 -0.6718  0.4071 -0.1661
  319MPD2    C5 4795   2.886   4.298  16.994  0.0430  0.0515  0.0278
  319MPD2     H 4796   2.956   3.934  17.036  1.1391  0.6616 -1.2668
  319MPD2    H1 4797   2.853   4.277  16.789  1.3321  0.1332 -1.0059
  319MPD2    H2 4798   2.943   4.321  17.193 -1.8452  2.9076 -0.8892
  319MPD2    H3 4799   2.865   4.404  16.998 -1.3526 -0.2642  1.2115
  319MPD2     N 4800   2.894   4.012  16.768  0.6167 -0.0191 -0.0987
  319MPD2    H5 4801   2.857   4.061  16.687 -0.4295 -0.2960  0.2113
  319MPD2    N1 4802   2.994   4.048  17.240  0.2858  0.3172 -0.1577
  319MPD2    H7 4803   3.019   3.949  17.237  0.9797  0.4059  2.6627
  320TMC3    C1 4804   2.867   3.800  16.643 -0.0365 -0.4059  0.4794
  320TMC3    C2 4805   2.833   3.870  16.532  0.6043  0.2826  0.7497
  320TMC3    C3 4806   2.760   3.806  16.431 -0.1573 -0.5202 -0.0704
  320TMC3    C4 4807   2.858   3.664  16.644  0.3364  0.1322  0.0579
  320TMC3    C5 4808   2.796   3.597  16.542  0.4355 -0.2543 -0.0876
  320TMC3    C6 4809   2.752   3.669  16.430 -0.8719  0.4817 -0.5951
  320TMC3     C 4810   2.915   3.872  16.761 -0.1885 -0.6784  0.3690
  320TMC3     O 4811   2.944   3.797  16.854  0.5866 -0.3607  0.1841
  320TMC3     H 4812   2.832   3.978  16.523 -1.7085  0.0536 -1.5686
  320TMC3    H1 4813   2.883   3.602  16.729 -1.1352  2.2864  2.0356
  320TMC3    H2 4814   2.691   3.614  16.359 -1.7954  0.0203  0.5574
  320TMC3    C7 4815   2.758   3.459  16.547  0.1253  0.8535 -0.3036
  320TMC3    C8 4816   2.666   3.890  16.367  0.9680 -0.0260  0.4380
  320TMC3    O1 4817   2.730   3.401  16.441 -0.3522 -0.7673 -0.2696
  320TMC3    O2 4818   2.665   4.007  16.397 -0.4044 -1.0851 -0.4283
  321TMC3    C1 4819   3.019   4.011  17.467  0.2957 -0.1082 -0.3070
  321TMC3    C2 4820   3.116   3.918  17.435 -0.3197 -0.2599 -0.1570
  321TMC3    C3 4821   3.116   3.802  17.513  0.2040  0.1916  0.1360
  321TMC3    C4 4822   2.937   4.012  17.574 -0.4655  0.2721 -0.1839
  321TMC3    C5 4823   2.956   3.909  17.662  0.2239  0.1681 -0.4386
  321TMC3    C6 4824   3.019   3.797  17.611 -0.1880  0.5937 -0.3198
  321TMC3     C 4825   2.980   4.107  17.365  0.0522  0.8972 -0.1273
  321TMC3     O 4826   2.933   4.214  17.409 -0.1396 -0.4312  0.0387
  321TMC3     H 4827   3.193   3.953  17.368 -0.2347 -1.4581 -0.6841
  321TMC3    H1 4828   2.878   4.095  17.610  1.7021  1.2126  1.2320
  321TMC3    H2 4829   3.028   3.715  17.682  0.9321 -0.6337 -1.8980
  321TMC3    C7 4830   3.017   3.949   0.100 -0.0425  0.0849  0.9961
  321TMC3    C8 4831   3.248   3.758  17.556  0.4459 -0.4810  0.1946
  321TMC3    O1 4832   3.063   3.857   0.167 -0.0583  0.0050  0.2610
  321TMC3    O2 4833   3.336   3.845  17.537  0.1746  0.0374  0.3976
  322MPD2     C 4834   2.071   0.556  13.409 -0.1642 -0.0595  0.1782
  322MPD2    C1 4835   2.035   0.544  13.539 -0.8630  1.0552 -0.3624
  322MPD2    C2 4836   1.996   0.420  13.594  0.4431 -0.5750 -0.0491
  322MPD2    C3 4837   1.990   0.312  13.513  0.1742  0.2540  0.0109
  322MPD2    C4 4838   2.037   0.323  13.380  0.5895 -0.4764  0.2271
  322MPD2    C5 4839   2.070   0.446  13.327  0.3080 -0.2782  0.9369
  322MPD2     H 4840   1.976   0.410  13.700  0.9749  1.7489  0.2722
  322MPD2    H1 4841   2.036   0.239  13.312 -0.1902 -0.8651  0.7166
  322MPD2    H2 4842   2.095   0.648  13.357 -1.3306  1.5971  2.5895
  322MPD2    H3 4843   2.107   0.457  13.225 -1.8059 -1.8052  0.0016
  322MPD2     N 4844   1.966   0.185  13.579 -0.2080 -0.3431  0.1282
  322MPD2    H5 4845   1.911   0.183  13.664  0.9122 -4.0300  0.7656
  322MPD2    N1 4846   2.062   0.658  13.616  0.4779 -0.1645  0.3878
  322MPD2    H7 4847   2.107   0.736  13.567 -0.1621  2.0162  3.2781
  323TMC3    C1 4848   2.078   0.788  13.828 -0.0287  1.0399 -0.0089
  323TMC3    C2 4849   2.208   0.831  13.802  0.8009  0.4392  0.2819
  323TMC3    C3 4850   2.280   0.875  13.910  0.8555 -0.3735 -0.5185
  323TMC3    C4 4851   2.015   0.804  13.953  0.7926  0.5332 -0.5313
  323TMC3    C5 4852   2.099   0.834  14.058 -1.2004 -0.5039 -0.3863
  323TMC3    C6 4853   2.233   0.874  14.038  0.1231 -1.0532  0.4764
  323TMC3     C 4854   2.018   0.684  13.747  0.6428 -0.0203  0.0950
  323TMC3     O 4855   1.926   0.621  13.799  0.1844  0.0046  0.2682
  323TMC3     H 4856   2.249   0.814  13.703 -0.0428 -0.4493  0.0878
  323TMC3    H1 4857   1.918   0.760  13.973  0.9628 -0.6189 -2.2847
  323TMC3    H2 4858   2.280   0.905  14.130 -1.3946  2.9352 -0.0844
  323TMC3    C7 4859   2.074   0.772  14.188  0.0425 -1.0728  0.1807
  323TMC3    C8 4860   2.426   0.894  13.903 -0.1942  0.5259  0.3654
  323TMC3    O1 4861   2.170   0.720  14.247  0.2599 -0.1468 -0.0143
  323TMC3    O2 4862   2.490   0.895  14.004 -0.0265 -0.3484 -0.0864
  324MPD2     C 4863   3.152   1.189  15.178  0.6253  0.3780  0.5800
  324MPD2    C1 4864   3.215   1.166  15.058  0.6828 -0.1442 -0.0636
  324MPD2    C2 4865   3.144   1.131  14.944 -0.0230 -0.3583 -0.1400
  324MPD2    C3 4866   3.007   1.098  14.953  0.2354 -0.2273 -0.0679
  324MPD2    C4 4867   2.945   1.126  15.075  0.5601 -0.1292  0.2825
  324MPD2    C5 4868   3.018   1.173  15.184  0.4500 -0.1641 -0.2416
  324MPD2     H 4869   3.195   1.140  14.849  1.7129 -0.9826  0.7354
  324MPD2    H1 4870   2.838   1.121  15.092  0.3080 -1.9723 -1.9142
  324MPD2    H2 4871   3.203   1.218  15.269  0.2993 -2.0443  1.5137
  324MPD2    H3 4872   2.966   1.192  15.277 -0.7858  1.2549 -1.2184
  324MPD2     N 4873   2.923   1.053  14.850 -0.2352  0.3882  0.2264
  324MPD2    H5 4874   2.826   1.051  14.879 -0.1263  1.3954  0.6625
  324MPD2    N1 4875   3.352   1.189  15.043  0.1868  0.3580  0.2894
  324MPD2    H7 4876   3.382   1.159  14.951  0.5679  1.0493  0.1906
  325TMC3    C1 4877   2.848   1.004  14.629 -0.5238 -1.1532  0.1591
  325TMC3    C2 4878   2.865   1.044  14.500  0.3535 -0.3242  0.2581
  325TMC3    C3 4879   2.753   1.056  14.427  0.1244  0.0535  0.4406
  325TMC3    C4 4880   2.734   0.944  14.677  0.0845  0.1007 -0.2924
  325TMC3    C5 4881   2.618   0.952  14.598  0.7371  0.1927 -0.1286
  325TMC3    C6 4882   2.634   1.010  14.473 -0.3170  0.0616 -0.0516
  325TMC3     C 4883   2.960   1.036  14.718 -0.6566  0.0346 -0.1766
  325TMC3     O 4884   3.072   1.048  14.676  0.0556 -0.0074 -0.1472
  325TMC3     H 4885   2.962   1.081  14.470 -0.5355  1.6447 -0.1721
  325TMC3    H1 4886   2.727   0.923  14.783 -1.0000 -0.8597 -0.5526
  325TMC3    H2 4887   2.547   1.026  14.410 -0.3956 -2.6039 -0.6105
  325TMC3    C7 4888   2.501   0.992  14.675 -0.6134 -0.3629  0.5219
  325TMC3    C8 4889   2.776   1.131  14.303  0.2907  0.0914  0.2514
  325TMC3    O1 4890   2.500   0.950  14.794  0.1831 -1.1920  0.5060
  325TMC3    O2 4891   2.895   1.162  14.286  0.1011 -0.6228  0.1911
  326MPD2     C 4892   0.545   2.324  11.316  0.3453 -0.3155  0.1261
  326MPD2    C1 4893   0.433   2.366  11.260 -0.0476  0.3361  0.7557
  326MPD2    C2 4894   0.422   2.491  11.210  0.1149 -0.1992 -0.2859
  326MPD2    C3 4895   0.523   2.584  11.224 -0.4853 -0.2105 -0.8075
  326MPD2    C4 4896   0.638   2.547  11.294  0.2318  0.0772 -0.7508
  326MPD2    C5 4897   0.649   2.415  11.331  0.3804 -0.4819  0.2624
  326MPD2     H 4898   0.326   2.507  11.162 -0.6817 -1.3732  0.9277
  326MPD2    H1 4899   0.730   2.603  11.303 -0.5596  1.0117  1.4782
  326MPD2    H2 4900   0.563   2.224  11.354  0.0470  0.3741  2.0888
  326MPD2    H3 4901   0.738   2.385  11.385  0.0976  1.2471  1.7067
  326MPD2     N 4902   0.531   2.705  11.159  0.5449 -0.1017 -0.8001
  326MPD2    H5 4903   0.610   2.766  11.176  0.5268 -0.5216  0.7534
  326MPD2    N1 4904   0.329   2.282  11.238 -0.4441  1.1026  0.4198
  326MPD2    H7 4905   0.249   2.324  11.191 -2.7330 -0.7001  2.6290
  327TMC3    C1 4906   0.232   2.088  11.169  0.7196  0.3776  0.0188
  327TMC3    C2 4907   0.135   2.175  11.132  0.4009 -0.0031 -0.2623
  327TMC3    C3 4908   0.099   2.176  10.999 -0.0859 -0.6629  0.1176
  327TMC3    C4 4909   0.291   2.007  11.075 -0.6481 -0.0579 -0.2277
  327TMC3    C5 4910   0.259   2.018  10.939 -0.1935 -0.1206  0.0191
  327TMC3    C6 4911   0.167   2.110  10.899  0.3634  0.4328  0.1771
  327TMC3     C 4912   0.326   2.149  11.256  0.0320 -0.1946 -0.3004
  327TMC3     O 4913   0.411   2.080  11.309 -0.8029 -0.3437  0.3484
  327TMC3     H 4914   0.082   2.238  11.201 -1.1500 -0.8472 -0.6914
  327TMC3    H1 4915   0.359   1.929  11.108 -0.9097 -0.3510 -0.3830
  327TMC3    H2 4916   0.127   2.117  10.799  2.1065  2.3447 -0.3825
  327TMC3    C7 4917   0.375   2.028  10.855 -0.6354 -0.1866 -0.6870
  327TMC3    C8 4918   0.000   2.277  10.962  0.4446  0.3626  0.5041
  327TMC3    O1 4919   0.364   2.020  10.733  0.0348  0.4411  0.3186
  327TMC3    O2 4920   4.665   2.322  11.059  0.6574 -0.2678  0.2593
  328MPD2     C 4921   2.405   3.445   0.874 -0.2313  0.4765 -0.4075
  328MPD2    C1 4922   2.342   3.338   0.816  0.0628  0.2925  0.0204
  328MPD2    C2 4923   2.347   3.319   0.681 -0.1248 -0.4799  0.1794
  328MPD2    C3 4924   2.399   3.420   0.606 -0.3056 -0.2233 -0.0865
  328MPD2    C4 4925   2.463   3.524   0.663 -0.4687 -0.1455 -0.0376
  328MPD2    C5 4926   2.458   3.541   0.795  0.0239  0.6605 -0.4211
  328MPD2     H 4927   2.290   3.238   0.636 -1.2757 -1.7822  3.9535
  328MPD2    H1 4928   2.488   3.607   0.598  0.5659 -1.3475 -1.1731
  328MPD2    H2 4929   2.396   3.457   0.981 -1.1981 -0.8391 -0.3361
  328MPD2    H3 4930   2.499   3.633   0.837  0.4588  0.4847 -0.4680
  328MPD2     N 4931   2.404   3.409   0.460 -0.0440  0.4354 -0.0355
  328MPD2    H5 4932   2.460   3.477   0.410  0.9261  0.3908  0.9974
  328MPD2    N1 4933   2.270   3.249   0.904 -0.2578 -0.0933  0.0222
  328MPD2    H7 4934   2.253   3.276   1.000 -0.1325 -0.9774  0.2936
  329TMC3    C1 4935   2.147   3.054   0.945 -0.1012  0.4446 -0.0512
  329TMC3    C2 4936   2.062   3.121   1.024  0.1489 -0.4096 -0.6575
  329TMC3    C3 4937   1.965   3.051   1.095  0.1426 -0.7526 -1.1838
  329TMC3    C4 4938   2.158   2.916   0.944 -0.0227  0.5889 -0.0787
  329TMC3    C5 4939   2.062   2.849   1.025 -0.4873  0.2499  0.3939
  329TMC3    C6 4940   1.974   2.916   1.100 -0.3071 -0.0625 -0.3510
  329TMC3     C 4941   2.248   3.120   0.868 -0.0194  0.2402  0.5048
  329TMC3     O 4942   2.309   3.052   0.788 -0.0265 -0.1142 -0.4550
  329TMC3     H 4943   2.046   3.228   1.023  0.6991 -0.2881  1.8846
  329TMC3    H1 4944   2.234   2.864   0.887 -3.1403 -3.4740 -0.6089
  329TMC3    H2 4945   1.896   2.868   1.159  0.9441  1.2456  2.3477
  329TMC3    C7 4946   2.066   2.704   1.025  0.3417  0.1569  0.4383
  329TMC3    C8 4947   1.857   3.114   1.173 -0.1991 -0.3678 -0.0077
  329TMC3    O1 4948   2.158   2.639   0.995 -0.2761  0.4183  0.3510
  329TMC3    O2 4949   1.834   3.092   1.290 -0.3659  0.1633  0.2131
  330TMC3    C1 4950   1.302   1.413  10.119  0.5190 -0.1626 -0.0939
  330TMC3    C2 4951   1.211   1.389  10.019 -0.2421  0.3113 -0.3380
  330TMC3    C3 4952   1.154   1.265  10.007 -0.2426  0.6596  0.1548
  330TMC3    C4 4953   1.342   1.314  10.210 -0.2640  0.6452  0.0765
  330TMC3    C5 4954   1.279   1.194  10.200 -1.0811 -0.2779  0.3283
  330TMC3    C6 4955   1.182   1.169  10.102 -0.1092 -0.0516 -0.5182
  330TMC3     C 4956   1.364   1.543  10.120 -0.6885  0.1143  0.1117
  330TMC3     O 4957   1.385   1.610  10.220  0.6132 -0.1957 -0.4754
  330TMC3     H 4958   1.185   1.467   9.948 -1.7376  0.5672  0.4914
  330TMC3    H1 4959   1.438   1.314  10.260 -0.9784 -0.4428  1.4778
  330TMC3    H2 4960   1.142   1.069  10.093  0.1914 -0.2329  0.1804
  330TMC3    C7 4961   1.304   1.093  10.295 -0.3547  0.7276  0.0952
  330TMC3    C8 4962   1.108   1.227   9.875  0.0906  0.0756  0.0472
  330TMC3    O1 4963   1.237   0.991  10.280  0.3126  0.0709  0.1375
  330TMC3    O2 4964   1.129   1.309   9.786 -0.3664  0.0162 -0.3066
  331MPD2     C 4965   3.096   1.424  12.558  0.3660  0.5916  0.1128
  331MPD2    C1 4966   3.221   1.444  12.516  0.1778 -0.0879 -0.9742
  331MPD2    C2 4967   3.283   1.359  12.422 -0.4915 -0.0417  0.3048
  331MPD2    C3 4968   3.215   1.250  12.374 -0.1602  0.9308  0.8474
  331MPD2    C4 4969   3.079   1.237  12.420 -0.2997  0.6581  0.3668
  331MPD2    C5 4970   3.025   1.321  12.514 -0.4300  0.1569 -0.5704
  331MPD2     H 4971   3.380   1.388  12.384 -1.2121  3.8471  1.4082
  331MPD2    H1 4972   3.025   1.149  12.387  0.6853  0.3519 -0.4483
  331MPD2    H2 4973   3.052   1.495  12.627  0.9323 -1.9719  3.0905
  331MPD2    H3 4974   2.929   1.305  12.562 -0.0670  3.0248  1.0856
  331MPD2     N 4975   3.280   1.156  12.295  0.1512 -0.4892  0.1301
  331MPD2    H5 4976   3.369   1.189  12.261  0.4035 -0.2565  1.0222
  331MPD2    N1 4977   3.289   1.564  12.550 -0.5858  0.9585  0.3628
  331MPD2    H7 4978   3.236   1.635  12.600  0.3914  0.7691  1.6385
  332TMC3    C1 4979   3.344   0.982  12.161 -0.4553  0.2090 -0.0561
  332TMC3    C2 4980   3.409   1.068  12.080  1.1104 -0.1651  0.5500
  332TMC3    C3 4981   3.522   1.031  12.021 -0.1403  0.5102  0.3289
  332TMC3    C4 4982   3.390   0.853  12.176  0.5462  0.2460  0.0517
  332TMC3    C5 4983   3.508   0.818  12.126 -1.1317  0.1071 -0.1449
  332TMC3    C6 4984   3.580   0.905  12.048 -0.4411 -0.1507 -0.0729
  332TMC3     C 4985   3.248   1.023  12.260  0.2292  0.6252 -0.2911
  332TMC3     O 4986   3.165   0.949  12.308  0.4217  0.0627 -0.9766
  332TMC3     H 4987   3.365   1.167  12.072 -0.0330 -0.7113  0.0672
  332TMC3    H1 4988   3.330   0.790  12.240  1.3684  0.7499  1.3307
  332TMC3    H2 4989   3.673   0.874  12.002 -0.8146 -0.5696 -0.5489
  332TMC3    C7 4990   3.560   0.703  12.188 -0.1348 -0.2047 -0.0396
  332TMC3    C8 4991   3.596   1.123  11.929  0.3833  0.5753  0.2642
  332TMC3    O1 4992   3.479   0.630  12.242  0.3212 -0.6163  0.1747
  332TMC3    O2 4993   3.716   1.119  11.935  0.4036  0.3807  0.1925
  333MPD2     C 4994   3.612   0.820  11.197  0.6676 -0.7827  0.2343
  333MPD2    C1 4995   3.717   0.741  11.147 -0.1017 -0.7952 -0.3090
  333MPD2    C2 4996   3.739   0.627  11.218 -0.2289  0.3122 -0.1843
  333MPD2    C3 4997   3.676   0.591  11.331 -0.0936  0.0897 -0.5778
  333MPD2    C4 4998   3.569   0.671  11.377  0.1741  0.0256  0.6051
  333MPD2    C5 4999   3.537   0.787  11.309 -0.0506  0.1675 -0.2997
  333MPD2     H 5000   3.824   0.566  11.189 -0.8700 -0.2002 -0.9881
  333MPD2    H1 5001   3.515   0.655  11.470 -1.2806 -0.0467 -0.2596
  333MPD2    H2 5002   3.586   0.918  11.160  3.3501 -0.7887 -1.7411
  333MPD2    H3 5003   3.455   0.848  11.347 -1.0095 -0.4666 -1.3610
  333MPD2     N 5004   3.710   0.473  11.394  0.0633 -0.2013  0.2945
  333MPD2    H5 5005   3.799   0.435  11.363  0.3130  0.0991  0.6408
  333MPD2    N1 5006   3.790   0.788  11.041 -1.1745 -0.2366  0.3473
  333MPD2    H7 5007   3.780   0.886  11.015  0.1345 -0.1205  0.2722
  334TMC3    C1 5008   3.956   0.792  10.888  0.3733 -0.1827 -0.2989
  334TMC3    C2 5009   4.041   0.729  10.801  0.2536 -0.3059 -0.2546
  334TMC3    C3 5010   4.137   0.805  10.741  0.0234 -0.3245 -0.5337
  334TMC3    C4 5011   3.980   0.920  10.936  0.3630  0.2216  0.0199
  334TMC3    C5 5012   4.083   0.983  10.886 -0.1071  0.1061 -0.1843
  334TMC3    C6 5013   4.158   0.934  10.782  0.0511  0.3754  0.1510
  334TMC3     C 5014   3.880   0.709  10.976  0.0953  0.1460  0.3252
  334TMC3     O 5015   3.890   0.588  10.968  0.1683 -0.0812 -0.7613
  334TMC3     H 5016   4.023   0.623  10.786  0.0399 -0.5042  1.4023
  334TMC3    H1 5017   3.934   0.958  11.027  3.5928 -0.9556  2.1424
  334TMC3    H2 5018   4.228   0.996  10.727 -0.5241  0.2058 -0.7653
  334TMC3    C7 5019   4.085   1.127  10.905 -0.2385  0.6660 -0.1717
  334TMC3    C8 5020   4.232   0.735  10.658  0.1143  0.2967  0.2221
  334TMC3    O1 5021   4.187   1.181  10.873  0.0757  0.0218  0.3327
  334TMC3    O2 5022   4.189   0.628  10.604  0.4480 -0.1316 -0.0384
  335TMC3    C1 5023   3.305   2.838  17.455 -0.6931  0.3700 -0.1585
  335TMC3    C2 5024   3.282   2.769  17.337 -0.3283  0.4164 -0.3885
  335TMC3    C3 5025   3.385   2.749  17.244 -0.1011  0.2438  0.0791
  335TMC3    C4 5026   3.426   2.898  17.480  0.3251 -0.5731 -0.2681
  335TMC3    C5 5027   3.521   2.887  17.376 -0.0419  0.5494 -0.3359
  335TMC3    C6 5028   3.505   2.803  17.265  0.3419 -0.7130 -0.0265
  335TMC3     C 5029   3.191   2.877  17.537 -0.2841  0.4634  0.2700
  335TMC3     O 5030   3.218   2.951  17.627  0.1899  0.0344 -0.1664
  335TMC3     H 5031   3.181   2.755  17.301 -0.1157 -2.3681  0.1146
  335TMC3    H1 5032   3.443   2.961  17.567 -1.6489 -1.4498  0.7568
  335TMC3    H2 5033   3.576   2.796  17.184 -1.5141 -2.0812 -1.5288
  335TMC3    C7 5034   3.661   2.921  17.401  0.4537  0.4741 -0.2667
  335TMC3    C8 5035   3.377   2.638  17.155  0.3068 -0.9068  0.8215
  335TMC3    O1 5036   3.722   2.936  17.297 -0.2179 -0.3041 -0.1762
  335TMC3    O2 5037   3.458   2.612  17.069 -0.9924  0.1842 -0.5303
  336MPD2     C 5038   2.676   0.540  16.697  0.0433  0.6440 -0.0878
  336MPD2    C1 5039   2.718   0.523  16.571 -0.3274  0.1173 -0.2664
  336MPD2    C2 5040   2.750   0.399  16.521 -0.0438 -0.1847 -0.3232
  336MPD2    C3 5041   2.743   0.289  16.605  0.3705  0.3864  0.0993
  336MPD2    C4 5042   2.704   0.316  16.732  0.0914  0.3587 -0.6347
  336MPD2    C5 5043   2.686   0.440  16.785  0.1643  0.0131 -0.3117
  336MPD2     H 5044   2.769   0.388  16.414  0.4304 -2.4921 -0.0181
  336MPD2    H1 5045   2.696   0.234  16.802  0.6227 -0.6815 -1.7959
  336MPD2    H2 5046   2.648   0.637  16.736 -2.0254 -0.2363  0.5924
  336MPD2    H3 5047   2.672   0.452  16.892  2.3554 -1.4919  0.1478
  336MPD2     N 5048   2.753   0.148  16.555  0.6282  0.0453 -0.2694
  336MPD2    H5 5049   2.732   0.075  16.622  0.6642 -1.3089 -1.7634
  336MPD2    N1 5050   2.700   0.631  16.473 -0.5545  0.0182  0.4737
  336MPD2    H7 5051   2.710   0.611  16.374  0.3350 -0.3634  0.6411
  337TMC3    C1 5052   2.619   0.827  16.371  0.1104  0.2622 -0.3983
  337TMC3    C2 5053   2.552   0.765  16.274 -0.7600 -0.3812  0.0233
  337TMC3    C3 5054   2.491   0.830  16.173  0.8340  0.5030 -0.5305
  337TMC3    C4 5055   2.625   0.967  16.372  0.3886 -0.3528  0.0889
  337TMC3    C5 5056   2.566   1.034  16.270 -0.2493 -0.2972  0.5066
  337TMC3    C6 5057   2.501   0.973  16.166 -0.5602  0.5937 -0.5854
  337TMC3     C 5058   2.645   0.755  16.495  1.2264  0.3315 -0.1329
  337TMC3     O 5059   2.642   0.818  16.601 -0.6933 -0.4587 -0.5272
  337TMC3     H 5060   2.541   0.658  16.287  0.8759 -0.5548 -0.0557
  337TMC3    H1 5061   2.678   1.008  16.457  0.4227 -0.5772  0.1771
  337TMC3    H2 5062   2.450   1.028  16.088  0.7480  0.3370 -1.6271
  337TMC3    C7 5063   2.612   1.164  16.230 -0.7523  0.6414  0.4104
  337TMC3    C8 5064   2.371   0.765  16.123 -0.1189 -0.2074 -0.4345
  337TMC3    O1 5065   2.597   1.190  16.111 -0.1031 -0.1067 -0.4772
  337TMC3    O2 5066   2.317   0.685  16.200 -0.2922  0.0456  0.2173
  338MPD2     C 5067   2.311   0.064   0.925  1.1768  0.7091 -0.5255
  338MPD2    C1 5068   2.380   0.030   0.813  0.7989 -0.1865  0.1912
  338MPD2    C2 5069   2.310   4.703   0.703  0.1630  0.1091  0.2484
  338MPD2    C3 5070   2.179   4.685   0.705  0.9078  0.4260  0.0643
  338MPD2    C4 5071   2.109   0.022   0.813 -0.3953  0.1599 -0.1070
  338MPD2    C5 5072   2.177   0.062   0.927  0.1767  0.1304 -0.3799
  338MPD2     H 5073   2.371   4.676   0.617 -0.4440  0.5214 -0.3123
  338MPD2    H1 5074   2.001   0.022   0.820 -0.4268  0.2586 -0.6014
  338MPD2    H2 5075   2.359   0.107   1.012 -2.6050 -0.0371  1.9461
  338MPD2    H3 5076   2.113   0.101   1.006  1.5751  1.7623 -0.0284
  338MPD2     N 5077   2.125   4.600   0.606  0.0962  0.2144 -0.0751
  338MPD2    H5 5078   2.184   4.578   0.525  0.0101  2.5584 -0.7896
  338MPD2    N1 5079   2.521   0.029   0.801 -0.0223  0.2538  0.0507
  338MPD2    H7 5080   2.559   4.720   0.711  1.2676 -0.2029  0.7567
  339TMC3    C1 5081   2.007   4.415   0.542 -0.1698  0.2851 -0.4551
  339TMC3    C2 5082   2.026   4.292   0.607  0.4999  0.1218  0.3574
  339TMC3    C3 5083   2.115   4.200   0.553  0.5435  0.1626  0.2145
  339TMC3    C4 5084   2.071   4.435   0.422 -0.4934 -0.5025 -0.3431
  339TMC3    C5 5085   2.162   4.347   0.379 -0.5582  0.5383  0.5735
  339TMC3    C6 5086   2.189   4.226   0.440  0.3607  0.4499 -0.8986
  339TMC3     C 5087   2.006   4.535   0.623 -0.0618  0.3793  0.3298
  339TMC3     O 5088   1.917   4.544   0.706  0.1605  0.4446 -0.1604
  339TMC3     H 5089   1.979   4.281   0.704  1.6401 -0.3037  0.8669
  339TMC3    H1 5090   2.060   4.526   0.363 -2.0146 -0.0473  0.6185
  339TMC3    H2 5091   2.260   4.164   0.387  1.3557  1.1124 -0.3263
  339TMC3    C7 5092   2.271   4.415   0.312 -0.3817  0.1720 -0.6315
  339TMC3    C8 5093   2.168   4.084   0.622  0.3424  0.3866 -0.1670
  339TMC3    O1 5094   2.291   4.529   0.356 -0.2179 -0.2120 -0.1266
  339TMC3    O2 5095   2.231   4.010   0.548  0.1858  0.2344  0.0502
  340MPD2     C 5096   0.082   2.396   9.996 -0.2287 -0.1578  0.3342
  340MPD2    C1 5097   4.688   2.323   9.995 -0.2335  0.1260 -0.1353
  340MPD2    C2 5098   4.699   2.185   9.985 -0.2882 -1.3886  0.5031
  340MPD2    C3 5099   0.102   2.126   9.953 -0.0802 -0.0745 -0.1086
  340MPD2    C4 5100   0.219   2.204   9.956 -0.2660 -0.3618 -0.0882
  340MPD2    C5 5101   0.205   2.338   9.981  0.0142  0.1159  0.3667
  340MPD2     H 5102   4.609   2.124   9.984 -0.4336 -1.2021  2.7959
  340MPD2    H1 5103   0.320   2.170   9.936 -0.5491 -0.6591 -1.0130
  340MPD2    H2 5104   0.080   2.504   9.999  3.1304 -0.0536 -1.2499
  340MPD2    H3 5105   0.291   2.403   9.991 -1.0510  1.0869  3.1077
  340MPD2     N 5106   0.119   1.997   9.904 -0.5427 -0.5015 -0.3807
  340MPD2    H5 5107   0.213   1.973   9.872 -1.0055 -0.8366 -1.4761
  340MPD2    N1 5108   4.564   2.394   9.999  0.2599  0.2072 -0.6282
  340MPD2    H7 5109   4.564   2.495  10.000  1.2729  0.2008 -0.1363
  341TMC3    C1 5110   4.335   2.406   9.962 -0.3885  0.2855  0.9511
  341TMC3    C2 5111   4.218   2.332   9.966  0.4031 -0.5027 -0.1530
  341TMC3    C3 5112   4.138   2.312   9.856  0.1603 -0.1451  0.7683
  341TMC3    C4 5113   4.377   2.451   9.838  0.1085 -0.4293 -0.1871
  341TMC3    C5 5114   4.299   2.420   9.730  0.2198 -0.2152  0.0710
  341TMC3    C6 5115   4.185   2.349   9.736  0.4141 -0.0376  0.1358
  341TMC3     C 5116   4.441   2.336  10.025 -0.0748 -0.4465  0.0099
  341TMC3     O 5117   4.407   2.231  10.074 -0.3445 -0.0018  0.5147
  341TMC3     H 5118   4.183   2.293  10.060  0.3782  1.5835  0.7012
  341TMC3    H1 5119   4.463   2.517   9.832 -0.1699 -0.0331  0.2021
  341TMC3    H2 5120   4.130   2.309   9.651 -3.1219  1.8696  1.5372
  341TMC3    C7 5121   4.371   2.423   9.597 -0.3693 -0.2743 -0.1235
  341TMC3    C8 5122   4.085   2.175   9.847  0.8050 -0.0353  0.7007
  341TMC3    O1 5123   4.495   2.444   9.606 -0.4323 -0.0908  0.2931
  341TMC3    O2 5124   3.995   2.150   9.766 -0.4768 -0.1733 -0.4630
  342MPD2     C 5125   1.270   0.885  17.568 -0.7263 -0.5800 -0.3381
  342MPD2    C1 5126   1.175   0.929  17.477 -0.5849 -0.4248  0.2503
  342MPD2    C2 5127   1.163   1.065  17.455  0.2932 -0.4888  0.9827
  342MPD2    C3 5128   1.236   1.153  17.535  0.5236 -0.8212 -0.0635
  342MPD2    C4 5129   1.325   1.108  17.630 -0.1273 -0.0500  0.2037
  342MPD2    C5 5130   1.344   0.978  17.638  0.5409  0.0610 -0.3381
  342MPD2     H 5131   1.086   1.104  17.390  2.3648  1.2145 -0.4808
  342MPD2    H1 5132   1.386   1.173   0.001 -1.0629 -0.2150  1.3275
  342MPD2    H2 5133   1.289   0.779  17.584 -0.9815 -0.8364 -1.7262
  342MPD2    H3 5134   1.417   0.950   0.024 -0.5046  1.8050  1.3112
  342MPD2     N 5135   1.224   1.290  17.521 -0.5421 -0.2885  0.0430
  342MPD2    H5 5136   1.282   1.343  17.585 -1.8242  1.4419 -0.2051
  342MPD2    N1 5137   1.101   0.843  17.399 -0.0261 -0.4077 -0.1940
  342MPD2    H7 5138   1.053   0.879  17.317  0.4896 -0.0690 -0.3431
  343TMC3    C1 5139   1.014   0.636  17.340 -0.2043  0.7875 -0.0272
  343TMC3    C2 5140   1.075   0.645  17.218 -0.1613  0.5469 -0.2296
  343TMC3    C3 5141   1.110   0.526  17.152 -0.5290  0.7396 -1.0772
  343TMC3    C4 5142   0.981   0.511  17.388 -0.4725 -1.1007  0.3905
  343TMC3    C5 5143   1.003   0.397  17.313 -0.0332  0.0089  0.0079
  343TMC3    C6 5144   1.062   0.406  17.196  0.3672 -0.6790  0.2125
  343TMC3     C 5145   1.053   0.724  17.450  0.4321 -0.6212  0.3240
  343TMC3     O 5146   1.065   0.677  17.563 -0.0784 -0.0694 -0.3540
  343TMC3     H 5147   1.137   0.732  17.198  0.1157  0.5407  0.6144
  343TMC3    H1 5148   0.928   0.502  17.481  0.7406 -0.9429  1.1020
  343TMC3    H2 5149   1.083   0.316  17.139  4.8362  0.4354  0.1611
  343TMC3    C7 5150   0.992   0.272  17.380  0.1789 -0.4333  0.4393
  343TMC3    C8 5151   1.221   0.536  17.064  0.1305 -0.7392  0.4345
  343TMC3    O1 5152   0.963   0.178  17.313 -0.1271  0.5067 -0.5120
  343TMC3    O2 5153   1.227   0.647  17.007  0.2618  0.1108 -0.1348
  344MPD2     C 5154   2.307   4.525  10.489 -0.1971  0.1530 -0.2723
  344MPD2    C1 5155   2.333   4.531  10.624  0.0443  0.1419 -0.1311
  344MPD2    C2 5156   2.444   4.599  10.672  0.6588 -0.3931 -0.0691
  344MPD2    C3 5157   2.523   4.665  10.582 -0.3760  0.0131  0.2599
  344MPD2    C4 5158   2.493   4.660  10.447  0.3528  0.3219  0.4740
  344MPD2    C5 5159   2.395   4.582  10.404 -0.8148 -0.3581 -0.2579
  344MPD2     H 5160   2.465   4.604  10.778 -0.8899 -1.3329  0.2855
  344MPD2    H1 5161   2.550   0.005  10.383  2.6114 -1.3928  0.6781
  344MPD2    H2 5162   2.223   4.472  10.445 -1.6612  0.8428  1.7075
  344MPD2    H3 5163   2.374   4.576  10.298 -1.7921  0.5376 -0.1083
  344MPD2     N 5164   2.629   0.032  10.613 -0.1569  0.0566  0.2884
  344MPD2    H5 5165   2.663   0.085  10.533 -0.6890  2.0232  1.3611
  344MPD2    N1 5166   2.263   4.450  10.714 -0.0856 -0.5909  0.0316
  344MPD2    H7 5167   2.295   4.433  10.808  1.6102  1.2137 -0.2224
  345TMC3    C1 5168   2.751   0.183  10.751  0.1737 -0.5148 -0.4659
  345TMC3    C2 5169   2.737   0.272  10.847 -0.1955  0.6119 -0.1411
  345TMC3    C3 5170   2.834   0.370  10.858 -0.4459  0.3298  0.0712
  345TMC3    C4 5171   2.843   0.203  10.648 -0.6119  0.0473 -0.0566
  345TMC3    C5 5172   2.930   0.302  10.664  0.3272 -0.9160  0.1484
  345TMC3    C6 5173   2.945   0.373  10.779  0.1829 -0.1675 -0.0671
  345TMC3     C 5174   2.664   0.069  10.742 -0.5610 -0.4139 -0.4125
  345TMC3     O 5175   2.627   0.026  10.854 -0.3254  0.8188  0.3405
  345TMC3     H 5176   2.660   0.258  10.922  0.3788  1.4246  0.6091
  345TMC3    H1 5177   2.841   0.156  10.551  2.0730 -2.4633  1.1249
  345TMC3    H2 5178   3.016   0.455  10.790  0.6015 -0.1600 -2.8485
  345TMC3    C7 5179   3.008   0.345  10.550 -0.0313 -0.3120  0.1620
  345TMC3    C8 5180   2.780   0.507  10.858  0.0605 -0.7553  0.2728
  345TMC3    O1 5181   3.115   0.400  10.578  0.5448  0.7514  0.3149
  345TMC3    O2 5182   2.856   0.595  10.817 -0.5463 -0.0672  0.7881
  346MPD2     C 5183   2.552   1.722  13.704  0.6236  0.3554 -0.0394
  346MPD2    C1 5184   2.585   1.829  13.780  0.4597  0.7371 -0.2037
  346MPD2    C2 5185   2.516   1.868  13.893 -1.8516 -0.4022 -0.4500
  346MPD2    C3 5186   2.408   1.790  13.934  0.3872  0.7662  0.3405
  346MPD2    C4 5187   2.371   1.680  13.853 -0.4422 -0.2542  0.1167
  346MPD2    C5 5188   2.449   1.644  13.749  0.4433  0.1168  0.7533
  346MPD2     H 5189   2.549   1.953  13.952  1.5285 -1.7426 -0.4326
  346MPD2    H1 5190   2.278   1.625  13.865  0.0198 -1.4922 -1.9043
  346MPD2    H2 5191   2.603   1.696  13.612 -0.2477  0.1936 -0.4793
  346MPD2    H3 5192   2.419   1.550  13.702  2.1682  0.0649 -0.2412
  346MPD2     N 5193   2.334   1.833  14.047 -0.2322 -0.2920 -0.1756
  346MPD2    H5 5194   2.372   1.913  14.097  0.4386 -0.9684  0.3906
  346MPD2    N1 5195   2.685   1.918  13.742 -0.1974  0.4592  0.2902
  346MPD2    H7 5196   2.677   2.006  13.791 -1.6248  1.5447 -1.9135
  347TMC3    C1 5197   2.201   1.805  14.239  0.3944 -0.1860  0.3045
  347TMC3    C2 5198   2.155   1.697  14.308  0.2297  0.3885  0.2638
  347TMC3    C3 5199   2.205   1.674  14.439 -0.0438 -0.2076 -0.2240
  347TMC3    C4 5200   2.276   1.903  14.304 -0.1860  0.3561 -0.9667
  347TMC3    C5 5201   2.321   1.873  14.427 -0.1757 -0.2947  0.1290
  347TMC3    C6 5202   2.286   1.764  14.502 -0.1617 -0.3482  0.4428
  347TMC3     C 5203   2.222   1.770  14.104  0.0268  0.3291 -0.2433
  347TMC3     O 5204   2.175   1.660  14.065 -0.4217  0.2703 -0.4883
  347TMC3     H 5205   2.100   1.614  14.265 -2.5634  2.3839 -0.0540
  347TMC3    H1 5206   2.278   1.999  14.254 -0.8353 -0.1165 -1.9186
  347TMC3    H2 5207   2.324   1.741  14.601  0.2768 -0.6467  0.2087
  347TMC3    C7 5208   2.393   1.981  14.499  0.5602  0.2296  0.0375
  347TMC3    C8 5209   2.202   1.535  14.484 -0.5051 -0.3167 -0.0019
  347TMC3    O1 5210   2.373   1.978  14.621 -0.6040  0.1347  0.0883
  347TMC3    O2 5211   2.179   1.448  14.398  0.1047  0.4766  0.2609
  348MPD2     C 5212   1.017   1.664  12.259  0.2242  0.0836  0.7342
  348MPD2    C1 5213   1.098   1.595  12.177 -0.3763 -0.2853  0.4708
  348MPD2    C2 5214   1.123   1.629  12.047 -0.2247 -0.2336  0.1213
  348MPD2    C3 5215   1.069   1.749  12.003 -0.4910  0.0764 -0.4344
  348MPD2    C4 5216   0.993   1.825  12.091  0.8709  0.4237  0.0004
  348MPD2    C5 5217   0.959   1.781  12.214 -0.0917 -0.4771 -0.2402
  348MPD2     H 5218   1.185   1.570  11.979 -0.6901 -0.5497 -0.0335
  348MPD2    H1 5219   0.934   1.910  12.059 -1.9055 -0.9154  1.5866
  348MPD2    H2 5220   0.989   1.632  12.359 -2.3707 -2.4644 -0.8072
  348MPD2    H3 5221   0.897   1.847  12.274  0.1226 -2.2703  1.9648
  348MPD2     N 5222   1.112   1.785  11.870  0.6961 -0.1394  0.9055
  348MPD2    H5 5223   1.156   1.713  11.814 -1.6509 -0.6961 -0.2386
  348MPD2    N1 5224   1.166   1.475  12.220  0.7030  0.1268  0.7007
  348MPD2    H7 5225   1.219   1.436  12.143 -1.0779  3.1922 -2.1053
  349TMC3    C1 5226   1.270   1.309  12.335 -0.0754 -0.2021 -0.2972
  349TMC3    C2 5227   1.240   1.195  12.397  0.3787  0.3187  1.3675
  349TMC3    C3 5228   1.300   1.082  12.343 -0.4927  0.7099 -0.1074
  349TMC3    C4 5229   1.370   1.325  12.245 -0.3145 -0.4709  0.2271
  349TMC3    C5 5230   1.436   1.213  12.206 -0.4447  0.0124 -0.7746
  349TMC3    C6 5231   1.386   1.092  12.243  0.0230 -0.2456  0.4487
  349TMC3     C 5232   1.165   1.417  12.344 -0.3610  0.5929  0.9832
  349TMC3     O 5233   1.089   1.425  12.438 -0.4067 -0.4557 -0.2834
  349TMC3     H 5234   1.155   1.183  12.463 -1.3930 -2.3686 -1.3755
  349TMC3    H1 5235   1.403   1.421  12.206 -2.0905 -1.0482 -2.7247
  349TMC3    H2 5236   1.447   1.010  12.208  0.9678  0.3223  0.7562
  349TMC3    C7 5237   1.506   1.218  12.083 -0.4896  0.3192  0.6530
  349TMC3    C8 5238   1.269   0.954  12.398  0.4041 -0.3167  0.2397
  349TMC3    O1 5239   1.484   1.136  11.994 -0.2978 -0.5350  0.0657
  349TMC3    O2 5240   1.230   0.959  12.512 -0.2737 -0.4709 -0.1985
  350MPD2     C 5241   0.472   4.086   9.728 -0.0011  0.1522  0.3140
  350MPD2    C1 5242   0.539   4.003   9.812  0.4024  0.5257 -0.3205
  350MPD2    C2 5243   0.673   4.011   9.836 -0.5633 -0.1597  0.1713
  350MPD2    C3 5244   0.747   4.119   9.782 -0.1446  0.7769  0.5271
  350MPD2    C4 5245   0.680   4.197   9.694 -0.0383 -0.1588  0.5317
  350MPD2    C5 5246   0.545   4.182   9.668  0.2568 -0.5220 -0.0442
  350MPD2     H 5247   0.719   3.957   9.918  0.7067  0.2938 -0.2415
  350MPD2    H1 5248   0.737   4.275   9.644 -1.0041 -0.1324 -0.5511
  350MPD2    H2 5249   0.371   4.071   9.693  0.5610  1.6652 -1.9459
  350MPD2    H3 5250   0.494   4.235   9.588  1.7531  0.8914 -0.0641
  350MPD2     N 5251   0.885   4.131   9.812  0.0989 -0.2113 -0.2224
  350MPD2    H5 5252   0.926   4.072   9.884 -0.8680  2.2562  2.3490
  350MPD2    N1 5253   0.467   3.903   9.882 -0.2052 -0.1363  0.0144
  350MPD2    H7 5254   0.524   3.845   9.942  0.5574  1.6963  1.0795
  351TMC3    C1 5255   0.304   3.759   9.955 -0.0562 -0.4061 -0.2854
  351TMC3    C2 5256   0.382   3.645   9.955 -0.7112 -0.1739 -0.3043
  351TMC3    C3 5257   0.327   3.537  10.014  0.0133 -0.1174  0.6858
  351TMC3    C4 5258   0.170   3.755   9.993 -0.1280 -0.3324  0.3107
  351TMC3    C5 5259   0.123   3.640  10.055  0.3907 -0.4513  0.2515
  351TMC3    C6 5260   0.201   3.533  10.076 -0.0116  0.3457  0.2285
  351TMC3     C 5261   0.336   3.872   9.872  0.2286  0.2020 -0.4711
  351TMC3     O 5262   0.245   3.939   9.832 -0.7944 -0.9279 -0.0035
  351TMC3     H 5263   0.480   3.639   9.907  0.2417  0.6022  1.5322
  351TMC3    H1 5264   0.109   3.844   9.986  0.5900  0.0535 -1.0222
  351TMC3    H2 5265   0.170   3.444  10.129  2.3833 -0.1963  0.6906
  351TMC3    C7 5266   4.708   3.634  10.092 -0.4771  0.4367  0.4038
  351TMC3    C8 5267   0.430   3.427  10.021  0.0364 -0.4424 -0.3634
  351TMC3    O1 5268   4.650   3.742  10.087 -0.0455  0.3771 -0.1096
  351TMC3    O2 5269   0.518   3.427   9.933 -0.1070 -0.3106  0.6403
  352MPD2     C 5270   3.450   2.339   1.373  0.0906 -0.4485 -0.4487
  352MPD2    C1 5271   3.395   2.239   1.299  0.3256  0.3084 -0.3260
  352MPD2    C2 5272   3.455   2.112   1.299  0.1810  0.4177  0.1561
  352MPD2    C3 5273   3.574   2.091   1.359  0.5492 -0.4504  0.0027
  352MPD2    C4 5274   3.644   2.197   1.409 -0.1935 -0.3638 -0.1470
  352MPD2    C5 5275   3.580   2.316   1.415  0.2140  0.0450 -0.0725
  352MPD2     H 5276   3.408   2.025   1.255  1.7302 -0.5694  0.4416
  352MPD2    H1 5277   3.749   2.196   1.437  0.2249  2.0829 -1.6253
  352MPD2    H2 5278   3.406   2.434   1.398 -0.7144 -1.1499  0.7827
  352MPD2    H3 5279   3.636   2.397   1.461  0.7003 -0.2215 -0.1936
  352MPD2     N 5280   3.638   1.969   1.343 -0.1916 -0.5854  0.4148
  352MPD2    H5 5281   3.582   1.909   1.282 -1.3534 -1.7169  2.5995
  352MPD2    N1 5282   3.268   2.272   1.244 -0.0453  0.2027 -0.1239
  352MPD2    H7 5283   3.234   2.368   1.243 -0.4366  0.0484 -1.2013
  353TMC3    C1 5284   3.805   1.807   1.332  0.0192  0.7817 -0.8033
  353TMC3    C2 5285   3.872   1.715   1.407 -0.1308 -0.1541  0.0280
  353TMC3    C3 5286   3.858   1.580   1.374 -0.4693 -0.4366  0.5574
  353TMC3    C4 5287   3.748   1.771   1.209 -0.6387  0.2094  0.3422
  353TMC3    C5 5288   3.746   1.637   1.179 -0.0145 -0.2376  0.2179
  353TMC3    C6 5289   3.804   1.541   1.258 -0.3139 -0.0725  0.4605
  353TMC3     C 5290   3.762   1.929   1.391  0.0115  0.0878 -0.2666
  353TMC3     O 5291   3.830   1.981   1.482 -0.5349 -0.3490 -0.0433
  353TMC3     H 5292   3.924   1.747   1.496 -1.1760  4.5759 -1.0436
  353TMC3    H1 5293   3.694   1.837   1.142  0.5830 -1.0386 -1.8814
  353TMC3    H2 5294   3.823   1.442   1.218  1.0326 -0.0885  1.1363
  353TMC3    C7 5295   3.693   1.591   1.050  0.6432 -0.4915  0.0643
  353TMC3    C8 5296   3.907   1.484   1.471  0.0272  0.0433  0.4337
  353TMC3    O1 5297   3.656   1.477   1.063 -0.3852 -0.2985 -0.4475
  353TMC3    O2 5298   3.978   1.525   1.558 -0.1760 -0.6094  0.5784
  354TMC3    C1 5299   0.412   2.859  13.605  0.3147 -0.3047 -0.0434
  354TMC3    C2 5300   0.338   2.922  13.511 -0.5177 -0.3047  0.2294
  354TMC3    C3 5301   0.402   2.959  13.396 -0.2949  0.5820 -0.6282
  354TMC3    C4 5302   0.548   2.842  13.601 -0.1476 -0.0852 -0.0059
  354TMC3    C5 5303   0.612   2.898  13.492  0.6005  0.0710  0.5925
  354TMC3    C6 5304   0.541   2.941  13.380 -0.3314  0.1540  0.2736
  354TMC3     C 5305   0.346   2.781  13.704  0.4791  0.0079  0.6933
  354TMC3     O 5306   0.239   2.821  13.750  0.4260 -0.2763  0.5425
  354TMC3     H 5307   0.233   2.943  13.531 -0.4881 -1.2578  1.3714
  354TMC3    H1 5308   0.604   2.800  13.683 -1.1465 -0.3896  0.5144
  354TMC3    H2 5309   0.597   2.979  13.296 -4.2795 -1.4204 -3.0973
  354TMC3    C7 5310   0.756   2.859  13.489 -0.2592 -0.1837 -0.5969
  354TMC3    C8 5311   0.328   3.003  13.283 -0.1506 -0.0978  0.4939
  354TMC3    O1 5312   0.790   2.772  13.566 -0.5609 -0.1110  0.1230
  354TMC3    O2 5313   0.394   2.994  13.179  0.1196  0.9114 -0.6439
  355MPD2     C 5314   0.428   3.935  11.879 -0.0517 -0.6325 -0.1655
  355MPD2    C1 5315   0.518   3.858  11.806 -0.0701  0.4056 -0.2751
  355MPD2    C2 5316   0.580   3.746  11.864  0.8973 -0.1503  0.8201
  355MPD2    C3 5317   0.548   3.703  11.992  0.5293 -0.6984 -0.0833
  355MPD2    C4 5318   0.455   3.777  12.061  0.4406  0.2170  0.0407
  355MPD2    C5 5319   0.395   3.894  12.002 -0.4425  0.3047 -0.0434
  355MPD2     H 5320   0.657   3.696  11.807 -0.4443 -0.9880 -0.2872
  355MPD2    H1 5321   0.425   3.748  12.161 -1.0174 -2.3300 -1.1255
  355MPD2    H2 5322   0.378   4.020  11.834 -0.5045  0.1765  1.8498
  355MPD2    H3 5323   0.324   3.952  12.060 -0.1774  0.4394  0.1461
  355MPD2     N 5324   0.609   3.593  12.049 -0.4755 -0.5402 -0.2321
  355MPD2    H5 5325   0.616   3.589  12.150  0.6674  1.3575 -0.2321
  355MPD2    N1 5326   0.560   3.911  11.678  0.2074  0.0550  0.2225
  355MPD2    H7 5327   0.530   4.003  11.647 -2.1906 -0.1179  2.0309
  356TMC3    C1 5328   0.816   3.536  11.976 -0.4716  0.6399  0.6454
  356TMC3    C2 5329   0.880   3.544  11.854  0.2424  0.6576 -0.3457
  356TMC3    C3 5330   0.990   3.626  11.835  0.2356 -0.8416  0.5797
  356TMC3    C4 5331   0.858   3.616  12.077  0.6604  0.7214 -0.4511
  356TMC3    C5 5332   0.968   3.692  12.059 -0.0256 -0.3499  0.6049
  356TMC3    C6 5333   1.037   3.697  11.940 -0.3006 -0.0971 -0.1329
  356TMC3     C 5334   0.673   3.501  11.972  0.1955  0.6961 -0.0932
  356TMC3     O 5335   0.636   3.462  11.862  0.3400  0.8426  0.3921
  356TMC3     H 5336   0.843   3.495  11.765  0.7120 -1.2368  0.4931
  356TMC3    H1 5337   0.832   3.595  12.180  1.8234 -1.1476 -0.5486
  356TMC3    H2 5338   1.112   3.774  11.926  1.2394 -1.2074  2.0099
  356TMC3    C7 5339   1.001   3.773  12.169  0.2145 -0.6540  0.5636
  356TMC3    C8 5340   1.040   3.640  11.699  0.9235  0.1002 -0.8271
  356TMC3    O1 5341   0.958   3.748  12.281  0.3131 -0.8133  0.3501
  356TMC3    O2 5342   1.009   3.553  11.620  0.9317 -0.0720 -0.3424
  357MPD2     C 5343   4.255   3.342   1.964 -0.4776 -0.1552 -0.7906
  357MPD2    C1 5344   4.374   3.279   1.977 -0.4832  0.4020  0.3901
  357MPD2    C2 5345   4.373   3.154   2.034 -0.9393 -0.1565 -0.0152
  357MPD2    C3 5346   4.255   3.095   2.077 -0.0130 -0.6524 -0.4634
  357MPD2    C4 5347   4.133   3.154   2.047  0.1168 -0.1511  0.0021
  357MPD2    C5 5348   4.136   3.284   2.001  0.4581 -0.8245  0.5427
  357MPD2     H 5349   4.466   3.099   2.024 -0.1423  1.1164  0.3962
  357MPD2    H1 5350   4.036   3.109   2.069 -0.2182  0.8355  0.5179
  357MPD2    H2 5351   4.239   3.443   1.928 -1.9282  0.6992  2.2716
  357MPD2    H3 5352   4.041   3.334   1.990  1.1667  0.2616 -0.6791
  357MPD2     N 5353   4.252   2.967   2.140  0.9777 -0.3276  0.1991
  357MPD2    H5 5354   4.164   2.939   2.183  1.1497 -0.6661  0.3292
  357MPD2    N1 5355   4.489   3.353   1.953 -0.0546  0.1039 -0.1689
  357MPD2    H7 5356   4.473   3.450   1.928  0.3940 -0.0226 -0.9796
  358TMC3    C1 5357   4.719   3.411   1.906  0.4948 -0.8756 -0.0468
  358TMC3    C2 5358   4.679   3.515   1.827  0.2765  0.4486  1.1756
  358TMC3    C3 5359   0.054   3.580   1.757  0.3127 -0.5132  0.7540
  358TMC3    C4 5360   0.124   3.383   1.934  0.6798 -0.0459  0.6222
  358TMC3    C5 5361   0.218   3.459   1.881  0.0292 -0.1113  0.4590
  358TMC3    C6 5362   0.185   3.544   1.783 -0.3093 -0.5969 -0.3186
  358TMC3     C 5363   4.618   3.310   1.948  0.2666 -1.1655 -0.2157
  358TMC3     O 5364   4.660   3.207   1.996  0.3890 -0.6626 -0.7109
  358TMC3     H 5365   4.576   3.521   1.795  0.6859  0.1687 -0.1756
  358TMC3    H1 5366   0.148   3.286   1.977 -0.3954 -0.8735 -0.6302
  358TMC3    H2 5367   0.264   3.602   1.736  1.4877 -1.8725  1.0975
  358TMC3    C7 5368   0.355   3.415   1.891  0.5956  0.3732 -0.1850
  358TMC3    C8 5369   0.021   3.647   1.635 -0.0051  0.0191 -0.1377
  358TMC3    O1 5370   0.430   3.467   1.807  0.2812  0.1143 -0.2248
  358TMC3    O2 5371   0.114   3.661   1.557  0.2809 -0.1158  0.2605
  359MPD2     C 5372   1.146   3.152  12.446  0.5176 -0.3071  0.2228
  359MPD2    C1 5373   1.184   3.024  12.470  0.1106  0.1560 -0.0091
  359MPD2    C2 5374   1.107   2.956  12.570  0.3289  0.1774 -0.5932
  359MPD2    C3 5375   1.023   3.024  12.655  0.0128  0.2866 -0.2117
  359MPD2    C4 5376   1.005   3.160  12.642 -1.1899  0.2097 -0.0546
  359MPD2    C5 5377   1.055   3.217  12.526 -0.2544  0.5501  0.2670
  359MPD2     H 5378   1.130   2.850  12.577 -0.5881  0.1185  1.5488
  359MPD2    H1 5379   0.935   3.215  12.703 -0.1302  0.2146  1.1722
  359MPD2    H2 5380   1.187   3.209  12.363 -1.3613 -1.0317 -1.1999
  359MPD2    H3 5381   1.022   3.320  12.514 -0.2961  0.4007 -0.8437
  359MPD2     N 5382   0.958   2.963  12.767  0.6237  0.4255 -0.0050
  359MPD2    H5 5383   0.895   3.019  12.824 -0.8249 -0.1339 -1.0543
  359MPD2    N1 5384   1.267   2.952  12.379 -0.6536 -0.2601 -0.7116
  359MPD2    H7 5385   1.280   2.852  12.384 -1.2726 -0.4108 -2.4094
  360TMC3    C1 5386   1.396   2.921  12.190  0.0500  0.2516  0.4201
  360TMC3    C2 5387   1.522   2.938  12.149  0.0542  0.2724  0.0651
  360TMC3    C3 5388   1.559   2.858  12.043  0.3772  0.0519  0.0958
  360TMC3    C4 5389   1.308   2.834  12.145 -0.3313 -0.1578 -1.2494
  360TMC3    C5 5390   1.346   2.750  12.049  0.2882 -0.1506 -0.6825
  360TMC3    C6 5391   1.469   2.761  11.998 -0.0529 -0.2571  0.1515
  360TMC3     C 5392   1.345   3.017  12.280  0.1771  0.2745 -0.1383
  360TMC3     O 5393   1.387   3.133  12.262  0.0798 -0.1800  0.2522
  360TMC3     H 5394   1.585   3.022  12.177 -1.8207  1.1810  1.5832
  360TMC3    H1 5395   1.206   2.837  12.180 -0.0626 -2.2375 -0.2980
  360TMC3    H2 5396   1.500   2.703  11.912 -0.9533 -0.5714  0.0391
  360TMC3    C7 5397   1.261   2.672  11.964 -0.0091 -0.1310 -0.3137
  360TMC3    C8 5398   1.664   2.891  11.958 -0.2051  0.3148  0.6353
  360TMC3    O1 5399   1.314   2.580  11.907 -0.4730 -0.2772  0.2362
  360TMC3    O2 5400   1.680   3.012  11.948  0.0141  0.0479  0.2949
  361MPD2     C 5401   2.082   1.232  16.825  0.0378  0.1702 -0.4636
  361MPD2    C1 5402   2.132   1.299  16.935  0.4282  0.9743  0.1647
  361MPD2    C2 5403   2.248   1.242  16.992 -0.1049  0.0651  0.7147
  361MPD2    C3 5404   2.304   1.121  16.942 -0.6349 -0.3069 -0.1880
  361MPD2    C4 5405   2.252   1.070  16.826  0.1288  0.1781  0.4649
  361MPD2    C5 5406   2.142   1.120  16.769  0.1311  0.2196  0.2313
  361MPD2     H 5407   2.291   1.295  17.077  0.8491 -1.4856  1.1952
  361MPD2    H1 5408   2.280   0.974  16.784 -0.3499  0.2479 -0.0288
  361MPD2    H2 5409   1.987   1.259  16.781 -0.0298 -0.3218 -0.6201
  361MPD2    H3 5410   2.087   1.070  16.691  4.9060 -0.2179 -2.8333
  361MPD2     N 5411   2.406   1.051  17.004 -0.5896  0.2416  0.4442
  361MPD2    H5 5412   2.453   0.975  16.954  0.2911  0.0975  1.4823
  361MPD2    N1 5413   2.065   1.415  16.982 -0.0574 -0.2352 -0.2825
  361MPD2    H7 5414   1.984   1.445  16.927 -0.7478 -1.3687  0.1249
  362TMC3    C1 5415   2.017   1.603  17.112  0.2991 -0.6268  0.2612
  362TMC3    C2 5416   1.891   1.554  17.129  0.1785 -0.1111  0.4074
  362TMC3    C3 5417   1.792   1.650  17.114 -0.8913  0.1559  0.7763
  362TMC3    C4 5418   2.051   1.726  17.076 -0.3819  0.5301 -0.0644
  362TMC3    C5 5419   1.954   1.819  17.067 -0.4045  0.0082 -0.7984
  362TMC3    C6 5420   1.822   1.784  17.083 -0.5581 -0.3845 -0.2060
  362TMC3     C 5421   2.117   1.504  17.077  0.1935  0.0229  0.0875
  362TMC3     O 5422   2.223   1.512  17.136  0.3444 -0.0549 -0.2940
  362TMC3     H 5423   1.864   1.449  17.125  1.2645 -0.3565 -0.4840
  362TMC3    H1 5424   2.147   1.739  17.028  0.1698 -1.0080  0.6321
  362TMC3    H2 5425   1.744   1.859  17.072 -0.6659 -0.4571  0.0418
  362TMC3    C7 5426   1.967   1.946  16.990 -0.8824  0.8081  0.4749
  362TMC3    C8 5427   1.651   1.603  17.112  0.2246  0.0067  0.1024
  362TMC3    O1 5428   2.069   2.009  17.002 -0.5198 -0.3158  0.0489
  362TMC3    O2 5429   1.634   1.482  17.110 -0.0381  0.0451  0.0088
  363TMC3    C1 5430   1.247   3.025   9.269 -0.2370 -0.2198 -0.7826
  363TMC3    C2 5431   1.250   2.937   9.377  0.0147  0.6517  1.2317
  363TMC3    C3 5432   1.175   2.973   9.483 -0.1350  1.4236 -0.0592
  363TMC3    C4 5433   1.174   3.140   9.272  0.0376  0.4271  0.0992
  363TMC3    C5 5434   1.102   3.161   9.378  0.0193  0.0345  0.3205
  363TMC3    C6 5435   1.100   3.085   9.491  0.3283 -0.0165  0.4962
  363TMC3     C 5436   1.346   3.025   9.173 -0.4011  0.3008 -0.1910
  363TMC3     O 5437   1.317   3.071   9.061 -0.5425  0.2176 -0.2657
  363TMC3     H 5438   1.287   2.836   9.363 -0.9003  0.8979 -3.1295
  363TMC3    H1 5439   1.182   3.204   9.184 -0.6929  1.4416  0.7702
  363TMC3    H2 5440   1.049   3.113   9.583  2.7911  1.8060  1.3230
  363TMC3    C7 5441   1.007   3.265   9.353  0.3451  0.0523 -0.4489
  363TMC3    C8 5442   1.199   2.909   9.610  0.0247 -0.8121 -0.2440
  363TMC3    O1 5443   1.045   3.362   9.294 -0.1061  0.0549  0.0709
  363TMC3    O2 5444   1.113   2.912   9.700 -0.3160 -0.6074 -0.1779
  364MPD2     C 5445   4.498   2.636  10.690 -0.3461  0.2213 -0.1620
  364MPD2    C1 5446   4.625   2.620  10.635  0.6304  0.1378 -0.0449
  364MPD2    C2 5447   4.699   2.518  10.685 -0.8126 -0.6401 -0.3262
  364MPD2    C3 5448   4.659   2.440  10.792 -0.5768  0.5425  0.0202
  364MPD2    C4 5449   4.529   2.456  10.847  0.6568  0.6759 -0.4538
  364MPD2    C5 5450   4.457   2.560  10.793 -0.5203  0.0741  0.7097
  364MPD2     H 5451   0.075   2.503  10.642  0.5234  1.3553  2.0397
  364MPD2    H1 5452   4.484   2.409  10.933 -0.9791 -0.8083 -2.1184
  364MPD2    H2 5453   4.420   2.706  10.661  0.2315 -0.7892 -4.0836
  364MPD2    H3 5454   4.365   2.585  10.845 -0.6651 -0.8791  0.9096
  364MPD2     N 5455   0.025   2.343  10.844  0.3275  0.6081  0.1015
  364MPD2    H5 5456   0.103   2.331  10.781  0.6260  1.1154  0.3719
  364MPD2    N1 5457   4.668   2.705  10.532  0.0241 -0.4379  0.1664
  364MPD2    H7 5458   4.612   2.788  10.515 -0.4645 -0.7183  0.3988
  365TMC3    C1 5459   0.070   2.794  10.349 -0.2312 -0.0888  0.0580
  365TMC3    C2 5460   0.145   2.766  10.237 -0.2628  0.0071 -0.2887
  365TMC3    C3 5461   0.190   2.870  10.169 -0.6618  0.1581 -0.3344
  365TMC3    C4 5462   0.041   2.924  10.380  0.1847  0.8358 -0.0814
  365TMC3    C5 5463   0.092   3.026  10.303  0.3371  0.2130  0.5704
  365TMC3    C6 5464   0.174   2.995  10.195 -0.0039  0.2747 -0.2878
  365TMC3     C 5465   0.047   2.682  10.440  0.7984  0.7327  0.0717
  365TMC3     O 5466   0.107   2.576  10.424 -0.0293  0.1349  0.1721
  365TMC3     H 5467   0.172   2.663  10.217  0.8083  0.4893 -1.3005
  365TMC3    H1 5468   4.702   2.939  10.468  0.2268  0.0444  0.0859
  365TMC3    H2 5469   0.235   3.065  10.139  1.0107  0.4723  1.0959
  365TMC3    C7 5470   0.096   3.169  10.325  0.0162  0.2580  0.2016
  365TMC3    C8 5471   0.260   2.840  10.044  0.5114 -0.5274 -0.5574
  365TMC3    O1 5472   0.160   3.240  10.251  0.1827 -0.6032 -0.7033
  365TMC3    O2 5473   0.243   2.918   9.954 -0.0763  0.1467  0.3548
  366MPD2     C 5474   2.025   4.304  15.141  0.4193  0.0010  0.0030
  366MPD2    C1 5475   2.076   4.335  15.263  0.0514 -0.0513  0.0544
  366MPD2    C2 5476   2.212   4.309  15.285  0.0641  0.1637 -1.0184
  366MPD2    C3 5477   2.297   4.284  15.179  0.6087 -0.4958 -0.3614
  366MPD2    C4 5478   2.246   4.264  15.051  0.1089  0.1564 -0.1817
  366MPD2    C5 5479   2.107   4.264  15.042  0.0924 -0.1001 -0.2632
  366MPD2     H 5480   2.262   4.327  15.379 -0.3304  1.3592 -1.0454
  366MPD2    H1 5481   2.297   4.232  14.960  0.1087 -1.9808  0.5725
  366MPD2    H2 5482   1.920   4.315  15.115  0.6434  1.3161 -0.2965
  366MPD2    H3 5483   2.056   4.235  14.951  1.9646  1.4116 -1.7705
  366MPD2     N 5484   2.439   4.279  15.208  0.7316  0.3022 -0.0016
  366MPD2    H5 5485   2.472   4.322  15.294  0.7882 -1.6904  0.9690
  366MPD2    N1 5486   1.997   4.405  15.357  0.0403  0.2564  0.7265
  366MPD2    H7 5487   1.936   4.476  15.316 -1.8525 -0.9946  1.4124
  367TMC3    C1 5488   2.096   4.565  15.507  0.8297 -0.1974 -0.1890
  367TMC3    C2 5489   2.222   4.572  15.556  0.5030  0.6217  0.1770
  367TMC3    C3 5490   2.289   4.687  15.543  0.6180  0.4330  0.2876
  367TMC3    C4 5491   2.033   4.671  15.441 -0.3717  0.0890  0.0974
  367TMC3    C5 5492   2.104   0.064  15.422  0.6955  0.6197  1.0531
  367TMC3    C6 5493   2.237   0.070  15.471  0.1605 -0.4078 -0.6641
  367TMC3     C 5494   2.051   4.428  15.484 -0.0895 -0.3338  0.2510
  367TMC3     O 5495   2.111   4.342  15.549  0.6383 -0.4655 -0.0622
  367TMC3     H 5496   2.271   4.491  15.609 -1.5365 -0.3783  0.5751
  367TMC3    H1 5497   1.925   4.665  15.433 -0.2623 -0.6404 -0.7970
  367TMC3    H2 5498   2.304   0.149  15.442 -0.8994  0.2102 -1.4038
  367TMC3    C7 5499   2.057   0.190  15.373  0.0913  0.4851  0.0344
  367TMC3    C8 5500   2.424   4.697  15.574  0.0288  0.9990  0.2469
  367TMC3    O1 5501   2.114   0.289  15.422 -0.4547 -0.0279 -0.0945
  367TMC3    O2 5502   2.488   4.595  15.595 -0.0170 -0.4019 -0.1948
  368MPD2     C 5503   4.381   1.664  13.121  0.2504 -0.1536 -0.2838
  368MPD2    C1 5504   4.358   1.796  13.093  0.3530  0.0119  0.1804
  368MPD2    C2 5505   4.451   1.860  13.007  0.0908 -0.3195  0.1006
  368MPD2    C3 5506   4.572   1.802  12.972  0.1324 -0.6189 -0.4344
  368MPD2    C4 5507   4.602   1.685  13.039 -0.0688 -0.3810 -0.4245
  368MPD2    C5 5508   4.505   1.607  13.099  0.7226 -0.6109  0.8785
  368MPD2     H 5509   4.425   1.955  12.963  1.1086 -0.4641 -0.8080
  368MPD2    H1 5510   4.702   1.642  13.039 -0.1596 -0.5935 -0.9409
  368MPD2    H2 5511   4.302   1.602  13.163 -0.4709  0.4018 -0.8107
  368MPD2    H3 5512   4.528   1.510  13.140  1.1395 -1.1257 -0.6055
  368MPD2     N 5513   4.673   1.856  12.885 -0.1779  0.0897  0.4084
  368MPD2    H5 5514   0.039   1.805  12.881 -1.4013 -1.9835 -0.5218
  368MPD2    N1 5515   4.232   1.855  13.135 -0.0597  0.4471  0.5148
  368MPD2    H7 5516   4.167   1.792  13.180 -1.4654 -1.1385 -3.7798
  369TMC3    C1 5517   4.078   2.034  13.174 -0.1224  0.2840 -0.0146
  369TMC3    C2 5518   4.055   2.167  13.137 -0.7923  0.0781 -0.2041
  369TMC3    C3 5519   3.925   2.207  13.095 -0.6902 -0.4168 -0.5690
  369TMC3    C4 5520   3.979   1.944  13.173  0.0657  0.0623 -0.1715
  369TMC3    C5 5521   3.855   1.978  13.137 -0.2304 -0.9753 -0.1350
  369TMC3    C6 5522   3.831   2.108  13.095  0.5136 -0.0878  0.8137
  369TMC3     C 5523   4.218   1.993  13.142  0.2008  0.2055  0.1254
  369TMC3     O 5524   4.296   2.083  13.106  0.0677  0.5679 -0.5027
  369TMC3     H 5525   4.132   2.243  13.136 -1.1650  0.5029  3.3990
  369TMC3    H1 5526   4.000   1.841  13.198 -1.6629 -0.5900 -1.4086
  369TMC3    H2 5527   3.729   2.142  13.081  1.6877  2.9491 -0.3779
  369TMC3    C7 5528   3.744   1.903  13.207 -0.2588 -0.4693  0.9754
  369TMC3    C8 5529   3.911   2.307  12.993  0.7350  0.1579 -0.1838
  369TMC3    O1 5530   3.763   1.861  13.323  0.1260  1.0450  0.2644
  369TMC3    O2 5531   3.811   2.293  12.922  0.1471 -0.8086  0.0694
  370TMC3    C1 5532   3.190   2.140  16.502  0.1302  0.5301 -0.5482
  370TMC3    C2 5533   3.144   2.063  16.599 -0.0942 -0.1804 -0.3940
  370TMC3    C3 5534   3.071   1.952  16.563 -0.0573  0.1742  0.3360
  370TMC3    C4 5535   3.174   2.109  16.370  0.5741  0.0105 -0.4449
  370TMC3    C5 5536   3.087   2.014  16.331 -0.5635  0.2294 -0.3366
  370TMC3    C6 5537   3.034   1.935  16.432 -0.1936  0.0600  0.0518
  370TMC3     C 5538   3.303   2.211  16.539  0.5249  0.5933  0.2252
  370TMC3     O 5539   3.367   2.174  16.639  0.0925  1.4588  0.0415
  370TMC3     H 5540   3.158   2.082  16.705  0.3764 -1.0988 -0.2827
  370TMC3    H1 5541   3.219   2.181  16.302 -0.4783  0.6756 -0.4393
  370TMC3    H2 5542   2.953   1.868  16.409  2.1099 -3.1374  1.3205
  370TMC3    C7 5543   3.107   1.959  16.191 -0.4662 -0.4143  0.3288
  370TMC3    C8 5544   3.055   1.848  16.657 -1.0751  0.0557 -0.1561
  370TMC3    O1 5545   3.115   2.043  16.100  0.8309  0.1293 -0.4916
  370TMC3    O2 5546   3.025   1.735  16.622 -0.0578  0.7312 -0.7810
  371TMC3    C1 5547   4.371   0.209  16.028 -0.4899  0.2672 -0.5476
  371TMC3    C2 5548   4.236   0.214  15.994 -0.6308 -0.0579 -0.2681
  371TMC3    C3 5549   4.180   0.340  16.013  0.0198  0.1033  0.4569
  371TMC3    C4 5550   4.448   0.311  16.081  0.8388  0.4440 -0.5270
  371TMC3    C5 5551   4.385   0.428  16.082  0.1095  0.4582 -0.5104
  371TMC3    C6 5552   4.252   0.449  16.060 -0.5170  0.2673  0.6258
  371TMC3     C 5553   4.457   0.095  15.978  0.2102 -0.8299 -0.4757
  371TMC3     O 5554   4.574   0.116  15.963 -0.7518  0.2429  0.2692
  371TMC3     H 5555   4.177   0.133  15.950 -0.7009 -0.6693  0.9380
  371TMC3    H1 5556   4.555   0.304  16.098  0.3727 -0.5010  1.9589
  371TMC3    H2 5557   4.220   0.549  16.086 -1.3728  0.1469  0.0615
  371TMC3    C7 5558   4.463   0.543  16.042  0.3494  0.6350 -0.6351
  371TMC3    C8 5559   4.041   0.347  15.971  0.0324  0.2204  0.1668
  371TMC3    O1 5560   4.404   0.633  15.983 -0.1155  0.4211  0.3190
  371TMC3    O2 5561   3.987   0.247  15.919  0.3291 -0.3027  0.2737
  372MPD2     C 5562   4.594   1.703  13.548  0.1878  1.1417  0.5211
  372MPD2    C1 5563   4.652   1.660  13.665 -0.1775 -0.3940 -0.1453
  372MPD2    C2 5564   4.662   1.523  13.684 -0.2634 -0.3611  0.1170
  372MPD2    C3 5565   4.593   1.433  13.606 -0.0468  1.0010  0.1669
  372MPD2    C4 5566   4.528   1.481  13.496 -0.1916 -1.3077 -0.2694
  372MPD2    C5 5567   4.530   1.613  13.467  0.2602 -0.3402 -0.0079
  372MPD2     H 5568   4.710   1.489  13.775 -2.2499 -0.3054  1.2038
  372MPD2    H1 5569   4.468   1.418  13.432 -1.3848 -1.7115  1.2608
  372MPD2    H2 5570   4.610   1.803  13.510  1.6357  2.0279  3.4758
  372MPD2    H3 5571   4.494   1.647  13.371 -2.8788 -0.2695  1.1915
  372MPD2     N 5572   4.605   1.306  13.644 -0.1132 -0.0064  0.0957
  372MPD2    H5 5573   4.666   1.290  13.723 -0.0428 -3.6800 -0.7349
  372MPD2    N1 5574   4.690   1.756  13.761  0.6119  0.0995 -0.1028
  372MPD2    H7 5575   4.711   1.715  13.852  0.3381  0.2974  0.0505
  373TMC3    C1 5576   4.601   1.069  13.639 -0.0471 -0.1004 -0.4506
  373TMC3    C2 5577   4.577   1.060  13.775 -0.8041  0.9388 -0.4349
  373TMC3    C3 5578   4.589   0.941  13.838  0.3000  0.6317  0.2624
  373TMC3    C4 5579   4.624   0.955  13.562 -0.2843  0.2060 -0.1194
  373TMC3    C5 5580   4.634   0.837  13.625 -0.5868  0.0691 -0.1758
  373TMC3    C6 5581   4.617   0.832  13.760  0.3854  0.4548  0.5749
  373TMC3     C 5582   4.568   1.196  13.572  0.3234  0.1058  0.3058
  373TMC3     O 5583   4.512   1.194  13.462 -0.3169  0.1325 -0.1709
  373TMC3     H 5584   4.555   1.149  13.833  0.5271  0.4779  0.7750
  373TMC3    H1 5585   4.628   0.963  13.454  0.3513 -1.9932 -0.2564
  373TMC3    H2 5586   4.618   0.731  13.799 -1.4600 -0.3563 -1.4530
  373TMC3    C7 5587   4.675   0.729  13.539  0.4190 -0.0647  0.3257
  373TMC3    C8 5588   4.486   0.907  13.940  0.6927  0.5428  0.7411
  373TMC3    O1 5589   4.643   0.732  13.418 -0.1293  0.0394  0.1531
  373TMC3    O2 5590   4.532   0.911  14.052  0.5501 -0.2975  0.3062
  374TMC3    C1 5591   0.488   1.185   9.960 -0.8977  0.0047  0.1016
  374TMC3    C2 5592   0.576   1.290   9.948 -0.2462 -0.0312  0.0435
  374TMC3    C3 5593   0.653   1.289   9.841  0.2886  0.2027  0.6576
  374TMC3    C4 5594   0.477   1.083   9.867  0.7274  0.1671 -0.1736
  374TMC3    C5 5595   0.566   1.094   9.763 -0.0957 -0.5439  0.5316
  374TMC3    C6 5596   0.651   1.200   9.741  1.0725  0.1808 -0.8759
  374TMC3     C 5597   0.364   1.206  10.035  0.5780  0.0035 -0.5338
  374TMC3     O 5598   0.262   1.141  10.008  0.0991  0.1874 -0.0758
  374TMC3     H 5599   0.576   1.380  10.008 -0.6232 -0.9045  1.3524
  374TMC3    H1 5600   0.407   1.000   9.877 -0.0920  0.6429 -2.0071
  374TMC3    H2 5601   0.740   1.200   9.679  0.5515 -0.1988 -1.6253
  374TMC3    C7 5602   0.539   1.012   9.649 -0.3534 -0.6550 -0.5316
  374TMC3    C8 5603   0.762   1.395   9.828  0.5765 -0.0752  0.3702
  374TMC3    O1 5604   0.486   0.901   9.665  0.7300 -0.4286  0.0290
  374TMC3    O2 5605   0.809   1.417   9.716  0.4533 -0.4368  0.0076
  375MPD2     C 5606   0.088   2.146  17.291 -0.1544 -0.5741 -0.1641
  375MPD2    C1 5607   0.040   2.219  17.185 -0.5838 -0.1719  0.1793
  375MPD2    C2 5608   0.096   2.207  17.055 -0.9423  0.2318 -0.1974
  375MPD2    C3 5609   0.201   2.116  17.034  0.2267  0.6337 -0.0797
  375MPD2    C4 5610   0.244   2.045  17.143 -0.5526 -0.3842 -0.0373
  375MPD2    C5 5611   0.195   2.060  17.271  0.3699  0.0273 -0.0482
  375MPD2     H 5612   0.064   2.269  16.972 -0.9573  0.6456  0.1171
  375MPD2    H1 5613   0.330   1.981  17.129  0.4600  0.2298  3.4663
  375MPD2    H2 5614   0.050   2.143  17.393  0.3824  1.2177  0.0910
  375MPD2    H3 5615   0.230   1.997  17.352 -1.8543  0.0156  0.9090
  375MPD2     N 5616   0.253   2.077  16.913  0.1377  0.1742  0.4978
  375MPD2    H5 5617   0.330   2.011  16.915  0.3324  0.4862  2.9979
  375MPD2    N1 5618   4.661   2.314  17.205 -0.3681 -0.6269  0.6202
  375MPD2    H7 5619   4.624   2.361  17.123 -0.5672 -0.7549  0.6382
  376TMC3    C1 5620   0.287   2.075  16.675  0.4648  0.0120  1.2469
  376TMC3    C2 5621   0.419   2.093  16.663 -0.1592  0.1125  0.0277
  376TMC3    C3 5622   0.484   2.110  16.542  0.0562 -0.5369  0.0969
  376TMC3    C4 5623   0.213   2.078  16.567  0.4130 -0.6321  0.4735
  376TMC3    C5 5624   0.274   2.098  16.439  0.4993  0.5324  0.1113
  376TMC3    C6 5625   0.410   2.112  16.429 -0.1736 -0.4330 -0.3454
  376TMC3     C 5626   0.220   2.133  16.790  0.2887  0.5344  0.2686
  376TMC3     O 5627   0.131   2.208  16.757  0.4987  0.3097  0.4182
  376TMC3     H 5628   0.476   2.076  16.754 -1.5951  1.2407  1.1205
  376TMC3    H1 5629   0.110   2.052  16.589 -0.2614  0.6911 -1.0252
  376TMC3    H2 5630   0.456   2.133  16.333  3.0132 -2.3179  0.7805
  376TMC3    C7 5631   0.187   2.117  16.322  0.2166 -0.3319 -0.1441
  376TMC3    C8 5632   0.623   2.151  16.535 -0.1791 -0.5953  0.2062
  376TMC3    O1 5633   0.245   2.160  16.223  0.1802 -0.2014  0.0986
  376TMC3    O2 5634   0.653   2.242  16.462 -0.4772  0.3471  0.1320
  377MPD2     C 5635   3.203   1.904  13.141  0.1849  0.5475  0.2916
  377MPD2    C1 5636   3.155   1.953  13.024  0.6101 -0.2449 -0.3507
  377MPD2    C2 5637   3.021   1.935  12.993 -0.7546 -0.0086  0.2114
  377MPD2    C3 5638   2.935   1.865  13.081  0.1712  0.3392  0.1371
  377MPD2    C4 5639   2.986   1.821  13.201 -0.2264  0.8325 -0.0752
  377MPD2    C5 5640   3.119   1.847  13.226  0.5049  0.8738  0.6046
  377MPD2     H 5641   2.983   1.955  12.893 -0.3960  0.8213  0.2390
  377MPD2    H1 5642   2.927   1.764  13.272 -3.3140  1.4178 -2.1809
  377MPD2    H2 5643   3.306   1.896  13.172  0.0887 -0.9927  0.1898
  377MPD2    H3 5644   3.165   1.795  13.310 -2.0326  0.6220  1.8578
  377MPD2     N 5645   2.801   1.827  13.056  0.1891  0.4019  0.2054
  377MPD2    H5 5646   2.761   1.758  13.119  1.7559 -1.2492 -0.5912
  377MPD2    N1 5647   3.248   2.003  12.931 -0.4906 -0.0140  0.3562
  377MPD2    H7 5648   3.344   1.995  12.963 -0.0419  2.1543 -0.5031
  378TMC3    C1 5649   3.456   2.257  12.622 -0.5805 -0.3632 -0.3167
  378TMC3    C2 5650   3.338   2.202  12.659 -0.4987  0.4789  0.1751
  378TMC3    C3 5651   3.344   2.101  12.744  0.1453  0.0341 -0.9949
  378TMC3    C4 5652   3.572   2.200  12.647 -0.9536 -0.0305 -0.1278
  378TMC3    C5 5653   3.577   2.090  12.725  0.7886 -0.1491  0.7083
  378TMC3    C6 5654   3.465   2.053  12.790 -0.0694  0.3627  0.1083
  378TMC3     C 5655   3.454   2.362  12.523 -0.1952 -0.0603  0.3707
  378TMC3     O 5656   3.393   2.348  12.421  0.0807  0.6894 -0.3047
  378TMC3     H 5657   3.241   2.240  12.628 -0.2255 -0.2903 -1.5999
  378TMC3    H1 5658   3.662   2.246  12.608 -0.1653 -1.5262 -0.0676
  378TMC3    H2 5659   3.479   1.978  12.867  2.2722 -0.1161 -0.7742
  378TMC3    C7 5660   3.703   2.029  12.752  0.3352  0.6682  0.1541
  378TMC3    C8 5661   3.225   2.060  12.810  0.1671  0.1377  0.7222
  378TMC3    O1 5662   3.713   1.964  12.854  0.4263 -0.1613  0.5351
  378TMC3    O2 5663   3.122   2.076  12.750 -0.1774 -0.4545  0.4243
  379MPD2     C 5664   3.233   4.534  16.317  0.1352  0.3883 -0.5519
  379MPD2    C1 5665   3.332   4.483  16.234 -0.3204  0.9473 -0.6382
  379MPD2    C2 5666   3.435   4.412  16.289 -0.6914 -0.3114  0.2851
  379MPD2    C3 5667   3.437   4.397  16.432 -0.0377  0.1412  0.2744
  379MPD2    C4 5668   3.347   4.456  16.509  0.2918 -0.5866  0.6247
  379MPD2    C5 5669   3.244   4.529  16.456 -0.3860  0.6279  0.0799
  379MPD2     H 5670   3.520   4.377  16.231  0.4327  2.2360  0.4162
  379MPD2    H1 5671   3.340   4.451  16.617 -0.8585 -0.3621  0.5589
  379MPD2    H2 5672   3.156   4.604  16.285 -0.8661 -0.2297  0.5412
  379MPD2    H3 5673   3.171   4.585  16.513 -2.5566 -0.6179 -1.4958
  379MPD2     N 5674   3.532   4.309  16.498  0.1277 -0.2988  0.2909
  379MPD2    H5 5675   3.523   4.308  16.599 -0.1098 -2.8152  0.2466
  379MPD2    N1 5676   3.302   4.505  16.098  0.2581  0.5438 -0.9130
  379MPD2    H7 5677   3.213   4.551  16.084 -0.2270  0.1212  0.7918
  380TMC3    C1 5678   3.322   4.515  15.864 -0.3627  0.5673  0.2325
  380TMC3    C2 5679   3.374   4.490  15.744 -0.9445  0.3916 -0.5519
  380TMC3    C3 5680   3.304   4.527  15.631  0.5567  0.1747  0.7121
  380TMC3    C4 5681   3.212   4.600  15.874 -0.1284 -0.0454 -0.6627
  380TMC3    C5 5682   3.145   4.638  15.761  0.4171 -0.3313 -0.1089
  380TMC3    C6 5683   3.180   4.596  15.639 -0.8687 -0.1523  0.1347
  380TMC3     C 5684   3.386   4.476  15.994 -0.1935 -0.0044  0.0250
  380TMC3     O 5685   3.497   4.429  15.989 -0.1299 -0.3430  0.2196
  380TMC3     H 5686   3.463   4.428  15.742 -2.9589 -2.5361  0.2951
  380TMC3    H1 5687   3.185   4.653  15.965 -1.9302 -1.6706 -0.2416
  380TMC3    H2 5688   3.139   4.632  15.545 -0.1595 -0.3130 -0.2386
  380TMC3    C7 5689   3.044   0.016  15.771 -0.3679  0.4124  0.0538
  380TMC3    C8 5690   3.362   4.526  15.501 -0.2919 -0.4655  0.1675
  380TMC3    O1 5691   3.056   0.098  15.863 -0.0275  0.8902  0.2613
  380TMC3    O2 5692   3.480   4.541  15.483 -0.2422  0.0795 -0.2579
  381TMC3    C1 5693   2.995   1.129  16.472  0.2452 -0.1890 -0.7548
  381TMC3    C2 5694   3.063   1.226  16.408  0.1408  0.5308  0.1044
  381TMC3    C3 5695   3.087   1.353  16.465  0.1298  0.5827  0.1327
  381TMC3    C4 5696   2.959   1.159  16.600  0.7778 -0.6748  0.4775
  381TMC3    C5 5697   2.976   1.276  16.656 -0.4249  0.3593 -0.3201
  381TMC3    C6 5698   3.039   1.382  16.589  0.2455  0.3207 -0.7194
  381TMC3     C 5699   2.978   0.996  16.417  0.8361 -0.4677  0.3633
  381TMC3     O 5700   2.961   0.913  16.504 -0.1813  0.4449  0.2239
  381TMC3     H 5701   3.102   1.203  16.310  0.1407 -1.3596  0.5459
  381TMC3    H1 5702   2.883   1.092  16.640  0.1222 -0.3983 -0.3058
  381TMC3    H2 5703   3.040   1.479  16.638  1.1767 -0.4431  0.7720
  381TMC3    C7 5704   2.915   1.299  16.787  0.5515 -0.1532 -0.3523
  381TMC3    C8 5705   3.205   1.429  16.415  0.7028 -0.1325 -0.1320
  381TMC3    O1 5706   2.889   1.202  16.856  0.2412  0.4124  0.2759
  381TMC3    O2 5707   3.260   1.393  16.315  0.5253 -0.3614 -0.0408
  382MPD2     C 5708   1.744   3.989  17.413 -0.0976 -0.1176 -0.3905
  382MPD2    C1 5709   1.849   3.978  17.501  0.6265  0.0854 -0.3910
  382MPD2    C2 5710   1.878   3.858  17.561  0.2422 -0.9819  0.5821
  382MPD2    C3 5711   1.794   3.750  17.530  0.3535  0.5243  0.0833
  382MPD2    C4 5712   1.684   3.762  17.451 -0.1421  0.6290 -0.5479
  382MPD2    C5 5713   1.658   3.883  17.398  0.2929  0.7773 -0.3434
  382MPD2     H 5714   1.960   3.848  17.630  0.7148 -0.9233  0.0254
  382MPD2    H1 5715   1.624   3.672  17.437 -1.4848  1.0435  2.3926
  382MPD2    H2 5716   1.717   4.082  17.364  1.6374 -0.3259 -1.7282
  382MPD2    H3 5717   1.564   3.898  17.346 -0.2709 -1.8263 -0.1091
  382MPD2     N 5718   1.821   3.622  17.570  0.2793 -0.0368  0.1394
  382MPD2    H5 5719   1.772   3.543  17.529  0.5693  0.3336 -0.9179
  382MPD2    N1 5720   1.946   4.087  17.526  0.5678  0.0110 -0.0621
  382MPD2    H7 5721   2.010   4.077  17.603 -0.1143 -1.9217  0.2521
  383TMC3    C1 5722   1.939   3.446  17.676 -0.0659  0.5072 -0.4034
  383TMC3    C2 5723   1.956   3.362  17.567  1.4383  0.2112 -0.0401
  383TMC3    C3 5724   1.958   3.224  17.585 -0.2646  0.3725 -0.2603
  383TMC3    C4 5725   1.900   3.396   0.109 -0.3617  0.4711 -0.3709
  383TMC3    C5 5726   1.891   3.257   0.121  0.4974  0.3594 -0.0009
  383TMC3    C6 5727   1.918   3.172   0.017  0.3230 -0.3863 -0.4629
  383TMC3     C 5728   1.926   3.590  17.656 -0.0668 -0.1574  0.1405
  383TMC3     O 5729   1.974   3.660   0.054 -0.1284 -0.3629  0.2090
  383TMC3     H 5730   1.994   3.403  17.474 -0.9856  0.8124 -0.7731
  383TMC3    H1 5731   1.860   3.457   0.189 -1.5660  0.3089 -0.8536
  383TMC3    H2 5732   1.930   3.065   0.030  1.8365 -0.0330  1.1255
  383TMC3    C7 5733   1.872   3.207   0.251  0.2917 -0.2621 -0.2619
  383TMC3    C8 5734   1.927   3.145  17.469  0.0527 -0.8391 -0.6801
  383TMC3    O1 5735   1.876   3.285   0.342 -0.5243  0.0648 -0.0665
  383TMC3    O2 5736   1.881   3.214  17.378 -0.3806 -0.5394 -0.0323
  384MPD2     C 5737   4.450   0.127  12.269 -0.2802  0.4441  0.4852
  384MPD2    C1 5738   4.403   4.719  12.300  0.6656 -0.2311  0.2164
  384MPD2    C2 5739   4.477   4.606  12.263  0.0462  0.1173  0.7078
  384MPD2    C3 5740   4.607   4.623  12.217 -0.1747  0.3773  0.1405
  384MPD2    C4 5741   4.652   0.029  12.183 -0.5844 -0.5103 -0.5159
  384MPD2    C5 5742   4.577   0.140  12.210 -0.8782  0.8387 -0.2967
  384MPD2     H 5743   4.457   4.506  12.300 -0.2630  0.0991  0.4884
  384MPD2    H1 5744   0.016   0.024  12.116  0.4546  0.1075  0.7789
  384MPD2    H2 5745   4.397   0.220  12.286  0.7313  1.0794  0.2023
  384MPD2    H3 5746   4.611   0.236  12.173  3.7305 -0.6477  0.0730
  384MPD2     N 5747   4.669   4.506  12.169  0.0388 -0.2722 -0.2913
  384MPD2    H5 5748   4.614   4.422  12.184 -1.4205  0.5568 -1.0587
  384MPD2    N1 5749   4.284   4.698  12.361  0.4461 -0.0979  0.0841
  384MPD2    H7 5750   4.248   4.604  12.372  1.3189 -0.6128 -1.4824
  385TMC3    C1 5751   0.102   4.354  12.056 -0.1604  0.5031 -0.0926
  385TMC3    C2 5752   0.113   4.356  11.918  0.2567  0.5576  0.2877
  385TMC3    C3 5753   0.034   4.267  11.856 -0.0407  0.2671 -1.0175
  385TMC3    C4 5754   0.026   4.265  12.131 -0.6834 -0.1689 -0.6303
  385TMC3    C5 5755   4.657   4.188  12.060  0.4861 -0.1456 -0.6503
  385TMC3    C6 5756   4.657   4.192  11.923 -0.1332 -0.7012 -0.5281
  385TMC3     C 5757   0.076   4.490  12.111  0.1663 -0.0130  0.8788
  385TMC3     O 5758   0.155   4.576  12.070  0.3405  0.6510  0.1946
  385TMC3     H 5759   0.180   4.421  11.864  2.4101 -1.1338  0.9077
  385TMC3    H1 5760   0.022   4.280  12.239  0.4111 -0.1236 -0.5894
  385TMC3    H2 5761   4.581   4.134  11.872 -0.3954 -0.6318 -0.2135
  385TMC3    C7 5762   4.526   4.203  12.121  0.7653 -0.6128  0.1978
  385TMC3    C8 5763   0.029   4.280  11.713  0.0849  0.0976  0.0908
  385TMC3    O1 5764   4.521   4.275  12.220  0.2751 -0.1556 -0.0044
  385TMC3    O2 5765   0.057   4.385  11.655 -0.1772  0.0932 -0.1348
  386TMC3    C1 5766   0.165   1.987  11.949  0.2362 -0.3812 -0.1801
  386TMC3    C2 5767   0.214   1.966  11.823  0.1316 -0.0545  0.9375
  386TMC3    C3 5768   0.198   2.065  11.728  0.0574  0.2453  0.0398
  386TMC3    C4 5769   0.102   2.094  11.984 -0.0632  0.1274 -1.1138
  386TMC3    C5 5770   0.057   2.175  11.877  0.3017  0.1848  0.4211
  386TMC3    C6 5771   0.117   2.174  11.749  0.2244 -0.3590  0.9193
  386TMC3     C 5772   0.245   1.928  12.050  0.2689 -1.1020 -0.1614
  386TMC3     O 5773   0.236   1.985  12.159 -0.3741 -0.4283  0.3073
  386TMC3     H 5774   0.269   1.876  11.799  0.4063  0.0414  1.1975
  386TMC3    H1 5775   0.062   2.104  12.084 -0.4358 -0.0592 -1.2432
  386TMC3    H2 5776   0.094   2.254  11.679 -1.2556 -3.0838 -1.7543
  386TMC3    C7 5777   4.647   2.234  11.892 -0.0357  0.7300 -0.2571
  386TMC3    C8 5778   0.186   2.029  11.587 -0.3363 -0.2208 -0.0540
  386TMC3    O1 5779   4.618   2.279  12.003 -0.2693  0.6700 -0.5437
  386TMC3    O2 5780   0.142   2.115  11.512  0.5177 -0.0352  0.0789
  387MPD2     C 5781   3.584   1.507  10.525 -0.6133 -0.3044 -0.0058
  387MPD2    C1 5782   3.672   1.405  10.523 -0.4852 -0.5458  0.4107
  387MPD2    C2 5783   3.629   1.282  10.471  0.2148 -0.0725  0.2699
  387MPD2    C3 5784   3.504   1.275  10.402  0.3875 -0.6068 -0.9617
  387MPD2    C4 5785   3.425   1.388  10.393  0.1780 -0.1998  0.4075
  387MPD2    C5 5786   3.460   1.495  10.464  0.0232 -0.1944 -0.1169
  387MPD2     H 5787   3.702   1.202  10.459  0.4603 -0.2079  2.8456
  387MPD2    H1 5788   3.327   1.388  10.345  1.6026  1.9339 -2.4833
  387MPD2    H2 5789   3.599   1.596  10.585  0.2656  0.4740 -1.3838
  387MPD2    H3 5790   3.394   1.581  10.464 -1.6279 -1.4583 -3.4165
  387MPD2     N 5791   3.482   1.159  10.336  0.2846  0.1048  0.2455
  387MPD2    H5 5792   3.542   1.080  10.358 -0.5090 -1.2690 -2.5463
  387MPD2    N1 5793   3.793   1.399  10.589  0.0655  0.0779 -0.8077
  387MPD2    H7 5794   3.836   1.309  10.605 -0.0817  0.2898  0.7727
  388TMC3    C1 5795   4.008   1.487  10.641 -0.3442  0.3779 -0.2455
  388TMC3    C2 5796   4.086   1.589  10.643  0.0283  0.4397 -0.6235
  388TMC3    C3 5797   4.220   1.566  10.627 -0.2151 -0.7209  0.4351
  388TMC3    C4 5798   4.053   1.358  10.613  0.2806  0.6996 -0.8002
  388TMC3    C5 5799   4.191   1.338  10.593 -0.0306 -0.9004 -0.0536
  388TMC3    C6 5800   4.277   1.445  10.594 -0.3646  0.2337  0.8250
  388TMC3     C 5801   3.875   1.516  10.611 -0.1590  0.3204  0.0675
  388TMC3     O 5802   3.848   1.630  10.581 -0.2433 -0.2131 -0.4407
  388TMC3     H 5803   4.040   1.685  10.661 -1.1138 -0.7208  2.6740
  388TMC3    H1 5804   3.991   1.279  10.653  0.8425 -0.1656 -1.6413
  388TMC3    H2 5805   4.381   1.424  10.573 -0.6478 -0.8679  0.5398
  388TMC3    C7 5806   4.231   1.226  10.519  0.6979  0.0829 -0.2592
  388TMC3    C8 5807   4.307   1.681  10.644 -0.6382  0.0229 -0.5118
  388TMC3    O1 5808   4.350   1.201  10.502 -0.2840  0.1180 -0.2668
  388TMC3    O2 5809   4.243   1.784  10.656 -0.0747  0.4177  0.3835
  389MPD2     C 5810   1.930   0.199  10.483 -0.0809 -0.2963  0.2859
  389MPD2    C1 5811   1.844   0.091  10.467 -0.1102  0.2719  0.6983
  389MPD2    C2 5812   1.759   0.055  10.575 -0.3433 -0.8014  0.6108
  389MPD2    C3 5813   1.764   0.131  10.695  1.0268 -0.0995  0.5195
  389MPD2    C4 5814   1.851   0.235  10.710 -0.5846 -0.1192 -0.0116
  389MPD2    C5 5815   1.932   0.266  10.603  0.3758 -0.2642  0.4340
  389MPD2     H 5816   1.693   4.691  10.568 -3.3285  1.3949  1.9027
  389MPD2    H1 5817   1.867   0.292  10.801 -1.7897 -1.1952  0.8638
  389MPD2    H2 5818   2.001   0.224  10.405  0.2379 -1.5631  0.1696
  389MPD2    H3 5819   2.008   0.343  10.610  0.3930 -0.2617  0.1929
  389MPD2     N 5820   1.675   0.109  10.808 -0.1848  0.3196  0.3257
  389MPD2    H5 5821   1.684   0.183  10.877 -0.2559  0.4419  0.2058
  389MPD2    N1 5822   1.853   0.029  10.339 -0.3522 -0.0382 -0.7084
  389MPD2    H7 5823   1.914   0.072  10.270  1.1873  0.6568  1.1008
  390TMC3    C1 5824   1.498   0.035  10.928 -0.6500 -0.3063  0.4794
  390TMC3    C2 5825   1.464   4.645  11.001 -0.2799 -0.4905 -0.1453
  390TMC3    C3 5826   1.430   4.662  11.128  0.5983 -0.8848 -0.6261
  390TMC3    C4 5827   1.481   0.161  10.977  0.1644  0.4660 -0.4659
  390TMC3    C5 5828   1.436   0.171  11.102 -0.1814 -0.4540 -0.2895
  390TMC3    C6 5829   1.413   0.066  11.180 -0.1494 -0.2487  0.3361
  390TMC3     C 5830   1.573   0.018  10.813 -0.2575 -0.7168 -0.4078
  390TMC3     O 5831   1.545   4.640  10.748  0.3975  0.0269  0.4296
  390TMC3     H 5832   1.487   4.545  10.967  0.2707  0.2147 -1.8212
  390TMC3    H1 5833   1.482   0.250  10.916  0.1868  0.2944 -0.7192
  390TMC3    H2 5834   1.385   0.089  11.282 -0.0918 -0.3810  0.3824
  390TMC3    C7 5835   1.395   0.308  11.133 -0.6548 -0.5710  0.1271
  390TMC3    C8 5836   1.347   4.557  11.184  1.3452  0.3490 -0.1291
  390TMC3    O1 5837   1.481   0.394  11.136 -0.3261 -0.5324 -0.2405
  390TMC3    O2 5838   1.319   4.460  11.110  0.0057  0.6254  0.3875
  391MPD2     C 5839   0.977   1.466  11.361  0.2475 -0.0644  0.3297
  391MPD2    C1 5840   1.086   1.542  11.335 -0.4213  0.1590  0.3039
  391MPD2    C2 5841   1.124   1.558  11.199  0.5475  0.5548  0.5107
  391MPD2    C3 5842   1.043   1.510  11.101  0.0013  0.1286 -0.7348
  391MPD2    C4 5843   0.923   1.448  11.130 -0.1989  0.1595 -0.2331
  391MPD2    C5 5844   0.894   1.422  11.262 -0.0776 -0.9610  0.2666
  391MPD2     H 5845   1.214   1.614  11.176  1.6001 -0.5858  1.8126
  391MPD2    H1 5846   0.868   1.392  11.055 -3.2258  0.9136  1.4216
  391MPD2    H2 5847   0.962   1.441  11.465  1.1247 -0.4518  0.3654
  391MPD2    H3 5848   0.800   1.376  11.293 -0.2161  0.5442  2.0793
  391MPD2     N 5849   1.088   1.539  10.968 -0.0680 -0.3715 -0.5474
  391MPD2    H5 5850   1.180   1.580  10.974 -1.0823  2.1505 -2.1469
  391MPD2    N1 5851   1.159   1.600  11.442 -0.5333  0.3055 -0.2976
  391MPD2    H7 5852   1.122   1.583  11.534 -0.4247 -0.2338 -0.3544
  392TMC3    C1 5853   1.106   1.530  10.733 -0.4135 -0.2171 -0.0979
  392TMC3    C2 5854   1.040   1.535  10.610 -0.8778  0.3177 -0.6020
  392TMC3    C3 5855   1.091   1.601  10.502 -0.9398  1.1157  0.6959
  392TMC3    C4 5856   1.226   1.596  10.742 -0.3782  0.1916  0.2530
  392TMC3    C5 5857   1.279   1.658  10.630  0.4430  1.1008 -0.1413
  392TMC3    C6 5858   1.218   1.662  10.506 -0.2252 -0.1998  0.4534
  392TMC3     C 5859   1.025   1.508  10.850  0.6480 -0.1979  0.2384
  392TMC3     O 5860   0.912   1.473  10.839  0.2121 -0.0875  0.4110
  392TMC3     H 5861   0.941   1.491  10.616 -0.6997 -0.1744 -1.2915
  392TMC3    H1 5862   1.284   1.576  10.831 -0.6495  0.7837  0.5600
  392TMC3    H2 5863   1.264   1.711  10.421  2.0921 -0.1210  1.7601
  392TMC3    C7 5864   1.387   1.756  10.651  0.7765  0.5664  0.3157
  392TMC3    C8 5865   1.021   1.602  10.377  0.4922 -0.8213 -0.2085
  392TMC3    O1 5866   1.408   1.799  10.766 -0.3621  0.5157  0.4046
  392TMC3    O2 5867   0.907   1.550  10.389 -0.0846  0.1629 -0.5642
  393TMC3    C1 5868   0.355   4.272  10.590 -0.0410  0.1214 -0.4971
  393TMC3    C2 5869   0.264   4.326  10.676  0.0626 -0.7500 -0.7769
  393TMC3    C3 5870   0.310   4.368  10.798  0.3192  0.1714 -0.8447
  393TMC3    C4 5871   0.490   4.283  10.607 -0.3459  0.4793 -0.2846
  393TMC3    C5 5872   0.534   4.344  10.719  0.7135 -0.1671  0.5976
  393TMC3    C6 5873   0.446   4.384  10.819  0.0506  0.1320  1.1846
  393TMC3     C 5874   0.313   4.216  10.468 -0.3302  0.3864  0.3172
  393TMC3     O 5875   0.386   4.218  10.371 -0.2756 -0.0736 -0.2900
  393TMC3     H 5876   0.158   4.307  10.666  0.2052 -0.1135 -3.4892
  393TMC3    H1 5877   0.556   4.236  10.536 -0.5221 -0.7743  0.3821
  393TMC3    H2 5878   0.488   4.414  10.915 -1.5300  0.0681  1.8984
  393TMC3    C7 5879   0.675   4.374  10.743 -0.2691 -0.0241 -0.3183
  393TMC3    C8 5880   0.211   4.432  10.881  0.7445 -1.0439  0.3610
  393TMC3    O1 5881   0.700   4.432  10.848 -0.1981 -0.0725  0.0126
  393TMC3    O2 5882   0.093   4.400  10.861  0.1880  0.1413 -0.2610
  394TMC3    C1 5883   1.819   4.595  10.170 -0.1686  0.8738  0.9496
  394TMC3    C2 5884   1.730   4.510  10.111 -0.0503  0.2831  0.3129
  394TMC3    C3 5885   1.762   4.467   9.987  0.3131 -0.1573  0.2720
  394TMC3    C4 5886   1.942   4.628  10.120  0.0601  0.1571  0.0808
  394TMC3    C5 5887   1.963   4.576   9.997  0.6405 -0.0051  1.2599
  394TMC3    C6 5888   1.880   4.497   9.929  0.1743  0.2544 -0.0978
  394TMC3     C 5889   1.780   4.639  10.304 -0.3362  0.0673  0.4625
  394TMC3     O 5890   1.700   4.569  10.365  0.2910 -0.5578 -0.5123
  394TMC3     H 5891   1.627   4.494  10.143 -0.1471 -1.7607 -0.9855
  394TMC3    H1 5892   2.011   4.702  10.157 -1.9824  2.0495  0.0946
  394TMC3    H2 5893   1.897   4.478   9.823 -0.2384  0.0229 -0.1220
  394TMC3    C7 5894   2.064   4.654   9.929  0.3530  0.0588  0.3406
  394TMC3    C8 5895   1.673   4.379   9.916  0.2494 -0.0968  0.1877
  394TMC3    O1 5896   2.037   4.699   9.820 -0.3461 -0.5681  0.0859
  394TMC3    O2 5897   1.693   4.357   9.795 -0.0143 -0.4319  0.6801
  395TMC3    C1 5898   1.328   2.358  14.505 -0.3081  0.1217  0.7345
  395TMC3    C2 5899   1.225   2.419  14.440  0.1494  0.0332 -0.2129
  395TMC3    C3 5900   1.216   2.554  14.440 -0.1342 -0.2597  0.2110
  395TMC3    C4 5901   1.425   2.438  14.569 -0.0072  0.5609  0.1250
  395TMC3    C5 5902   1.421   2.571  14.554 -0.5766  0.2615 -0.0440
  395TMC3    C6 5903   1.313   2.632  14.490  0.3217  0.2222  0.5773
  395TMC3     C 5904   1.275   2.252  14.597 -0.1277  0.4382  0.1624
  395TMC3     O 5905   1.322   2.251  14.707  0.7854  0.0969 -0.2469
  395TMC3     H 5906   1.162   2.362  14.372  0.2416 -1.5969  1.0500
  395TMC3    H1 5907   1.508   2.387  14.616  3.6231  2.1871 -4.4868
  395TMC3    H2 5908   1.316   2.739  14.476  2.0047  0.0325 -0.5266
  395TMC3    C7 5909   1.519   2.656  14.615 -0.0203  0.1590 -0.7487
  395TMC3    C8 5910   1.101   2.594  14.522  0.1229  0.3749  0.5039
  395TMC3    O1 5911   1.471   2.761  14.651  0.0289 -0.0908 -0.3225
  395TMC3    O2 5912   1.108   2.705  14.577  0.8805 -0.3552 -0.2149
  396MPD2     C 5913   0.867   3.246  17.564 -0.2899 -0.2867  0.5321
  396MPD2    C1 5914   0.922   3.213  17.443 -0.0070  0.4582  0.3009
  396MPD2    C2 5915   0.959   3.312  17.353  0.1143  0.4282 -0.0525
  396MPD2    C3 5916   0.943   3.441  17.396  0.4681 -1.3528 -0.2068
  396MPD2    C4 5917   0.914   3.468  17.528 -0.0022  0.6515  0.3593
  396MPD2    C5 5918   0.868   3.371  17.611 -0.2990 -0.3619  0.0531
  396MPD2     H 5919   0.996   3.306  17.252 -0.2475 -2.3881 -0.0163
  396MPD2    H1 5920   0.935   3.566  17.570  1.3693  0.2428  0.6152
  396MPD2    H2 5921   0.829   3.180  17.641  1.6693 -0.8677  0.9976
  396MPD2    H3 5922   0.835   3.386   0.023 -0.7850 -0.9174 -0.0228
  396MPD2     N 5923   0.976   3.557  17.320 -0.5526  0.2378 -0.3003
  396MPD2    H5 5924   0.949   3.645  17.363 -0.9065  0.6264 -1.3374
  396MPD2    N1 5925   0.912   3.071  17.402 -0.0477 -0.1385  0.1150
  396MPD2    H7 5926   0.861   3.005  17.459  0.9336 -1.4452 -0.5397
  397TMC3    C1 5927   0.915   2.897  17.243  0.2613 -0.0271 -0.1068
  397TMC3    C2 5928   0.861   2.926  17.125  0.3370  0.1173 -0.4799
  397TMC3    C3 5929   0.724   2.883  17.100  0.7430  0.3520  0.3858
  397TMC3    C4 5930   0.839   2.829  17.336 -0.8831  0.7413  0.2563
  397TMC3    C5 5931   0.716   2.781  17.311  0.1216 -0.0702  0.6289
  397TMC3    C6 5932   0.657   2.797  17.192 -0.2890 -0.6033 -0.1336
  397TMC3     C 5933   0.975   3.023  17.287 -0.4660 -0.7396 -0.0373
  397TMC3     O 5934   1.064   3.071  17.218 -0.2537 -0.9827 -0.7479
  397TMC3     H 5935   0.903   3.011  17.074  2.4316 -2.4890 -3.0848
  397TMC3    H1 5936   0.880   2.813  17.435  0.8320  0.9654 -0.4226
  397TMC3    H2 5937   0.566   2.745  17.163 -0.7466 -1.5694  3.1040
  397TMC3    C7 5938   0.659   2.676  17.389 -0.0969  0.5478 -0.0543
  397TMC3    C8 5939   0.660   2.919  16.977 -1.1099  0.5374 -0.5024
  397TMC3    O1 5940   0.605   2.591  17.324  0.6572 -0.0206 -0.4654
  397TMC3    O2 5941   0.698   3.024  16.927 -0.3168  0.1900 -0.0417
  398MPD2     C 5942   3.689   0.135   0.605  0.6205  0.3119 -0.1371
  398MPD2    C1 5943   3.777   0.029   0.586  0.0270 -0.2702  0.7682
  398MPD2    C2 5944   3.858   0.029   0.471  0.2497  0.8973 -0.2527
  398MPD2    C3 5945   3.852   0.137   0.384 -0.4975  0.8525  0.5398
  398MPD2    C4 5946   3.761   0.240   0.403  0.4625  0.4555 -0.0549
  398MPD2    C5 5947   3.684   0.236   0.515  0.2662  0.5019 -0.1793
  398MPD2     H 5948   3.924   4.666   0.455 -1.2047 -0.5881  1.5775
  398MPD2    H1 5949   3.746   0.332   0.348 -0.0143 -0.8514 -2.1297
  398MPD2    H2 5950   3.631   0.150   0.696  1.4628  0.5231  0.3683
  398MPD2    H3 5951   3.618   0.320   0.533  0.0617 -0.3349  2.9568
  398MPD2     N 5952   3.942   0.130   0.277  0.3524 -1.1402 -1.6676
  398MPD2    H5 5953   3.990   0.041   0.267  0.4432 -1.2416 -0.2403
  398MPD2    N1 5954   3.779   4.638   0.671 -0.2670 -1.1462  0.4047
  398MPD2    H7 5955   3.846   4.566   0.646  0.6060 -0.4914  0.8615
  399TMC3    C1 5956   3.759   4.501   0.866  0.2215  0.8182 -0.1085
  399TMC3    C2 5957   3.885   4.456   0.842 -0.1278 -0.1454  0.0165
  399TMC3    C3 5958   3.913   4.328   0.866 -0.1794 -0.4525 -0.6853
  399TMC3    C4 5959   3.668   4.426   0.933 -0.0314  0.0670  0.0502
  399TMC3    C5 5960   3.700   4.299   0.974 -0.5508  0.0583  0.1504
  399TMC3    C6 5961   3.819   4.250   0.938  0.1776  0.1962 -0.1642
  399TMC3     C 5962   3.705   4.612   0.791  0.0844  0.4374 -0.2326
  399TMC3     O 5963   3.621   4.682   0.841  0.0733  0.0034 -0.0407
  399TMC3     H 5964   3.965   4.523   0.811  0.0263  0.2532  1.2753
  399TMC3    H1 5965   3.567   4.462   0.945  0.9161  3.5345 -2.5064
  399TMC3    H2 5966   3.849   4.153   0.974  0.1772  0.0821 -0.4772
  399TMC3    C7 5967   3.603   4.201   1.000 -0.1257 -0.4262  0.2271
  399TMC3    C8 5968   4.025   4.268   0.794 -0.5300 -0.0949  0.0814
  399TMC3    O1 5969   3.511   4.200   0.920  0.4033  0.0158 -0.2715
  399TMC3    O2 5970   4.095   4.344   0.723 -0.1169 -0.5148  0.0814
  400TMC3    C1 5971   2.334   3.358   0.242 -0.3062 -0.5082 -0.4099
  400TMC3    C2 5972   2.309   3.251   0.170  0.3651  0.5578  0.9309
  400TMC3    C3 5973   2.315   3.263   0.030 -0.3296 -0.2804 -0.5471
  400TMC3    C4 5974   2.360   3.481   0.191 -0.2947 -0.7275 -0.2180
  400TMC3    C5 5975   2.367   3.486   0.051 -0.6262  0.5177 -0.0383
  400TMC3    C6 5976   2.347   3.379  17.657 -0.0243 -0.0345  0.2773
  400TMC3     C 5977   2.324   3.327   0.389  0.2640  1.3261  0.3395
  400TMC3     O 5978   2.243   3.240   0.422  0.4948  0.0721  0.5252
  400TMC3     H 5979   2.289   3.160   0.226  1.6437 -0.4875 -0.2890
  400TMC3    H1 5980   2.364   3.569   0.254  1.9245 -1.3373  0.5179
  400TMC3    H2 5981   2.368   3.378  17.551  1.5932  1.7999  0.5813
  400TMC3    C7 5982   2.343   3.620   0.001  0.2554 -0.1455 -0.5179
  400TMC3    C8 5983   2.343   3.137  17.647 -0.3087 -0.4903 -0.5937
  400TMC3    O1 5984   2.366   3.720   0.073  0.3137  0.4280 -0.3276
  400TMC3    O2 5985   2.373   3.046   0.029  0.3042  0.0530 -0.0696
  401MPD2     C 5986   0.101   2.007   0.421  0.2720  0.1039  0.6032
  401MPD2    C1 5987   0.140   1.946   0.537 -0.8253 -0.0886  0.2537
  401MPD2    C2 5988   0.136   1.811   0.543 -0.2269  0.0589 -0.8344
  401MPD2    C3 5989   0.092   1.730   0.440  0.4748  0.1074  0.4981
  401MPD2    C4 5990   0.047   1.792   0.325 -0.0569  0.0382 -0.1748
  401MPD2    C5 5991   0.058   1.925   0.319  0.1451 -0.6884 -0.7808
  401MPD2     H 5992   0.191   1.758   0.619 -2.4424 -0.3404  0.4718
  401MPD2    H1 5993   0.016   1.732   0.239 -2.7244  0.2108  0.6712
  401MPD2    H2 5994   0.127   2.108   0.393 -1.0390  0.0657 -0.7368
  401MPD2    H3 5995   0.035   1.965   0.220  0.3509  0.4852 -0.3562
  401MPD2     N 5996   0.091   1.588   0.465  0.5472  0.5039 -0.2646
  401MPD2    H5 5997   0.127   1.563   0.557 -0.5878  0.5875  0.2065
  401MPD2    N1 5998   0.196   2.023   0.647  0.5424 -0.7216  0.7799
  401MPD2    H7 5999   0.220   1.975   0.733  0.0955 -1.1081  0.6868
  402TMC3    C1 6000   0.153   1.376   0.413  1.0829  0.6160 -0.0589
  402TMC3    C2 6001   0.091   1.329   0.525  0.0704 -0.6809 -0.2381
  402TMC3    C3 6002   0.160   1.222   0.584  0.2500 -0.3628 -1.0541
  402TMC3    C4 6003   0.265   1.328   0.348 -0.8168  0.0632  0.5084
  402TMC3    C5 6004   0.318   1.216   0.405 -0.1988 -0.8322  0.5212
  402TMC3    C6 6005   0.278   1.166   0.528  0.4593 -0.3794 -0.9372
  402TMC3     C 6006   0.100   1.502   0.364  0.0556 -0.6043 -0.5698
  402TMC3     O 6007   0.095   1.515   0.241  0.2458  0.0775  1.0767
  402TMC3     H 6008   0.008   1.380   0.572 -0.0176 -0.6039 -0.4828
  402TMC3    H1 6009   0.291   1.353   0.246 -0.9220 -0.3036  0.3924
  402TMC3    H2 6010   0.331   1.084   0.575  0.1211  1.3369  2.4297
  402TMC3    C7 6011   0.440   1.160   0.347  0.0994 -0.5176  0.6009
  402TMC3    C8 6012   0.139   1.191   0.727 -0.6738  0.4739 -0.4251
  402TMC3    O1 6013   0.461   1.041   0.380 -0.1148 -0.0475  0.0837
  402TMC3    O2 6014   0.234   1.139   0.784 -0.4454 -0.2106  0.5368
  403MPD2     C 6015   3.751   4.327  13.339  0.9445  0.0376  0.1956
  403MPD2    C1 6016   3.768   4.320  13.477  0.2895  0.2814 -0.0004
  403MPD2    C2 6017   3.886   4.369  13.530  0.0981 -0.3889 -0.2389
  403MPD2    C3 6018   3.982   4.434  13.452  0.2414 -0.2227 -0.3197
  403MPD2    C4 6019   3.977   4.420  13.316  0.0353  0.6962 -0.5151
  403MPD2    C5 6020   3.860   4.365  13.260  0.3922  0.2997 -0.1517
  403MPD2     H 6021   3.914   4.365  13.635 -0.0641 -1.0131 -0.2220
  403MPD2    H1 6022   4.055   4.451  13.248  1.0804  1.4438  1.0255
  403MPD2    H2 6023   3.665   4.283  13.290  1.4824  0.0158 -0.7317
  403MPD2    H3 6024   3.854   4.372  13.152  0.0046 -2.1162 -0.2832
  403MPD2     N 6025   4.098   4.489  13.518  0.3244  0.9321 -0.4764
  403MPD2    H5 6026   4.087   4.484  13.619 -0.7448 -1.6138 -0.7240
  403MPD2    N1 6027   3.669   4.248  13.548 -0.4335 -0.3465 -0.0649
  403MPD2    H7 6028   3.595   4.198  13.501 -0.2949  0.3296 -0.9936
  404TMC3    C1 6029   3.578   4.119  13.727  0.2293 -0.7841  0.4925
  404TMC3    C2 6030   3.552   4.120  13.863  0.5846 -0.1530  0.1950
  404TMC3    C3 6031   3.513   4.001  13.913 -0.2453  0.0080  0.5546
  404TMC3    C4 6032   3.561   4.009  13.637  0.5812 -0.0256 -0.2040
  404TMC3    C5 6033   3.509   3.895  13.696 -0.3436  0.2864  0.3864
  404TMC3    C6 6034   3.487   3.889  13.830 -0.0541  0.3051 -0.6401
  404TMC3     C 6035   3.671   4.222  13.686 -0.1700 -0.6585  0.2957
  404TMC3     O 6036   3.731   4.279  13.777 -0.4739  0.4488 -0.0034
  404TMC3     H 6037   3.575   4.196  13.937 -0.5813 -0.6290  1.0404
  404TMC3    H1 6038   3.611   4.001  13.541 -0.1029 -1.1323 -0.4649
  404TMC3    H2 6039   3.476   3.795  13.883  0.2589  1.1087  0.8302
  404TMC3    C7 6040   3.506   3.773  13.627 -0.1173 -0.0359  0.1050
  404TMC3    C8 6041   3.579   3.969  14.037 -0.0546 -0.1027 -0.1864
  404TMC3    O1 6042   3.519   3.676  13.698  0.0065  0.1035  0.8272
  404TMC3    O2 6043   3.689   4.014  14.063 -0.3353 -0.2286  0.5126
  405MPD2     C 6044   4.149   0.131  14.765 -0.5158 -0.0100 -0.5648
  405MPD2    C1 6045   4.092   0.025  14.691 -0.3084  0.6709  0.1918
  405MPD2    C2 6046   4.020   0.055  14.570  0.6910  0.4053 -0.1071
  405MPD2    C3 6047   3.970   0.186  14.547  0.5345 -0.4863 -0.1344
  405MPD2    C4 6048   4.016   0.282  14.641 -0.7405 -0.1470 -0.4070
  405MPD2    C5 6049   4.103   0.258  14.741 -0.5888  0.2582  0.4631
  405MPD2     H 6050   3.976   4.699  14.509  0.9140  1.2978 -1.4055
  405MPD2    H1 6051   3.976   0.382  14.647 -1.1343 -0.2901 -0.6710
  405MPD2    H2 6052   4.213   0.113  14.850  0.5191  1.4354 -1.0438
  405MPD2    H3 6053   4.120   0.345  14.802  1.0548  1.7447 -2.1361
  405MPD2     N 6054   3.873   0.211  14.451  0.4732 -0.0635  0.5435
  405MPD2    H5 6055   3.858   0.130  14.393  0.0593 -0.2217  0.8779
  405MPD2    N1 6056   4.116   4.612  14.735 -0.2972  0.6824 -0.1596
  405MPD2    H7 6057   4.175   4.598  14.817  2.0919 -1.6580 -2.2731
  406TMC3    C1 6058   3.468   0.391  14.335 -0.4296 -0.4028 -0.1540
  406TMC3    C2 6059   3.418   0.277  14.291 -0.3055 -0.3782 -0.8132
  406TMC3    C3 6060   3.503   0.172  14.278  0.8256 -0.1702  0.6374
  406TMC3    C4 6061   3.597   0.419  14.354 -0.5333 -0.8274 -0.3939
  406TMC3    C5 6062   3.679   0.313  14.347 -0.5473 -0.3020  0.3186
  406TMC3    C6 6063   3.641   0.186  14.307 -0.3465  0.3730  0.2028
  406TMC3     C 6064   3.374   0.503  14.386 -0.6041 -0.7080  0.6192
  406TMC3     O 6065   3.420   0.615  14.381 -0.7012  0.2449  0.2800
  406TMC3     H 6066   3.315   0.263  14.261  0.1020  1.3313 -2.9917
  406TMC3    H1 6067   3.622   0.521  14.382  0.5277 -1.1330 -0.2176
  406TMC3    H2 6068   3.714   0.108  14.289  0.2975  1.3477 -1.4543
  406TMC3    C7 6069   3.801   0.328  14.425  0.0858  0.6741  0.3068
  406TMC3    C8 6070   3.439   0.046  14.314  0.2799 -0.3653  0.5765
  406TMC3    O1 6071   3.820   0.436  14.480 -0.0380  0.4831 -0.3081
  406TMC3    O2 6072   3.318   0.042  14.318  0.2752 -0.2879 -0.0250
  407MPD2     C 6073   3.059   1.118   9.764 -0.2139  0.3033 -0.1800
  407MPD2    C1 6074   3.050   1.230   9.853  0.1509 -0.8599 -0.3371
  407MPD2    C2 6075   2.930   1.273   9.897 -0.0266  0.3349  0.2636
  407MPD2    C3 6076   2.816   1.208   9.858 -0.5798 -0.4746 -0.5001
  407MPD2    C4 6077   2.820   1.097   9.775 -0.2300  0.5732  0.2697
  407MPD2    C5 6078   2.944   1.052   9.734 -1.0699  0.0814 -0.5275
  407MPD2     H 6079   2.928   1.349   9.974 -1.0309  1.0527 -0.4787
  407MPD2    H1 6080   2.731   1.042   9.748 -1.0838  1.2543  1.6799
  407MPD2    H2 6081   3.155   1.074   9.737 -0.4618 -0.1363 -0.3444
  407MPD2    H3 6082   2.942   0.961   9.674 -1.9063  0.1839 -0.6551
  407MPD2     N 6083   2.690   1.267   9.898 -0.3384  0.3320  0.0380
  407MPD2    H5 6084   2.598   1.227   9.881 -0.5078  0.9183 -0.4337
  407MPD2    N1 6085   3.161   1.305   9.897 -0.5900  0.0421 -0.0546
  407MPD2    H7 6086   3.145   1.377   9.966 -0.9344 -1.1659  1.1463
  408TMC3    C1 6087   3.379   1.383   9.949 -0.6074  0.1896 -0.7955
  408TMC3    C2 6088   3.506   1.344   9.977  0.3849 -0.5335 -0.0081
  408TMC3    C3 6089   3.588   1.426  10.051  0.5733 -1.5415  0.2745
  408TMC3    C4 6090   3.327   1.504   9.981  0.1956  0.1563 -0.4290
  408TMC3    C5 6091   3.411   1.587  10.049  0.4417 -0.0547 -0.3220
  408TMC3    C6 6092   3.539   1.551  10.087 -0.0895 -0.2433 -0.0935
  408TMC3     C 6093   3.296   1.299   9.865 -0.4529 -0.1702  0.3544
  408TMC3     O 6094   3.350   1.207   9.810 -0.0701 -0.4953  0.2753
  408TMC3     H 6095   3.542   1.248   9.940 -0.8876 -2.0178  2.5826
  408TMC3    H1 6096   3.225   1.533   9.957 -0.2180 -0.6329  0.4185
  408TMC3    H2 6097   3.587   1.609  10.165  1.6204  0.1283 -1.4341
  408TMC3    C7 6098   3.365   1.706  10.114  1.0193  0.2106  0.6554
  408TMC3    C8 6099   3.714   1.385  10.096 -0.8225  0.1488  0.5461
  408TMC3    O1 6100   3.455   1.780  10.157  0.2369  0.1883  0.1826
  408TMC3    O2 6101   3.733   1.267  10.076  0.7619 -0.0925  0.3592
  409MPD2     C 6102   0.757   2.518  16.927  0.1465 -0.1744  0.2690
  409MPD2    C1 6103   0.878   2.492  16.991  0.4497 -0.5222 -0.0718
  409MPD2    C2 6104   0.981   2.581  16.980 -0.1611  0.7726 -0.2493
  409MPD2    C3 6105   0.972   2.687  16.894 -0.2424  0.4196  0.1578
  409MPD2    C4 6106   0.856   2.705  16.819  0.6672  0.1309  0.2953
  409MPD2    C5 6107   0.742   2.616  16.830 -0.0455 -0.5725 -0.3226
  409MPD2     H 6108   1.068   2.565  17.043 -0.9750 -0.9838  0.4166
  409MPD2    H1 6109   0.855   2.784  16.744  0.1651 -1.2415 -1.1563
  409MPD2    H2 6110   0.674   2.451  16.947 -1.6573  2.0109  0.1749
  409MPD2    H3 6111   0.645   2.634  16.786  0.0315  1.3729  0.2838
  409MPD2     N 6112   1.077   2.780  16.877  0.0801  0.2008  0.2111
  409MPD2    H5 6113   1.047   2.873  16.848  3.0520  1.4079  1.0221
  409MPD2    N1 6114   0.896   2.387  17.085 -0.1479 -0.1663 -0.0991
  409MPD2    H7 6115   0.984   2.379  17.136  0.2422  0.3586 -0.6799
  410TMC3    C1 6116   1.283   2.880  16.922 -0.4796 -0.2285 -0.2238
  410TMC3    C2 6117   1.389   2.883  17.003 -0.3841  0.6180  0.4147
  410TMC3    C3 6118   1.484   2.975  16.973  0.1162  0.5726 -0.1133
  410TMC3    C4 6119   1.260   2.973  16.823 -0.5364 -0.0138  0.2875
  410TMC3    C5 6120   1.354   3.073  16.800 -0.0750 -0.1410 -0.1148
  410TMC3    C6 6121   1.475   3.072  16.874  0.0921 -0.5844  0.1145
  410TMC3     C 6122   1.205   2.765  16.933  0.3589 -0.0311  0.0553
  410TMC3     O 6123   1.263   2.670  16.987  0.0579  0.0763 -0.2165
  410TMC3     H 6124   1.400   2.815  17.086  0.0360  0.0573 -0.1059
  410TMC3    H1 6125   1.187   2.963  16.743 -0.4036 -2.0135  0.4228
  410TMC3    H2 6126   1.554   3.144  16.858 -0.8335  0.6907  1.2662
  410TMC3    C7 6127   1.305   3.187  16.721  0.5566 -1.0369  0.3483
  410TMC3    C8 6128   1.605   2.987  17.049 -0.1522 -0.5060 -0.1954
  410TMC3    O1 6129   1.384   3.269  16.671 -0.1907  0.7367 -0.3967
  410TMC3    O2 6130   1.648   3.102  17.062  0.3517 -0.3982  0.6298
  411MPD2     C 6131   1.920   3.172  14.553  0.6546 -0.0282  0.7049
  411MPD2    C1 6132   1.793   3.120  14.525  0.9651  0.3894  0.6962
  411MPD2    C2 6133   1.780   2.991  14.470 -0.0373  0.3763  0.5218
  411MPD2    C3 6134   1.897   2.918  14.436 -0.4846 -0.6881  0.3121
  411MPD2    C4 6135   2.018   2.974  14.459  0.5494 -0.6790 -1.0344
  411MPD2    C5 6136   2.029   3.093  14.520 -0.1359  1.0864 -0.3226
  411MPD2     H 6137   1.685   2.946  14.445 -0.1883 -0.3997  2.5432
  411MPD2    H1 6138   2.108   2.916  14.442 -0.0161 -1.7444 -0.4204
  411MPD2    H2 6139   1.940   3.271  14.594  1.9610  0.9971 -2.3835
  411MPD2    H3 6140   2.123   3.138  14.546 -0.0662 -0.0233  1.3512
  411MPD2     N 6141   1.908   2.784  14.389  0.2253 -0.1670 -0.7594
  411MPD2    H5 6142   2.002   2.749  14.374  0.9518  1.7371 -0.6333
  411MPD2    N1 6143   1.679   3.194  14.558  0.7075  0.1573  0.0587
  411MPD2    H7 6144   1.589   3.161  14.524  1.1114 -1.5469  0.6180
  412TMC3    C1 6145   1.843   2.574  14.289 -0.2570 -0.1254  0.0818
  412TMC3    C2 6146   1.783   2.463  14.329 -0.2265 -0.4379  0.1670
  412TMC3    C3 6147   1.782   2.355  14.240 -0.2297  0.4470  0.9974
  412TMC3    C4 6148   1.900   2.586  14.165  0.6793 -0.3573 -0.7459
  412TMC3    C5 6149   1.890   2.482  14.078 -0.4750  0.0985 -0.6920
  412TMC3    C6 6150   1.841   2.358  14.116 -0.6238  1.4119  0.1033
  412TMC3     C 6151   1.803   2.702  14.348  0.1296 -0.3911  0.2358
  412TMC3     O 6152   1.681   2.709  14.361  0.0357  0.0286 -0.1906
  412TMC3     H 6153   1.720   2.455  14.417  0.8890 -1.4931  0.8695
  412TMC3    H1 6154   1.932   2.686  14.138  1.6843 -0.5430 -0.2176
  412TMC3    H2 6155   1.815   2.278  14.047  0.5662  0.1890  1.0701
  412TMC3    C7 6156   1.843   2.526  13.952 -0.1800 -0.2107 -0.6088
  412TMC3    C8 6157   1.645   2.296  14.233 -0.0020 -0.3366  0.5644
  412TMC3    O1 6158   1.731   2.474  13.921 -0.1066 -0.1113 -0.1587
  412TMC3    O2 6159   1.598   2.243  14.336 -0.4600  0.0111 -0.3268
  413MPD2     C 6160   2.720   1.195  15.819 -0.4393 -0.3168  0.4404
  413MPD2    C1 6161   2.679   1.199  15.688 -0.1759 -0.1243 -0.1972
  413MPD2    C2 6162   2.749   1.123  15.593 -0.8217  0.3096 -0.1850
  413MPD2    C3 6163   2.858   1.044  15.632 -0.5003  0.9626  0.1474
  413MPD2    C4 6164   2.899   1.046  15.768  0.3495 -0.2218  0.6697
  413MPD2    C5 6165   2.831   1.121  15.861 -0.1852 -0.4220 -0.0362
  413MPD2     H 6166   2.719   1.120  15.489  1.4511 -2.5360 -0.7547
  413MPD2    H1 6167   2.990   0.997  15.802  0.9627 -0.8198 -1.8365
  413MPD2    H2 6168   2.669   1.255  15.893 -0.6475 -0.9031  0.7709
  413MPD2    H3 6169   2.863   1.127  15.965 -1.3798 -2.3727  0.4504
  413MPD2     N 6170   2.925   0.974  15.529 -0.0467  0.8056 -0.2709
  413MPD2    H5 6171   2.869   0.973  15.444 -0.2565  0.4152 -0.1304
  413MPD2    N1 6172   2.561   1.276  15.651  0.2813 -0.0446  0.3597
  413MPD2    H7 6173   2.518   1.325  15.729 -0.0197  1.7222 -0.9203
  414TMC3    C1 6174   3.079   0.822  15.435 -0.4767 -0.3752 -0.6569
  414TMC3    C2 6175   3.181   0.728  15.446  0.2517  0.0601  0.7024
  414TMC3    C3 6176   3.200   0.642  15.341  0.1749  0.2385  0.2458
  414TMC3    C4 6177   3.017   0.836  15.317 -0.4344  0.3826 -0.5932
  414TMC3    C5 6178   3.051   0.759  15.204  0.2424  0.6444  0.6465
  414TMC3    C6 6179   3.133   0.646  15.222  0.0315  0.9343  0.3256
  414TMC3     C 6180   3.045   0.902  15.545 -0.0258  0.0076  0.0148
  414TMC3     O 6181   3.123   0.904  15.641 -0.2666 -0.6810  0.1728
  414TMC3     H 6182   3.230   0.709  15.541 -1.3696 -1.3189  1.2652
  414TMC3    H1 6183   2.947   0.917  15.301 -0.1034  0.9946  1.0859
  414TMC3    H2 6184   3.158   0.578  15.141 -0.3855  0.7510  0.3519
  414TMC3    C7 6185   2.972   0.781  15.086 -0.1307 -0.3400  0.5156
  414TMC3    C8 6186   3.318   0.555  15.342  0.4687 -0.1865 -0.1706
  414TMC3    O1 6187   2.853   0.788  15.113  0.3692  0.1627 -0.0357
  414TMC3    O2 6188   3.306   0.443  15.296  0.1005  0.5903  0.2869
  415TMC3    C1 6189   4.230   3.834  10.035  0.0870  0.2176  0.1481
  415TMC3    C2 6190   4.314   3.768   9.951 -0.1419 -0.1183  0.2999
  415TMC3    C3 6191   4.262   3.656   9.890  0.2144  0.2978 -0.4410
  415TMC3    C4 6192   4.102   3.788  10.063 -0.2514  0.3490 -0.1298
  415TMC3    C5 6193   4.058   3.671  10.009  0.2272 -0.5869  0.1999
  415TMC3    C6 6194   4.136   3.607   9.915 -0.0828  0.1717 -0.5521
  415TMC3     C 6195   4.255   3.974  10.049  0.6948 -0.1400  0.1117
  415TMC3     O 6196   4.205   4.035  10.143  0.6157  0.2607 -0.3433
  415TMC3     H 6197   4.420   3.783   9.961 -0.3520  0.1383  2.1541
  415TMC3    H1 6198   4.034   3.852  10.118 -0.4730  0.8021 -0.9368
  415TMC3    H2 6199   4.096   3.531   9.850 -0.0256 -2.0241  1.9942
  415TMC3    C7 6200   3.915   3.644   9.998  0.3221  0.1127  0.2195
  415TMC3    C8 6201   4.352   3.561   9.833 -0.0021 -0.2524  0.1600
  415TMC3    O1 6202   3.886   3.554   9.921  0.6508  0.5334  0.3460
  415TMC3    O2 6203   4.304   3.447   9.842 -0.8611 -0.9622  0.5146
  416MPD2     C 6204   1.206   2.928  11.666  0.6696 -0.4389  0.5457
  416MPD2    C1 6205   1.102   2.872  11.603 -0.1474  0.1649  0.2926
  416MPD2    C2 6206   1.125   2.777  11.509 -0.2424  0.2410 -0.7534
  416MPD2    C3 6207   1.251   2.740  11.473  0.1481 -0.1151 -0.2687
  416MPD2    C4 6208   1.358   2.803  11.542  0.2934 -0.6225 -0.1694
  416MPD2    C5 6209   1.334   2.896  11.634 -0.2841 -0.5755  0.6451
  416MPD2     H 6210   1.041   2.728  11.461  0.1113  0.2094 -1.3311
  416MPD2    H1 6211   1.461   2.791  11.510  0.4049 -0.2491  0.0491
  416MPD2    H2 6212   1.183   2.998  11.745 -1.2265 -0.7699  0.2972
  416MPD2    H3 6213   1.412   2.946  11.691 -0.7898  2.3671 -1.2100
  416MPD2     N 6214   1.285   2.624  11.390  0.6257 -0.1465 -0.5812
  416MPD2    H5 6215   1.366   2.568  11.411  0.3749 -1.2069 -2.4070
  416MPD2    N1 6216   0.975   2.908  11.657 -0.6646  0.0138 -0.1591
  416MPD2    H7 6217   0.970   2.971  11.736  2.6530 -0.0061  0.0741
  417TMC3    C1 6218   0.750   2.950  11.655 -0.1728  0.2557  0.0593
  417TMC3    C2 6219   0.747   2.974  11.788 -0.1302 -0.5020  0.5393
  417TMC3    C3 6220   0.633   3.032  11.837  0.7171 -0.1458  0.1188
  417TMC3    C4 6221   0.643   2.967  11.568  0.5708 -1.2003  0.2841
  417TMC3    C5 6222   0.534   3.035  11.621  0.6742  0.2622 -0.2254
  417TMC3    C6 6223   0.528   3.067  11.752  0.0448 -0.1437  0.2589
  417TMC3     C 6224   0.854   2.882  11.592  0.4422  0.0469  0.4878
  417TMC3     O 6225   0.842   2.833  11.480 -0.5784  0.1839  0.3412
  417TMC3     H 6226   0.830   2.950  11.853  0.7281  0.4198 -0.2281
  417TMC3    H1 6227   0.643   2.953  11.460  0.0065  0.4923  0.0661
  417TMC3    H2 6228   0.444   3.129  11.783 -1.1144 -0.6077 -1.9483
  417TMC3    C7 6229   0.449   3.100  11.527 -0.4530  0.2353  0.6009
  417TMC3    C8 6230   0.635   3.086  11.967  0.2036 -0.4425 -0.2336
  417TMC3    O1 6231   0.445   3.226  11.526  0.1798  0.2564 -0.3356
  417TMC3    O2 6232   0.525   3.101  12.019 -0.2553 -0.1574 -0.3662
  418TMC3    C1 6233   4.231   0.040   0.096  0.1391 -0.0295  0.8999
  418TMC3    C2 6234   4.123   0.121   0.073 -0.2546 -0.5477  0.4133
  418TMC3    C3 6235   4.114   0.227   0.154  0.7223 -0.1856  0.4410
  418TMC3    C4 6236   4.328   0.061   0.195 -0.1361  0.1683 -0.1916
  418TMC3    C5 6237   4.323   0.176   0.265  0.3879 -0.1550 -0.0089
  418TMC3    C6 6238   4.214   0.260   0.245 -0.3097 -0.2890  0.5098
  418TMC3     C 6239   4.244   4.646   0.011 -0.1562  0.0950  0.7417
  418TMC3     O 6240   4.185   4.632  17.592 -0.4356  0.4375  0.2954
  418TMC3     H 6241   4.042   0.097   0.006 -0.0821  0.2327 -0.0748
  418TMC3    H1 6242   4.417   0.003   0.217  0.8758  1.0385 -1.9918
  418TMC3    H2 6243   4.203   0.350   0.304  0.8183  0.2998 -0.1723
  418TMC3    C7 6244   4.336   0.154   0.411  0.5247 -0.1730  0.0526
  418TMC3    C8 6245   3.982   0.245   0.208 -0.1842  0.1449  0.4185
  418TMC3    O1 6246   4.330   0.041   0.448  0.4001 -0.1311 -0.3233
  418TMC3    O2 6247   3.931   0.357   0.215 -0.2215 -0.0704  0.0288
  419MPD2     C 6248   3.080   3.050  12.795 -0.1315  0.1494  0.1231
  419MPD2    C1 6249   2.947   3.054  12.781 -0.2431 -0.3589  0.1227
  419MPD2    C2 6250   2.874   3.101  12.890 -0.2756  0.2393  0.0370
  419MPD2    C3 6251   2.927   3.128  13.020 -0.2263  0.0456 -0.8460
  419MPD2    C4 6252   3.065   3.116  13.026 -0.1719 -0.0168 -0.5053
  419MPD2    C5 6253   3.136   3.079  12.916  0.1437  0.0324 -0.1561
  419MPD2     H 6254   2.767   3.115  12.883 -0.3570 -0.4543 -0.1153
  419MPD2    H1 6255   3.126   3.132  13.115 -0.6666 -3.4376  0.4303
  419MPD2    H2 6256   3.148   3.026  12.714  1.7289  2.9703  0.8308
  419MPD2    H3 6257   3.244   3.080  12.925  0.1904  0.1328 -0.6841
  419MPD2     N 6258   2.845   3.187  13.115  0.2692 -0.2163  0.3214
  419MPD2    H5 6259   2.744   3.182  13.109  0.4233 -3.9834  0.8653
  419MPD2    N1 6260   2.876   3.023  12.660  0.0447  0.0774  0.4360
  419MPD2    H7 6261   2.775   3.037  12.661  0.1384  0.7636  0.6276
  420TMC3    C1 6262   2.795   3.331  13.301  0.4274  0.1770 -0.4655
  420TMC3    C2 6263   2.677   3.379  13.238 -0.5996  0.0594  0.0092
  420TMC3    C3 6264   2.598   3.458  13.311  0.7524 -0.4207 -0.1582
  420TMC3    C4 6265   2.818   3.353  13.436 -0.0997 -0.5228 -0.1268
  420TMC3    C5 6266   2.737   3.447  13.494  0.5146 -0.0567  0.2784
  420TMC3    C6 6267   2.621   3.493  13.442 -0.2365 -0.1505  1.1151
  420TMC3     C 6268   2.891   3.243  13.231  0.1814 -0.2286 -0.1800
  420TMC3     O 6269   3.007   3.253  13.267 -0.3540  0.3625  0.9599
  420TMC3     H 6270   2.661   3.357  13.133  1.0112  1.4780 -0.5517
  420TMC3    H1 6271   2.910   3.318  13.482 -0.9966 -0.5609  1.6256
  420TMC3    H2 6272   2.537   3.523  13.503  0.4715  2.3805  0.8266
  420TMC3    C7 6273   2.727   3.414  13.630  0.3177 -0.4131  0.2294
  420TMC3    C8 6274   2.464   3.482  13.273 -0.3277 -0.3797 -0.2160
  420TMC3    O1 6275   2.734   3.299  13.659 -0.3192 -0.0506  0.2767
  420TMC3    O2 6276   2.414   3.584  13.319 -0.0670 -0.6996  0.5905
  421TMC3    C1 6277   4.305   4.567  13.562  0.1619  0.1707 -0.1967
  421TMC3    C2 6278   4.264   4.622  13.681 -0.5474  0.2932  0.2925
  421TMC3    C3 6279   4.345   4.666  13.779  0.0044  0.6906  0.1247
  421TMC3    C4 6280   4.439   4.549  13.540  0.3190 -0.3684 -0.3647
  421TMC3    C5 6281   4.522   4.591  13.644 -0.4447 -0.5395  0.0916
  421TMC3    C6 6282   4.478   4.641  13.766 -0.4249  0.2647  1.2148
  421TMC3     C 6283   4.212   4.519  13.462 -0.5083 -0.1012 -0.0071
  421TMC3     O 6284   4.254   4.503  13.350 -0.1825 -0.3177 -1.1827
  421TMC3     H 6285   4.160   4.652  13.685 -0.5593 -0.0417  2.1950
  421TMC3    H1 6286   4.466   4.518  13.440 -1.9291 -0.5806 -0.9054
  421TMC3    H2 6287   4.552   4.653  13.845 -0.6603  1.4488  1.2637
  421TMC3    C7 6288   4.653   4.526  13.653  0.4275  0.4954  0.1330
  421TMC3    C8 6289   4.305   0.021  13.895  0.0538  1.5576 -0.3510
  421TMC3    O1 6290   4.719   4.538  13.754 -0.3042  0.1376  0.0181
  421TMC3    O2 6291   4.199   4.709  13.943  0.4276  0.0341 -0.1002
  422TMC3    C1 6292   1.510   0.970  12.683  0.0062  0.0742  0.0223
  422TMC3    C2 6293   1.518   1.104  12.706 -0.3791  0.0259 -0.0228
  422TMC3    C3 6294   1.442   1.145  12.812 -0.2396 -0.1368  0.3972
  422TMC3    C4 6295   1.435   0.880  12.763  0.6708  0.2444 -0.3354
  422TMC3    C5 6296   1.357   0.936  12.857  0.4179 -0.1671  0.4134
  422TMC3    C6 6297   1.359   1.067  12.887 -0.1197 -0.6665  0.2058
  422TMC3     C 6298   1.579   0.921  12.561 -0.4899 -0.0285  0.5332
  422TMC3     O 6299   1.665   0.989  12.507  0.0023 -0.2557 -0.5096
  422TMC3     H 6300   1.572   1.180  12.649  0.2464 -1.5670 -1.5522
  422TMC3    H1 6301   1.430   0.772  12.758 -0.4630  0.3613 -1.6231
  422TMC3    H2 6302   1.297   1.104  12.969 -2.1097 -0.3278 -1.4549
  422TMC3    C7 6303   1.285   0.843  12.943  0.8283  0.4869  0.1042
  422TMC3    C8 6304   1.477   1.273  12.867 -0.8543  0.6318 -0.5604
  422TMC3    O1 6305   1.338   0.739  12.988  0.5476 -0.8015 -0.3509
  422TMC3    O2 6306   1.535   1.355  12.801  0.2419 -0.5605  0.1081
  423MPD2     C 6307   2.992   2.452   0.533  0.2214 -0.6244  0.6039
  423MPD2    C1 6308   2.968   2.331   0.586 -0.0187 -0.4726 -0.2171
  423MPD2    C2 6309   2.978   2.219   0.507 -0.3650 -0.0656  0.2624
  423MPD2    C3 6310   2.996   2.237   0.370  0.5857  0.2447 -0.1754
  423MPD2    C4 6311   3.020   2.366   0.324  0.6143  0.0093 -0.1657
  423MPD2    C5 6312   3.015   2.473   0.403 -0.3916 -0.5564 -0.1564
  423MPD2     H 6313   2.962   2.123   0.555  0.2147 -0.3018 -0.0214
  423MPD2    H1 6314   3.025   2.381   0.216 -1.0085 -1.3566 -0.4256
  423MPD2    H2 6315   2.987   2.544   0.591 -3.5761 -0.4615 -0.0125
  423MPD2    H3 6316   3.038   2.568   0.355 -1.5426 -0.6223 -0.8412
  423MPD2     N 6317   3.004   2.126   0.276  0.0755 -0.2224  0.4455
  423MPD2    H5 6318   3.005   2.149   0.177 -0.6364  1.5220  0.8577
  423MPD2    N1 6319   2.954   2.310   0.727 -0.6231  0.6358  0.4004
  423MPD2    H7 6320   2.967   2.214   0.758  3.1161  0.5255 -1.5175
  424TMC3    C1 6321   2.948   2.362   0.958 -0.5379  0.9921  1.0692
  424TMC3    C2 6322   3.049   2.276   0.994 -0.3386 -0.5379  0.0504
  424TMC3    C3 6323   3.069   2.261   1.124  0.0639 -0.0276 -0.0617
  424TMC3    C4 6324   2.891   2.448   1.042 -0.7079 -0.3391 -0.2325
  424TMC3    C5 6325   2.924   2.429   1.175 -0.5144 -0.1304  0.7984
  424TMC3    C6 6326   2.987   2.318   1.220 -0.3471 -0.6225  0.5706
  424TMC3     C 6327   2.938   2.409   0.827 -0.5357  0.0689  0.0163
  424TMC3     O 6328   2.933   2.524   0.810 -0.1032  0.5885 -0.0100
  424TMC3     H 6329   3.110   2.228   0.918  0.4697 -1.5882  1.3735
  424TMC3    H1 6330   2.810   2.512   1.011  1.2654  2.2894  0.0208
  424TMC3    H2 6331   3.023   2.313   1.322 -0.3797  1.6369  0.6843
  424TMC3    C7 6332   2.825   2.490   1.264  0.0413  0.0098 -0.2241
  424TMC3    C8 6333   3.193   2.198   1.162  0.5134 -0.2437  0.5309
  424TMC3    O1 6334   2.805   2.612   1.250  0.4197 -0.2001 -0.3621
  424TMC3    O2 6335   3.224   2.101   1.097 -0.5423  0.0090  0.0234
  425MPD2     C 6336   1.998   1.644  17.519 -0.1763 -0.3795 -0.0682
  425MPD2    C1 6337   1.950   1.529  17.470 -0.0050  0.4708 -0.2504
  425MPD2    C2 6338   1.810   1.519  17.448 -1.2142 -0.1176  0.4637
  425MPD2    C3 6339   1.719   1.616  17.490  0.2695  0.4963  0.6839
  425MPD2    C4 6340   1.774   1.728  17.551 -0.7559 -0.6105  0.1699
  425MPD2    C5 6341   1.908   1.742  17.558  0.1175  0.2120 -0.0410
  425MPD2     H 6342   1.777   1.426  17.404  0.1577 -0.0435 -0.7213
  425MPD2    H1 6343   1.718   1.806  17.602  2.8009  1.7945  0.3963
  425MPD2    H2 6344   2.103   1.660  17.541  0.8209 -3.0989 -2.7886
  425MPD2    H3 6345   1.940   1.834  17.607  0.9051  0.8443 -1.7235
  425MPD2     N 6346   1.582   1.605  17.464  0.1083  0.1540 -0.4136
  425MPD2    H5 6347   1.547   1.525  17.412  0.2761 -0.0469 -0.2156
  425MPD2    N1 6348   2.038   1.429  17.434 -0.1547 -0.1049  0.0717
  425MPD2    H7 6349   2.136   1.428  17.460 -0.9392  2.9042  3.1969
  426TMC3    C1 6350   2.118   1.222  17.356  0.3421 -0.0158 -0.0400
  426TMC3    C2 6351   2.113   1.129  17.259  0.1148 -0.5101 -0.1010
  426TMC3    C3 6352   2.177   1.009  17.285  0.1677 -0.4536  0.3522
  426TMC3    C4 6353   2.178   1.198  17.476 -0.2561  0.2245  0.8250
  426TMC3    C5 6354   2.243   1.076  17.497  0.2379  0.1396 -0.5488
  426TMC3    C6 6355   2.236   0.978  17.408 -0.3192 -0.1438  0.7278
  426TMC3     C 6356   2.009   1.315  17.360 -0.8831 -0.3325  0.5482
  426TMC3     O 6357   1.909   1.274  17.304 -0.2609  0.4781 -0.9562
  426TMC3     H 6358   2.079   1.171  17.165 -1.4285 -0.3805  0.5049
  426TMC3    H1 6359   2.190   1.277  17.548  0.1981 -1.5624  2.7223
  426TMC3    H2 6360   2.277   0.880  17.429  1.4010  0.6150  0.9254
  426TMC3    C7 6361   2.286   1.039  17.631  0.1418 -0.3870  0.2121
  426TMC3    C8 6362   2.143   0.901  17.197  0.2432 -0.2269 -0.5222
  426TMC3    O1 6363   2.376   0.959  17.645 -0.0095  0.1807  0.4977
  426TMC3    O2 6364   2.189   0.792  17.233  0.5264  0.4781 -0.0698
  427MPD2     C 6365   0.634   3.266  14.799 -1.0478 -0.1752  0.0158
  427MPD2    C1 6366   0.597   3.270  14.930  0.3587 -0.3409  0.5389
  427MPD2    C2 6367   0.468   3.296  14.970  0.3728  0.6410 -0.0432
  427MPD2    C3 6368   0.375   3.322  14.866  0.4467 -0.4881 -0.3559
  427MPD2    C4 6369   0.406   3.317  14.732 -0.0818 -0.2474  1.0452
  427MPD2    C5 6370   0.538   3.293  14.701  1.2570 -0.2480 -0.4661
  427MPD2     H 6371   0.440   3.290  15.074 -2.2551 -1.7371 -0.8966
  427MPD2    H1 6372   0.335   3.323  14.650  1.5220  0.7088 -0.2788
  427MPD2    H2 6373   0.734   3.232  14.776 -0.2182  1.1461  1.7107
  427MPD2    H3 6374   0.560   3.283  14.595  0.4163  1.8210 -0.8480
  427MPD2     N 6375   0.232   3.337  14.888 -0.9552 -0.1135  0.2795
  427MPD2    H5 6376   0.172   3.354  14.808  0.2981  1.4291 -0.3278
  427MPD2    N1 6377   0.693   3.224  15.028  0.1561  0.6784  0.0836
  427MPD2    H7 6378   0.661   3.223  15.125 -3.8173  1.3681 -1.2040
  428TMC3    C1 6379   0.890   3.153  15.140 -0.6192  0.1223 -0.8863
  428TMC3    C2 6380   0.824   3.060  15.223 -0.1719  0.2911 -0.3255
  428TMC3    C3 6381   0.882   3.029  15.343  0.1757  0.1430 -0.2373
  428TMC3    C4 6382   1.010   3.215  15.186  0.7115  0.2205 -0.2843
  428TMC3    C5 6383   1.049   3.185  15.316  0.2408 -0.1325  0.1433
  428TMC3    C6 6384   0.987   3.100  15.395 -0.0519 -0.0678  0.1561
  428TMC3     C 6385   0.831   3.208  15.017 -0.5775 -0.0016 -0.7853
  428TMC3     O 6386   0.908   3.224  14.919 -0.0664  0.2372 -0.0419
  428TMC3     H 6387   0.741   3.003  15.181  0.8079 -0.5683 -1.1094
  428TMC3    H1 6388   1.059   3.284  15.118 -0.0407  1.4129  0.3831
  428TMC3    H2 6389   1.045   3.075  15.483 -0.3998 -1.6177 -0.0452
  428TMC3    C7 6390   1.173   3.241  15.372 -0.4587  0.1436 -0.7628
  428TMC3    C8 6391   0.887   2.879  15.367  0.5792  0.1947  0.0001
  428TMC3    O1 6392   1.174   3.241  15.494  1.0325  0.0803  0.8281
  428TMC3    O2 6393   0.863   2.803  15.273  0.0114  0.1151  0.3044
  429MPD2     C 6394   1.231   3.680  17.536 -0.5452 -0.3981  0.6359
  429MPD2    C1 6395   1.295   3.558  17.501  1.1168  0.2844 -0.2739
  429MPD2    C2 6396   1.366   3.542  17.380 -0.1120  0.0914 -0.7654
  429MPD2    C3 6397   1.381   3.650  17.298  0.6555 -0.8690 -0.5900
  429MPD2    C4 6398   1.319   3.768  17.331  0.5962  0.6101  0.4047
  429MPD2    C5 6399   1.249   3.784  17.448 -0.0010  1.1769  0.4859
  429MPD2     H 6400   1.414   3.446  17.366  0.2805  0.2289 -0.3797
  429MPD2    H1 6401   1.321   3.859  17.272  0.2554  1.2660  1.4162
  429MPD2    H2 6402   1.173   3.696  17.626  0.4251  2.1944  0.7940
  429MPD2    H3 6403   1.207   3.881  17.468 -1.3169  0.5762  0.6633
  429MPD2     N 6404   1.468   3.631  17.184  0.1771 -0.4354 -0.3548
  429MPD2    H5 6405   1.514   3.542  17.173 -1.6596 -1.2972 -1.0722
  429MPD2    N1 6406   1.284   3.442  17.587 -0.0816  0.1828  0.1674
  429MPD2    H7 6407   1.327   3.356  17.553 -2.2460 -0.1783 -1.7215
  430TMC3    C1 6408   1.637   3.729  17.043 -0.0894 -0.5895 -0.0846
  430TMC3    C2 6409   1.655   3.813  16.942  0.0180  0.2807 -0.4181
  430TMC3    C3 6410   1.774   3.872  16.920  0.1751  0.3134  0.7909
  430TMC3    C4 6411   1.739   3.695  17.121 -1.0491 -0.3277 -0.4036
  430TMC3    C5 6412   1.860   3.759  17.101  0.7379  0.6947 -0.4987
  430TMC3    C6 6413   1.883   3.854  17.000  0.2297  0.3285  0.3804
  430TMC3     C 6414   1.506   3.739  17.106  0.4787  0.3832  0.4826
  430TMC3     O 6415   1.443   3.845  17.082 -0.5750  0.3043 -0.5587
  430TMC3     H 6416   1.565   3.835  16.885 -1.1109  2.4100  2.1797
  430TMC3    H1 6417   1.716   3.646  17.215 -2.1436 -0.7641 -0.8985
  430TMC3    H2 6418   1.982   3.890  16.975  0.3177  0.1701  0.5049
  430TMC3    C7 6419   1.952   3.733  17.205 -0.6666  0.1090  0.2113
  430TMC3    C8 6420   1.793   3.940  16.790 -0.6309  0.1584 -0.3117
  430TMC3    O1 6421   1.952   3.623  17.256  0.3212 -0.2365 -0.0677
  430TMC3    O2 6422   1.896   4.012  16.778  0.4905 -0.0236 -0.3291
  431MPD2     C 6423   2.627   3.455  12.861 -0.8751 -0.5813  0.3024
  431MPD2    C1 6424   2.720   3.472  12.769 -0.0160 -0.1912 -0.6503
  431MPD2    C2 6425   2.724   3.399  12.653  0.2313 -0.1513 -0.0221
  431MPD2    C3 6426   2.630   3.298  12.626 -0.1214 -0.1216  0.4284
  431MPD2    C4 6427   2.546   3.273  12.732  0.0877  0.8394 -0.1030
  431MPD2    C5 6428   2.542   3.350  12.847  0.0601 -1.0039  0.1375
  431MPD2     H 6429   2.808   3.418  12.588 -1.1796  1.6794 -1.3213
  431MPD2    H1 6430   2.471   3.195  12.720  0.0343  1.0468 -1.0929
  431MPD2    H2 6431   2.616   3.521  12.946  0.8561  0.6905 -0.4580
  431MPD2    H3 6432   2.462   3.338  12.920 -1.4712 -0.9481 -1.5175
  431MPD2     N 6433   2.624   3.212  12.510  0.9928 -0.4301  0.0041
  431MPD2    H5 6434   2.557   3.136  12.514 -0.2054  0.5662 -1.0733
  431MPD2    N1 6435   2.814   3.570  12.796 -0.2253  0.3181 -0.2417
  431MPD2    H7 6436   2.831   3.602  12.891 -4.1957  0.2748  0.4563
  432TMC3    C1 6437   2.708   3.080  12.345 -0.2715  0.4408 -0.2026
  432TMC3    C2 6438   2.787   3.092  12.234  0.4476 -0.1888  0.7409
  432TMC3    C3 6439   2.903   3.023  12.227 -0.2821  0.3699 -0.3747
  432TMC3    C4 6440   2.736   2.996  12.445 -0.0834 -0.2228 -0.9857
  432TMC3    C5 6441   2.855   2.931  12.439 -0.0639 -0.7221 -0.1309
  432TMC3    C6 6442   2.936   2.938  12.328  0.1777  0.5188  0.3363
  432TMC3     C 6443   2.714   3.212  12.406  0.4352  0.1725 -0.0323
  432TMC3     O 6444   2.815   3.277  12.390 -0.3650 -0.2332  0.3456
  432TMC3     H 6445   2.770   3.173  12.164 -0.0024  0.2986  1.4220
  432TMC3    H1 6446   2.661   2.951  12.510 -0.4525 -2.0156 -2.6562
  432TMC3    H2 6447   3.032   2.888  12.330 -0.7813 -1.5022 -3.6642
  432TMC3    C7 6448   2.940   2.955  12.560 -0.0901 -0.6480  0.0505
  432TMC3    C8 6449   3.022   3.063  12.150 -0.7570 -0.7771 -0.4740
  432TMC3    O1 6450   3.041   2.882  12.566 -0.2973 -0.2973 -0.0001
  432TMC3    O2 6451   3.106   2.978  12.144 -0.1589 -0.4721 -0.3610
  433MPD2     C 6452   2.036   1.982  10.727  0.6662  0.1497  1.0972
  433MPD2    C1 6453   1.937   1.916  10.789  0.2585  0.7963  0.0567
  433MPD2    C2 6454   1.885   1.961  10.908 -0.2836 -0.5283  0.3788
  433MPD2    C3 6455   1.932   2.080  10.958 -0.2029 -0.0038 -0.7491
  433MPD2    C4 6456   2.033   2.146  10.893  0.1893  0.0420 -0.8063
  433MPD2    C5 6457   2.088   2.092  10.783  0.0485  0.3892  0.3299
  433MPD2     H 6458   1.803   1.911  10.958 -0.0123 -0.8259  0.5291
  433MPD2    H1 6459   2.083   2.233  10.932 -1.2995  0.1721  0.8442
  433MPD2    H2 6460   2.080   1.936  10.639 -3.5676 -1.7788  0.0024
  433MPD2    H3 6461   2.173   2.137  10.734 -0.3124  1.2676  0.5092
  433MPD2     N 6462   1.884   2.120  11.082  0.1020 -0.4117 -0.2685
  433MPD2    H5 6463   1.807   2.068  11.122 -1.0038  1.4221 -0.0057
  433MPD2    N1 6464   1.887   1.800  10.723  0.0800 -0.3763  0.2561
  433MPD2    H7 6465   1.947   1.782  10.643 -1.0166  0.7645 -0.8276
  434TMC3    C1 6466   1.780   1.591  10.680 -0.4845  0.1525 -0.6058
  434TMC3    C2 6467   1.760   1.485  10.753 -0.0166  0.1053  0.1822
  434TMC3    C3 6468   1.821   1.370  10.718 -0.2807  0.2373 -1.0562
  434TMC3    C4 6469   1.859   1.589  10.568 -0.1913  0.5008  0.4730
  434TMC3    C5 6470   1.912   1.470  10.534 -0.7171 -0.0586 -0.6387
  434TMC3    C6 6471   1.902   1.357  10.606  0.4853 -0.0897  0.6222
  434TMC3     C 6472   1.785   1.718  10.761 -0.5353 -0.5263  0.0594
  434TMC3     O 6473   1.714   1.720  10.863 -0.0516  0.0607  0.2090
  434TMC3     H 6474   1.700   1.487  10.843 -0.4190  1.4376 -0.1219
  434TMC3    H1 6475   1.870   1.676  10.504  1.5057 -2.0216 -2.6330
  434TMC3    H2 6476   1.971   1.275  10.592  1.0365  0.3044  1.0230
  434TMC3    C7 6477   1.972   1.456  10.400 -0.1314  0.4101  0.4597
  434TMC3    C8 6478   1.854   1.290  10.827 -0.2589 -0.7157 -0.4280
  434TMC3    O1 6479   2.008   1.562  10.355 -0.0381  0.0959  0.4071
  434TMC3    O2 6480   1.839   1.332  10.941 -0.3126  0.3428 -0.1449
  435MPD2     C 6481   3.127   2.162  15.656 -0.1546  0.0283 -0.2801
  435MPD2    C1 6482   3.157   2.158  15.790 -0.3662 -0.2960 -0.5132
  435MPD2    C2 6483   3.267   2.082  15.828  0.5106 -0.3525 -0.2052
  435MPD2    C3 6484   3.336   2.012  15.737  0.0137 -1.3579  0.0455
  435MPD2    C4 6485   3.300   2.017  15.598  0.6038 -0.4265 -0.2989
  435MPD2    C5 6486   3.196   2.090  15.564 -0.2028  0.3530 -0.3058
  435MPD2     H 6487   3.287   2.085  15.934  0.3986  2.7933 -0.2709
  435MPD2    H1 6488   3.347   1.959  15.520 -0.8869  0.4454 -1.8529
  435MPD2    H2 6489   3.037   2.214  15.627 -0.0636 -0.5557 -1.6162
  435MPD2    H3 6490   3.146   2.102  15.468  1.3229 -0.0202 -1.1590
  435MPD2     N 6491   3.443   1.936  15.785  0.9497  0.2966 -0.4729
  435MPD2    H5 6492   3.471   1.951  15.882  1.9263  0.8121 -0.8396
  435MPD2    N1 6493   3.074   2.220  15.891  0.7201 -0.4505 -0.3010
  435MPD2    H7 6494   3.095   2.195  15.987  0.6799  0.2075 -0.1153
  436TMC3    C1 6495   2.935   2.436  16.208  0.2143 -0.0017 -0.0451
  436TMC3    C2 6496   2.993   2.396  16.090  0.1389 -0.8674  0.2502
  436TMC3    C3 6497   2.911   2.374  15.981 -0.0529  0.3768 -0.6129
  436TMC3    C4 6498   2.797   2.465  16.212  0.2937 -0.2266 -0.1436
  436TMC3    C5 6499   2.733   2.453  16.097 -0.1165  0.1948 -0.3118
  436TMC3    C6 6500   2.777   2.401  15.983 -0.3677  0.2825 -0.2113
  436TMC3     C 6501   3.014   2.452  16.331 -0.3796  0.8408  1.0583
  436TMC3     O 6502   3.138   2.438  16.323 -0.2509  0.0232  0.0590
  436TMC3     H 6503   3.096   2.362  16.092  0.5780  0.5382  1.5833
  436TMC3    H1 6504   2.743   2.504  16.298  2.6961  0.9436  0.8333
  436TMC3    H2 6505   2.711   2.408  15.897 -0.7368 -0.4945  0.0076
  436TMC3    C7 6506   2.589   2.422  16.113 -0.1597  0.9160  0.4637
  436TMC3    C8 6507   2.958   2.293  15.866 -0.4193  0.2947  0.0689
  436TMC3    O1 6508   2.520   2.477  16.195 -0.5338 -0.4159 -0.3389
  436TMC3    O2 6509   2.878   2.289  15.773 -0.2235  0.3203  0.9554
  437TMC3    C1 6510   2.179   4.264  12.722 -0.0580  0.6484 -0.1454
  437TMC3    C2 6511   2.073   4.332  12.768 -0.1417  0.0022  0.4658
  437TMC3    C3 6512   2.048   4.442  12.697  0.5589  0.0575  0.0825
  437TMC3    C4 6513   2.256   4.300  12.618  0.4610 -0.6707  0.3433
  437TMC3    C5 6514   2.224   4.418  12.552 -1.1521  0.1497  0.8233
  437TMC3    C6 6515   2.121   4.492  12.589  0.1804 -0.0144  0.8541
  437TMC3     C 6516   2.228   4.161  12.811 -0.4209  0.0611  0.2705
  437TMC3     O 6517   2.171   4.165  12.920  0.9254  0.1241 -0.1222
  437TMC3     H 6518   2.021   4.302  12.858  0.2982  1.4968  1.2108
  437TMC3    H1 6519   2.345   4.243  12.594 -0.7309 -1.9817 -0.9153
  437TMC3    H2 6520   2.114   4.592  12.547  1.4605 -0.1807  0.2404
  437TMC3    C7 6521   2.334   4.493  12.495 -0.0308 -0.3065  0.1058
  437TMC3    C8 6522   1.943   4.524  12.739  0.4417 -0.1354 -0.0243
  437TMC3    O1 6523   2.301   4.579  12.415 -0.4394  0.3044  0.3965
  437TMC3    O2 6524   1.952   4.638  12.691  0.0954  0.9371  0.3689
  438MPD2     C 6525   4.130   4.378  16.734 -0.2294  0.2451  0.6324
  438MPD2    C1 6526   4.212   4.334  16.836 -0.1092  0.0804  0.2813
  438MPD2    C2 6527   4.164   4.317  16.961  0.1697 -0.4484 -0.0372
  438MPD2    C3 6528   4.033   4.355  16.984 -0.8297 -0.4324 -0.3328
  438MPD2    C4 6529   3.952   4.410  16.879 -0.3586 -0.0086 -0.1955
  438MPD2    C5 6530   4.000   4.412  16.753  0.4913  0.2374  0.3306
  438MPD2     H 6531   4.223   4.288  17.047  2.8922  0.1287 -1.7015
  438MPD2    H1 6532   3.847   4.432  16.892 -0.4169  0.0845 -0.8568
  438MPD2    H2 6533   4.166   4.385  16.632  1.2028  2.3129  1.2752
  438MPD2    H3 6534   3.932   4.436  16.672  1.0677 -2.1570 -0.8837
  438MPD2     N 6535   3.982   4.350  17.117  0.1847 -0.2705  0.4704
  438MPD2    H5 6536   4.037   4.300  17.185 -0.3364 -0.6844  0.5854
  438MPD2    N1 6537   4.347   4.302  16.819 -0.4523  0.0394  1.3045
  438MPD2    H7 6538   4.399   4.280  16.904  1.8182  1.6090  0.3183
  439TMC3    C1 6539   4.556   4.303  16.717 -0.4221 -0.4478  0.2878
  439TMC3    C2 6540   4.627   4.306  16.600  0.1813  0.2642  0.5800
  439TMC3    C3 6541   0.037   4.270  16.620  0.7335 -0.4033  0.0477
  439TMC3    C4 6542   4.614   4.303  16.841 -0.0812  0.1712 -0.2081
  439TMC3    C5 6543   0.023   4.267  16.845  0.1054  0.7768  0.0368
  439TMC3    C6 6544   0.099   4.239  16.739 -0.9057  0.6480  0.8197
  439TMC3     C 6545   4.411   4.321  16.699 -0.3958 -0.4573 -0.2940
  439TMC3     O 6546   4.381   4.366  16.591 -0.2927 -0.3882 -0.6946
  439TMC3     H 6547   4.583   4.341  16.508  1.7285  0.0529 -0.2380
  439TMC3    H1 6548   4.554   4.309  16.931  0.3093 -1.9150  0.2012
  439TMC3    H2 6549   0.205   4.222  16.750 -0.4282  2.3016 -1.2571
  439TMC3    C7 6550   0.086   4.240  16.971  1.0265  0.1662  0.3369
  439TMC3    C8 6551   0.123   4.244  16.507 -0.0480 -0.0180  0.5421
  439TMC3    O1 6552   0.207   4.217  16.964 -0.4373  0.1239 -0.4159
  439TMC3    O2 6553   0.241   4.223  16.528  0.5493  0.0232 -0.3794
  440MPD2     C 6554   3.079   0.063  15.044  0.0733 -0.6703  0.3180
  440MPD2    C1 6555   3.152   0.169  15.096 -0.4607  0.0229  0.1336
  440MPD2    C2 6556   3.263   0.213  15.031 -0.0590  0.5326 -0.7789
  440MPD2    C3 6557   3.304   0.161  14.911 -0.1784  0.8141 -0.0260
  440MPD2    C4 6558   3.218   0.065  14.853 -0.7036  0.2652 -0.0768
  440MPD2    C5 6559   3.114   0.021  14.921 -0.4562  0.5959  0.0712
  440MPD2     H 6560   3.321   0.289  15.084  1.5034 -1.0330 -0.2618
  440MPD2    H1 6561   3.244   0.010  14.764 -0.4202  0.8302 -0.3427
  440MPD2    H2 6562   2.983   0.028  15.078  0.1463 -0.6836  0.5119
  440MPD2    H3 6563   3.062   4.656  14.883  1.5936 -1.7024  2.4559
  440MPD2     N 6564   3.438   0.185  14.870 -0.1928 -0.2301 -0.2050
  440MPD2    H5 6565   3.496   0.245  14.927 -0.5862 -0.6440  0.6351
  440MPD2    N1 6566   3.117   0.234  15.222 -0.2084  0.4304 -0.9684
  440MPD2    H7 6567   3.173   0.313  15.254 -0.3830  0.2190 -0.1203
  441TMC3    C1 6568   3.634   0.133  14.774 -0.8026 -0.2764 -0.2170
  441TMC3    C2 6569   3.706   0.240  14.824  0.2109  0.1412  0.2998
  441TMC3    C3 6570   3.765   0.225  14.947  0.3889 -0.2058  0.4831
  441TMC3    C4 6571   3.648   0.010  14.825 -0.2156 -0.3063 -0.7061
  441TMC3    C5 6572   3.710   4.711  14.948  0.3884  0.5051 -0.3807
  441TMC3    C6 6573   3.763   0.100  15.008  1.1283 -0.2062 -0.0627
  441TMC3     C 6574   3.496   0.156  14.755 -0.1873  0.2082 -0.1441
  441TMC3     O 6575   3.438   0.104  14.661 -0.0726  0.2468  0.7139
  441TMC3     H 6576   3.681   0.341  14.792 -0.9835 -0.2226  0.1088
  441TMC3    H1 6577   3.585   4.658  14.778 -1.6407  0.5441 -0.1307
  441TMC3    H2 6578   3.806   0.093  15.107  1.1439  1.7264  0.0531
  441TMC3    C7 6579   3.624   4.637  15.048 -0.1363  0.1734  0.1094
  441TMC3    C8 6580   3.711   0.325  15.036  0.0696  0.0119  0.3475
  441TMC3    O1 6581   3.671   4.624  15.161  0.5216  0.0492  0.1998
  441TMC3    O2 6582   3.603   0.370  15.005  0.3129  0.0626  0.1839
  442MPD2     C 6583   1.511   1.055  16.690 -0.5632 -0.6646 -0.7317
  442MPD2    C1 6584   1.404   0.975  16.727 -0.2621  0.7908 -0.0459
  442MPD2    C2 6585   1.417   0.838  16.694  0.8439 -0.3462 -1.0457
  442MPD2    C3 6586   1.510   0.790  16.600 -0.0260 -0.6771 -0.1330
  442MPD2    C4 6587   1.602   0.874  16.556 -0.6189  1.0597 -0.2990
  442MPD2    C5 6588   1.602   1.002  16.603 -0.3706 -0.0151  0.2127
  442MPD2     H 6589   1.344   0.770  16.737  0.7403 -0.1526 -0.9154
  442MPD2    H1 6590   1.680   0.840  16.489 -0.1832 -0.5693  1.0385
  442MPD2    H2 6591   1.508   1.162  16.704  0.6740 -0.6390 -0.6638
  442MPD2    H3 6592   1.682   1.057  16.554 -2.0931  1.0389 -1.3853
  442MPD2     N 6593   1.522   0.650  16.568 -0.3443 -0.2335  0.6027
  442MPD2    H5 6594   1.583   0.624  16.491 -0.4522  1.1777  0.0383
  442MPD2    N1 6595   1.288   1.021  16.802  0.0108 -0.4795 -0.1711
  442MPD2    H7 6596   1.227   0.956  16.850 -0.9848  2.4134  2.4569
  443TMC3    C1 6597   1.137   1.188  16.899 -0.3639  0.4665 -0.2194
  443TMC3    C2 6598   1.073   1.306  16.860  0.8918  0.7905  0.2563
  443TMC3    C3 6599   0.953   1.332  16.916 -0.2874 -0.0263 -0.5306
  443TMC3    C4 6600   1.086   1.096  16.982  0.2005 -0.3217 -0.4177
  443TMC3    C5 6601   0.967   1.129  17.042 -0.7917 -0.5132  0.5939
  443TMC3    C6 6602   0.905   1.250  17.018  1.1950  0.3685 -0.4122
  443TMC3     C 6603   1.252   1.153  16.813  0.1503 -0.2428  0.9367
  443TMC3     O 6604   1.295   1.250  16.753  0.4952  0.3125 -0.8069
  443TMC3     H 6605   1.100   1.377  16.782  1.3114  0.2474 -0.0980
  443TMC3    H1 6606   1.146   1.013  17.018  0.4166  0.3130  0.6994
  443TMC3    H2 6607   0.810   1.270  17.066  1.2265 -0.4782  0.0042
  443TMC3    C7 6608   0.931   1.047  17.157  0.1579  0.0965  1.0575
  443TMC3    C8 6609   0.881   1.457  16.903  0.4066  0.1047 -0.0491
  443TMC3    O1 6610   0.968   0.929  17.160 -0.0638  0.6327  0.5839
  443TMC3    O2 6611   0.871   1.529  17.005  0.0268 -0.3989 -0.1109
  444MPD2     C 6612   1.498   0.558  16.977 -0.3849  0.3665  0.2701
  444MPD2    C1 6613   1.446   0.447  17.041  0.0726 -0.0219  0.0355
  444MPD2    C2 6614   1.530   0.347  17.082 -0.7645  0.7554 -0.3042
  444MPD2    C3 6615   1.663   0.344  17.040 -0.3804  1.0454  0.3793
  444MPD2    C4 6616   1.715   0.455  16.978  0.8397  0.1250  0.1295
  444MPD2    C5 6617   1.635   0.559  16.948  0.8190 -0.0405  0.0943
  444MPD2     H 6618   1.484   0.261  17.130 -1.6240  0.8308 -0.9904
  444MPD2    H1 6619   1.819   0.464  16.947  0.8920  1.0741  0.5701
  444MPD2    H2 6620   1.438   0.633  16.925  1.6904  1.3647 -0.7025
  444MPD2    H3 6621   1.666   0.648  16.894 -2.7366 -0.4034 -2.5184
  444MPD2     N 6622   1.738   0.228  17.068 -0.6337 -0.0096  0.1861
  444MPD2    H5 6623   1.689   0.142  17.091 -0.6029  0.3075  1.4245
  444MPD2    N1 6624   1.314   0.438  17.085 -0.2821  0.0822 -0.5333
  444MPD2    H7 6625   1.290   0.365  17.151 -2.4245 -0.5086 -1.9471
  445TMC3    C1 6626   1.911   0.075  17.063 -0.6144  0.0782  0.4503
  445TMC3    C2 6627   1.840   4.706  17.128 -0.1308 -0.2303  0.1544
  445TMC3    C3 6628   1.858   4.574  17.112 -0.4110  0.4039 -0.2857
  445TMC3    C4 6629   2.021   0.037  16.993  0.2535  0.3399 -0.0447
  445TMC3    C5 6630   2.027   4.624  16.961 -0.2456  0.4941  0.1436
  445TMC3    C6 6631   1.948   4.527  17.015  0.0293  0.2893 -0.6268
  445TMC3     C 6632   1.872   0.214  17.054 -0.3519 -0.0637 -0.0879
  445TMC3     O 6633   1.953   0.296  17.013 -0.1332  0.7215  0.4716
  445TMC3     H 6634   1.766   0.019  17.198 -1.1867 -1.1256 -0.5135
  445TMC3    H1 6635   2.076   0.105  16.928  0.6125 -1.3715 -1.5616
  445TMC3    H2 6636   1.976   4.423  17.012 -0.4744  0.2057 -2.4573
  445TMC3    C7 6637   2.143   4.582  16.881 -0.6932  0.1931 -0.2488
  445TMC3    C8 6638   1.771   4.480  17.179  0.5322 -0.1045 -0.4730
  445TMC3    O1 6639   2.248   4.643  16.888 -0.1454  0.4210 -0.0701
  445TMC3    O2 6640   1.707   4.415  17.096 -0.3712 -0.4294  0.3181
  446MPD2     C 6641   1.653   1.062  11.349 -0.8234  0.1041  0.3779
  446MPD2    C1 6642   1.630   1.096  11.225 -0.4097 -0.8429  0.2964
  446MPD2    C2 6643   1.704   1.204  11.176 -0.3574  0.2356  0.0823
  446MPD2    C3 6644   1.792   1.276  11.265 -0.6432 -0.0608 -0.5418
  446MPD2    C4 6645   1.808   1.230  11.395 -0.2717  0.4365 -0.7864
  446MPD2    C5 6646   1.736   1.120  11.434 -0.4257 -0.4329 -0.0771
  446MPD2     H 6647   1.672   1.235  11.077  1.8436  0.7905 -0.4603
  446MPD2    H1 6648   1.874   1.282  11.464  0.6459  1.6982 -2.6236
  446MPD2    H2 6649   1.599   0.979  11.393  0.1086 -1.2315 -0.9943
  446MPD2    H3 6650   1.747   1.084  11.535 -0.9917 -1.1463 -0.2723
  446MPD2     N 6651   1.849   1.394  11.210  0.3836  0.6906  0.7665
  446MPD2    H5 6652   1.826   1.423  11.116 -2.4689  0.5302  1.4052
  446MPD2    N1 6653   1.539   1.033  11.145  0.5732 -0.2120  0.5978
  446MPD2    H7 6654   1.526   1.064  11.049  1.4667  0.6827  0.7652
  447TMC3    C1 6655   2.026   1.549  11.188  0.1230 -0.4488 -0.1340
  447TMC3    C2 6656   2.045   1.499  11.058  0.0547  0.7129  0.0973
  447TMC3    C3 6657   2.092   1.585  10.964 -0.7827 -0.4656 -0.6519
  447TMC3    C4 6658   2.056   1.673  11.227 -0.3004  0.3854  0.2841
  447TMC3    C5 6659   2.110   1.755  11.133 -0.0678 -0.7154  0.0033
  447TMC3    C6 6660   2.122   1.711  11.004  0.2726  0.1081 -0.4165
  447TMC3     C 6661   1.942   1.474  11.277 -0.0826 -0.0917  0.1667
  447TMC3     O 6662   1.961   1.490  11.399 -0.8886 -0.4512 -0.4958
  447TMC3     H 6663   2.033   1.393  11.039 -0.6931  1.4048 -3.1894
  447TMC3    H1 6664   2.037   1.697  11.331  2.4560  1.7131  0.4706
  447TMC3    H2 6665   2.170   1.776  10.931  0.4052  1.7937  1.1791
  447TMC3    C7 6666   2.166   1.885  11.172  0.2535 -0.7174 -0.4880
  447TMC3    C8 6667   2.134   1.532  10.836 -0.0026  0.1713 -0.5433
  447TMC3    O1 6668   2.215   1.951  11.079 -0.3069 -0.1688  0.2090
  447TMC3    O2 6669   2.147   1.612  10.740  0.1362  0.1880 -0.3778
  448TMC3    C1 6670   4.440   1.590  16.795  0.4205  0.0754  1.1348
  448TMC3    C2 6671   4.441   1.468  16.738  0.0930  0.0098 -0.0987
  448TMC3    C3 6672   4.535   1.383  16.779 -0.1091 -0.2447  0.1277
  448TMC3    C4 6673   4.540   1.632  16.879  0.7631 -0.5740  0.5487
  448TMC3    C5 6674   4.641   1.537  16.910  0.5959 -0.2688 -0.6661
  448TMC3    C6 6675   4.638   1.410  16.860 -0.2852  0.3150  0.1227
  448TMC3     C 6676   4.320   1.679  16.779 -0.6626  0.2178  0.4794
  448TMC3     O 6677   4.261   1.675  16.672  0.2219 -0.4573 -0.5188
  448TMC3     H 6678   4.353   1.450  16.676 -0.9907  1.7732  0.9440
  448TMC3    H1 6679   4.543   1.728  16.928 -0.5788 -0.1353 -0.2352
  448TMC3    H2 6680   4.713   1.333  16.873 -0.3137  0.3238  0.3333
  448TMC3    C7 6681   0.022   1.572  17.009 -0.0751  0.4170 -0.4672
  448TMC3    C8 6682   4.511   1.242  16.759 -0.6534  0.5544  0.3927
  448TMC3    O1 6683   0.019   1.691  17.044  0.3169  0.5468 -0.2736
  448TMC3    O2 6684   4.556   1.167  16.844 -0.0172  0.7003  0.0449
  449MPD2     C 6685   1.195   0.227  14.210 -0.0995 -0.7734 -0.7139
  449MPD2    C1 6686   1.147   0.109  14.161  0.1808 -0.4717 -0.4046
  449MPD2    C2 6687   1.152   0.003  14.243  0.7179  0.4046 -0.7463
  449MPD2    C3 6688   1.214   0.014  14.367 -0.2768 -0.0674 -0.1456
  449MPD2    C4 6689   1.264   0.131  14.413 -0.0643 -0.9115  0.1580
  449MPD2    C5 6690   1.255   0.240  14.331 -0.4913  0.3947 -0.3743
  449MPD2     H 6691   1.121   4.629  14.203  0.6864  1.5059 -3.3503
  449MPD2    H1 6692   1.311   0.154  14.508  0.8828 -0.1001 -0.5073
  449MPD2    H2 6693   1.176   0.315  14.149  1.4050 -0.6940 -1.0455
  449MPD2    H3 6694   1.290   0.333  14.374  0.7321 -0.0379 -0.4347
  449MPD2     N 6695   1.229   4.606  14.429 -0.0444  0.1331 -0.0453
  449MPD2    H5 6696   1.175   4.536  14.380  2.3222 -2.8546  1.5771
  449MPD2    N1 6697   1.086   0.084  14.037 -0.4363  0.5371  0.0975
  449MPD2    H7 6698   1.055   4.711  14.019 -1.3154  0.9881 -0.8209
  450TMC3    C1 6699   1.055   0.083  13.811  0.4162  0.1967 -0.3648
  450TMC3    C2 6700   1.149   0.098  13.714  0.6186  0.2214 -0.2850
  450TMC3    C3 6701   1.188   4.702  13.651  0.2959  0.2402 -0.3949
  450TMC3    C4 6702   0.992   4.682  13.836  0.2316  0.2533 -0.7310
  450TMC3    C5 6703   1.033   4.569  13.771 -0.0552  0.5304 -0.5176
  450TMC3    C6 6704   1.132   4.581  13.673 -0.3364  0.0658  0.1270
  450TMC3     C 6705   1.088   0.163  13.927  0.2607  0.1870  0.4993
  450TMC3     O 6706   1.129   0.278  13.905  0.1720  0.0809  0.1267
  450TMC3     H 6707   1.196   0.195  13.697  1.9897  0.1758  3.1587
  450TMC3    H1 6708   0.911   4.675  13.907 -0.0807  0.5750 -1.0505
  450TMC3    H2 6709   1.179   4.492  13.633 -1.4422 -0.7624  0.6682
  450TMC3    C7 6710   1.052   4.465  13.870 -0.8295 -0.1106 -0.2664
  450TMC3    C8 6711   1.312   4.692  13.576  0.7785 -0.2386 -0.4597
  450TMC3    O1 6712   1.042   4.507  13.985  0.0349  0.0266 -0.4500
  450TMC3    O2 6713   1.348   4.588  13.523  0.8399  0.4338  0.5962
  451MPD2     C 6714   2.039   2.996   1.777  1.2768  0.3806 -0.1031
  451MPD2    C1 6715   2.095   3.087   1.689  0.0919 -0.4988  0.3004
  451MPD2    C2 6716   2.230   3.082   1.655 -0.3087 -0.0694 -0.2277
  451MPD2    C3 6717   2.305   2.978   1.713 -0.5285  0.4138 -0.9510
  451MPD2    C4 6718   2.245   2.888   1.796  0.3330  0.8783 -0.7143
  451MPD2    C5 6719   2.114   2.898   1.824 -0.0211 -0.1726 -0.0700
  451MPD2     H 6720   2.277   3.154   1.589 -1.4024  0.2120 -0.7035
  451MPD2    H1 6721   2.304   2.805   1.832  0.1558  1.7626  1.6565
  451MPD2    H2 6722   1.940   2.998   1.821  1.4391  1.7719  0.1911
  451MPD2    H3 6723   2.072   2.822   1.889 -2.2466 -1.1002 -2.6123
  451MPD2     N 6724   2.439   2.950   1.690  0.2070 -0.7084  0.0963
  451MPD2    H5 6725   2.472   2.867   1.738  0.5698 -1.2912 -1.1781
  451MPD2    N1 6726   1.998   3.176   1.630 -0.4856  0.0496  0.5241
  451MPD2    H7 6727   1.904   3.162   1.664 -0.3359 -1.6296  0.2508
  452TMC3    C1 6728   2.640   2.956   1.573 -0.3096 -0.1219 -0.1201
  452TMC3    C2 6729   2.694   2.860   1.656 -0.1610 -0.0198  0.2304
  452TMC3    C3 6730   2.804   2.792   1.601  0.0686 -0.3033 -0.5732
  452TMC3    C4 6731   2.707   3.000   1.458 -0.5896 -0.4930 -0.2209
  452TMC3    C5 6732   2.815   2.927   1.412 -0.1847  0.4266  0.6838
  452TMC3    C6 6733   2.856   2.812   1.477  0.2957  0.3418 -0.0943
  452TMC3     C 6734   2.512   3.017   1.596  0.1374 -0.4365  0.8767
  452TMC3     O 6735   2.491   3.111   1.523  0.2432 -0.3712  0.0425
  452TMC3     H 6736   2.649   2.819   1.746  0.9566  1.2226  1.3538
  452TMC3    H1 6737   2.677   3.094   1.414  0.8523 -0.6976 -1.6330
  452TMC3    H2 6738   2.937   2.745   1.451 -0.7142 -0.4782 -1.1098
  452TMC3    C7 6739   2.887   2.982   1.303  0.1167  0.0770 -0.1433
  452TMC3    C8 6740   2.866   2.690   1.691 -0.3524 -0.5945  0.2035
  452TMC3    O1 6741   2.863   3.101   1.281  0.0395  0.0207  0.1952
  452TMC3    O2 6742   2.914   2.597   1.634 -0.1407 -0.2802 -0.0099
  453TMC3    C1 6743   4.021   0.981  11.670 -0.1432  0.5560  0.4762
  453TMC3    C2 6744   3.897   0.935  11.708  0.3793 -0.9869  0.0704
  453TMC3    C3 6745   3.852   0.823  11.645 -0.2397 -0.7699 -0.0482
  453TMC3    C4 6746   4.078   0.927  11.552 -0.6672  0.0054  0.7075
  453TMC3    C5 6747   4.021   0.826  11.483 -0.0395 -0.0331 -0.2939
  453TMC3    C6 6748   3.910   0.769  11.533 -0.0466 -0.1241  0.7406
  453TMC3     C 6749   4.107   1.031  11.776 -0.0533  0.0331 -0.6636
  453TMC3     O 6750   4.222   0.993  11.764 -0.3594  0.6964 -0.7777
  453TMC3     H 6751   3.847   0.957  11.801 -0.3625 -1.5800 -0.1888
  453TMC3    H1 6752   4.176   0.966  11.530 -0.6243 -0.4543  0.0743
  453TMC3    H2 6753   3.867   0.681  11.487 -1.3387  0.7800  0.2111
  453TMC3    C7 6754   4.099   0.760  11.382  0.1894  0.2570  0.1889
  453TMC3    C8 6755   3.732   0.767  11.700 -0.1199  0.3534 -0.0526
  453TMC3    O1 6756   4.072   0.644  11.367  0.4142  0.7952 -0.1211
  453TMC3    O2 6757   3.639   0.840  11.730  0.6107 -0.1783  0.2728
  454MPD2     C 6758   2.567   0.103  16.123 -0.4002 -0.3158 -0.1117
  454MPD2    C1 6759   2.458   0.026  16.153  0.0756 -0.4013 -0.4404
  454MPD2    C2 6760   2.381   0.041  16.267 -0.3225 -0.0786  0.4361
  454MPD2    C3 6761   2.414   0.143  16.347  0.0509  0.1798  0.0310
  454MPD2    C4 6762   2.518   0.230  16.321 -0.3252  0.4902  0.0340
  454MPD2    C5 6763   2.604   0.202  16.208 -0.9879 -0.1164  0.0364
  454MPD2     H 6764   2.294   4.704  16.291 -0.6335 -0.6973 -2.2777
  454MPD2    H1 6765   2.548   0.308  16.390 -1.3451  0.5927  0.3619
  454MPD2    H2 6766   2.627   0.097  16.033  0.9923 -0.1507  0.8006
  454MPD2    H3 6767   2.691   0.266  16.202 -0.9838 -0.2534 -1.4107
  454MPD2     N 6768   2.343   0.152  16.469  0.3937  0.1493 -0.1844
  454MPD2    H5 6769   2.266   0.088  16.485  2.1894 -1.7361  1.0215
  454MPD2    N1 6770   2.404   4.653  16.062  0.0943  0.0477  0.2992
  454MPD2    H7 6771   2.306   4.634  16.078  0.1693 -1.6427 -1.2441
  455TMC3    C1 6772   2.232   0.251  16.642 -0.0277  0.2544 -0.6288
  455TMC3    C2 6773   2.178   0.368  16.670 -0.0234  0.6028 -0.0772
  455TMC3    C3 6774   2.040   0.362  16.678  0.0421 -0.6884 -0.4660
  455TMC3    C4 6775   2.163   0.134  16.638  0.9028  0.0809  0.0021
  455TMC3    C5 6776   2.029   0.132  16.640  0.0499 -0.4289  0.2558
  455TMC3    C6 6777   1.959   0.245  16.662 -0.1737 -0.4461 -0.8075
  455TMC3     C 6778   2.342   0.261  16.553  0.1697  0.5946 -0.8338
  455TMC3     O 6779   2.371   0.376  16.519  0.0562  0.0181  0.2220
  455TMC3     H 6780   2.236   0.459  16.681 -0.4139  0.7385  0.8468
  455TMC3    H1 6781   2.216   0.040  16.634  0.9670  0.2094 -2.1076
  455TMC3    H2 6782   1.853   0.250  16.642 -0.1812  3.1924  0.1282
  455TMC3    C7 6783   1.962   0.026  16.559 -0.7310 -0.7507 -0.2881
  455TMC3    C8 6784   1.966   0.488  16.700 -0.4113 -0.3620  0.3511
  455TMC3    O1 6785   2.030   4.681  16.482  0.1435  0.0573 -0.7403
  455TMC3    O2 6786   1.857   0.484  16.639  0.1505  0.6425  0.3108
  456MPD2     C 6787   4.715   4.589  16.293 -0.4727  0.5335 -0.5083
  456MPD2    C1 6788   0.093   4.602  16.388 -0.1766 -0.0829 -0.3586
  456MPD2    C2 6789   0.076   4.691  16.491  0.1054 -0.6951  0.0208
  456MPD2    C3 6790   4.675   0.037  16.510 -0.3963 -1.0256 -0.5246
  456MPD2    C4 6791   4.570   0.005  16.427 -0.5379 -0.0668 -0.2251
  456MPD2    C5 6792   4.590   4.646  16.317  0.3095  0.5000 -0.4652
  456MPD2     H 6793   0.159   4.721  16.554 -0.5971 -1.6021  1.3796
  456MPD2    H1 6794   4.473   0.051  16.443 -0.9880 -1.6603  1.5861
  456MPD2    H2 6795   0.024   4.525  16.211 -0.7026  1.7854 -1.5584
  456MPD2    H3 6796   4.507   4.624  16.250 -1.4274  1.4592  1.3740
  456MPD2     N 6797   4.663   0.146  16.599 -0.0121  0.0132 -0.8691
  456MPD2    H5 6798   0.020   0.164  16.661 -1.8308  1.9982  0.8673
  456MPD2    N1 6799   0.214   4.548  16.355 -0.2809  0.0775  0.0759
  456MPD2    H7 6800   0.220   4.498  16.267  1.6813 -0.6248  0.6252
  457TMC3    C1 6801   4.584   0.323  16.725 -0.4001 -0.6539 -0.8473
  457TMC3    C2 6802   4.528   0.452  16.717  0.0878  1.1762 -0.5790
  457TMC3    C3 6803   4.580   0.550  16.794 -0.6439  0.2658 -0.4084
  457TMC3    C4 6804   4.685   0.299  16.813 -0.1753 -0.6732 -0.0760
  457TMC3    C5 6805   0.016   0.404  16.880  0.1666  0.2803  0.3118
  457TMC3    C6 6806   4.688   0.529  16.874  0.7172 -0.2524  0.1491
  457TMC3     C 6807   4.563   0.237  16.612  0.2238 -0.0423 -0.0478
  457TMC3     O 6808   4.469   0.261  16.533 -0.0641 -0.1306  0.6787
  457TMC3     H 6809   4.439   0.471  16.658 -0.7142  1.5725  0.7437
  457TMC3    H1 6810   0.001   0.200  16.838  0.5073 -0.4296 -0.1497
  457TMC3    H2 6811   4.719   0.612  16.936 -1.1979 -0.3419  1.2364
  457TMC3    C7 6812   0.091   0.381  17.001 -0.7870  0.4148 -0.3731
  457TMC3    C8 6813   4.537   0.689  16.771 -0.2444  0.3168  0.0336
  457TMC3    O1 6814   0.062   0.282  17.066  0.4302 -0.3598 -0.0985
  457TMC3    O2 6815   4.587   0.771  16.848  0.3986  0.3395 -0.6996
  458MPD2     C 6816   2.800   4.712  12.525 -0.3703 -0.2760 -0.9368
  458MPD2    C1 6817   2.777   4.634  12.636 -0.1837  0.2243  0.4567
  458MPD2    C2 6818   2.659   4.567  12.649  0.4534 -0.4646  0.1157
  458MPD2    C3 6819   2.560   4.558  12.554 -0.2080  0.2621  0.5491
  458MPD2    C4 6820   2.588   4.622  12.431  0.2844 -0.4855  0.6308
  458MPD2    C5 6821   2.705   4.702  12.421 -0.1361 -0.3473  0.0309
  458MPD2     H 6822   2.631   4.522  12.743 -0.5055  0.5215  0.3057
  458MPD2    H1 6823   2.512   4.618  12.353  0.9240 -1.8583  0.0875
  458MPD2    H2 6824   2.894   0.043  12.512 -1.6810  2.0005 -1.0974
  458MPD2    H3 6825   2.732   0.045  12.339  1.6094 -1.0986  0.0017
  458MPD2     N 6826   2.446   4.486  12.576 -0.5732  0.5699 -0.2865
  458MPD2    H5 6827   2.447   4.430  12.661 -3.3446 -1.8422 -1.8060
  458MPD2    N1 6828   2.877   4.629  12.735 -0.4638  0.7614 -0.1760
  458MPD2    H7 6829   2.965   4.671  12.708 -0.8106  2.1831  0.8843
  459TMC3    C1 6830   2.989   4.575  12.934  0.4152 -0.1608 -0.2751
  459TMC3    C2 6831   3.107   4.620  12.880 -0.2724  0.2865  0.1883
  459TMC3    C3 6832   3.208   4.663  12.958 -0.0655  0.6435  0.9648
  459TMC3    C4 6833   2.973   4.582  13.072  0.2853 -0.9583  0.2343
  459TMC3    C5 6834   3.078   4.618  13.147 -0.6014  0.4043 -0.1123
  459TMC3    C6 6835   3.200   4.665  13.094 -0.0989 -0.8095  0.1389
  459TMC3     C 6836   2.871   4.565  12.859  0.0254 -0.1223  0.2437
  459TMC3     O 6837   2.773   4.514  12.918 -0.1496 -0.0451 -0.7492
  459TMC3     H 6838   3.136   4.612  12.776  1.9916  0.4070  0.8005
  459TMC3    H1 6839   2.889   4.556  13.135  0.1487 -2.9941 -0.7823
  459TMC3    H2 6840   3.285   4.691  13.156  0.3274  0.9950 -1.1829
  459TMC3    C7 6841   3.103   4.519  13.253 -0.3191  0.0437 -0.0211
  459TMC3    C8 6842   3.325   4.718  12.888  0.6104  0.1912 -0.1958
  459TMC3    O1 6843   3.061   4.412  13.212  0.1791 -0.0181  0.4854
  459TMC3    O2 6844   3.333   4.699  12.766  0.3088  0.0093 -0.2062
  460MPD2     C 6845   2.262   1.194  10.771 -0.7817 -0.4488  0.6826
  460MPD2    C1 6846   2.233   1.324  10.747  0.4732 -0.3858 -0.3691
  460MPD2    C2 6847   2.246   1.363  10.619  0.0441 -0.0519  0.0053
  460MPD2    C3 6848   2.295   1.285  10.514 -0.0594 -0.2036  0.6808
  460MPD2    C4 6849   2.325   1.152  10.541  0.1176  0.5407  0.6874
  460MPD2    C5 6850   2.312   1.107  10.671 -0.0433  0.6141  0.7138
  460MPD2     H 6851   2.235   1.470  10.602 -0.3528  0.3245  2.6452
  460MPD2    H1 6852   2.365   1.075  10.475  0.6165  0.6178  0.8984
  460MPD2    H2 6853   2.237   1.150  10.866 -3.3264 -1.5046 -0.4582
  460MPD2    H3 6854   2.334   1.004  10.698 -1.1999  0.3683  0.7218
  460MPD2     N 6855   2.324   1.346  10.392 -0.1379  0.3372 -0.7836
  460MPD2    H5 6856   2.298   1.444  10.389  0.5122  0.6222  3.2701
  460MPD2    N1 6857   2.176   1.405  10.847  0.4716  0.1198 -0.6923
  460MPD2    H7 6858   2.177   1.373  10.944 -0.2286  1.7128 -0.1534
  461TMC3    C1 6859   2.376   1.358  10.167  0.5926 -0.1707  0.4177
  461TMC3    C2 6860   2.467   1.315  10.071 -0.4733 -0.2323  0.6474
  461TMC3    C3 6861   2.527   1.413   9.990 -0.2431 -0.6823 -0.6140
  461TMC3    C4 6862   2.321   1.480  10.155 -0.0576 -0.8339 -0.1703
  461TMC3    C5 6863   2.380   1.573  10.079 -0.9682  0.4889  0.5500
  461TMC3    C6 6864   2.491   1.545  10.003 -0.4512  0.8800  0.5551
  461TMC3     C 6865   2.361   1.277  10.279  0.4331 -0.3041 -0.6268
  461TMC3     O 6866   2.412   1.166  10.276  0.5581  0.2818 -0.2317
  461TMC3     H 6867   2.514   1.218  10.063  1.3742  0.7304 -0.1935
  461TMC3    H1 6868   2.235   1.516  10.210  1.0242 -1.9110  2.1768
  461TMC3    H2 6869   2.552   1.627   9.965  1.3191 -1.3410 -1.3787
  461TMC3    C7 6870   2.327   1.710  10.062  0.2772 -0.1785  0.0475
  461TMC3    C8 6871   2.672   1.383   9.971 -0.0547 -0.0097  0.8958
  461TMC3    O1 6872   2.358   1.771   9.956 -0.0128 -0.1079  0.0050
  461TMC3    O2 6873   2.753   1.471   9.991  0.0832 -0.3319 -0.0055
  462TMC3    C1 6874   1.271   3.680   0.566 -0.5212  0.4683  0.1047
  462TMC3    C2 6875   1.289   3.691   0.705 -0.0928 -0.0100  0.0639
  462TMC3    C3 6876   1.326   3.579   0.771  0.0340 -0.4312  0.3258
  462TMC3    C4 6877   1.281   3.561   0.501 -0.7492  0.6999  0.0970
  462TMC3    C5 6878   1.327   3.454   0.570  0.6496 -0.2458  0.6406
  462TMC3    C6 6879   1.338   3.452   0.706  0.0271  0.0816 -0.1460
  462TMC3     C 6880   1.254   3.788   0.482  0.3759  0.1718 -0.2167
  462TMC3     O 6881   1.218   3.767   0.364 -0.3883  0.0056 -0.6960
  462TMC3     H 6882   1.284   3.785   0.758 -0.8116  0.3222 -0.5892
  462TMC3    H1 6883   1.248   3.562   0.397  3.2520 -2.4902 -1.1983
  462TMC3    H2 6884   1.376   3.365   0.758  1.0435  0.5983 -0.0237
  462TMC3    C7 6885   1.355   3.326   0.506 -0.1310 -0.0110 -0.3297
  462TMC3    C8 6886   1.380   3.592   0.899 -0.3381  0.1405  0.0590
  462TMC3    O1 6887   1.363   3.224   0.577 -0.2564 -1.1951 -0.6316
  462TMC3    O2 6888   1.327   3.661   0.986  0.4527 -0.4725 -0.3850
  463MPD2     C 6889   2.482   1.813   0.969  0.4879 -0.4583  0.2212
  463MPD2    C1 6890   2.505   1.850   1.099 -0.2344 -0.0394  0.3318
  463MPD2    C2 6891   2.602   1.786   1.180 -0.1472  0.5610 -0.7252
  463MPD2    C3 6892   2.667   1.675   1.127 -0.3398  0.5708  0.1678
  463MPD2    C4 6893   2.648   1.635   0.993  0.5817  1.0138  0.4124
  463MPD2    C5 6894   2.558   1.707   0.918  0.5566  0.7079  0.1825
  463MPD2     H 6895   2.611   1.808   1.286  0.2145 -1.2626 -0.3847
  463MPD2    H1 6896   2.688   1.541   0.957 -1.5954  0.2099  0.0912
  463MPD2    H2 6897   2.407   1.858   0.906 -0.0457  1.3819  2.1881
  463MPD2    H3 6898   2.531   1.668   0.821  2.4626  3.2318 -1.3461
  463MPD2     N 6899   2.768   1.598   1.193 -0.4692 -0.2864 -0.4451
  463MPD2    H5 6900   2.796   1.509   1.152 -2.9321 -1.0384 -0.4827
  463MPD2    N1 6901   2.424   1.944   1.169  0.3862 -0.0426 -0.1680
  463MPD2    H7 6902   2.450   1.984   1.258 -0.2765  1.5053 -0.6655
  464TMC3    C1 6903   2.223   2.062   1.197  0.5372 -0.4081 -0.8956
  464TMC3    C2 6904   2.280   2.174   1.246  0.3825  0.6650  0.1282
  464TMC3    C3 6905   2.201   2.266   1.309  0.0772 -0.9075 -0.2575
  464TMC3    C4 6906   2.097   2.024   1.223  0.6600 -0.7735  0.3313
  464TMC3    C5 6907   2.030   2.107   1.304 -0.3111  0.1152  0.4824
  464TMC3    C6 6908   2.070   2.233   1.343  0.4822  0.7932 -0.1806
  464TMC3     C 6909   2.301   1.980   1.114  0.4183  0.1446  0.7059
  464TMC3     O 6910   2.233   1.934   1.023 -0.3115  0.1179  0.1282
  464TMC3     H 6911   2.382   2.203   1.222  0.6986  2.1535  3.3033
  464TMC3    H1 6912   2.057   1.936   1.175 -0.9092 -1.2127  2.4645
  464TMC3    H2 6913   2.011   2.297   1.406  1.3126  0.4623  0.9445
  464TMC3    C7 6914   1.889   2.083   1.325 -0.3260  0.2328  0.8340
  464TMC3    C8 6915   2.242   2.407   1.305 -0.0248  0.3461 -0.2680
  464TMC3    O1 6916   1.819   2.183   1.334 -0.2465 -0.3570 -0.4152
  464TMC3    O2 6917   2.334   2.437   1.229  0.1625  0.1526  0.2293
  465MPD2     C 6918   4.165   0.497  16.541  0.0949 -0.2410 -0.2163
  465MPD2    C1 6919   4.117   0.373  16.572  0.1692 -0.8577  0.2729
  465MPD2    C2 6920   4.014   0.318  16.495 -0.3138 -0.3224  0.2410
  465MPD2    C3 6921   3.948   0.389  16.398  0.0943  0.4640 -0.0165
  465MPD2    C4 6922   4.001   0.514  16.373  0.4288 -0.3589  0.0055
  465MPD2    C5 6923   4.105   0.566  16.439 -0.0228  0.1366 -0.5371
  465MPD2     H 6924   3.975   0.224  16.533 -2.8327  0.7537  0.3391
  465MPD2    H1 6925   3.958   0.574  16.294 -0.8895 -0.2862  0.7896
  465MPD2    H2 6926   4.228   0.551  16.611 -1.0449 -0.1640  0.7608
  465MPD2    H3 6927   4.128   0.668  16.412  1.9758 -0.9518 -2.9031
  465MPD2     N 6928   3.837   0.336  16.332  0.1088 -0.2328 -0.1866
  465MPD2    H5 6929   3.809   0.240  16.347  3.1597 -1.0473  0.1351
  465MPD2    N1 6930   4.157   0.302  16.687  1.0186 -0.2432  0.4853
  465MPD2    H7 6931   4.123   0.207  16.695  2.2145 -0.8312 -1.2788
  466TMC3    C1 6932   3.443   0.260  16.403 -0.6706  0.4883  0.1374
  466TMC3    C2 6933   3.359   0.353  16.352 -0.2820 -0.5865  0.0963
  466TMC3    C3 6934   3.397   0.433  16.249 -0.9894 -0.7631 -0.0412
  466TMC3    C4 6935   3.573   0.267  16.361  0.3875 -0.3358  0.5054
  466TMC3    C5 6936   3.615   0.356  16.262 -0.4161  0.2938 -0.3009
  466TMC3    C6 6937   3.523   0.429  16.194 -0.1301  0.6678  0.2518
  466TMC3     C 6938   3.416   0.195  16.527 -0.9849 -0.4782 -0.3527
  466TMC3     O 6939   3.505   0.152  16.595  0.0736  0.1374 -0.0054
  466TMC3     H 6940   3.257   0.367  16.388 -0.5544 -0.4825 -0.7166
  466TMC3    H1 6941   3.648   0.207  16.412  0.9384 -0.0481  0.0317
  466TMC3    H2 6942   3.560   0.500  16.121  2.0112 -2.1546 -1.4060
  466TMC3    C7 6943   3.738   0.430  16.293 -0.5303  0.5619 -0.3426
  466TMC3    C8 6944   3.317   0.549  16.217  0.4640  0.4861  0.0828
  466TMC3    O1 6945   3.732   0.547  16.326  0.5767  0.6299 -0.2095
  466TMC3    O2 6946   3.332   0.585  16.100 -0.2095  0.0664  0.0550
  467TMC3    C1 6947   0.270   3.579  13.855 -0.5224 -0.2971 -0.0380
  467TMC3    C2 6948   0.221   3.575  13.727 -0.2701  0.5673 -0.1935
  467TMC3    C3 6949   0.086   3.537  13.724  0.3001 -0.6010 -0.1101
  467TMC3    C4 6950   0.201   3.543  13.970 -0.3859  0.1235  0.2769
  467TMC3    C5 6951   0.070   3.507  13.961 -0.2137  0.1256  0.0554
  467TMC3    C6 6952   0.004   3.509  13.832 -0.4126  0.2453  0.0609
  467TMC3     C 6953   0.413   3.606  13.879 -0.4014  0.4434  0.0463
  467TMC3     O 6954   0.454   3.590  13.994 -0.2707 -0.4169  0.3991
  467TMC3     H 6955   0.283   3.591  13.640  0.0555  0.1522 -0.0353
  467TMC3    H1 6956   0.257   3.538  14.063 -2.7420 -2.3975  1.5783
  467TMC3    H2 6957   4.630   3.460  13.818  0.5602 -0.8266 -2.8230
  467TMC3    C7 6958   0.020   3.421  14.061  0.7568 -0.0965 -0.2390
  467TMC3    C8 6959   0.026   3.577  13.594 -0.0765 -0.8804 -0.1249
  467TMC3    O1 6960   0.106   3.344  14.099 -0.0636  0.1409  0.0581
  467TMC3    O2 6961   0.101   3.585  13.495  0.1255  0.1126 -0.3604
  468MPD2     C 6962   3.876   1.584  10.990  0.3587 -0.3276 -0.0330
  468MPD2    C1 6963   4.011   1.545  11.001  0.2029 -0.5643  0.6451
  468MPD2    C2 6964   4.046   1.420  10.981  0.3133 -1.3329 -0.1461
  468MPD2    C3 6965   3.946   1.323  10.964 -0.3476 -0.3125  0.4525
  468MPD2    C4 6966   3.811   1.359  10.965 -0.2503 -0.4126 -0.1908
  468MPD2    C5 6967   3.785   1.493  10.976 -0.5723 -0.6680 -0.2143
  468MPD2     H 6968   4.149   1.395  11.003  0.2254 -0.9334  0.7411
  468MPD2    H1 6969   3.724   1.295  10.954 -0.1737 -1.0120  2.5535
  468MPD2    H2 6970   3.848   1.688  10.991  1.8473  0.0408  3.0164
  468MPD2    H3 6971   3.679   1.514  10.971 -0.4045 -0.1081 -1.5417
  468MPD2     N 6972   3.966   1.184  10.932  0.1428 -0.0739  0.5208
  468MPD2    H5 6973   3.886   1.122  10.936 -0.1768  0.3882  1.3653
  468MPD2    N1 6974   4.120   1.633  11.013 -0.0368 -0.4753 -0.4793
  468MPD2    H7 6975   4.215   1.596  11.008 -1.2079 -3.2921 -1.6981
  469TMC3    C1 6976   4.224   1.842  11.040  0.1747 -0.1639 -0.4230
  469TMC3    C2 6977   4.347   1.781  11.032  0.3846  0.3886  0.3113
  469TMC3    C3 6978   4.455   1.865  11.052 -0.5191 -0.1638 -0.1791
  469TMC3    C4 6979   4.211   1.979  11.050 -0.7688 -0.1416  0.1704
  469TMC3    C5 6980   4.320   2.053  11.092 -0.1810  0.1193 -0.2904
  469TMC3    C6 6981   4.448   2.002  11.075  0.1687 -0.0226  0.5604
  469TMC3     C 6982   4.104   1.770  11.035 -0.3145  0.7057  0.6738
  469TMC3     O 6983   4.002   1.838  11.052  0.4272 -0.4975 -0.8751
  469TMC3     H 6984   4.371   1.677  11.011  1.3171  0.5219  0.7136
  469TMC3    H1 6985   4.112   2.024  11.049 -0.2812  0.9657  0.6566
  469TMC3    H2 6986   4.538   2.058  11.098  0.0741 -0.0420  0.9877
  469TMC3    C7 6987   4.283   2.185  11.146 -0.0872 -0.3090  0.3210
  469TMC3    C8 6988   4.581   1.794  11.087 -0.2883 -0.1897  0.3749
  469TMC3    O1 6989   4.165   2.211  11.168  0.1674 -0.0892 -0.2671
  469TMC3    O2 6990   4.605   1.694  11.024  0.2001  0.2598 -0.0022
  470TMC3    C1 6991   1.119   2.987   0.625 -0.4415  0.3114  0.4483
  470TMC3    C2 6992   1.044   3.088   0.682 -0.0166 -0.3085 -0.2443
  470TMC3    C3 6993   1.093   3.153   0.790  0.5377 -0.2872  0.4583
  470TMC3    C4 6994   1.232   2.943   0.687  1.0082 -0.3637  0.3602
  470TMC3    C5 6995   1.266   3.002   0.804  0.8246  0.7920 -0.5984
  470TMC3    C6 6996   1.202   3.109   0.863 -0.3187  0.7818 -0.1925
  470TMC3     C 6997   1.079   2.915   0.507 -0.2217  0.6867 -0.2529
  470TMC3     O 6998   1.164   2.903   0.420 -0.1608 -0.2124 -0.0061
  470TMC3     H 6999   0.962   3.130   0.626 -0.5726 -1.3448 -0.2118
  470TMC3    H1 7000   1.290   2.859   0.650  0.7694  0.1980 -1.2877
  470TMC3    H2 7001   1.221   3.157   0.958  0.3824  1.5041 -0.7043
  470TMC3    C7 7002   1.341   2.906   0.888  0.4670 -0.1219 -0.1831
  470TMC3    C8 7003   1.045   3.284   0.829 -0.0162 -0.6604  0.2387
  470TMC3    O1 7004   1.422   2.833   0.828 -0.0864 -0.3926 -0.0019
  470TMC3    O2 7005   1.055   3.318   0.946  0.2415 -0.4101  0.1155
  471MPD2     C 7006   1.655   4.060  16.327 -0.0248 -0.6906  0.6833
  471MPD2    C1 7007   1.578   3.954  16.365  0.3948  0.1561  0.2937
  471MPD2    C2 7008   1.593   3.905  16.491 -0.2471  0.0944 -0.3608
  471MPD2    C3 7009   1.674   3.968  16.582 -0.1427  0.7771  0.2986
  471MPD2    C4 7010   1.735   4.084  16.541  0.3450 -0.0716 -0.0957
  471MPD2    C5 7011   1.736   4.122  16.412  0.8631  0.1665  0.1257
  471MPD2     H 7012   1.541   3.814  16.518  1.2149 -0.6042  0.1314
  471MPD2    H1 7013   1.778   4.152  16.615 -0.3083 -0.4158  0.6066
  471MPD2    H2 7014   1.644   4.099  16.226  1.9243  0.0647  0.7563
  471MPD2    H3 7015   1.793   4.211  16.386  1.4807 -1.4489 -4.0640
  471MPD2     N 7016   1.684   3.923  16.710  0.3460  0.3902 -0.1167
  471MPD2    H5 7017   1.615   3.854  16.736 -1.3570  0.9711 -3.1274
  471MPD2    N1 7018   1.482   3.890  16.279 -0.0635 -0.0582 -0.2914
  471MPD2    H7 7019   1.424   3.815  16.314  0.7878 -0.6554 -0.1536
  472TMC3    C1 7020   1.367   3.805  16.103 -0.3456  0.0974 -1.2295
  472TMC3    C2 7021   1.247   3.861  16.061  0.0031  0.2451 -0.2430
  472TMC3    C3 7022   1.129   3.799  16.094 -0.7786  0.5175  0.6425
  472TMC3    C4 7023   1.366   3.693  16.184 -0.1144  0.3326  0.5737
  472TMC3    C5 7024   1.243   3.634  16.219  0.5173  0.0404  0.1932
  472TMC3    C6 7025   1.128   3.681  16.159  0.5268  0.4480 -0.5607
  472TMC3     C 7026   1.456   3.915  16.145  0.4925  0.8360 -0.3086
  472TMC3     O 7027   1.476   4.017  16.075 -0.2307  0.1204  0.1099
  472TMC3     H 7028   1.251   3.960  16.016 -0.1655 -0.2087 -1.2563
  472TMC3    H1 7029   1.461   3.654  16.220  1.0467  2.1509 -0.5290
  472TMC3    H2 7030   1.036   3.625  16.174 -0.8677  3.7337  3.0781
  472TMC3    C7 7031   1.240   3.566  16.354  0.1205 -0.4314  0.2361
  472TMC3    C8 7032   1.012   3.833  16.011  0.4973  0.1295  0.0838
  472TMC3    O1 7033   1.347   3.555  16.419  0.0604 -0.2149  0.2731
  472TMC3    O2 7034   1.026   3.912  15.918 -0.0133 -0.0825  0.3683
  473MPD2     C 7035   1.470   1.457  14.243 -0.5481 -0.7847  0.1655
  473MPD2    C1 7036   1.550   1.545  14.177 -0.3692 -0.4037 -0.8999
  473MPD2    C2 7037   1.641   1.630  14.245 -0.3934  0.3022  0.1521
  473MPD2    C3 7038   1.649   1.625  14.386 -0.5295  0.3803 -0.3422
  473MPD2    C4 7039   1.571   1.530  14.454  0.6443  0.0883 -0.3145
  473MPD2    C5 7040   1.470   1.452  14.378 -0.8148  1.0200  1.1653
  473MPD2     H 7041   1.698   1.696  14.182  1.0021 -1.1291 -0.0948
  473MPD2    H1 7042   1.579   1.527  14.562  0.0320  2.0952 -0.2086
  473MPD2    H2 7043   1.400   1.394  14.189 -2.1763  0.2607  1.0709
  473MPD2    H3 7044   1.404   1.379  14.424 -1.6065 -0.9669 -3.1448
  473MPD2     N 7045   1.731   1.709  14.459  0.4427 -0.2473 -0.4046
  473MPD2    H5 7046   1.759   1.666  14.547  0.3335  0.9863  0.2270
  473MPD2    N1 7047   1.545   1.560  14.037 -0.2459 -0.1215 -0.5113
  473MPD2    H7 7048   1.592   1.641  13.997 -0.9599  0.3815 -0.3300
  474TMC3    C1 7049   1.868   1.907  14.499 -0.3921 -0.1546  0.6891
  474TMC3    C2 7050   1.911   2.028  14.445  0.0047  0.2566  0.4841
  474TMC3    C3 7051   2.016   2.093  14.507 -0.5246 -0.0930 -0.4174
  474TMC3    C4 7052   1.923   1.851  14.609  0.2479  0.2717  0.5181
  474TMC3    C5 7053   2.013   1.934  14.679  0.6262  0.1000  0.0271
  474TMC3    C6 7054   2.058   2.053  14.629 -0.2734 -0.1893  0.0595
  474TMC3     C 7055   1.768   1.839  14.418  0.9184 -0.5895 -0.1817
  474TMC3     O 7056   1.744   1.884  14.301  0.6949  0.0504  0.7065
  474TMC3     H 7057   1.865   2.068  14.355  1.8793  1.6806  0.1625
  474TMC3    H1 7058   1.902   1.752  14.647  1.5740 -0.1604  0.1398
  474TMC3    H2 7059   2.140   2.107  14.673 -0.9908  2.3262 -1.6822
  474TMC3    C7 7060   2.103   1.865  14.773  0.1998  0.3777  0.0471
  474TMC3    C8 7061   2.084   2.201  14.445 -0.6933  0.1538 -1.0911
  474TMC3    O1 7062   2.138   1.750  14.758  0.1330 -0.5951  0.0419
  474TMC3    O2 7063   2.128   2.294  14.512  0.3022 -0.5873  0.1848
  475MPD2     C 7064   1.150   4.412  10.554  0.2495 -0.5154 -0.2844
  475MPD2    C1 7065   1.062   4.397  10.448 -0.3167 -0.2056  0.0264
  475MPD2    C2 7066   0.928   4.388  10.477  0.0230  0.5616 -0.5257
  475MPD2    C3 7067   0.878   4.405  10.607  0.5565  0.2447 -0.2714
  475MPD2    C4 7068   0.967   4.431  10.712  0.4721  0.1088 -0.2733
  475MPD2    C5 7069   1.099   4.436  10.678  0.2410 -0.6006 -0.1294
  475MPD2     H 7070   0.864   4.364  10.393 -1.4841 -1.9389  1.3199
  475MPD2    H1 7071   0.937   4.431  10.816 -0.1466  0.2600 -0.4536
  475MPD2    H2 7072   1.256   4.417  10.533  0.0284  1.8535 -0.7898
  475MPD2    H3 7073   1.167   4.470  10.755 -1.6111 -1.6162  1.9643
  475MPD2     N 7074   0.745   4.372  10.625  0.4595  0.2831  0.0976
  475MPD2    H5 7075   0.695   4.342  10.542 -2.9757 -0.3451  2.4381
  475MPD2    N1 7076   1.116   4.374  10.322 -0.1282  0.6487  0.2787
  475MPD2    H7 7077   1.212   4.397  10.295  0.7181 -2.4460  0.6437
  476TMC3    C1 7078   1.122   4.306  10.094 -0.2325  0.1691  0.2199
  476TMC3    C2 7079   1.055   4.233   9.998  0.7510 -0.4152 -0.1310
  476TMC3    C3 7080   1.067   4.270   9.871 -0.6143 -0.4894 -0.2978
  476TMC3    C4 7081   1.214   4.402  10.067 -0.6303  0.7318 -0.9360
  476TMC3    C5 7082   1.237   4.424   9.934 -0.7333  0.2457  0.4172
  476TMC3    C6 7083   1.171   4.354   9.844 -0.1866 -0.3650  0.3629
  476TMC3     C 7084   1.047   4.311  10.221 -0.1461  0.2673 -0.1206
  476TMC3     O 7085   0.942   4.249  10.224  0.8865  0.4221 -0.3045
  476TMC3     H 7086   0.984   4.160  10.037  0.9877 -0.3878  0.3529
  476TMC3    H1 7087   1.229   4.485  10.135 -0.3777 -1.1640  1.3615
  476TMC3    H2 7088   1.194   4.365   9.739 -2.7287 -1.7776 -0.3463
  476TMC3    C7 7089   1.337   4.520   9.883  0.0645 -0.1539  0.6034
  476TMC3    C8 7090   0.971   4.227   9.765  0.3890  0.0879 -0.1184
  476TMC3    O1 7091   1.333   4.557   9.767  0.2268 -0.3763  0.8502
  476TMC3    O2 7092   0.969   4.283   9.654 -0.2612  0.0645 -0.2581
  477MPD2     C 7093   2.720   0.767  11.442  0.1674 -0.1944 -0.0449
  477MPD2    C1 7094   2.622   0.797  11.534  0.8010  0.4554 -0.1023
  477MPD2    C2 7095   2.617   0.724  11.655  0.6684 -0.1822  0.7511
  477MPD2    C3 7096   2.715   0.633  11.684 -0.1971  0.1840 -0.3924
  477MPD2    C4 7097   2.813   0.614  11.590  0.1596 -0.4795 -0.6340
  477MPD2    C5 7098   2.819   0.682  11.470 -0.3276 -0.2101  0.4069
  477MPD2     H 7099   2.541   0.739  11.730 -0.2819  1.8572 -0.6301
  477MPD2    H1 7100   2.897   0.551  11.616 -0.4595 -0.7044  0.7976
  477MPD2    H2 7101   2.723   0.818  11.347 -0.2500 -1.2457 -0.6225
  477MPD2    H3 7102   2.902   0.674  11.401 -0.4958  1.9327 -0.0575
  477MPD2     N 7103   2.726   0.560  11.805  0.1712  0.0784  0.6178
  477MPD2    H5 7104   2.810   0.504  11.818 -1.2571 -2.2806 -0.3646
  477MPD2    N1 7105   2.523   0.887  11.503 -0.3910 -0.3725 -0.9107
  477MPD2    H7 7106   2.535   0.929  11.411 -0.6968  1.0148 -0.3277
  478TMC3    C1 7107   2.386   1.069  11.529  0.2160 -0.7073 -0.5734
  478TMC3    C2 7108   2.368   1.177  11.615 -0.3801  0.5411 -0.0938
  478TMC3    C3 7109   2.276   1.273  11.568 -0.0339 -0.1495  0.0553
  478TMC3    C4 7110   2.324   1.051  11.405  0.0250 -0.9253 -0.3025
  478TMC3    C5 7111   2.238   1.149  11.367 -0.2732 -0.0537 -0.3382
  478TMC3    C6 7112   2.218   1.262  11.444 -0.2696 -0.2834  0.1718
  478TMC3     C 7113   2.443   0.950  11.587  0.1291 -0.0563 -0.1742
  478TMC3     O 7114   2.447   0.944  11.709  0.3685  0.0913  0.0475
  478TMC3     H 7115   2.427   1.187  11.705 -1.0322  2.2870  0.1453
  478TMC3    H1 7116   2.348   0.975  11.331 -1.2167 -0.0721 -1.6102
  478TMC3    H2 7117   2.142   1.333  11.410  2.3346  0.5922 -3.8408
  478TMC3    C7 7118   2.171   1.142  11.234  0.8274  0.3146 -0.2018
  478TMC3    C8 7119   2.214   1.359  11.670 -0.1167 -0.3762  0.0822
  478TMC3    O1 7120   2.167   1.255  11.184 -0.4500 -0.0922  0.4665
  478TMC3    O2 7121   2.247   1.324  11.784  0.0883  0.0432 -0.4957
  479MPD2     C 7122   1.455   3.420  15.207 -0.0733 -0.1456 -0.0873
  479MPD2    C1 7123   1.373   3.375  15.310 -0.2708 -0.2151  0.3476
  479MPD2    C2 7124   1.399   3.419  15.440 -0.5190  0.4138 -0.5911
  479MPD2    C3 7125   1.494   3.513  15.469 -0.4144  0.8037 -0.0871
  479MPD2    C4 7126   1.580   3.545  15.367  0.4988 -0.2798  0.1364
  479MPD2    C5 7127   1.558   3.505  15.235 -0.0956 -0.1293 -0.4163
  479MPD2     H 7128   1.345   3.372  15.522 -1.8224  2.2892 -0.3812
  479MPD2    H1 7129   1.660   3.617  15.383 -0.6658  0.6577  1.6841
  479MPD2    H2 7130   1.423   3.385  15.109 -1.5018  0.1105  0.2785
  479MPD2    H3 7131   1.614   3.538  15.149  1.3911 -1.2610  0.1143
  479MPD2     N 7132   1.525   3.566  15.593  0.1735 -0.3961  0.3119
  479MPD2    H5 7133   1.604   3.629  15.593 -0.0219 -0.1449 -1.9319
  479MPD2    N1 7134   1.252   3.298  15.276 -0.2001  0.2427 -0.3911
  479MPD2    H7 7135   1.220   3.277  15.182  1.2576 -1.4086 -0.5241
  480TMC3    C1 7136   1.109   3.488  15.806 -0.5728  0.3216 -0.8041
  480TMC3    C2 7137   1.052   3.561  15.712  0.1995 -0.3895 -0.1388
  480TMC3    C3 7138   1.119   3.618  15.609 -0.8557 -0.3904 -0.2676
  480TMC3    C4 7139   1.250   3.480  15.808 -0.6838 -0.9255  0.6449
  480TMC3    C5 7140   1.314   3.546  15.706  0.0203 -0.3947  0.6425
  480TMC3    C6 7141   1.251   3.613  15.607  0.4234  0.0801 -0.2548
  480TMC3     C 7142   1.029   3.457  15.922 -0.9246 -0.3272 -0.1553
  480TMC3     O 7143   0.935   3.531  15.946  0.0478 -0.4354  0.1318
  480TMC3     H 7144   0.944   3.560  15.706  0.0657 -0.6157  2.2162
  480TMC3    H1 7145   1.307   3.430  15.885 -1.5282  1.2545  2.6588
  480TMC3    H2 7146   1.295   3.677  15.532 -0.3075 -0.5784 -1.2411
  480TMC3    C7 7147   1.460   3.552  15.712 -0.0348  0.0943  0.0657
  480TMC3    C8 7148   1.044   3.611  15.485 -0.3696 -0.3922  0.4339
  480TMC3    O1 7149   1.517   3.556  15.820  0.1759  0.2387  0.4620
  480TMC3    O2 7150   0.921   3.616  15.495 -0.5311  0.2424  0.5124
  481MPD2     C 7151   3.523   2.799  14.452 -0.1130  0.7494  0.2818
  481MPD2    C1 7152   3.398   2.827  14.502  0.4520 -0.2038  0.9653
  481MPD2    C2 7153   3.363   2.762  14.619  0.2635  0.0442  0.3465
  481MPD2    C3 7154   3.442   2.669  14.683  0.3011 -0.1975 -0.2272
  481MPD2    C4 7155   3.571   2.659  14.641  0.3147  0.0161  0.6932
  481MPD2    C5 7156   3.613   2.723  14.527 -0.5919 -0.2245 -0.4353
  481MPD2     H 7157   3.262   2.782  14.652  0.5012 -1.1661  1.8055
  481MPD2    H1 7158   3.636   2.591  14.695 -0.1673 -0.8668  0.1644
  481MPD2    H2 7159   3.550   2.846  14.358 -3.7371 -0.9900 -1.5865
  481MPD2    H3 7160   3.713   2.701  14.492 -0.8516  0.8106 -1.8346
  481MPD2     N 7161   3.412   2.586  14.794 -0.4395  0.2824 -0.0380
  481MPD2    H5 7162   3.488   2.535  14.840  0.4324  0.1895 -1.5730
  481MPD2    N1 7163   3.312   2.895  14.412 -0.9624  0.0314  0.1013
  481MPD2    H7 7164   3.349   2.926  14.323 -3.9043 -2.5621 -2.0349
  482TMC3    C1 7165   3.122   3.009  14.328 -0.4153 -0.3053  0.0931
  482TMC3    C2 7166   3.127   2.931  14.215 -0.2803  0.1847  0.8437
  482TMC3    C3 7167   3.028   2.938  14.120  0.1178  0.0346 -0.1139
  482TMC3    C4 7168   3.016   3.096  14.349 -0.3078 -0.0946 -0.3391
  482TMC3    C5 7169   2.933   3.115  14.241  0.0970  0.4552  0.5915
  482TMC3    C6 7170   2.934   3.037  14.129  0.0792  0.4383 -0.1249
  482TMC3     C 7171   3.198   2.960  14.446  0.7231 -0.2553  0.5495
  482TMC3     O 7172   3.156   2.973  14.559  0.5276 -0.5330  0.0222
  482TMC3     H 7173   3.197   2.849  14.206 -1.7501 -0.9533 -0.1897
  482TMC3    H1 7174   2.998   3.147  14.443 -1.2991  1.9159 -1.6113
  482TMC3    H2 7175   2.855   3.047  14.056  0.9500 -1.7999 -1.3742
  482TMC3    C7 7176   2.873   3.245  14.232 -0.6095 -0.7423  0.1178
  482TMC3    C8 7177   3.007   2.826  14.031  0.0516  0.0857 -0.2222
  482TMC3    O1 7178   2.824   3.292  14.333 -0.3227  0.6508 -0.7143
  482TMC3    O2 7179   3.046   2.715  14.067 -0.2740  0.3987 -0.2202
  483TMC3    C1 7180   0.321   2.199   0.751 -0.1675 -0.1306 -0.0103
  483TMC3    C2 7181   0.406   2.303   0.727  0.1874  0.5570 -0.7007
  483TMC3    C3 7182   0.509   2.335   0.813  0.2072  0.0427  0.4870
  483TMC3    C4 7183   0.335   2.118   0.856 -0.6506  0.4488 -0.7702
  483TMC3    C5 7184   0.433   2.154   0.945 -0.7287 -0.0522 -0.5565
  483TMC3    C6 7185   0.524   2.254   0.921 -0.0501  0.0250  0.0886
  483TMC3     C 7186   0.250   2.149   0.631 -0.1371  0.0490 -0.7548
  483TMC3     O 7187   0.249   2.224   0.532 -0.4873 -0.2912  1.0006
  483TMC3     H 7188   0.400   2.343   0.627 -1.4778 -0.7646 -1.1153
  483TMC3    H1 7189   0.259   2.043   0.876 -0.1965 -0.0987 -1.1001
  483TMC3    H2 7190   0.622   2.230   0.960 -0.2908  0.0723  0.7166
  483TMC3    C7 7191   0.455   2.069   1.063  0.1665 -0.3445  0.8607
  483TMC3    C8 7192   0.633   2.390   0.753  0.0982 -0.7145 -1.0455
  483TMC3    O1 7193   0.383   1.971   1.064  0.0063 -0.1687  0.0391
  483TMC3    O2 7194   0.646   2.381   0.631  0.0548  0.3692  0.2709
  484MPD2     C 7195   3.538   0.279  12.981  0.4334 -0.1959  0.4617
  484MPD2    C1 7196   3.502   0.162  12.922  1.3624  0.3067 -0.4052
  484MPD2    C2 7197   3.577   0.109  12.821  0.3003  0.0052 -0.4853
  484MPD2    C3 7198   3.690   0.176  12.782 -0.1206 -0.1007  0.2729
  484MPD2    C4 7199   3.723   0.301  12.836  0.7745  0.3618  0.2096
  484MPD2    C5 7200   3.649   0.349  12.938 -0.2619 -0.2376  0.1390
  484MPD2     H 7201   3.560   0.007  12.792  0.1821 -0.2125  0.3506
  484MPD2    H1 7202   3.802   0.368  12.804  0.8840  0.3879  0.5289
  484MPD2    H2 7203   3.474   0.321  13.058 -1.1649  0.4507 -1.2299
  484MPD2    H3 7204   3.667   0.443  12.988 -0.1668  0.0040 -0.3474
  484MPD2     N 7205   3.775   0.126  12.681 -0.1000  0.3552  0.1401
  484MPD2    H5 7206   3.861   0.178  12.668  0.8297 -0.7398  1.7987
  484MPD2    N1 7207   3.386   0.096  12.963 -0.4030 -0.6185 -0.2777
  484MPD2    H7 7208   3.333   0.140  13.038  2.7335  1.8290  0.5055
  485TMC3    C1 7209   3.860   4.691  12.510  0.4288 -0.1439  0.2571
  485TMC3    C2 7210   3.844   4.566  12.466  0.8663  0.0513  0.5261
  485TMC3    C3 7211   3.942   4.511  12.384  0.7598 -0.2685  0.3131
  485TMC3    C4 7212   3.967   0.051  12.476 -0.9178  0.4767  0.3373
  485TMC3    C5 7213   4.062   4.714  12.406 -0.4639 -0.3650 -0.2697
  485TMC3    C6 7214   4.052   4.589  12.355  0.2465  0.0380  0.0422
  485TMC3     C 7215   3.757   0.009  12.609  0.3869 -0.2452  0.1236
  485TMC3     O 7216   3.658   4.661  12.608 -0.3777  0.6784  0.0615
  485TMC3     H 7217   3.753   4.509  12.484 -0.3550  1.4836 -1.0607
  485TMC3    H1 7218   3.982   0.148  12.522 -1.2763  0.3360  0.7489
  485TMC3    H2 7219   4.117   4.559  12.273  0.1338 -1.0648  0.3445
  485TMC3    C7 7220   4.185   0.064  12.380 -0.4064 -0.1622  0.2349
  485TMC3    C8 7221   3.927   4.382  12.321 -0.4093 -0.2985 -0.2890
  485TMC3    O1 7222   4.185   0.186  12.387  0.1891 -0.1076 -0.1109
  485TMC3    O2 7223   3.813   4.342  12.290  0.3633  0.6987 -0.1559
  486MPD2     C 7224   0.730   3.504  13.020  0.3055  0.7299 -0.3918
  486MPD2    C1 7225   0.846   3.560  12.969  0.1522 -0.1640  0.2764
  486MPD2    C2 7226   0.836   3.688  12.912 -0.0988 -0.2786  0.0752
  486MPD2    C3 7227   0.715   3.754  12.896 -0.5976  0.1844 -0.5297
  486MPD2    C4 7228   0.601   3.692  12.937  0.6589 -0.7110 -0.3337
  486MPD2    C5 7229   0.607   3.570  13.001  0.1036 -0.2395  0.6743
  486MPD2     H 7230   0.923   3.741  12.874 -0.6529  0.9623  0.5645
  486MPD2    H1 7231   0.503   3.739  12.938  0.6501 -0.6929 -2.0755
  486MPD2    H2 7232   0.734   3.405  13.064 -1.0773  0.4820 -0.8384
  486MPD2    H3 7233   0.523   3.515  13.042  0.2495 -0.4109  0.7462
  486MPD2     N 7234   0.725   3.883  12.832  0.3953 -0.2986  0.0437
  486MPD2    H5 7235   0.809   3.902  12.779  1.1014  1.7742  1.8882
  486MPD2    N1 7236   0.973   3.488  12.967 -0.0102  0.0214 -0.1437
  486MPD2    H7 7237   0.976   3.391  12.997  0.5001  0.3555  0.8598
  487TMC3    C1 7238   1.200   3.461  12.985  0.2510  0.0237  0.1998
  487TMC3    C2 7239   1.184   3.341  12.927 -0.1069  0.6371  0.2606
  487TMC3    C3 7240   1.245   3.235  12.984 -0.1340 -0.1295 -0.0680
  487TMC3    C4 7241   1.248   3.475  13.110 -0.6667 -0.4069  0.0257
  487TMC3    C5 7242   1.327   3.379  13.154 -0.0510  0.2194  0.4489
  487TMC3    C6 7243   1.338   3.263  13.083 -0.4015 -0.0076 -0.3219
  487TMC3     C 7244   1.096   3.556  12.958 -0.9299 -0.7237 -0.0141
  487TMC3     O 7245   1.127   3.671  12.939 -1.1142 -0.5856  0.5475
  487TMC3     H 7246   1.124   3.319  12.839  0.0558 -0.3666  0.3935
  487TMC3    H1 7247   1.239   3.571  13.159  1.1194 -0.0848 -0.2911
  487TMC3    H2 7248   1.379   3.179  13.138  1.4508  0.8784 -0.3431
  487TMC3    C7 7249   1.304   3.356  13.295  0.0452 -0.6906 -0.0080
  487TMC3    C8 7250   1.143   3.149  13.045  0.0821  0.0253  0.4524
  487TMC3    O1 7251   1.378   3.267  13.344  0.2806  0.5039 -0.0347
  487TMC3    O2 7252   1.034   3.199  13.056  0.0261  0.4487  0.3182
  488MPD2     C 7253   1.040   0.301  16.706 -0.1898  0.6777  0.2067
  488MPD2    C1 7254   0.976   0.418  16.737 -0.0485 -0.3295  0.3901
  488MPD2    C2 7255   0.890   0.431  16.844 -0.2435 -0.3418  0.2744
  488MPD2    C3 7256   0.852   0.316  16.913 -0.0029 -0.5956  0.6432
  488MPD2    C4 7257   0.931   0.199  16.895 -0.1347  0.9119 -0.1569
  488MPD2    C5 7258   1.020   0.191  16.784  0.2279 -1.0328  0.5034
  488MPD2     H 7259   0.851   0.530  16.865 -0.4894  0.0395 -1.9276
  488MPD2    H1 7260   0.910   0.108  16.952  0.7967  1.6714  1.4075
  488MPD2    H2 7261   1.119   0.304  16.631 -0.7501 -1.2420 -0.4791
  488MPD2    H3 7262   1.077   0.101  16.768 -0.4563 -1.2958 -0.4062
  488MPD2     N 7263   0.743   0.320  17.011 -0.2667  0.1902  0.5279
  488MPD2    H5 7264   0.713   0.415  17.032  0.8199  0.9510 -1.3348
  488MPD2    N1 7265   1.004   0.534  16.665  0.2306 -0.2790  0.0553
  488MPD2    H7 7266   0.985   0.620  16.717  1.1102 -0.6063  0.8967
  489TMC3    C1 7267   0.625   0.284  17.204  0.7406  0.0655  0.0533
  489TMC3    C2 7268   0.616   0.423  17.199 -0.1175 -0.1657  1.1505
  489TMC3    C3 7269   0.604   0.491  17.315  0.5367  0.1906 -0.4497
  489TMC3    C4 7270   0.621   0.216  17.328  0.1867  1.3998  0.5606
  489TMC3    C5 7271   0.618   0.293  17.442  0.7030 -0.6010  0.8181
  489TMC3    C6 7272   0.608   0.432  17.438  0.2081 -0.2080  0.2611
  489TMC3     C 7273   0.697   0.222  17.094  0.4793 -0.3076  0.0503
  489TMC3     O 7274   0.722   0.101  17.102 -0.3328 -0.3557  0.3379
  489TMC3     H 7275   0.598   0.485  17.111  1.8896  2.1995  2.4288
  489TMC3    H1 7276   0.652   0.114  17.346 -0.6009  0.9019 -0.8964
  489TMC3    H2 7277   0.615   0.490  17.530 -2.3230 -0.9326  0.9139
  489TMC3    C7 7278   0.607   0.228  17.572  0.2136  0.1315 -0.3670
  489TMC3    C8 7279   0.660   0.622  17.299  0.5719 -0.4334 -0.0012
  489TMC3    O1 7280   0.633   0.302  17.663  0.0998  0.1549  0.2550
  489TMC3    O2 7281   0.717   0.647  17.193  0.2571  0.5044  0.2457
  490MPD2     C 7282   1.406   0.540  17.376  1.1847  0.0707 -0.0950
  490MPD2    C1 7283   1.503   0.454  17.419 -0.0975 -0.0253 -0.0203
  490MPD2    C2 7284   1.629   0.508  17.454  0.2507 -0.0255  0.4607
  490MPD2    C3 7285   1.663   0.638  17.434  1.0208 -0.7903  0.6080
  490MPD2    C4 7286   1.565   0.720  17.379  0.9074  0.6261 -0.2588
  490MPD2    C5 7287   1.441   0.668  17.347 -0.1427 -0.4102  1.0479
  490MPD2     H 7288   1.704   0.448  17.505  2.0256  1.1114 -0.8085
  490MPD2    H1 7289   1.582   0.827  17.382  1.0228  0.6350 -1.0708
  490MPD2    H2 7290   1.301   0.512  17.369  0.8528  0.8020  1.9299
  490MPD2    H3 7291   1.373   0.747  17.315  1.4581  0.2917 -0.6125
  490MPD2     N 7292   1.792   0.679  17.484  0.2355 -0.8021  0.5564
  490MPD2    H5 7293   1.843   0.612  17.540  1.7574  0.9397  1.2729
  490MPD2    N1 7294   1.471   0.327  17.451 -0.6122 -0.3042 -0.2251
  490MPD2    H7 7295   1.540   0.273  17.502  0.5534  2.1001  0.7434
  491TMC3    C1 7296   1.339   0.137  17.475 -0.3976  0.3478 -0.0835
  491TMC3    C2 7297   1.383   0.129  17.602 -0.3578 -0.1847  0.4073
  491TMC3    C3 7298   1.343   0.019  17.675 -0.7221  0.6029  0.6369
  491TMC3    C4 7299   1.255   0.044  17.420  0.0545 -0.7305  0.2680
  491TMC3    C5 7300   1.224   4.653  17.492  0.5726  0.2158  0.7389
  491TMC3    C6 7301   1.267   4.642  17.618  0.5638  1.0062  0.1807
  491TMC3     C 7302   1.364   0.257  17.402 -0.8835 -0.5391  0.0245
  491TMC3     O 7303   1.283   0.283  17.312 -0.1796 -0.0296  0.8240
  491TMC3     H 7304   1.435   0.213  17.647 -0.7626 -0.2478  0.9882
  491TMC3    H1 7305   1.228   0.057  17.316 -0.9181 -1.3780  0.4407
  491TMC3    H2 7306   1.245   4.549  17.671 -1.6260  0.4403 -1.7532
  491TMC3    C7 7307   1.148   4.544  17.433  0.3194 -0.1036  0.0026
  491TMC3    C8 7308   1.341   0.031   0.131  0.1324 -0.3032  1.1451
  491TMC3    O1 7309   1.142   4.440  17.496 -0.1967 -0.0891  0.8697
  491TMC3    O2 7310   1.327   4.660   0.207  0.9785 -0.5194 -0.1828
  492MPD2     C 7311   2.184   4.306  11.453  0.0379 -0.0175  0.5923
  492MPD2    C1 7312   2.081   4.235  11.394 -0.1940  0.0860  0.4937
  492MPD2    C2 7313   1.989   4.167  11.471  0.0845  0.0096 -0.4381
  492MPD2    C3 7314   1.988   4.189  11.614  0.1384  0.1284 -0.5695
  492MPD2    C4 7315   2.092   4.262  11.661  0.0380  0.5015  0.3837
  492MPD2    C5 7316   2.189   4.320  11.589 -0.3087 -0.1518  0.3655
  492MPD2     H 7317   1.906   4.110  11.430 -2.0607  0.8320  2.7738
  492MPD2    H1 7318   2.093   4.280  11.767 -1.5339  1.0799  0.2948
  492MPD2    H2 7319   2.259   4.355  11.392  0.2304 -1.1164 -0.0479
  492MPD2    H3 7320   2.275   4.365  11.638 -0.2975 -2.1950  2.2314
  492MPD2     N 7321   1.887   4.147  11.705 -0.3992 -0.2770 -0.3368
  492MPD2    H5 7322   1.889   4.175  11.802  0.0995 -1.4982 -0.0039
  492MPD2    N1 7323   2.072   4.211  11.254  0.4097 -0.4592  0.2274
  492MPD2    H7 7324   1.990   4.161  11.220  0.9867  0.0812 -1.9029
  493TMC3    C1 7325   2.105   4.219  11.018  0.3397  0.5314  0.0019
  493TMC3    C2 7326   2.161   4.293  10.921 -0.3893  0.0201 -0.3736
  493TMC3    C3 7327   2.124   4.280  10.790 -0.2446 -0.0865 -0.0789
  493TMC3    C4 7328   2.021   4.119  10.981 -0.4934 -0.7092 -1.0798
  493TMC3    C5 7329   1.998   4.099  10.845  0.1372 -0.4145  0.0732
  493TMC3    C6 7330   2.051   4.179  10.744 -0.3021 -0.0261 -0.1594
  493TMC3     C 7331   2.155   4.247  11.152  0.0563  0.2827 -0.3920
  493TMC3     O 7332   2.260   4.311  11.167 -0.3834 -0.0958 -0.4506
  493TMC3     H 7333   2.223   4.375  10.957  0.7913 -0.7927 -0.5488
  493TMC3    H1 7334   1.969   4.059  11.055 -0.6838  0.2108 -0.4605
  493TMC3    H2 7335   2.018   4.166  10.641  0.3200 -1.5270 -0.1547
  493TMC3    C7 7336   1.923   3.980  10.794  0.1437  0.0516  0.7311
  493TMC3    C8 7337   2.152   4.381  10.689  0.0522 -0.3230 -0.0193
  493TMC3    O1 7338   1.909   3.971  10.671  0.5115  0.0508 -0.4843
  493TMC3    O2 7339   2.078   4.388  10.589 -0.2942  0.2265 -0.7883
  494TMC3    C1 7340   2.657   2.425   0.385  1.0388 -0.2927 -0.1517
  494TMC3    C2 7341   2.640   2.306   0.458  0.1591 -0.2039 -0.0837
  494TMC3    C3 7342   2.631   2.198   0.372 -0.0542 -0.2886  0.2623
  494TMC3    C4 7343   2.630   2.448   0.253  0.4736  0.2020  0.3739
  494TMC3    C5 7344   2.629   2.335   0.178 -0.0400  0.0960  0.1657
  494TMC3    C6 7345   2.627   2.209   0.232  0.4164  0.0260  0.0801
  494TMC3     C 7346   2.667   2.548   0.470 -0.4834 -0.0658  0.7970
  494TMC3     O 7347   2.606   2.549   0.576 -0.2775 -0.2769  0.2954
  494TMC3     H 7348   2.659   2.308   0.565  2.4171 -0.0901 -0.4860
  494TMC3    H1 7349   2.620   2.545   0.206 -0.9768  0.3922  1.0612
  494TMC3    H2 7350   2.640   2.127   0.162  1.8690 -0.4122  0.8587
  494TMC3    C7 7351   2.575   2.352   0.043  0.4776  0.1387 -0.8284
  494TMC3    C8 7352   2.647   2.067   0.425 -0.9805  0.3514 -0.5827
  494TMC3    O1 7353   2.618   2.271  17.647 -0.4021  0.7732  0.0776
  494TMC3    O2 7354   2.702   2.057   0.534  0.1164  0.6406 -0.5228
  495TMC3    C1 7355   1.543   3.371  14.645 -1.1030 -0.5492 -0.1817
  495TMC3    C2 7356   1.462   3.372  14.539  0.2354  0.3238  0.0335
  495TMC3    C3 7357   1.348   3.449  14.546  0.8214 -0.3609 -0.3474
  495TMC3    C4 7358   1.521   3.448  14.758 -0.4281 -0.1416  0.7421
  495TMC3    C5 7359   1.400   3.520  14.761 -0.0275  0.3007  1.2768
  495TMC3    C6 7360   1.317   3.518  14.656 -0.6277  0.1432 -0.1002
  495TMC3     C 7361   1.675   3.307  14.636 -0.2853  0.3072  0.2439
  495TMC3     O 7362   1.760   3.362  14.703 -0.5647  0.4481 -0.0513
  495TMC3     H 7363   1.488   3.322  14.447  1.1087  0.0436  0.4329
  495TMC3    H1 7364   1.587   3.454  14.844  0.2273 -2.8236  0.4226
  495TMC3    H2 7365   1.220   3.567  14.659  0.7867  3.0150 -1.4057
  495TMC3    C7 7366   1.347   3.567  14.880  0.1704 -0.1005  0.0449
  495TMC3    C8 7367   1.248   3.444  14.440 -0.7074  0.2855  0.6912
  495TMC3    O1 7368   1.424   3.619  14.961  0.1856 -0.3710 -0.2340
  495TMC3    O2 7369   1.138   3.474  14.483 -0.1592  0.0397  0.5839
  496MPD2     C 7370   3.595   3.897  15.638  0.3911 -0.4138  0.5088
  496MPD2    C1 7371   3.523   3.784  15.662 -0.2216 -0.0918  0.3064
  496MPD2    C2 7372   3.415   3.791  15.751 -0.5351  0.3649 -0.2593
  496MPD2    C3 7373   3.388   3.911  15.819  0.5408  0.5519 -0.0579
  496MPD2    C4 7374   3.470   4.018  15.797 -0.2555 -0.2202 -0.6086
  496MPD2    C5 7375   3.577   4.011  15.714  0.0606  0.3383 -0.0396
  496MPD2     H 7376   3.355   3.702  15.768  0.6198 -0.4908 -0.6487
  496MPD2    H1 7377   3.436   4.116  15.829 -0.1909 -0.4700  0.2403
  496MPD2    H2 7378   3.682   3.893  15.574  0.6571 -1.7620  0.9606
  496MPD2    H3 7379   3.645   4.094  15.696 -1.4709  1.8457  1.1542
  496MPD2     N 7380   3.272   3.939  15.893 -0.5316  0.4999 -0.2752
  496MPD2    H5 7381   3.261   4.026  15.944  0.4792 -1.0646  2.5844
  496MPD2    N1 7382   3.546   3.665  15.592  0.1435 -0.0816  0.9307
  496MPD2    H7 7383   3.602   3.675  15.508 -1.4045 -0.9244 -0.1934
  497TMC3    C1 7384   3.045   3.919  15.985  0.1042 -0.2121  0.0280
  497TMC3    C2 7385   2.919   3.942  15.933  0.3005 -0.3437  0.1234
  497TMC3    C3 7386   2.836   4.029  16.000 -1.0031 -0.2492  0.0231
  497TMC3    C4 7387   3.091   3.978  16.103  0.3193  0.1367 -0.8457
  497TMC3    C5 7388   3.003   4.071  16.154  0.3489 -0.3295  0.7681
  497TMC3    C6 7389   2.878   4.096  16.108 -0.3256 -0.2245  0.2908
  497TMC3     C 7390   3.152   3.866  15.889  0.5692 -0.2800 -0.0190
  497TMC3     O 7391   3.128   3.768  15.820 -0.4087  0.0106  0.3425
  497TMC3     H 7392   2.895   3.884  15.844 -1.8109 -1.4835  1.4580
  497TMC3    H1 7393   3.195   3.965  16.131 -0.2819 -0.1938  1.2054
  497TMC3    H2 7394   2.807   4.155  16.165  0.7358 -0.3740  1.7445
  497TMC3    C7 7395   3.037   4.115  16.291  0.1929 -0.2309 -0.4993
  497TMC3    C8 7396   2.723   4.085  15.933  0.1688  0.0660 -0.2126
  497TMC3    O1 7397   2.960   4.195  16.341  0.6312 -0.2705 -0.0287
  497TMC3    O2 7398   2.648   4.162  15.992  0.9076 -0.4815  0.4983
  498MPD2     C 7399   0.075   3.369   9.662  0.2275 -0.5192 -0.5064
  498MPD2    C1 7400   0.092   3.505   9.674 -0.3483 -0.3307 -0.0716
  498MPD2    C2 7401   4.703   3.586   9.703  0.4030 -0.0840  0.2488
  498MPD2    C3 7402   4.584   3.520   9.742  0.2402 -0.0345 -0.5599
  498MPD2    C4 7403   4.572   3.382   9.738 -0.0270  0.3984 -0.6734
  498MPD2    C5 7404   4.677   3.310   9.692  0.4745 -0.3190  0.2238
  498MPD2     H 7405   0.002   3.692   9.716  1.3738 -0.3033  0.4641
  498MPD2    H1 7406   4.492   3.326   9.785 -1.1730  2.4616 -0.1644
  498MPD2    H2 7407   0.161   3.308   9.635 -0.0370  0.0746 -2.7250
  498MPD2    H3 7408   4.675   3.202   9.683 -0.5061 -0.1918 -1.2307
  498MPD2     N 7409   4.475   3.605   9.792 -0.1817  0.2344  0.1306
  498MPD2    H5 7410   4.488   3.706   9.796  0.3869  0.1609  0.0787
  498MPD2    N1 7411   0.212   3.576   9.638  0.0586  0.3419 -0.8801
  498MPD2    H7 7412   0.210   3.677   9.632  0.7528  0.4889  1.2120
  499TMC3    C1 7413   0.446   3.611   9.588 -0.1505  0.0047  0.0060
  499TMC3    C2 7414   0.567   3.564   9.641  0.4584 -0.2913 -0.0788
  499TMC3    C3 7415   0.671   3.640   9.626 -0.2705 -0.2045 -0.4300
  499TMC3    C4 7416   0.431   3.726   9.522  0.9942 -0.3077 -0.0932
  499TMC3    C5 7417   0.540   3.807   9.517  1.3656  0.1528  0.6901
  499TMC3    C6 7418   0.660   3.762   9.561  0.3345  0.0165 -0.3708
  499TMC3     C 7419   0.337   3.516   9.620  1.0417  0.2528 -0.0316
  499TMC3     O 7420   0.370   3.401   9.651 -0.2604 -0.1201  0.2487
  499TMC3     H 7421   0.567   3.477   9.707  2.5546  0.0802  0.3957
  499TMC3    H1 7422   0.339   3.744   9.467  1.5639 -1.5249 -1.4291
  499TMC3    H2 7423   0.746   3.826   9.571  0.2363  0.0407  0.3315
  499TMC3    C7 7424   0.533   3.933   9.446 -0.1480  0.0478 -0.2790
  499TMC3    C8 7425   0.806   3.591   9.641 -0.0861  0.2621 -0.4056
  499TMC3    O1 7426   0.640   3.988   9.420 -0.2253  0.0006  0.3964
  499TMC3    O2 7427   0.896   3.666   9.613  0.1560 -0.1317 -0.2817
  500MPD2     C 7428   1.831   0.330   9.596  0.0094  0.2134 -0.1407
  500MPD2    C1 7429   1.832   0.463   9.625  0.0974 -0.1587 -0.6838
  500MPD2    C2 7430   1.732   0.551   9.571  0.1861 -0.4490  0.4658
  500MPD2    C3 7431   1.639   0.509   9.473 -0.7126  0.4603 -0.2158
  500MPD2    C4 7432   1.645   0.379   9.434 -0.2097  0.1873  0.2501
  500MPD2    C5 7433   1.738   0.298   9.500 -0.4476  0.2453 -0.0120
  500MPD2     H 7434   1.728   0.651   9.613 -0.8274  0.1500 -1.0771
  500MPD2    H1 7435   1.583   0.329   9.360 -1.1172  0.7365  0.6380
  500MPD2    H2 7436   1.899   0.258   9.639 -1.1011 -0.6450  0.1637
  500MPD2    H3 7437   1.731   0.191   9.486 -1.6329  0.4181 -0.7325
  500MPD2     N 7438   1.531   0.591   9.433  0.0411 -0.2657 -0.8579
  500MPD2    H5 7439   1.460   0.552   9.373  0.7170 -0.0769 -1.7765
  500MPD2    N1 7440   1.916   0.523   9.728 -0.4006 -0.5032 -0.4063
  500MPD2    H7 7441   1.901   0.622   9.748  0.4666 -0.2405 -1.0109
  501TMC3    C1 7442   2.079   0.555   9.895 -0.2349  0.6051  0.1497
  501TMC3    C2 7443   2.052   0.684   9.870 -0.2461  0.2966  0.0035
  501TMC3    C3 7444   2.065   0.768   9.977  0.4183  0.3378 -0.4428
  501TMC3    C4 7445   2.131   0.517  10.022  0.1201 -0.3992  0.1905
  501TMC3    C5 7446   2.149   0.609  10.121  0.3152  0.4231 -0.0308
  501TMC3    C6 7447   2.122   0.745  10.103  0.1936 -0.0638  0.5406
  501TMC3     C 7448   2.012   0.463   9.810 -1.2445 -0.4025 -0.0540
  501TMC3     O 7449   2.042   0.347   9.815  0.0631 -0.3461  0.2813
  501TMC3     H 7450   2.031   0.724   9.772 -1.9918  1.2782  0.8035
  501TMC3    H1 7451   2.153   0.412  10.035  0.2906 -0.7457 -2.9621
  501TMC3    H2 7452   2.154   0.819  10.175 -2.6104  0.4474  1.2721
  501TMC3    C7 7453   2.176   0.559  10.253 -0.2973 -0.4759  0.2550
  501TMC3    C8 7454   2.068   0.908   9.939  0.1085  0.3841  0.4031
  501TMC3    O1 7455   2.169   0.438  10.254 -0.0396  0.0406 -0.0249
  501TMC3    O2 7456   2.094   0.939   9.824 -0.0633  0.1479 -0.2008
  502TMC3    C1 7457   0.973   4.355  15.258  0.2204 -0.0423 -0.5224
  502TMC3    C2 7458   0.941   4.482  15.265 -0.3555 -0.1911  0.5003
  502TMC3    C3 7459   0.810   4.512  15.251 -0.8358 -0.1560 -0.1888
  502TMC3    C4 7460   0.876   4.275  15.207 -0.4466 -0.0681  0.3075
  502TMC3    C5 7461   0.758   4.314  15.157 -0.1283  0.3933 -0.6469
  502TMC3    C6 7462   0.713   4.435  15.183  0.7389  0.2788  0.4402
  502TMC3     C 7463   1.023   4.300  15.383  0.1156 -0.3509  0.4665
  502TMC3     O 7464   0.967   4.198  15.417 -0.5352  0.2686 -0.2609
  502TMC3     H 7465   1.013   4.547  15.313  1.5004 -0.7150 -1.5580
  502TMC3    H1 7466   0.900   4.169  15.213 -0.2190  0.0970  2.1912
  502TMC3    H2 7467   0.616   4.473  15.154  0.8424 -0.3339 -0.7267
  502TMC3    C7 7468   0.675   4.203  15.120  0.9020  0.0138 -0.1605
  502TMC3    C8 7469   0.772   4.655  15.257 -0.0760  0.0591 -0.6574
  502TMC3    O1 7470   0.726   4.107  15.067 -0.6164 -0.1275  0.2548
  502TMC3    O2 7471   0.864   0.018  15.253  0.6487  0.2774  0.2256
  503MPD2     C 7472   2.596   0.327  17.114  0.1105 -0.2924 -0.3920
  503MPD2    C1 7473   2.673   0.389  17.214  0.5016 -0.9177 -0.1719
  503MPD2    C2 7474   2.759   0.314  17.294  0.3288 -0.3289  0.4539
  503MPD2    C3 7475   2.786   0.183  17.265 -0.0311  0.0518 -0.0763
  503MPD2    C4 7476   2.714   0.123  17.158  0.0854  0.7771  0.2292
  503MPD2    C5 7477   2.619   0.197  17.085  0.1974  0.3183 -1.2258
  503MPD2     H 7478   2.806   0.364  17.378  0.7635 -0.9414  0.5781
  503MPD2    H1 7479   2.722   0.019  17.127  1.6541  0.5662  1.3532
  503MPD2    H2 7480   2.518   0.376  17.058 -1.6383  0.7717  2.9894
  503MPD2    H3 7481   2.562   0.149  17.006 -3.8460  0.0401  1.8536
  503MPD2     N 7482   2.883   0.118  17.353  0.3201  0.8658  0.0840
  503MPD2    H5 7483   2.951   0.184  17.390  2.7240 -1.2358 -0.5825
  503MPD2    N1 7484   2.659   0.531  17.247  0.5732  0.1262  0.2373
  503MPD2    H7 7485   2.732   0.564  17.309 -0.1895  1.5365  0.3706
  504TMC3    C1 7486   3.029   4.658  17.397  0.5264  0.2531  0.3464
  504TMC3    C2 7487   3.068   4.691  17.519  0.7758  0.3550  0.7384
  504TMC3    C3 7488   3.189   4.641  17.561 -0.7686 -0.1690  0.3952
  504TMC3    C4 7489   3.102   4.576  17.313  0.5152  0.1883 -0.3648
  504TMC3    C5 7490   3.219   4.525  17.353  0.8429 -0.2904 -0.2041
  504TMC3    C6 7491   3.264   4.555  17.481  0.4136 -0.1899 -0.3493
  504TMC3     C 7492   2.907   4.702  17.333  0.2700 -0.0742  1.1531
  504TMC3     O 7493   2.858   4.622  17.255  0.0507 -1.1822  0.4002
  504TMC3     H 7494   2.999   0.031  17.575  0.9565  1.4943 -0.2690
  504TMC3    H1 7495   3.074   4.567  17.208 -0.7710 -2.6361  0.2186
  504TMC3    H2 7496   3.357   4.516  17.518 -0.1124 -1.3529 -0.2535
  504TMC3    C7 7497   3.307   4.454  17.262  0.7142 -0.3533  0.6572
  504TMC3    C8 7498   3.254   4.691  17.682 -1.0053  0.4129 -0.0916
  504TMC3    O1 7499   3.309   4.471  17.140  0.5814 -0.1656  0.1875
  504TMC3    O2 7500   3.378   4.681  17.667  0.0510 -0.1416  0.0672
  505MPD2     C 7501   3.492   4.680   9.946 -0.4058  0.3901  1.1627
  505MPD2    C1 7502   3.520   4.646  10.074  0.0482  1.0621  0.5736
  505MPD2    C2 7503   3.648   4.680  10.119  0.2466 -0.1533 -1.0381
  505MPD2    C3 7504   3.737   0.024  10.041  0.3116 -0.1204 -0.8732
  505MPD2    C4 7505   3.717   0.039   9.903 -0.7005 -0.4853 -0.6233
  505MPD2    C5 7506   3.591   0.013   9.861 -0.3386 -0.9293  0.3720
  505MPD2     H 7507   3.686   4.656  10.218  1.9115  1.9698 -1.1576
  505MPD2    H1 7508   3.787   0.077   9.830 -0.9000  1.9187  0.4484
  505MPD2    H2 7509   3.393   4.668   9.903  0.0131 -0.1614  0.3698
  505MPD2    H3 7510   3.565   0.042   9.760 -0.4794 -0.5968  0.4994
  505MPD2     N 7511   3.854   0.071  10.105 -0.3064  0.2508  0.0441
  505MPD2    H5 7512   3.854   0.048  10.204 -3.0330  0.9556  0.1821
  505MPD2    N1 7513   3.419   4.580  10.146 -0.0041  0.3192 -0.8809
  505MPD2    H7 7514   3.332   4.562  10.097 -0.0248 -0.4668 -0.5620
  506TMC3    C1 7515   3.353   4.419  10.313  0.0177 -0.3919  0.0933
  506TMC3    C2 7516   3.340   4.331  10.210 -0.4128 -0.3493 -0.8723
  506TMC3    C3 7517   3.348   4.197  10.253 -0.2873 -0.7911 -0.5044
  506TMC3    C4 7518   3.376   4.381  10.444 -0.3073  0.1872  0.1611
  506TMC3    C5 7519   3.404   4.251  10.471  0.0284  0.1585  0.2213
  506TMC3    C6 7520   3.396   4.156  10.376  0.3835  0.1894  0.0606
  506TMC3     C 7521   3.434   4.535  10.275  0.4325 -0.9369 -0.4685
  506TMC3     O 7522   3.512   4.568  10.362  0.2722  0.0427  0.0396
  506TMC3     H 7523   3.311   4.358  10.109  0.7461  1.7929 -0.6252
  506TMC3    H1 7524   3.371   4.458  10.520 -1.9991 -0.0633  0.3209
  506TMC3    H2 7525   3.415   4.052  10.401  0.0652 -0.0481 -0.6757
  506TMC3    C7 7526   3.523   4.247  10.556 -1.0874  0.0555 -0.0980
  506TMC3    C8 7527   3.364   4.100  10.145 -0.1868 -0.1521 -0.1805
  506TMC3    O1 7528   3.545   4.138  10.607  0.0330  0.8640  0.4640
  506TMC3    O2 7529   3.307   4.119  10.038 -0.5843 -0.4833  0.4353
  507TMC3    C1 7530   4.004   4.419  15.005 -0.8781  0.2817  0.1500
  507TMC3    C2 7531   3.885   4.356  14.987  0.0187  0.2880 -0.7270
  507TMC3    C3 7532   3.859   4.314  14.858  0.2608  0.7001 -0.3718
  507TMC3    C4 7533   4.097   4.433  14.900  0.1103 -0.3767 -0.6736
  507TMC3    C5 7534   4.065   4.388  14.774  0.4465 -0.8593  0.1801
  507TMC3    C6 7535   3.952   4.319  14.757  0.1124  1.0102  0.0603
  507TMC3     C 7536   4.048   4.448  15.137 -0.0840  0.4397 -0.2516
  507TMC3     O 7537   4.169   4.469  15.157  0.0596 -0.3018  0.5451
  507TMC3     H 7538   3.808   4.342  15.062  0.1064  2.8073 -0.1923
  507TMC3    H1 7539   4.202   4.450  14.923  0.3176 -0.4417 -1.5902
  507TMC3    H2 7540   3.937   4.269  14.663 -0.3532  1.3201 -0.0297
  507TMC3    C7 7541   4.056   4.500  14.689 -0.3573  0.0042  0.7411
  507TMC3    C8 7542   3.723   4.323  14.820 -0.8418  1.0492  0.1107
  507TMC3    O1 7543   3.956   4.498  14.616  0.4840  0.4849 -0.0787
  507TMC3    O2 7544   3.636   4.300  14.903 -0.2879 -0.0896  0.0031
  508MPD2     C 7545   4.551   2.215  16.334  0.2059  1.2481 -0.4373
  508MPD2    C1 7546   4.668   2.180  16.270 -0.0839  0.3411  0.2105
  508MPD2    C2 7547   4.676   2.199  16.131 -0.1657 -0.9986 -0.0227
  508MPD2    C3 7548   4.568   2.254  16.063 -0.1608 -0.0591  1.0542
  508MPD2    C4 7549   4.457   2.287  16.130  0.3333  0.3871 -0.3650
  508MPD2    C5 7550   4.445   2.259  16.263  0.4613 -0.6035  0.0077
  508MPD2     H 7551   0.052   2.185  16.086 -0.1603 -3.1912  0.6920
  508MPD2    H1 7552   4.368   2.325  16.081  0.1852  0.2548 -0.1983
  508MPD2    H2 7553   4.540   2.214  16.442  0.7919 -2.0044 -0.4149
  508MPD2    H3 7554   4.358   2.290  16.319  1.6491  2.2348  0.2709
  508MPD2     N 7555   4.581   2.280  15.924  0.5147  0.2808 -0.7941
  508MPD2    H5 7556   4.663   2.251  15.872  1.4923 -0.4518  1.2063
  508MPD2    N1 7557   0.053   2.132  16.351  0.4205 -0.5417 -0.3237
  508MPD2    H7 7558   0.024   2.119  16.447  1.8430 -2.1086 -0.1134
  509TMC3    C1 7559   4.470   2.512  15.531  0.0293 -0.2970 -0.0380
  509TMC3    C2 7560   4.601   2.549  15.511 -0.7012  0.0125 -0.7665
  509TMC3    C3 7561   4.697   2.475  15.586  0.0863 -0.3632 -0.3997
  509TMC3    C4 7562   4.436   2.419  15.627 -0.4571 -0.1507  0.3366
  509TMC3    C5 7563   4.538   2.365  15.705 -0.5081 -0.2958  0.1806
  509TMC3    C6 7564   4.670   2.383  15.685 -0.7691 -0.0173 -0.3454
  509TMC3     C 7565   4.358   2.587  15.470 -0.3016 -0.3199 -0.8637
  509TMC3     O 7566   4.249   2.566  15.518  0.2008 -0.1945 -0.0400
  509TMC3     H 7567   4.622   2.623  15.434  2.3870  1.1614  1.1902
  509TMC3    H1 7568   4.334   2.415  15.661 -0.0080  0.4625  1.7460
  509TMC3    H2 7569   0.029   2.340  15.744 -1.8830 -1.0130  0.4443
  509TMC3    C7 7570   4.482   2.327  15.840  0.9007  0.0340 -0.5404
  509TMC3    C8 7571   0.114   2.519  15.592 -0.5205 -0.2757 -0.2715
  509TMC3    O1 7572   4.361   2.332  15.859 -0.2476 -0.2728 -0.2261
  509TMC3    O2 7573   0.199   2.437  15.618  0.3524 -0.2895  0.0449
  510MPD2     C 7574   2.619   3.918  15.036  0.0566 -0.2338 -0.1632
  510MPD2    C1 7575   2.638   3.786  15.062  0.2010  0.4589 -0.8249
  510MPD2    C2 7576   2.759   3.726  15.038  0.2948 -0.8390  0.3125
  510MPD2    C3 7577   2.859   3.803  14.982  0.9251  0.2232 -0.2528
  510MPD2    C4 7578   2.850   3.941  14.953 -0.0363  0.0825  0.1905
  510MPD2    C5 7579   2.726   3.994  14.977  0.0158  0.1443  0.2242
  510MPD2     H 7580   2.779   3.621  15.054  1.1656 -0.7833 -0.3937
  510MPD2    H1 7581   2.931   3.990  14.898 -0.0260  0.1818  0.2938
  510MPD2    H2 7582   2.524   3.969  15.043 -1.6104 -3.1552 -1.9606
  510MPD2    H3 7583   2.707   4.094  14.940 -2.1873 -0.5779 -0.6091
  510MPD2     N 7584   2.970   3.724  14.938 -0.0385  0.1367 -0.5381
  510MPD2    H5 7585   2.972   3.626  14.967 -1.0564  0.2462 -0.1225
  510MPD2    N1 7586   2.528   3.718  15.109  0.1535  0.5842  0.1474
  510MPD2    H7 7587   2.446   3.772  15.134 -0.9315 -0.1755 -1.7281
  511TMC3    C1 7588   2.399   3.535  15.211 -0.2238  0.6147 -0.2017
  511TMC3    C2 7589   2.321   3.624  15.274  0.0212 -0.0529  0.4597
  511TMC3    C3 7590   2.214   3.573  15.341  0.4548 -0.0506 -0.0899
  511TMC3    C4 7591   2.384   3.401  15.221 -0.4282 -0.8948  0.4052
  511TMC3    C5 7592   2.266   3.355  15.279 -0.4625  0.7155 -0.0517
  511TMC3    C6 7593   2.171   3.438  15.339  0.4842 -0.0360 -0.3714
  511TMC3     C 7594   2.526   3.581  15.143 -0.1685  0.1997  0.9188
  511TMC3     O 7595   2.595   3.494  15.092  0.2155 -0.7035  0.1588
  511TMC3     H 7596   2.359   3.724  15.293 -0.1953 -0.0130  0.6718
  511TMC3    H1 7597   2.458   3.336  15.176  1.0194  0.2554  1.1165
  511TMC3    H2 7598   2.081   3.396  15.382  1.5041 -2.6888 -0.7975
  511TMC3    C7 7599   2.225   3.220  15.238  0.5471 -0.2557 -0.6248
  511TMC3    C8 7600   2.150   3.670  15.434  0.1416 -0.2708 -0.5559
  511TMC3    O1 7601   2.297   3.156  15.161  0.0151 -0.1347  0.4781
  511TMC3    O2 7602   2.133   3.784  15.397 -0.0731 -0.2106  0.1441
  512TMC3    C1 7603   1.792   3.166  13.109  0.2803  0.1742 -0.4067
  512TMC3    C2 7604   1.906   3.176  13.180 -0.1390  0.1045 -0.3233
  512TMC3    C3 7605   1.992   3.065  13.186  0.1040 -1.3234 -0.4983
  512TMC3    C4 7606   1.771   3.060  13.027 -0.7731  0.8374  0.6063
  512TMC3    C5 7607   1.856   2.951  13.037  0.1467 -0.0394  0.4152
  512TMC3    C6 7608   1.966   2.952  13.114 -0.5702 -0.4863  0.0088
  512TMC3     C 7609   1.721   3.297  13.071  0.0908 -0.0360  0.7404
  512TMC3     O 7610   1.653   3.298  12.967 -0.0718  0.0884  0.3638
  512TMC3     H 7611   1.928   3.268  13.233  4.2623 -0.5140 -1.0832
  512TMC3    H1 7612   1.692   3.062  12.953  1.7211  0.5843 -2.0245
  512TMC3    H2 7613   2.028   2.864  13.133 -0.3331  0.0201  1.6244
  512TMC3    C7 7614   1.839   2.850  12.937  0.5321 -0.3769 -0.3539
  512TMC3    C8 7615   2.075   3.040  13.303  0.3700 -0.2340  0.6654
  512TMC3    O1 7616   1.771   2.865  12.837 -0.2495  0.3442 -0.1381
  512TMC3    O2 7617   2.089   2.923  13.334  0.3109 -0.0633  0.1786
  513MPD2     C 7618   3.204   3.045  13.399  0.2361  0.6823 -0.4170
  513MPD2    C1 7619   3.335   3.050  13.352  0.2053 -0.4401  0.2049
  513MPD2    C2 7620   3.436   3.122  13.418 -0.5578  0.0725 -0.8497
  513MPD2    C3 7621   3.407   3.179  13.538  0.1250  0.7449  0.1275
  513MPD2    C4 7622   3.280   3.168  13.590  0.0875 -0.2975 -0.8359
  513MPD2    C5 7623   3.184   3.108  13.520  0.2886 -0.0824 -0.2929
  513MPD2     H 7624   3.537   3.142  13.385 -0.1069  1.2909  1.3166
  513MPD2    H1 7625   3.260   3.215  13.686  0.2937 -0.7676 -0.5646
  513MPD2    H2 7626   3.129   2.988  13.346  2.2577 -2.0508 -0.3700
  513MPD2    H3 7627   3.086   3.104  13.566 -0.6321 -0.1197 -2.2519
  513MPD2     N 7628   3.518   3.243  13.602 -0.6957  0.0551 -0.0431
  513MPD2    H5 7629   3.602   3.266  13.549 -0.2728  1.0549  1.0597
  513MPD2    N1 7630   3.357   2.991  13.225 -0.3384  0.2168  0.5861
  513MPD2    H7 7631   3.296   2.913  13.202  0.1403 -0.2683  0.9431
  514TMC3    C1 7632   3.492   3.174  13.128  0.1723  0.3153 -0.8737
  514TMC3    C2 7633   3.407   3.265  13.082 -0.7131  0.0462 -0.1779
  514TMC3    C3 7634   3.455   3.360  13.004  0.9033  0.0427 -0.5031
  514TMC3    C4 7635   3.626   3.174  13.091  0.6326  0.0106 -0.0538
  514TMC3    C5 7636   3.675   3.281  13.017  0.6059  0.3837  0.2081
  514TMC3    C6 7637   3.588   3.378  12.973 -0.3047 -0.0925 -0.6241
  514TMC3     C 7638   3.453   3.031  13.133  0.3359 -0.6631  0.7108
  514TMC3     O 7639   3.480   2.970  13.032  0.1455 -0.1091  0.1308
  514TMC3     H 7640   3.300   3.254  13.083 -0.7210  0.0667 -0.8085
  514TMC3    H1 7641   3.693   3.092  13.117  0.5033 -0.1169 -0.1200
  514TMC3    H2 7642   3.624   3.451  12.902  1.1071  0.0467  0.2371
  514TMC3    C7 7643   3.773   3.243  12.919  0.2078 -1.0119 -0.6221
  514TMC3    C8 7644   3.360   3.419  12.915 -0.1766  0.2044 -0.2471
  514TMC3    O1 7645   3.740   3.268  12.804 -0.3663  0.6020 -0.1174
  514TMC3    O2 7646   3.241   3.405  12.949  0.6012  0.1450  0.1760
  515MPD2     C 7647   1.400   0.461  15.421  0.6361  0.2584  0.6926
  515MPD2    C1 7648   1.403   0.509  15.288  0.1266  0.0087 -0.5733
  515MPD2    C2 7649   1.462   0.628  15.266  0.5209 -0.0756  0.6799
  515MPD2    C3 7650   1.514   0.694  15.379  0.5815  0.7059  0.1721
  515MPD2    C4 7651   1.508   0.651  15.506 -0.3556 -0.7166  0.0036
  515MPD2    C5 7652   1.443   0.536  15.527 -0.2505 -0.1714 -0.4563
  515MPD2     H 7653   1.487   0.657  15.165 -0.1738 -2.1310 -0.0705
  515MPD2    H1 7654   1.550   0.709  15.587 -0.8247  0.5931 -0.6899
  515MPD2    H2 7655   1.346   0.370  15.446 -1.3707  1.5082  0.9086
  515MPD2    H3 7656   1.428   0.499  15.628 -3.0730 -1.0111 -1.1944
  515MPD2     N 7657   1.598   0.804  15.362  0.3018  0.1449 -0.4806
  515MPD2    H5 7658   1.640   0.842  15.447  0.9902 -1.9117  0.0901
  515MPD2    N1 7659   1.367   0.428  15.179  0.1723  0.2323  0.3263
  515MPD2    H7 7660   1.383   0.475  15.091  0.2836  1.0506  0.7904
  516TMC3    C1 7661   1.292   0.245  15.053 -0.4904 -0.9401 -0.0837
  516TMC3    C2 7662   1.243   0.331  14.952 -0.0197 -0.5700 -1.0118
  516TMC3    C3 7663   1.204   0.265  14.840  0.1760  0.0944  0.6237
  516TMC3    C4 7664   1.294   0.106  15.048  0.0013 -0.3733 -0.2558
  516TMC3    C5 7665   1.234   0.051  14.935  0.0473 -0.6708  0.4222
  516TMC3    C6 7666   1.198   0.130  14.828  0.6229 -0.7606  0.0758
  516TMC3     C 7667   1.305   0.304  15.188 -0.7307  0.3591  0.1814
  516TMC3     O 7668   1.301   0.225  15.280 -0.5671 -0.2214 -0.4502
  516TMC3     H 7669   1.233   0.439  14.959 -0.1040 -0.4341 -3.0050
  516TMC3    H1 7670   1.325   0.038  15.127  1.1774  0.9550  0.4156
  516TMC3    H2 7671   1.165   0.083  14.735  1.7198 -0.7272 -0.3383
  516TMC3    C7 7672   1.215   4.631  14.939 -0.5326 -0.5903 -0.5275
  516TMC3    C8 7673   1.146   0.340  14.731  0.1840 -0.6680 -0.2328
  516TMC3    O1 7674   1.262   4.565  15.030 -0.1425 -0.0593  0.6628
  516TMC3    O2 7675   1.049   0.283  14.683  0.3041 -0.2110  0.0254
  517MPD2     C 7676   0.851   2.041  17.569 -0.2223  0.3616 -0.3977
  517MPD2    C1 7677   0.983   2.026  17.608  0.3161  0.2228  0.2593
  517MPD2    C2 7678   1.042   2.129  17.677 -0.0453 -0.5362  0.3377
  517MPD2    C3 7679   0.970   2.244   0.017 -1.2082 -0.2042  0.1740
  517MPD2    C4 7680   0.843   2.257  17.673 -0.2236 -0.6412 -0.7218
  517MPD2    C5 7681   0.781   2.152  17.603 -0.0783  0.3492 -0.3659
  517MPD2     H 7682   1.146   2.115   0.014  0.2170 -0.6188 -0.7178
  517MPD2    H1 7683   0.786   2.348  17.685  2.3093  0.8923 -0.2971
  517MPD2    H2 7684   0.808   1.980  17.490 -0.0145  0.8505 -0.8920
  517MPD2    H3 7685   0.679   2.162  17.569 -0.1157  2.8372  0.4829
  517MPD2     N 7686   1.037   2.359   0.076 -0.1613  0.9133 -0.4469
  517MPD2    H5 7687   0.981   2.435   0.113  0.5441  0.2413  1.9833
  517MPD2    N1 7688   1.062   1.917  17.568 -0.7052 -0.1348  0.6222
  517MPD2    H7 7689   1.163   1.919  17.580 -0.6172 -2.7451  0.3674
  518TMC3    C1 7690   1.118   1.714  17.456  0.7143  0.2294  1.0999
  518TMC3    C2 7691   1.080   1.587  17.442  0.2757 -0.4692 -0.4727
  518TMC3    C3 7692   1.181   1.498  17.437  0.4322  0.7100 -0.2251
  518TMC3    C4 7693   1.254   1.751  17.473  0.5216 -0.1590 -0.0747
  518TMC3    C5 7694   1.351   1.656  17.460  0.2197  0.0170 -0.0146
  518TMC3    C6 7695   1.314   1.527  17.448 -0.3970 -0.0314  0.1076
  518TMC3     C 7696   1.017   1.810  17.496  0.0189 -0.1046  0.1693
  518TMC3     O 7697   0.901   1.774  17.488 -0.2374  0.9163  0.0240
  518TMC3     H 7698   0.976   1.562  17.426  1.0184 -2.5321 -2.2209
  518TMC3    H1 7699   1.283   1.854  17.458 -1.5885  0.1423 -2.1981
  518TMC3    H2 7700   1.390   1.449  17.452 -0.3257 -0.0685 -2.1176
  518TMC3    C7 7701   1.486   1.703  17.483  0.7636 -0.2988 -0.4872
  518TMC3    C8 7702   1.147   1.356  17.429  0.5102 -0.5228 -0.1546
  518TMC3    O1 7703   1.500   1.823  17.520 -0.1129  0.2889 -0.5565
  518TMC3    O2 7704   1.068   1.318  17.348 -0.1169  0.0928  0.2004
  519MPD2     C 7705   3.006   0.437  14.097  0.1502  0.4884  0.4457
  519MPD2    C1 7706   2.878   0.392  14.125 -0.3148  0.0001 -0.3122
  519MPD2    C2 7707   2.857   0.257  14.158 -0.0632  0.1069 -0.0182
  519MPD2    C3 7708   2.955   0.172  14.139 -0.2893  0.7101  0.2370
  519MPD2    C4 7709   3.080   0.218  14.108 -0.7159 -0.5734  0.1984
  519MPD2    C5 7710   3.107   0.348  14.090 -0.0833  0.1930  0.7495
  519MPD2     H 7711   2.757   0.231  14.192  0.4631 -1.7146  0.1440
  519MPD2    H1 7712   3.164   0.151  14.095  0.3732  0.8522 -0.1618
  519MPD2    H2 7713   3.033   0.537  14.066  0.6406 -0.4314 -2.0792
  519MPD2    H3 7714   3.207   0.377  14.062  0.3074 -0.3162  1.6188
  519MPD2     N 7715   2.941   0.034  14.155  0.0028  0.2357  0.1601
  519MPD2    H5 7716   3.028   4.704  14.168 -0.3671 -0.4865 -0.2187
  519MPD2    N1 7717   2.771   0.483  14.105 -0.3825 -0.1302 -0.0391
  519MPD2    H7 7718   2.795   0.576  14.072  2.1774 -0.7234  0.1391
  520TMC3    C1 7719   2.854   4.545  14.227  1.5693  0.2028  0.1843
  520TMC3    C2 7720   2.746   4.458  14.216  0.7054  0.1040 -0.0307
  520TMC3    C3 7721   2.769   4.322  14.220  0.1788  0.0882  0.1300
  520TMC3    C4 7722   2.984   4.504  14.237 -0.4771  0.2424 -0.3698
  520TMC3    C5 7723   3.002   4.367  14.224 -0.2643  0.0115 -0.5730
  520TMC3    C6 7724   2.901   4.275  14.232  0.0899  0.3511  0.3135
  520TMC3     C 7725   2.832   4.687  14.184 -0.0750  0.0856 -0.0606
  520TMC3     O 7726   2.720   0.008  14.190 -0.0865 -0.1088 -0.0922
  520TMC3     H 7727   2.646   4.495  14.194  1.6388  2.1130 -0.8627
  520TMC3    H1 7728   3.075   4.557  14.261 -0.4645  1.0360 -2.1617
  520TMC3    H2 7729   2.927   4.169  14.229 -1.1382  0.0653 -0.1646
  520TMC3    C7 7730   3.138   4.313  14.242 -0.0655  0.0061 -0.1696
  520TMC3    C8 7731   2.717   4.262  14.099 -0.4950 -0.2677 -0.0942
  520TMC3    O1 7732   3.153   4.218  14.312  0.5892 -0.0522  0.1138
  520TMC3    O2 7733   2.795   4.194  14.034  0.3467  0.1545  0.2753
  521MPD2     C 7734   3.874   2.915   0.011 -0.5805  0.6048 -0.3759
  521MPD2    C1 7735   3.836   2.898  17.563  0.5028  0.2821 -0.2087
  521MPD2    C2 7736   3.928   2.819  17.484  0.5909 -0.1729 -0.0163
  521MPD2    C3 7737   4.056   2.782  17.533 -0.5847  0.6651  0.4347
  521MPD2    C4 7738   4.090   2.804  17.669  0.3216 -0.1143 -0.1530
  521MPD2    C5 7739   3.999   2.870   0.062  0.1621 -0.5552  0.0977
  521MPD2     H 7740   3.898   2.802  17.381  0.2019 -2.3822  0.4593
  521MPD2    H1 7741   4.180   2.763   0.023  1.6878  1.2693 -1.6482
  521MPD2    H2 7742   3.816   2.961   0.091  1.0130 -0.0400  1.1553
  521MPD2    H3 7743   4.013   2.878   0.169 -0.0555  0.2923  0.0578
  521MPD2     N 7744   4.132   2.704  17.440  0.2433  0.0680  0.1858
  521MPD2    H5 7745   4.104   2.696  17.343 -1.0789  1.8070  0.4433
  521MPD2    N1 7746   3.704   2.919  17.530 -0.7104 -0.0918  0.3826
  521MPD2    H7 7747   3.639   2.924  17.608 -2.1173  4.1785 -1.1094
  522TMC3    C1 7748   4.295   2.549  17.363  0.1502  0.0348 -0.0730
  522TMC3    C2 7749   4.413   2.491  17.380  0.1115  0.1250  0.0363
  522TMC3    C3 7750   4.465   2.416  17.280 -0.2899 -0.1989 -0.0389
  522TMC3    C4 7751   4.218   2.516  17.244  0.3098  0.6495 -0.2675
  522TMC3    C5 7752   4.266   2.423  17.149 -0.0542 -0.0105  0.0693
  522TMC3    C6 7753   4.392   2.377  17.169  0.4812  0.3482  0.6913
  522TMC3     C 7754   4.250   2.636  17.474  0.2573  0.2896  0.0704
  522TMC3     O 7755   4.320   2.643  17.574  0.1138 -0.2720 -0.2434
  522TMC3     H 7756   4.471   2.498  17.471  0.0287 -0.5738  0.1447
  522TMC3    H1 7757   4.127   2.572  17.227  0.1808  0.7806  0.8421
  522TMC3    H2 7758   4.435   2.312  17.094  1.8606  0.8330  1.0737
  522TMC3    C7 7759   4.226   2.421  17.008  0.5786 -1.0247 -0.2792
  522TMC3    C8 7760   4.584   2.334  17.319  0.7389 -0.1241  0.1698
  522TMC3    O1 7761   4.322   2.397  16.930 -0.4782 -0.3799  0.5117
  522TMC3    O2 7762   4.600   2.298  17.435 -0.5102  0.6037  0.2561
  523MPD2     C 7763   2.164   1.910  10.316  0.4689 -0.5028  0.1100
  523MPD2    C1 7764   2.207   1.881  10.190 -0.1546  0.3488  0.1922
  523MPD2    C2 7765   2.178   1.975  10.085  0.0936  0.7019  0.4054
  523MPD2    C3 7766   2.116   2.090  10.105  0.0412 -0.9050  0.2550
  523MPD2    C4 7767   2.076   2.114  10.235 -0.3409  0.1623  0.0319
  523MPD2    C5 7768   2.101   2.023  10.335 -0.0956  0.1903  0.4235
  523MPD2     H 7769   2.202   1.947   9.983 -0.8389 -1.2064  0.7102
  523MPD2    H1 7770   2.019   2.201  10.266 -1.5445 -0.5092 -0.3010
  523MPD2    H2 7771   2.180   1.835  10.393  2.5502  0.7595  0.8965
  523MPD2    H3 7772   2.078   2.045  10.439  1.4263  0.6348  0.6653
  523MPD2     N 7773   2.082   2.189  10.004  0.2673 -0.5389 -0.4903
  523MPD2    H5 7774   2.043   2.275  10.040  0.4396 -0.6835  0.0420
  523MPD2    N1 7775   2.274   1.762  10.175 -0.1097  0.0937  0.0023
  523MPD2    H7 7776   2.284   1.699  10.254  1.7993  0.5945  0.1629
  524TMC3    C1 7777   2.042   2.293   9.796  0.5768 -0.2025  0.9474
  524TMC3    C2 7778   2.076   2.316   9.663  0.6720 -0.5554  0.0780
  524TMC3    C3 7779   2.022   2.423   9.603  0.4195 -0.6063 -0.7517
  524TMC3    C4 7780   1.943   2.367   9.866  0.3272 -0.1661  0.4804
  524TMC3    C5 7781   1.897   2.478   9.802  0.5968  0.7811 -0.5887
  524TMC3    C6 7782   1.938   2.503   9.666  0.6946  0.6205  0.1002
  524TMC3     C 7783   2.102   2.176   9.867 -0.2537  0.4844  1.0046
  524TMC3     O 7784   2.132   2.080   9.798  0.3052  0.3172 -0.3889
  524TMC3     H 7785   2.174   2.283   9.631  0.3977 -2.0930  0.7824
  524TMC3    H1 7786   1.907   2.333   9.962 -0.6348 -0.1838  0.1087
  524TMC3    H2 7787   1.911   2.599   9.623  0.0352  0.6224  0.5125
  524TMC3    C7 7788   1.779   2.545   9.861 -0.7437 -0.4978 -0.1640
  524TMC3    C8 7789   2.068   2.478   9.475 -0.7182  0.1811  0.2266
  524TMC3    O1 7790   1.754   2.503   9.973  0.3960 -0.0904  0.3008
  524TMC3    O2 7791   2.075   2.601   9.465 -0.2890  0.1690 -0.3626
  525MPD2     C 7792   4.203   4.147  14.603  0.1700  0.3773 -0.3973
  525MPD2    C1 7793   4.320   4.149  14.662 -0.4418 -0.4585  0.2101
  525MPD2    C2 7794   4.406   4.260  14.631  0.2929 -0.5195 -0.4130
  525MPD2    C3 7795   4.365   4.356  14.539 -0.5812  0.1614  0.0708
  525MPD2    C4 7796   4.247   4.339  14.470  0.8248  0.9151 -0.3153
  525MPD2    C5 7797   4.171   4.234  14.502  0.6240  1.0188 -0.3424
  525MPD2     H 7798   4.502   4.267  14.681  1.1305 -1.4967 -1.8990
  525MPD2    H1 7799   4.217   4.401  14.386 -0.5994 -0.4012 -0.7627
  525MPD2    H2 7800   4.135   4.065  14.622  2.2962 -1.5920 -1.3917
  525MPD2    H3 7801   4.080   4.220  14.443  0.7375 -0.6384 -0.1235
  525MPD2     N 7802   4.439   4.473  14.508 -0.8076  0.5401  0.5229
  525MPD2    H5 7803   4.378   4.548  14.477  1.0847  2.2182  0.8319
  525MPD2    N1 7804   4.369   4.058  14.760 -0.2838  0.8142 -0.2205
  525MPD2    H7 7805   4.459   4.076  14.803  1.0354  0.7889 -2.9697
  526TMC3    C1 7806   4.375   3.854  14.888  0.4231  1.2396  0.9010
  526TMC3    C2 7807   4.303   3.777  14.963  0.2031 -0.4647 -0.4281
  526TMC3    C3 7808   4.351   3.671  15.030 -0.4884  0.1416  0.7069
  526TMC3    C4 7809   4.513   3.837  14.874 -0.2288 -0.0883 -0.7166
  526TMC3    C5 7810   4.561   3.735  14.942  0.0603  0.8430  0.7385
  526TMC3    C6 7811   4.488   3.650  15.020 -0.4459  0.5080 -0.2088
  526TMC3     C 7812   4.293   3.953  14.810  0.3784 -0.1604  0.1502
  526TMC3     O 7813   4.174   3.930  14.793 -0.2901 -0.0201 -0.1432
  526TMC3     H 7814   4.196   3.794  14.962  0.4237  1.2757  4.7392
  526TMC3    H1 7815   4.579   3.901  14.817  3.3054 -1.8563  1.3456
  526TMC3    H2 7816   4.529   3.569  15.079 -0.3166  0.4745 -0.3443
  526TMC3    C7 7817   4.703   3.711  14.946 -0.5116 -0.0476 -0.4430
  526TMC3    C8 7818   4.271   3.600  15.127  0.5184  0.7945 -0.0019
  526TMC3    O1 7819   0.022   3.640  15.038 -0.4790 -0.3602  0.4848
  526TMC3    O2 7820   4.301   3.486  15.156 -0.6237  0.4530 -0.1278
  527MPD2     C 7821   2.413   2.472   1.578 -0.1366 -0.4013  0.3992
  527MPD2    C1 7822   2.455   2.342   1.549  0.0646 -0.7473  0.4039
  527MPD2    C2 7823   2.573   2.321   1.476 -0.3588  0.3026 -0.0455
  527MPD2    C3 7824   2.646   2.430   1.426  1.1028  0.1969  0.4720
  527MPD2    C4 7825   2.611   2.558   1.471 -0.9553  0.0843 -0.2467
  527MPD2    C5 7826   2.495   2.578   1.543  0.0218 -0.5652  0.4828
  527MPD2     H 7827   2.614   2.225   1.447  1.6019  1.0717  0.1778
  527MPD2    H1 7828   2.662   2.647   1.437  0.5243 -0.5774  0.2482
  527MPD2    H2 7829   2.324   2.490   1.637 -0.0807 -0.1500  0.4072
  527MPD2    H3 7830   2.476   2.680   1.574  0.1307 -0.8961  1.6186
  527MPD2     N 7831   2.755   2.400   1.346 -0.9830 -0.8081  0.4310
  527MPD2    H5 7832   2.770   2.301   1.332  1.7590 -0.6072  2.0182
  527MPD2    N1 7833   2.389   2.226   1.592  0.3745  0.2546 -0.2835
  527MPD2    H7 7834   2.434   2.138   1.565 -1.0916 -1.5082  3.0401
  528TMC3    C1 7835   2.216   2.077   1.660 -0.5037 -0.0074 -0.6242
  528TMC3    C2 7836   2.301   1.977   1.691 -0.4096  0.1739 -0.4041
  528TMC3    C3 7837   2.251   1.848   1.678  0.0026 -0.6496 -0.0958
  528TMC3    C4 7838   2.082   2.057   1.648  0.8338  0.3145  0.1046
  528TMC3    C5 7839   2.033   1.929   1.641  0.6793  0.1024 -0.6031
  528TMC3    C6 7840   2.118   1.819   1.644 -0.1027 -0.2894 -0.1072
  528TMC3     C 7841   2.265   2.217   1.648  0.0432  0.2072 -0.6849
  528TMC3     O 7842   2.181   2.306   1.665  0.0517  0.2985  0.1070
  528TMC3     H 7843   2.400   2.004   1.726 -0.8817  1.5780 -0.1668
  528TMC3    H1 7844   2.013   2.138   1.630  1.0663  0.1876 -1.3867
  528TMC3    H2 7845   2.093   1.715   1.627  2.0219 -1.0605  1.4240
  528TMC3    C7 7846   1.892   1.911   1.643  0.1526  0.3949  0.1652
  528TMC3    C8 7847   2.342   1.739   1.694 -0.5272  0.8285 -0.8344
  528TMC3    O1 7848   1.821   2.011   1.636 -0.2774 -0.2081  0.1561
  528TMC3    O2 7849   2.306   1.621   1.702  0.2348  0.3921  0.6589
  529MPD2     C 7850   4.510   0.993   0.656  0.7572  0.2564 -0.0787
  529MPD2    C1 7851   4.618   0.910   0.653 -0.0846 -0.3074 -0.3761
  529MPD2    C2 7852   4.696   0.904   0.536 -0.0049  0.2251 -0.5127
  529MPD2    C3 7853   4.672   0.981   0.426 -0.1002 -0.7185  0.1991
  529MPD2    C4 7854   4.563   1.068   0.435 -0.5262 -0.4175  0.1703
  529MPD2    C5 7855   4.482   1.073   0.550 -0.1971  0.6960 -0.0913
  529MPD2     H 7856   0.057   0.834   0.538 -1.0308 -0.9651  0.5870
  529MPD2    H1 7857   4.541   1.126   0.346  0.9933 -0.4028 -0.2050
  529MPD2    H2 7858   4.438   0.993   0.737  0.4182 -1.8951 -0.3922
  529MPD2    H3 7859   4.387   1.126   0.550  0.4784  1.8932  0.9063
  529MPD2     N 7860   0.037   0.970   0.310  0.4956 -0.0572  0.1335
  529MPD2    H5 7861   0.093   0.885   0.298 -1.5049 -1.4549  0.7463
  529MPD2    N1 7862   4.654   0.823   0.757  0.1207 -0.1443  0.9422
  529MPD2    H7 7863   0.008   0.757   0.745 -1.3422 -1.5536 -0.3874
  530TMC3    C1 7864   4.666   0.736   0.977 -0.2207 -0.1676 -0.1343
  530TMC3    C2 7865   4.667   0.795   1.101  0.1548 -0.2622 -0.4894
  530TMC3    C3 7866   4.687   0.709   1.208  0.0529  0.0399 -0.1446
  530TMC3    C4 7867   4.663   0.602   0.963  0.1970 -0.6229  0.5694
  530TMC3    C5 7868   4.673   0.524   1.071  0.0152  0.2286 -0.6637
  530TMC3    C6 7869   4.687   0.571   1.202  0.4050 -0.0803 -0.1812
  530TMC3     C 7870   4.614   0.834   0.886  0.1115 -0.2334  0.6229
  530TMC3     O 7871   4.516   0.895   0.933  0.2834 -0.2774  0.0926
  530TMC3     H 7872   4.658   0.900   1.127 -2.1324 -0.5870  0.0559
  530TMC3    H1 7873   4.642   0.563   0.864  0.2150  1.8567 -0.4248
  530TMC3    H2 7874   4.703   0.510   1.290 -0.0857 -0.2452 -0.2075
  530TMC3    C7 7875   4.663   0.377   1.049 -0.6916  0.6559 -0.4363
  530TMC3    C8 7876   4.693   0.762   1.345  0.1363  0.5895  0.3787
  530TMC3    O1 7877   4.686   0.333   0.939 -1.0036  0.7496 -0.4416
  530TMC3    O2 7878   4.629   0.857   1.368 -0.2393  0.1010  0.4261
  531MPD2     C 7879   4.142   3.260  13.280 -0.5999 -0.1840 -0.1522
  531MPD2    C1 7880   4.006   3.275  13.311  0.6189  0.2753 -0.0448
  531MPD2    C2 7881   3.923   3.256  13.202  0.2068 -0.5233 -0.3581
  531MPD2    C3 7882   3.969   3.216  13.073 -0.0531 -0.6423 -0.2212
  531MPD2    C4 7883   4.102   3.204  13.050 -0.3279 -0.1198  0.2179
  531MPD2    C5 7884   4.188   3.225  13.155  0.3495  0.1469 -0.3943
  531MPD2     H 7885   3.815   3.266  13.215  0.0116 -2.3011 -0.6622
  531MPD2    H1 7886   4.144   3.170  12.956  0.7051  1.4215  0.1172
  531MPD2    H2 7887   4.207   3.252  13.367 -0.5745 -1.8221 -0.3050
  531MPD2    H3 7888   4.294   3.226  13.133  1.1927  0.3304  3.6954
  531MPD2     N 7889   3.890   3.185  12.954  0.8672  0.1250  0.7858
  531MPD2    H5 7890   3.950   3.151  12.880 -0.0170  1.6112 -0.6062
  531MPD2    N1 7891   3.964   3.301  13.447  0.3251 -0.9842  0.0345
  531MPD2    H7 7892   4.029   3.300  13.524 -1.8057 -0.1246  1.8422
  532TMC3    C1 7893   3.829   3.350  13.635 -0.0282 -0.3985  1.2555
  532TMC3    C2 7894   3.708   3.390  13.679 -0.2227 -0.3456 -0.0117
  532TMC3    C3 7895   3.649   3.325  13.781 -0.2546  0.1496  0.7973
  532TMC3    C4 7896   3.907   3.264  13.714  0.1463 -0.1077 -0.5698
  532TMC3    C5 7897   3.846   3.210  13.822 -0.3477  0.3106 -0.2566
  532TMC3    C6 7898   3.717   3.243  13.853  0.1195 -0.2761  0.5854
  532TMC3     C 7899   3.831   3.324  13.493 -0.7500 -0.6987 -0.1989
  532TMC3     O 7900   3.726   3.348  13.432  0.1216  0.6043 -0.0463
  532TMC3     H 7901   3.638   3.452  13.624  0.2776  1.0195  0.8987
  532TMC3    H1 7902   3.991   3.212  13.671 -1.4463 -1.1406 -2.4411
  532TMC3    H2 7903   3.667   3.189  13.932 -0.6900  1.7860  1.4850
  532TMC3    C7 7904   3.925   3.161  13.933  0.3126  0.1527  0.1469
  532TMC3    C8 7905   3.520   3.272  13.740  0.1900  0.1680  0.1362
  532TMC3    O1 7906   3.870   3.148  14.039  0.1615 -0.2914 -0.0534
  532TMC3    O2 7907   3.451   3.237  13.831 -0.2275 -0.0557 -0.9182
  533TMC3    C1 7908   4.598   4.635  14.555  0.2276  0.1795 -0.5685
  533TMC3    C2 7909   0.010   4.663  14.563  0.6565 -0.1933  0.1955
  533TMC3    C3 7910   0.044   0.020  14.672 -1.0182  0.6438  0.8056
  533TMC3    C4 7911   4.500   4.697  14.631 -0.4759  0.1174 -0.1329
  533TMC3    C5 7912   4.548   0.044  14.739 -0.0812 -1.0237 -0.2154
  533TMC3    C6 7913   4.678   0.067  14.757 -0.6200 -0.3563 -0.4381
  533TMC3     C 7914   4.566   4.498  14.547 -0.0931 -1.0224 -0.3914
  533TMC3     O 7915   4.656   4.414  14.563 -0.0144  0.4967  0.4945
  533TMC3     H 7916   0.078   4.598  14.509  3.0153  2.1347  0.3781
  533TMC3    H1 7917   4.396   4.666  14.639 -0.4540 -0.0287 -0.4385
  533TMC3    H2 7918   4.710   0.133  14.837  2.5312 -3.0000  0.4802
  533TMC3    C7 7919   4.461   0.041  14.853 -0.3024 -0.0292  0.3930
  533TMC3    C8 7920   0.167   0.095  14.671 -0.6040  0.8439 -0.7195
  533TMC3    O1 7921   4.378   4.671  14.866  0.0175 -0.7085  0.0754
  533TMC3    O2 7922   0.197   0.152  14.774  0.3812 -0.1196 -0.4507
  534MPD2     C 7923   1.609   2.014   1.245  0.0557 -0.8137  0.0588
  534MPD2    C1 7924   1.710   1.912   1.273 -0.1661 -0.4634  0.4266
  534MPD2    C2 7925   1.668   1.782   1.280  0.7507  0.2006  0.2684
  534MPD2    C3 7926   1.540   1.749   1.266 -0.7884 -0.1503  0.4488
  534MPD2    C4 7927   1.450   1.844   1.220  0.7424 -0.1772 -0.0720
  534MPD2    C5 7928   1.483   1.978   1.211 -0.2410 -0.3661 -0.0031
  534MPD2     H 7929   1.742   1.709   1.310  0.1265 -1.2413 -1.6675
  534MPD2    H1 7930   1.346   1.823   1.197  0.8074 -0.6318  0.0485
  534MPD2    H2 7931   1.642   2.116   1.231  1.2696 -1.2498 -0.2322
  534MPD2    H3 7932   1.403   2.050   1.198  1.2857  1.4590  0.6879
  534MPD2     N 7933   1.496   1.623   1.295 -0.0302 -0.6662  0.6772
  534MPD2    H5 7934   1.398   1.610   1.270  0.0294 -0.2617  0.2208
  534MPD2    N1 7935   1.845   1.951   1.306  0.9557  0.1758  0.0308
  534MPD2    H7 7936   1.918   1.881   1.322  0.0397 -0.8190 -0.1306
  535TMC3    C1 7937   1.501   1.391   1.352  0.1340 -1.1292 -0.2335
  535TMC3    C2 7938   1.366   1.384   1.376  0.1221 -0.3525 -0.0706
  535TMC3    C3 7939   1.307   1.261   1.408 -0.3902  0.7978 -0.0888
  535TMC3    C4 7940   1.569   1.272   1.347 -0.3497 -0.5709  0.0084
  535TMC3    C5 7941   1.510   1.150   1.377 -0.3681 -0.5232 -0.1567
  535TMC3    C6 7942   1.383   1.145   1.416 -0.2804  0.1491 -0.4581
  535TMC3     C 7943   1.573   1.512   1.323 -0.1813  0.1106  0.1984
  535TMC3     O 7944   1.691   1.488   1.296  0.6761  0.3843  0.6058
  535TMC3     H 7945   1.321   1.482   1.385  1.2908  0.4283 -2.8289
  535TMC3    H1 7946   1.677   1.279   1.336 -0.3238 -3.0201 -1.3213
  535TMC3    H2 7947   1.327   1.055   1.439 -0.4710  0.1110 -1.0549
  535TMC3    C7 7948   1.583   1.026   1.341  0.5466  0.5831  1.3761
  535TMC3    C8 7949   1.175   1.263   1.454 -0.9742  0.1928  0.4984
  535TMC3    O1 7950   1.692   1.043   1.295 -0.4015 -0.4563  0.0453
  535TMC3    O2 7951   1.128   1.150   1.473 -0.1513  0.3119  0.0522
  536MPD2     C 7952   1.402   4.115  16.703  0.6562 -0.5508  0.2951
  536MPD2    C1 7953   1.305   4.019  16.700  0.2772 -0.0019  0.0538
  536MPD2    C2 7954   1.215   4.022  16.591 -0.1129 -0.3242  0.3655
  536MPD2    C3 7955   1.232   4.099  16.480  0.2069  0.6112  0.4357
  536MPD2    C4 7956   1.345   4.180  16.482 -0.1738  0.0984 -0.0901
  536MPD2    C5 7957   1.416   4.196  16.596 -0.6167 -0.6577 -0.0328
  536MPD2     H 7958   1.132   3.952  16.590  0.6560 -1.2374  0.5925
  536MPD2    H1 7959   1.372   4.249  16.403 -0.7215  0.0453 -0.3264
  536MPD2    H2 7960   1.466   4.125  16.790  1.3044  0.6341 -0.3117
  536MPD2    H3 7961   1.492   4.273  16.599  1.7914 -3.0839  1.7361
  536MPD2     N 7962   1.136   4.119  16.379  0.2644 -0.7621  0.1602
  536MPD2    H5 7963   1.179   4.172  16.304  3.0523 -0.9747  1.6126
  536MPD2    N1 7964   1.281   3.944  16.812  0.4792  0.1494  0.3906
  536MPD2    H7 7965   1.346   3.959  16.889 -0.8979 -0.0465  1.5788
  537TMC3    C1 7966   1.160   3.831  16.975 -0.4007 -0.3353 -0.1868
  537TMC3    C2 7967   1.125   3.945  17.039  0.8968 -0.5426  0.0269
  537TMC3    C3 7968   1.049   3.931  17.147 -0.7897 -0.2369  0.0392
  537TMC3    C4 7969   1.129   3.709  17.030 -0.1872 -0.2162 -0.2491
  537TMC3    C5 7970   1.057   3.694  17.149  0.5213 -0.3210 -0.6084
  537TMC3    C6 7971   1.027   3.809  17.213 -0.1788  0.3020 -0.2276
  537TMC3     C 7972   1.193   3.840  16.833  0.1569 -0.5713 -0.4969
  537TMC3     O 7973   1.148   3.760  16.750  0.1435  0.0451  0.3701
  537TMC3     H 7974   1.161   4.046  17.021  3.9889 -1.4548  1.0980
  537TMC3    H1 7975   1.137   3.625  16.962 -0.6660 -1.4545  1.2003
  537TMC3    H2 7976   0.974   3.811  17.308 -1.7992  1.9510 -1.1668
  537TMC3    C7 7977   1.037   3.563  17.198  0.3211 -0.2887  0.1056
  537TMC3    C8 7978   1.007   4.065  17.203 -0.2453  0.5296  0.8635
  537TMC3    O1 7979   1.063   3.477  17.113 -0.1018  0.3457 -0.0962
  537TMC3    O2 7980   1.053   4.071  17.315  0.2810 -0.0357  0.0092
  538TMC3    C1 7981   2.826   2.637  11.077 -0.6622  0.5828 -0.2462
  538TMC3    C2 7982   2.908   2.551  11.018  0.0575  0.4243  0.3021
  538TMC3    C3 7983   2.912   2.534  10.886  0.4243 -0.1520 -0.4234
  538TMC3    C4 7984   2.715   2.679  11.005  0.0190 -0.4306  0.3270
  538TMC3    C5 7985   2.704   2.644  10.873 -0.3763 -0.5600  0.0473
  538TMC3    C6 7986   2.808   2.577  10.812  0.0854  0.1513 -0.0931
  538TMC3     C 7987   2.791   2.605  11.214 -0.1729  0.1017  0.1361
  538TMC3     O 7988   2.683   2.558  11.232  0.2357 -0.4248 -0.1157
  538TMC3     H 7989   2.984   2.504  11.080  0.7582  0.3374 -0.6311
  538TMC3    H1 7990   2.633   2.724  11.059  0.4459 -1.9280  2.2319
  538TMC3    H2 7991   2.825   2.567  10.706  0.1013 -0.5101 -0.0268
  538TMC3    C7 7992   2.568   2.624  10.821 -0.0402 -0.8270  0.0971
  538TMC3    C8 7993   2.996   2.431  10.837 -0.0606  0.9817 -0.0667
  538TMC3    O1 7994   2.475   2.661  10.892  0.3666  0.1004  0.7490
  538TMC3    O2 7995   2.943   2.358  10.756 -0.4494  0.0593 -0.4042
  539MPD2     C 7996   2.176   1.618  11.829  0.2727 -0.4051  0.0861
  539MPD2    C1 7997   2.129   1.595  11.702  0.0017 -0.1800  0.0147
  539MPD2    C2 7998   2.080   1.707  11.641 -0.2344 -0.2407  0.5023
  539MPD2    C3 7999   2.052   1.819  11.705  0.5475 -0.4342  0.3986
  539MPD2    C4 8000   2.090   1.831  11.837 -0.2983 -0.6537  0.5713
  539MPD2    C5 8001   2.158   1.730  11.894 -0.6721  0.2514 -0.1934
  539MPD2     H 8002   2.058   1.706  11.535  1.8145 -2.3192  0.1010
  539MPD2    H1 8003   2.066   1.924  11.887 -2.9134  0.0830 -2.0139
  539MPD2    H2 8004   2.220   1.534  11.882 -2.1919 -1.8911 -0.2453
  539MPD2    H3 8005   2.177   1.741  12.000 -0.3526  1.4403 -0.3766
  539MPD2     N 8006   1.994   1.931  11.650 -0.1920  0.2017  0.1076
  539MPD2    H5 8007   1.990   2.016  11.705 -0.5244  1.2254 -1.5083
  539MPD2    N1 8008   2.162   1.479  11.623 -0.0795 -1.1319  0.1779
  539MPD2    H7 8009   2.146   1.489  11.524 -0.1355 -0.6610  0.2306
  540TMC3    C1 8010   1.892   2.064  11.479 -0.6259 -0.0665 -0.1048
  540TMC3    C2 8011   1.880   2.078  11.342 -0.2835  0.5276  0.4174
  540TMC3    C3 8012   1.894   2.208  11.300 -0.0669  0.2325  0.1222
  540TMC3    C4 8013   1.910   2.168  11.568  0.4249 -0.5350  0.3033
  540TMC3    C5 8014   1.902   2.297  11.513 -0.6107  0.0610 -0.2376
  540TMC3    C6 8015   1.895   2.321  11.378 -0.0797  0.2240  0.1231
  540TMC3     C 8016   1.939   1.930  11.523  0.8095  0.0837 -0.4394
  540TMC3     O 8017   1.903   1.841  11.446 -0.6055 -0.0003 -0.4758
  540TMC3     H 8018   1.878   1.992  11.275  3.4524  0.6589  0.1483
  540TMC3    H1 8019   1.914   2.171  11.676 -0.4777 -2.1818  0.3718
  540TMC3    H2 8020   1.893   2.416  11.326 -0.5788  0.3648  0.4000
  540TMC3    C7 8021   1.890   2.412  11.610 -0.2057 -0.1219 -0.1048
  540TMC3    C8 8022   1.936   2.226  11.161  0.0856 -0.4014  0.4373
  540TMC3    O1 8023   1.845   2.386  11.717 -0.2194 -0.2807  1.0364
  540TMC3    O2 8024   2.008   2.325  11.139 -0.1106 -0.5372  0.1412
  541MPD2     C 8025   0.076   3.258  13.292 -0.0499 -0.1346  0.1904
  541MPD2    C1 8026   0.165   3.171  13.229 -0.3390  0.2075  0.5328
  541MPD2    C2 8027   0.212   3.211  13.102  0.1030 -0.5435 -0.3058
  541MPD2    C3 8028   0.164   3.338  13.046 -0.0814  0.8484  0.4966
  541MPD2    C4 8029   0.068   3.408  13.109 -0.7244 -0.0485 -0.3526
  541MPD2    C5 8030   0.022   3.369  13.231  0.1265  0.1760  0.0844
  541MPD2     H 8031   0.282   3.143  13.055  1.0729 -0.9228  1.6881
  541MPD2    H1 8032   0.012   3.484  13.057  0.0883  0.7704 -0.0215
  541MPD2    H2 8033   0.039   3.236  13.391  0.0365  0.7422  0.4150
  541MPD2    H3 8034   4.662   3.422  13.279  0.5432 -0.7917  1.8653
  541MPD2     N 8035   0.228   3.405  12.935  0.0853  0.3511  0.0652
  541MPD2    H5 8036   0.196   3.500  12.923 -1.5215 -0.3805 -1.5244
  541MPD2    N1 8037   0.216   3.069  13.314  0.0279  0.3644  0.2682
  541MPD2    H7 8038   0.172   3.066  13.405 -2.1810 -0.8262 -0.8407
  542TMC3    C1 8039   0.353   3.435  12.741 -1.3466  0.5669 -0.1124
  542TMC3    C2 8040   0.393   3.374  12.629  0.2401 -0.1983 -0.1937
  542TMC3    C3 8041   0.451   3.446  12.535 -0.0264 -0.7677  0.3909
  542TMC3    C4 8042   0.351   3.571  12.759  0.6180  0.1044  0.7599
  542TMC3    C5 8043   0.397   3.646  12.648  0.4767  0.6678 -0.6678
  542TMC3    C6 8044   0.446   3.584  12.531 -0.2023  0.4505  0.0208
  542TMC3     C 8045   0.325   3.352  12.858  0.4135  0.2546 -0.5748
  542TMC3     O 8046   0.372   3.241  12.864  0.0370 -0.2190 -0.6929
  542TMC3     H 8047   0.402   3.266  12.634  1.1574 -0.1049  0.3305
  542TMC3    H1 8048   0.322   3.614  12.854 -2.5277 -0.1827 -0.0778
  542TMC3    H2 8049   0.461   3.634  12.436  0.9448 -1.2678 -0.7016
  542TMC3    C7 8050   0.365   3.788  12.650 -0.3326 -0.2693 -0.5979
  542TMC3    C8 8051   0.501   3.376  12.416 -0.3397 -0.3381  0.2084
  542TMC3    O1 8052   0.302   3.833  12.746 -0.0155 -0.3164 -0.6477
  542TMC3    O2 8053   0.444   3.272  12.385  0.3509  0.3420 -0.5233
  543TMC3    C1 8054   3.843   4.379  17.297  0.8156 -0.3027 -0.9513
  543TMC3    C2 8055   3.902   4.265  17.340  0.1685  0.4643 -0.2434
  543TMC3    C3 8056   3.936   4.270  17.475  0.2000  0.9667  0.3357
  543TMC3    C4 8057   3.819   4.480  17.380 -0.0604  0.4322  0.6342
  543TMC3    C5 8058   3.855   4.490  17.513 -0.3220  0.0918 -0.2224
  543TMC3    C6 8059   3.920   4.378  17.563  0.0403  0.0943 -0.0654
  543TMC3     C 8060   3.877   4.419  17.168  0.4986  0.3731 -0.0114
  543TMC3     O 8061   3.812   4.507  17.112 -0.4176  0.4212 -0.2223
  543TMC3     H 8062   3.912   4.178  17.277 -1.2670  0.5738 -0.6302
  543TMC3    H1 8063   3.781   4.571  17.334  0.0208  0.4947  0.6911
  543TMC3    H2 8064   3.972   4.383  17.658 -2.2668 -1.7218  1.2816
  543TMC3    C7 8065   3.814   4.604  17.600 -0.7619  0.6964  0.2476
  543TMC3    C8 8066   3.982   4.146  17.533 -0.2219  0.3470 -0.2804
  543TMC3    O1 8067   3.825   4.584   0.031 -0.1289  0.1728 -0.2559
  543TMC3    O2 8068   4.023   4.055  17.460 -0.9846 -0.2830  0.4761
  544MPD2     C 8069   4.070   3.806   0.231 -0.2747 -0.0789  0.3696
  544MPD2    C1 8070   4.092   3.788   0.095  0.5208 -0.1581 -0.3897
  544MPD2    C2 8071   4.049   3.892   0.010  0.1166 -1.0453  0.0353
  544MPD2    C3 8072   3.994   4.015   0.057 -0.4423 -0.1148  0.5117
  544MPD2    C4 8073   3.989   4.028   0.194 -0.2948 -0.0235  0.1585
  544MPD2    C5 8074   4.031   3.930   0.279  0.1358 -0.0711 -0.0112
  544MPD2     H 8075   4.081   3.885  17.596  0.6401 -0.0439  0.1313
  544MPD2    H1 8076   3.963   4.122   0.241 -0.0032  0.0537  0.1689
  544MPD2    H2 8077   4.100   3.723   0.295  2.4510  0.4571 -0.2320
  544MPD2    H3 8078   4.035   3.946   0.386  4.7854  0.4882 -0.2575
  544MPD2     N 8079   3.967   4.131  17.669  0.4868  0.3504 -0.5875
  544MPD2    H5 8080   3.929   4.211   0.031  0.1245  0.4433 -1.0030
  544MPD2    N1 8081   4.148   3.663   0.047 -0.3810  0.1915 -0.0804
  544MPD2    H7 8082   4.162   3.601   0.127  0.3256 -0.8452 -1.0091
  545TMC3    C1 8083   4.209   3.482  17.593 -0.0369  0.6875  0.1143
  545TMC3    C2 8084   4.155   3.414  17.486 -0.4303 -0.4480 -0.4593
  545TMC3    C3 8085   4.152   3.275  17.492 -0.7128 -0.0474  0.2526
  545TMC3    C4 8086   4.270   3.423   0.011  0.4117  0.1042 -0.0551
  545TMC3    C5 8087   4.273   3.286   0.010 -0.6814 -0.2648 -0.3546
  545TMC3    C6 8088   4.221   3.215  17.595 -0.1450 -0.2473  0.2864
  545TMC3     C 8089   4.162   3.626  17.607 -0.3627 -0.1791 -0.1205
  545TMC3     O 8090   4.131   3.682  17.502  0.2473 -0.3692  0.2779
  545TMC3     H 8091   4.073   3.465  17.437  0.6782 -0.1344 -1.9805
  545TMC3    H1 8092   4.297   3.483   0.097 -1.5741 -0.0409  0.6643
  545TMC3    H2 8093   4.206   3.108  17.602 -2.3128  0.1083  1.2751
  545TMC3    C7 8094   4.302   3.210   0.135 -0.0083  0.3141 -0.3318
  545TMC3    C8 8095   4.111   3.200  17.380 -0.2650  0.4824 -0.1875
  545TMC3    O1 8096   4.283   3.089   0.140 -0.6651 -0.4969  0.4282
  545TMC3    O2 8097   4.010   3.246  17.330 -0.2253 -0.1061 -0.4832
  546MPD2     C 8098   0.959   4.690   0.103  0.2497  0.2991  0.6284
  546MPD2    C1 8099   0.917   4.671  17.661  0.1685 -0.1337  0.5747
  546MPD2    C2 8100   0.922   0.051  17.564 -0.3077 -0.3266 -0.0859
  546MPD2    C3 8101   0.974   0.172  17.601 -0.3572 -0.1737  0.5355
  546MPD2    C4 8102   1.008   0.197   0.041 -0.5769  0.4550  0.8879
  546MPD2    C5 8103   1.000   0.097   0.139  0.4631 -0.2739 -0.5845
  546MPD2     H 8104   0.876   0.046  17.466 -2.0232 -0.1880  0.7314
  546MPD2    H1 8105   1.034   0.299   0.064 -1.3594  1.0126 -0.6495
  546MPD2    H2 8106   0.933   4.621   0.183 -2.8932 -3.2520 -3.3968
  546MPD2    H3 8107   1.030   0.118   0.241 -1.4413 -0.4952  0.0175
  546MPD2     N 8108   1.000   0.275  17.513  0.1034  0.1096  0.4184
  546MPD2    H5 8109   1.028   0.364  17.551 -0.8261  0.4362  0.3553
  546MPD2    N1 8110   0.865   4.537  17.637  0.2738 -1.3199  0.1184
  546MPD2    H7 8111   0.864   4.473   0.026  0.2099 -0.4772  0.8037
  547TMC3    C1 8112   0.755   4.361  17.528 -0.3128 -0.4130  0.2017
  547TMC3    C2 8113   0.623   4.344  17.498 -0.8378 -0.2107 -0.1274
  547TMC3    C3 8114   0.557   4.244  17.559 -0.4943  0.1874 -0.4296
  547TMC3    C4 8115   0.816   4.263  17.600 -0.2149 -0.1486  0.3178
  547TMC3    C5 8116   0.748   4.157  17.655  0.3053  0.1779  0.1592
  547TMC3    C6 8117   0.615   4.149  17.638  0.2665 -0.1710 -0.0693
  547TMC3     C 8118   0.803   4.498  17.524  0.0106  0.1322  0.0974
  547TMC3     O 8119   0.753   4.560  17.429 -0.2355  0.2126  0.1978
  547TMC3     H 8120   0.561   4.422  17.455  0.2272  1.5164  1.5159
  547TMC3    H1 8121   0.924   4.252  17.592 -0.1345  0.0696  1.1955
  547TMC3    H2 8122   0.562   4.061  17.670 -0.8035 -0.1202 -1.7452
  547TMC3    C7 8123   0.826   4.086   0.070  0.1895  0.0388 -0.0126
  547TMC3    C8 8124   0.411   4.231  17.553 -0.6993 -0.1396  0.3042
  547TMC3    O1 8125   0.951   4.074   0.071 -0.0406  0.0366  0.2393
  547TMC3    O2 8126   0.345   4.179  17.645 -0.4802 -0.3032  0.4777
  548MPD2     C 8127   0.750   0.478  12.218 -0.5719 -1.2744  0.3137
  548MPD2    C1 8128   0.844   0.430  12.308 -0.2597  0.3941  0.2368
  548MPD2    C2 8129   0.947   0.346  12.269  0.8745 -0.2129 -0.0846
  548MPD2    C3 8130   0.943   0.298  12.141 -0.4702  0.3990 -0.0687
  548MPD2    C4 8131   0.836   0.338  12.055 -0.2386 -0.6567  0.5280
  548MPD2    C5 8132   0.743   0.432  12.087 -0.8664 -0.2158 -0.6450
  548MPD2     H 8133   1.031   0.325  12.335  2.2426  0.4759 -1.5962
  548MPD2    H1 8134   0.829   0.289  11.959  1.5412  0.2651 -0.0806
  548MPD2    H2 8135   0.669   0.541  12.252 -0.9426 -2.8597  2.3733
  548MPD2    H3 8136   0.659   0.465  12.025  0.3474 -3.5437 -4.0512
  548MPD2     N 8137   1.043   0.207  12.114  0.8472  0.7308  0.2841
  548MPD2    H5 8138   1.102   0.190  12.194 -0.6253 -3.1089  0.5612
  548MPD2    N1 8139   0.826   0.472  12.445  0.2156 -0.1123  0.2465
  548MPD2    H7 8140   0.743   0.523  12.473 -0.2689 -0.7398 -0.0453
  549TMC3    C1 8141   0.844   0.462  12.676  0.3044  1.0670  1.1744
  549TMC3    C2 8142   0.805   0.586  12.702  0.1277 -0.6967 -0.2506
  549TMC3    C3 8143   0.783   0.619  12.831 -0.2563 -0.0267  0.4888
  549TMC3    C4 8144   0.856   0.368  12.778 -0.0597 -0.8208  0.1572
  549TMC3    C5 8145   0.832   0.411  12.910 -0.6321 -0.4327  0.0883
  549TMC3    C6 8146   0.796   0.539  12.940 -0.4804  0.4763 -0.0254
  549TMC3     C 8147   0.898   0.422  12.547  0.5688 -0.6682 -0.0655
  549TMC3     O 8148   0.972   0.325  12.544 -0.3935  0.5604 -0.2059
  549TMC3     H 8149   0.797   0.654  12.618 -1.3431  3.1961  3.0245
  549TMC3    H1 8150   0.891   0.268  12.756  0.0645 -0.4760 -1.1899
  549TMC3    H2 8151   0.752   0.565  13.035 -1.3794 -0.5180 -0.1740
  549TMC3    C7 8152   0.805   0.304  12.996 -0.2475 -0.1548  0.3607
  549TMC3    C8 8153   0.683   0.724  12.848  0.3757 -0.3090  0.1977
  549TMC3    O1 8154   0.822   0.319  13.114  0.0377 -0.0639 -0.9313
  549TMC3    O2 8155   0.633   0.752  12.958  0.0584  0.5106  0.1965
  550TMC3    C1 8156   4.305   3.287  12.641 -0.2332 -0.9924  0.2281
  550TMC3    C2 8157   4.217   3.343  12.734 -0.2697  0.0799  0.3485
  550TMC3    C3 8158   4.174   3.470  12.708 -0.1664 -0.4527 -0.3287
  550TMC3    C4 8159   4.364   3.352  12.541 -0.2981  0.9195  0.3214
  550TMC3    C5 8160   4.317   3.481  12.519 -0.0672  0.1638  0.1134
  550TMC3    C6 8161   4.220   3.539  12.599  0.2208  0.1193  0.0746
  550TMC3     C 8162   4.336   3.148  12.651  0.3026 -0.0190  0.0065
  550TMC3     O 8163   4.345   3.088  12.756 -0.7908  0.0887  0.4218
  550TMC3     H 8164   4.166   3.283  12.808  0.7303 -1.0877  0.0775
  550TMC3    H1 8165   4.438   3.315  12.471 -1.9712 -0.5699 -0.6466
  550TMC3    H2 8166   4.178   3.637  12.583 -1.3675 -0.4000  1.0342
  550TMC3    C7 8167   4.327   3.535  12.388  0.7775 -0.2506  0.3507
  550TMC3    C8 8168   4.050   3.520  12.766 -0.5704 -0.2226 -0.7820
  550TMC3    O1 8169   4.421   3.492  12.321 -0.2499 -0.3351 -0.7055
  550TMC3    O2 8170   3.981   3.589  12.696  0.4073  0.2368  0.2810
  551TMC3    C1 8171   1.826   0.858  13.460 -0.2530 -0.2215 -0.9094
  551TMC3    C2 8172   1.916   0.897  13.366  0.1327  0.3319 -0.2225
  551TMC3    C3 8173   1.985   1.019  13.380 -0.9465 -0.8491 -0.4157
  551TMC3    C4 8174   1.804   0.943  13.564  0.4916 -0.0254 -0.0835
  551TMC3    C5 8175   1.893   1.044  13.583  0.2951  0.2427 -0.3211
  551TMC3    C6 8176   1.981   1.087  13.497  0.2336 -0.5799  0.0404
  551TMC3     C 8177   1.715   0.772  13.410 -0.1802 -0.2372 -0.3107
  551TMC3     O 8178   1.736   0.725  13.302  0.6269 -0.8374 -0.5057
  551TMC3     H 8179   1.930   0.834  13.278 -2.0755 -1.3600  0.6322
  551TMC3    H1 8180   1.733   0.914  13.640 -0.5246 -0.9316 -1.3867
  551TMC3    H2 8181   2.049   1.172  13.503 -1.6535  1.0504 -1.5949
  551TMC3    C7 8182   1.894   1.101  13.717  0.0872 -0.5072  0.0380
  551TMC3    C8 8183   2.129   1.005  13.340 -0.0821  0.7568 -1.0202
  551TMC3    O1 8184   1.846   1.024  13.797  0.2601  0.1388  0.3960
  551TMC3    O2 8185   2.176   0.893  13.343  0.4165  0.1143 -0.0641
  552MPD2     C 8186   3.753   2.966  14.255 -0.2015 -0.6262  0.1983
  552MPD2    C1 8187   3.796   2.850  14.191  0.1007  0.4315  0.2078
  552MPD2    C2 8188   3.908   2.783  14.247  0.2381 -0.0780 -0.1840
  552MPD2    C3 8189   3.975   2.828  14.365  0.1014  0.1026  0.3974
  552MPD2    C4 8190   3.928   2.950  14.416  0.3885 -0.1271  0.5792
  552MPD2    C5 8191   3.817   3.012  14.366 -0.2613 -0.0337 -0.0523
  552MPD2     H 8192   3.948   2.694  14.199  1.3789  0.9526 -1.1445
  552MPD2    H1 8193   3.984   3.004  14.492  0.2901 -1.1697  1.3857
  552MPD2    H2 8194   3.668   3.021  14.216 -1.0319 -2.7767 -1.0436
  552MPD2    H3 8195   3.784   3.106  14.408 -0.5351 -0.1337 -0.0428
  552MPD2     N 8196   4.099   2.782  14.412  0.1714  0.9500 -0.3778
  552MPD2    H5 8197   4.159   2.845  14.464 -1.5759  0.6423  2.0137
  552MPD2    N1 8198   3.743   2.808  14.065  0.5288 -0.0591 -0.3039
  552MPD2    H7 8199   3.791   2.731  14.019 -1.4745 -2.2585  1.2417
  553TMC3    C1 8200   3.604   2.817  13.870  0.2073  0.5075  0.9587
  553TMC3    C2 8201   3.579   2.905  13.767 -0.5785 -0.5701  0.6115
  553TMC3    C3 8202   3.588   2.858  13.642  0.2035  0.6304 -0.4998
  553TMC3    C4 8203   3.637   2.687  13.857 -0.7039 -0.2169 -0.4971
  553TMC3    C5 8204   3.643   2.645  13.729  0.3554  1.3298  0.5693
  553TMC3    C6 8205   3.610   2.726  13.622  0.2858  0.1945 -0.9516
  553TMC3     C 8206   3.651   2.878  13.993 -0.0689 -0.1702  0.8836
  553TMC3     O 8207   3.594   2.985  14.009 -0.3179 -0.4429  0.1838
  553TMC3     H 8208   3.553   3.009  13.787 -0.9066 -0.3477 -0.9587
  553TMC3    H1 8209   3.631   2.615  13.939  2.1257  2.5497  2.1461
  553TMC3    H2 8210   3.616   2.676  13.526 -4.0311 -0.0571 -1.0786
  553TMC3    C7 8211   3.773   2.591  13.701 -0.2030  0.4070 -0.8051
  553TMC3    C8 8212   3.676   2.943  13.558 -0.6639 -0.4082  0.2244
  553TMC3    O1 8213   3.818   2.624  13.594  0.4865 -0.4884  0.0029
  553TMC3    O2 8214   3.730   3.044  13.602  0.4310  0.0916 -0.1957
  554TMC3    C1 8215   1.203   1.903  11.695  0.8619  0.2062 -0.6248
  554TMC3    C2 8216   1.202   1.787  11.630 -0.2658  0.6321  0.5726
  554TMC3    C3 8217   1.304   1.763  11.535 -0.0923 -0.1355  0.2285
  554TMC3    C4 8218   1.309   1.991  11.675  0.2980  0.0661  0.2472
  554TMC3    C5 8219   1.414   1.956  11.591 -0.6113  0.2383  0.0994
  554TMC3    C6 8220   1.416   1.836  11.527  0.5273  0.2429  0.2990
  554TMC3     C 8221   1.122   1.910  11.816 -0.0831 -0.4851  0.3147
  554TMC3     O 8222   1.134   2.019  11.877  0.1308  0.0006  0.3985
  554TMC3     H 8223   1.110   1.730  11.625  0.9545 -1.3738  0.7368
  554TMC3    H1 8224   1.314   2.091  11.716  0.6540  0.4169 -0.6393
  554TMC3    H2 8225   1.498   1.808  11.462  1.2460  0.9766  0.8984
  554TMC3    C7 8226   1.472   2.062  11.512 -0.3278 -0.6833 -0.6393
  554TMC3    C8 8227   1.278   1.667  11.430 -0.6754  0.8111  0.1634
  554TMC3    O1 8228   1.482   2.027  11.394  0.1852 -0.7769 -0.5269
  554TMC3    O2 8229   1.359   1.671  11.341  0.9809 -0.5009  0.5363
  555TMC3    C1 8230   4.563   1.247  15.549  0.2363  0.5586 -0.3895
  555TMC3    C2 8231   4.618   1.345  15.629 -0.2492  0.2458  0.9079
  555TMC3    C3 8232   4.677   1.316  15.743  0.0609  0.2269  0.5338
  555TMC3    C4 8233   4.561   1.116  15.584 -0.0914 -0.3477 -0.0278
  555TMC3    C5 8234   4.619   1.092  15.706  0.0525  0.0877  0.7203
  555TMC3    C6 8235   4.677   1.188  15.790  0.2183 -0.1631  0.4860
  555TMC3     C 8236   4.519   1.290  15.420 -0.0945  0.6841 -0.1996
  555TMC3     O 8237   4.594   1.366  15.361  0.5429 -0.2880  0.2789
  555TMC3     H 8238   4.603   1.447  15.598 -1.6537  0.2366  1.5509
  555TMC3    H1 8239   4.544   1.030  15.520 -0.9957 -0.3364  0.1941
  555TMC3    H2 8240   4.712   1.164  15.889  1.0047 -2.0628 -0.2553
  555TMC3    C7 8241   4.629   0.949  15.740 -0.3651  0.4587 -0.4047
  555TMC3    C8 8242   4.700   1.430  15.828  0.4254 -0.5050  0.0723
  555TMC3    O1 8243   4.557   0.866  15.679 -0.0929  0.2300  0.0173
  555TMC3    O2 8244   4.632   1.528  15.816 -0.2162 -0.0574 -0.1566
  556MPD2     C 8245   3.738   3.150  11.481  0.1115  0.5200  0.5743
  556MPD2    C1 8246   3.631   3.100  11.407 -0.4846 -0.3451 -0.1773
  556MPD2    C2 8247   3.654   2.984  11.338 -0.0207  0.7169  0.1108
  556MPD2    C3 8248   3.784   2.930  11.328  0.0180  0.2786 -0.0551
  556MPD2    C4 8249   3.888   2.985  11.401 -0.3837  0.5252  0.1472
  556MPD2    C5 8250   3.867   3.097  11.478  0.4370 -0.8168  0.3886
  556MPD2     H 8251   3.577   2.935  11.280 -0.6490  1.5250  0.2656
  556MPD2    H1 8252   3.983   2.933  11.400 -0.5175  0.2845 -0.1623
  556MPD2    H2 8253   3.725   3.227  11.556 -0.1075 -1.4505  2.5693
  556MPD2    H3 8254   3.929   3.128  11.561 -2.0459 -2.8490  3.0154
  556MPD2     N 8255   3.795   2.819  11.239  0.5537 -0.2960  0.2604
  556MPD2    H5 8256   3.711   2.772  11.206  0.8894 -0.5242 -0.2747
  556MPD2    N1 8257   3.496   3.147  11.419 -0.0917 -0.2389  0.0956
  556MPD2    H7 8258   3.422   3.105  11.364 -1.8029  1.6278  0.9795
  557TMC3    C1 8259   3.893   2.690  11.073 -0.0653 -1.0281 -0.3893
  557TMC3    C2 8260   3.977   2.695  10.967  0.3474  0.1617  0.3720
  557TMC3    C3 8261   3.963   2.612  10.860  0.5546  0.6882 -0.5561
  557TMC3    C4 8262   3.784   2.605  11.073  0.5097 -0.0438 -0.7347
  557TMC3    C5 8263   3.770   2.517  10.967  0.4412  0.9818  0.6967
  557TMC3    C6 8264   3.854   2.528  10.859  0.3883 -0.0691 -0.8924
  557TMC3     C 8265   3.918   2.780  11.184  0.4419 -0.2069 -0.0838
  557TMC3     O 8266   4.026   2.834  11.192 -0.0727 -0.1084 -0.1123
  557TMC3     H 8267   4.060   2.763  10.975 -0.5471  1.3181 -0.1570
  557TMC3    H1 8268   3.718   2.592  11.159  0.4104 -0.8322 -0.9302
  557TMC3    H2 8269   3.825   2.493  10.761 -0.3487  0.8758 -1.0140
  557TMC3    C7 8270   3.632   2.501  10.936 -0.3623  0.5232  0.4268
  557TMC3    C8 8271   4.058   2.622  10.752  0.1092 -0.2166  0.6591
  557TMC3    O1 8272   3.567   2.597  10.978 -0.2372 -0.5717  0.0664
  557TMC3    O2 8273   4.135   2.721  10.757 -0.2884 -0.2498  0.1360
  558TMC3    C1 8274   1.385   0.758   9.491  0.6217 -0.1383 -0.5358
  558TMC3    C2 8275   1.378   0.887   9.550  0.3847 -0.7266 -0.5836
  558TMC3    C3 8276   1.297   0.910   9.656 -0.0297 -0.1155  0.0921
  558TMC3    C4 8277   1.304   0.653   9.527 -0.1456 -0.1732  0.0457
  558TMC3    C5 8278   1.233   0.684   9.646  0.5301  0.4387 -0.2490
  558TMC3    C6 8279   1.235   0.798   9.714  0.8266  0.0774 -0.1503
  558TMC3     C 8280   1.525   0.725   9.468  0.2897 -0.0943 -0.2095
  558TMC3     O 8281   1.608   0.808   9.499  0.3654 -0.0398 -0.7219
  558TMC3     H 8282   1.448   0.967   9.529 -1.4218  0.8925 -0.4261
  558TMC3    H1 8283   1.304   0.565   9.464  0.0940  1.2777 -1.9734
  558TMC3    H2 8284   1.177   0.815   9.804  1.1432 -0.3532  0.1309
  558TMC3    C7 8285   1.148   0.581   9.699  0.3504  0.6013 -0.2960
  558TMC3    C8 8286   1.346   1.011   9.746  0.2029  0.3557  0.5237
  558TMC3    O1 8287   1.150   0.580   9.818  0.3890  0.1843  0.2018
  558TMC3    O2 8288   1.374   1.123   9.708  0.0529  0.0709  0.1616
  559MPD2     C 8289   0.927   1.230  10.366  0.8858 -1.0612  0.8769
  559MPD2    C1 8290   0.843   1.154  10.443 -0.1556  0.3579 -0.0450
  559MPD2    C2 8291   0.896   1.101  10.557  0.0136 -0.0107 -0.5442
  559MPD2    C3 8292   1.019   1.141  10.604  1.0564  0.2471  0.3778
  559MPD2    C4 8293   1.085   1.242  10.541 -0.4431 -0.1015 -0.4032
  559MPD2    C5 8294   1.043   1.277  10.416  0.2731 -0.8807 -0.1863
  559MPD2     H 8295   0.833   1.038  10.619  1.2872  0.3361  1.1145
  559MPD2    H1 8296   1.183   1.270  10.578 -0.1711 -1.8755  0.2039
  559MPD2    H2 8297   0.889   1.276  10.275  0.2973 -3.5583 -0.1489
  559MPD2    H3 8298   1.114   1.343  10.367  1.2219 -1.1836  0.7700
  559MPD2     N 8299   1.069   1.079  10.724 -0.2862 -0.1521 -0.1298
  559MPD2    H5 8300   1.018   0.997  10.754 -1.6582  1.1529  1.0696
  559MPD2    N1 8301   0.713   1.138  10.404  0.0989 -0.5635 -0.2913
  559MPD2    H7 8302   0.686   1.202  10.330  0.2402  0.3527  0.4512
  560TMC3    C1 8303   1.210   1.009  10.901 -0.2890  0.5166 -0.2711
  560TMC3    C2 8304   1.133   0.890  10.907  0.1303 -0.8284 -0.2190
  560TMC3    C3 8305   1.169   0.792  10.998  0.4414 -0.0899  0.1232
  560TMC3    C4 8306   1.325   1.020  10.981 -0.0569  0.7843  0.2233
  560TMC3    C5 8307   1.356   0.916  11.066  0.1294 -0.0327  0.2102
  560TMC3    C6 8308   1.284   0.800  11.069 -0.1748  0.4820 -0.1872
  560TMC3     C 8309   1.183   1.101  10.799 -0.3842 -0.0971 -0.3629
  560TMC3     O 8310   1.263   1.197  10.790 -0.3907  0.1048 -0.0115
  560TMC3     H 8311   1.056   0.865  10.835 -2.0056  1.5720  1.2286
  560TMC3    H1 8312   1.380   1.114  10.981 -1.9413  1.9032  0.5141
  560TMC3    H2 8313   1.293   0.722  11.143  0.0071 -1.2440 -2.0359
  560TMC3    C7 8314   1.446   0.938  11.182 -0.5931 -0.1915  0.9740
  560TMC3    C8 8315   1.155   0.658  10.938 -0.4102  0.2652  0.2954
  560TMC3    O1 8316   1.442   0.865  11.280  0.2296 -0.3106 -0.4913
  560TMC3    O2 8317   1.059   0.631  10.873  0.7302 -0.0190  0.0783
  561TMC3    C1 8318   3.729   0.051  11.448 -0.1104  0.2323  0.3576
  561TMC3    C2 8319   3.676   4.718  11.561 -0.1034  1.0295 -0.2439
  561TMC3    C3 8320   3.620   0.078  11.651 -0.8491 -0.9042 -0.3546
  561TMC3    C4 8321   3.727   0.188  11.423  0.1988  0.1731 -0.3772
  561TMC3    C5 8322   3.679   0.273  11.519  0.4134  0.0694 -0.0224
  561TMC3    C6 8323   3.614   0.216  11.626  0.1792  0.2382 -0.0876
  561TMC3     C 8324   3.803   4.688  11.362  0.2760  0.3435 -0.5852
  561TMC3     O 8325   3.769   4.573  11.356 -0.4566  0.5394 -0.1604
  561TMC3     H 8326   3.671   4.610  11.571 -1.0415  1.2486  1.6465
  561TMC3    H1 8327   3.768   0.223  11.330  0.2252  1.4306  0.1139
  561TMC3    H2 8328   3.571   0.290  11.692  0.0187  0.1956 -0.1444
  561TMC3    C7 8329   3.635   0.410  11.490  0.0453  0.2651 -0.3122
  561TMC3    C8 8330   3.530   0.024  11.746  0.2762 -0.3614 -0.1269
  561TMC3    O1 8331   3.524   0.441  11.528  0.6181  0.3896 -0.7162
  561TMC3    O2 8332   3.545   4.621  11.764 -0.3138 -0.5734 -0.4168
  562TMC3    C1 8333   4.386   1.771  16.238 -0.0270  0.2511 -0.2029
  562TMC3    C2 8334   4.268   1.828  16.187 -0.2690 -0.6626 -0.0038
  562TMC3    C3 8335   4.195   1.772  16.092  0.1189  0.1153  0.6100
  562TMC3    C4 8336   4.436   1.659  16.180  0.2698  0.1510 -0.4807
  562TMC3    C5 8337   4.361   1.610  16.079 -1.1597  0.4048  0.3619
  562TMC3    C6 8338   4.237   1.660  16.032  0.2867 -0.0894 -0.3834
  562TMC3     C 8339   4.440   1.841  16.356 -0.0306 -0.1245 -0.2230
  562TMC3     O 8340   4.387   1.946  16.397 -0.1561  0.3034 -0.0641
  562TMC3     H 8341   4.239   1.927  16.220 -1.5173 -0.2698 -2.3070
  562TMC3    H1 8342   4.537   1.627  16.204  0.2938 -3.1235 -4.8645
  562TMC3    H2 8343   4.180   1.606  15.958  0.0503  0.5542 -0.6627
  562TMC3    C7 8344   4.395   1.477  16.035 -0.6327 -0.6792 -0.2509
  562TMC3    C8 8345   4.070   1.831  16.063 -0.0032 -0.0925 -0.0996
  562TMC3    O1 8346   4.337   1.440  15.935  0.0689  0.2277 -0.1574
  562TMC3    O2 8347   4.028   1.916  16.142 -0.1939  0.2975  0.4017
  563MPD2     C 8348   2.019   3.525  16.368 -0.3510 -0.2165  0.3812
  563MPD2    C1 8349   2.153   3.521  16.392 -0.0270 -0.6696  0.1210
  563MPD2    C2 8350   2.225   3.412  16.348  0.4092 -0.0964 -0.4866
  563MPD2    C3 8351   2.159   3.289  16.321  0.1379  0.6368 -0.3740
  563MPD2    C4 8352   2.022   3.288  16.322  0.0077 -0.6275 -0.3887
  563MPD2    C5 8353   1.960   3.409  16.322 -0.0325 -0.3533 -0.1285
  563MPD2     H 8354   2.333   3.415  16.363  0.2380  0.8272  0.5695
  563MPD2    H1 8355   1.961   3.201  16.300  1.7532 -2.1727  0.8808
  563MPD2    H2 8356   1.950   3.606  16.385 -0.7316 -0.3612 -0.4744
  563MPD2    H3 8357   1.853   3.406  16.306  0.0251 -3.3164  0.1913
  563MPD2     N 8358   2.231   3.170  16.285 -0.5387  0.2201 -0.3589
  563MPD2    H5 8359   2.176   3.086  16.275 -0.0678 -0.3095  1.5803
  563MPD2    N1 8360   2.203   3.641  16.452  0.1158 -0.1069 -0.0691
  563MPD2    H7 8361   2.137   3.715  16.474 -1.9106 -1.0588 -2.8754
  564TMC3    C1 8362   2.319   3.736  16.634 -0.0451 -0.8047 -0.2871
  564TMC3    C2 8363   2.197   3.747  16.689 -0.1685 -0.4660 -0.7945
  564TMC3    C3 8364   2.179   3.728  16.828  0.0556 -0.0771 -0.2315
  564TMC3    C4 8365   2.421   3.696  16.713  0.7616 -0.6367  0.2248
  564TMC3    C5 8366   2.408   3.677  16.844 -0.1107 -0.6716  0.1508
  564TMC3    C6 8367   2.288   3.695  16.905  0.1619  0.4160 -0.1468
  564TMC3     C 8368   2.326   3.659  16.509  0.6048  0.0360 -0.2982
  564TMC3     O 8369   2.425   3.597  16.484 -0.0104  0.0688 -0.4433
  564TMC3     H 8370   2.119   3.785  16.623 -0.4548  0.6322  0.1876
  564TMC3    H1 8371   2.518   3.684  16.668  1.3701 -0.2715  1.4455
  564TMC3    H2 8372   2.275   3.687  17.012  0.4164 -0.9805 -0.2148
  564TMC3    C7 8373   2.453   3.540  16.879  0.0891 -0.4756  0.1588
  564TMC3    C8 8374   2.078   3.630  16.855  0.0931 -0.7714 -0.3285
  564TMC3    O1 8375   2.497   3.518  16.992 -0.4537 -0.2064 -0.8290
  564TMC3    O2 8376   2.081   3.569  16.962  0.1261  0.2612 -0.4954
  565TMC3    C1 8377   2.733   4.383  10.478 -0.5194 -0.2041  0.8016
  565TMC3    C2 8378   2.762   4.289  10.574 -0.3317 -0.2991 -0.7362
  565TMC3    C3 8379   2.706   4.168  10.553  0.7236 -0.9078  0.1874
  565TMC3    C4 8380   2.666   4.356  10.369  0.8551  0.2141 -0.3970
  565TMC3    C5 8381   2.626   4.226  10.343  0.0982  0.1518 -0.1888
  565TMC3    C6 8382   2.632   4.134  10.445  0.3504  0.3859 -0.2925
  565TMC3     C 8383   2.837   4.484  10.449 -0.0986  0.4651 -0.1584
  565TMC3     O 8384   2.869   4.495  10.332 -0.0832 -0.2702  0.5326
  565TMC3     H 8385   2.833   4.299  10.655 -0.9546  2.1429 -0.4929
  565TMC3    H1 8386   2.652   4.434  10.296 -1.7711 -0.5045 -0.6766
  565TMC3    H2 8387   2.612   4.029  10.428  1.7347  0.1561 -0.4991
  565TMC3    C7 8388   2.550   4.201  10.224  0.1603 -0.2890  0.6084
  565TMC3    C8 8389   2.734   4.064  10.652 -0.8152  0.3336 -1.1143
  565TMC3    O1 8390   2.510   4.300  10.156 -0.3860 -0.2174 -0.1180
  565TMC3    O2 8391   2.751   4.093  10.770 -0.0815 -0.1561 -0.0907
  566MPD2     C 8392   4.008   1.026  14.132  1.0332  0.1358 -0.1256
  566MPD2    C1 8393   4.129   1.013  14.194 -0.3504 -0.1684 -0.4174
  566MPD2    C2 8394   4.243   0.971  14.122 -0.7481  0.0833 -0.6710
  566MPD2    C3 8395   4.238   0.958  13.985  0.2472  0.5165 -0.4427
  566MPD2    C4 8396   4.116   0.974  13.927  0.1698 -0.9376  0.1427
  566MPD2    C5 8397   4.000   1.012  13.998  0.1216  0.1456 -0.0597
  566MPD2     H 8398   4.339   0.940  14.161 -1.4294 -1.3122 -0.0916
  566MPD2    H1 8399   4.102   0.973  13.819  0.2153  0.5132  0.1262
  566MPD2    H2 8400   3.916   1.048  14.185 -0.1195  1.5205 -2.7111
  566MPD2    H3 8401   3.908   1.039  13.947 -0.5696 -0.3682  0.9174
  566MPD2     N 8402   4.355   0.936  13.901 -0.2785  0.5229 -0.2746
  566MPD2    H5 8403   4.334   0.926  13.802 -2.8323 -0.0947  0.3315
  566MPD2    N1 8404   4.133   1.026  14.332 -0.4059  0.2865  0.2661
  566MPD2    H7 8405   4.049   1.070  14.370 -0.7338 -0.0935 -0.0217
  567TMC3    C1 8406   4.239   1.079  14.527  0.1097  0.3788  0.0847
  567TMC3    C2 8407   4.223   1.217  14.522  0.4050 -0.1669 -0.4961
  567TMC3    C3 8408   4.307   1.295  14.596 -0.3129 -0.5279  0.6776
  567TMC3    C4 8409   4.319   1.023  14.621 -0.3581  0.2232  1.0566
  567TMC3    C5 8410   4.398   1.105  14.695 -0.0340  0.0808 -0.5405
  567TMC3    C6 8411   4.403   1.243  14.670  0.0010 -0.3973  0.1984
  567TMC3     C 8412   4.232   0.990  14.412  0.5214  0.9494 -0.2524
  567TMC3     O 8413   4.341   0.936  14.393  0.5154  0.0615  0.1416
  567TMC3     H 8414   4.149   1.248  14.450 -0.0834  0.3972  0.2416
  567TMC3    H1 8415   4.323   0.916  14.635  0.2818 -0.0606 -1.2615
  567TMC3    H2 8416   4.472   1.301  14.730  1.1134 -1.3963 -0.1303
  567TMC3    C7 8417   4.453   1.054  14.820  0.2611  0.0167  0.3655
  567TMC3    C8 8418   4.323   1.429  14.542  0.0498  0.6181 -0.1000
  567TMC3    O1 8419   4.570   1.082  14.854 -0.8932 -0.2128 -0.1358
  567TMC3    O2 8420   4.435   1.482  14.555 -0.4666 -0.5958 -0.3027
  568MPD2     C 8421   1.764   2.051  16.706  0.8950 -0.1631  0.9508
  568MPD2    C1 8422   1.842   2.075  16.819 -0.1861 -0.7981  0.2304
  568MPD2    C2 8423   1.889   2.203  16.849 -0.4002 -0.6272  0.3226
  568MPD2    C3 8424   1.844   2.317  16.775 -0.3850  0.4070 -0.5361
  568MPD2    C4 8425   1.775   2.286  16.657  0.5176 -0.2690 -0.3686
  568MPD2    C5 8426   1.724   2.160  16.634  0.8193  0.2116  0.1294
  568MPD2     H 8427   1.945   2.217  16.941  0.1210  2.2466 -0.4440
  568MPD2    H1 8428   1.747   2.362  16.585  0.7835 -0.2573 -0.4565
  568MPD2    H2 8429   1.729   1.951  16.686  0.1736  0.1812  0.5007
  568MPD2    H3 8430   1.652   2.145  16.554 -1.4393  1.2609  1.9588
  568MPD2     N 8431   1.870   2.454  16.810  0.2584 -0.7291 -0.1553
  568MPD2    H5 8432   1.926   2.468  16.894 -0.5549  3.0049 -0.2388
  568MPD2    N1 8433   1.866   1.960  16.898 -0.0286  0.1948 -0.1145
  568MPD2    H7 8434   1.811   1.876  16.882 -0.1414 -0.2002  2.2966
  569TMC3    C1 8435   1.853   2.682  16.821 -0.2744  0.4843  0.8145
  569TMC3    C2 8436   1.977   2.694  16.879  0.5160 -0.7065 -0.0817
  569TMC3    C3 8437   2.022   2.816  16.916 -0.6266  0.3537  0.5269
  569TMC3    C4 8438   1.789   2.796  16.790 -0.0771 -0.2745  0.2098
  569TMC3    C5 8439   1.839   2.920  16.818 -0.2039 -1.0916 -0.0587
  569TMC3    C6 8440   1.958   2.929  16.883 -0.7586  0.8249 -0.0112
  569TMC3     C 8441   1.807   2.565  16.754  0.6825 -0.3929  0.0297
  569TMC3     O 8442   1.714   2.577  16.678  0.0297  0.2721 -0.5154
  569TMC3     H 8443   2.041   2.609  16.896 -0.6387 -1.4666  0.4821
  569TMC3    H1 8444   1.684   2.793  16.761 -0.1606  0.5882  0.4295
  569TMC3    H2 8445   2.007   3.024  16.901  0.8522 -0.2104  1.1605
  569TMC3    C7 8446   1.775   3.040  16.762 -0.4505  0.4074 -0.7316
  569TMC3    C8 8447   2.136   2.815  17.008  0.1247  0.6281  0.0652
  569TMC3    O1 8448   1.715   3.016  16.658  0.0681  0.8808 -0.4965
  569TMC3    O2 8449   2.222   2.728  16.999  0.0526  0.1799 -0.2713
  570TMC3    C1 8450   1.070   0.683  16.510 -0.0439 -0.0877  0.1665
  570TMC3    C2 8451   1.163   0.712  16.413  0.5597 -0.0003 -0.1512
  570TMC3    C3 8452   1.179   0.845  16.391  0.0461  0.1809 -0.5119
  570TMC3    C4 8453   0.993   0.778  16.571 -0.6093 -0.4211  0.3148
  570TMC3    C5 8454   1.019   0.908  16.546  0.6936  0.3191 -0.0713
  570TMC3    C6 8455   1.105   0.947  16.449 -0.3540  0.6810 -0.4147
  570TMC3     C 8456   1.046   0.543  16.539 -0.3069  0.0187 -0.3721
  570TMC3     O 8457   1.073   0.463  16.449 -0.2047 -1.0891  0.0761
  570TMC3     H 8458   1.230   0.632  16.384 -1.2007 -2.1986  1.8739
  570TMC3    H1 8459   0.914   0.757  16.642 -2.8541  3.8461 -0.8818
  570TMC3    H2 8460   1.137   1.051  16.444 -1.0732  0.8559 -1.3605
  570TMC3    C7 8461   0.919   1.005  16.584 -0.7204  0.0885 -0.0609
  570TMC3    C8 8462   1.301   0.884  16.316  0.4321  1.0827  0.1448
  570TMC3    O1 8463   0.863   0.993  16.692  0.2497 -0.0407 -0.0471
  570TMC3    O2 8464   1.359   0.988  16.339 -0.1688 -0.6480 -0.2558
  571MPD2     C 8465   3.278   2.588   0.477 -0.3537  0.5263 -0.3204
  571MPD2    C1 8466   3.310   2.544   0.601 -0.9966  0.0207 -0.2060
  571MPD2    C2 8467   3.369   2.626   0.697 -0.4335 -0.1366 -0.5972
  571MPD2    C3 8468   3.389   2.763   0.675  0.4821  1.2276 -0.0768
  571MPD2    C4 8469   3.343   2.806   0.552 -0.3479  0.4420  0.0917
  571MPD2    C5 8470   3.294   2.723   0.455 -0.2293  0.0503 -0.0338
  571MPD2     H 8471   3.395   2.579   0.791  0.4968  1.0633 -0.2624
  571MPD2    H1 8472   3.343   2.914   0.541 -2.4670  0.0878 -3.3880
  571MPD2    H2 8473   3.256   2.523   0.393  0.4108 -2.8561  2.0895
  571MPD2    H3 8474   3.283   2.769   0.358  2.6839  1.9561  0.5579
  571MPD2     N 8475   3.417   2.859   0.775  0.1699  0.2984 -0.2057
  571MPD2    H5 8476   3.404   2.957   0.750  1.0259  0.4264 -0.1791
  571MPD2    N1 8477   3.295   2.404   0.616  0.6179 -0.2858 -0.2632
  571MPD2    H7 8478   3.262   2.349   0.537  1.0963  0.5411 -1.0395
  572TMC3    C1 8479   3.435   2.952   0.988  0.1988  0.8293 -0.8292
  572TMC3    C2 8480   3.378   2.934   1.110  0.2313 -0.1136  0.3676
  572TMC3    C3 8481   3.346   3.051   1.172 -0.0127  0.4523 -0.2685
  572TMC3    C4 8482   3.465   3.075   0.929  0.4549 -1.2891  0.0258
  572TMC3    C5 8483   3.432   3.183   1.002 -0.6406  0.4024  0.0464
  572TMC3    C6 8484   3.378   3.176   1.129  0.0850  0.4236  0.3777
  572TMC3     C 8485   3.449   2.832   0.904 -0.1145  0.2197 -0.1440
  572TMC3     O 8486   3.464   2.721   0.959 -0.5704 -0.1471 -0.2794
  572TMC3     H 8487   3.328   2.839   1.128 -0.9155  0.5817  0.8255
  572TMC3    H1 8488   3.527   3.078   0.840 -1.6733  0.4392 -1.3842
  572TMC3    H2 8489   3.360   3.274   1.173 -1.6554 -0.8510  2.4935
  572TMC3    C7 8490   3.498   3.304   0.958 -0.3284  0.3996  0.1392
  572TMC3    C8 8491   3.281   3.059   1.304  0.2017  0.0148 -0.3458
  572TMC3    O1 8492   3.509   3.320   0.834 -0.0148  0.6426  0.4019
  572TMC3    O2 8493   3.255   3.173   1.345  0.0086  0.3183 -0.0272
  573MPD2     C 8494   4.401   3.729   1.528  0.7444  0.6167  0.3283
  573MPD2    C1 8495   4.538   3.711   1.523 -0.3227 -0.0154 -0.0306
  573MPD2    C2 8496   4.595   3.706   1.394  0.4730  0.1682  0.0750
  573MPD2    C3 8497   4.519   3.728   1.276  0.7462  0.5433 -0.1885
  573MPD2    C4 8498   4.386   3.770   1.294 -0.0479 -0.0112  0.0006
  573MPD2    C5 8499   4.327   3.763   1.413 -0.0163  0.7449  0.4109
  573MPD2     H 8500   4.701   3.683   1.391  0.3264 -0.6257  1.4142
  573MPD2    H1 8501   4.324   3.795   1.208  0.0813  0.1968 -0.0300
  573MPD2    H2 8502   4.355   3.739   1.625 -0.7636 -2.6392 -0.0743
  573MPD2    H3 8503   4.220   3.774   1.426 -0.3631 -0.6030 -1.3204
  573MPD2     N 8504   4.582   3.718   1.151 -0.5841  0.1065 -0.4112
  573MPD2    H5 8505   4.520   3.724   1.070 -2.5346 -0.1962  1.0475
  573MPD2    N1 8506   4.612   3.691   1.642 -0.3011  0.3305  0.0685
  573MPD2    H7 8507   4.561   3.675   1.728 -1.4787  0.2535 -0.6357
  574TMC3    C1 8508   0.009   3.649   0.991  0.6448 -0.4579 -0.5605
  574TMC3    C2 8509   4.644   3.553   0.942 -0.3487  0.1086  0.1845
  574TMC3    C3 8510   4.684   3.500   0.825  0.2497 -0.8189 -0.1204
  574TMC3    C4 8511   0.129   3.684   0.934  0.3517 -0.8255  0.7739
  574TMC3    C5 8512   0.152   3.627   0.816  0.0801 -0.3166  1.5877
  574TMC3    C6 8513   0.073   3.538   0.750 -0.5924  0.3385  0.5712
  574TMC3     C 8514   4.714   3.693   1.129 -0.1220  0.0578  0.2023
  574TMC3     O 8515   0.087   3.705   1.201 -0.5583  0.1790 -0.1208
  574TMC3     H 8516   4.564   3.504   0.996 -0.4193  1.0109  0.9030
  574TMC3    H1 8517   0.192   3.765   0.970 -1.0150  0.2846  0.6855
  574TMC3    H2 8518   0.112   3.487   0.663  1.4229 -0.6113  2.0583
  574TMC3    C7 8519   0.260   3.695   0.737  0.6941 -0.6092  0.5245
  574TMC3    C8 8520   4.601   3.383   0.788  0.6919 -0.6902  0.3705
  574TMC3    O1 8521   0.337   3.772   0.793  0.4892  0.6471  0.1056
  574TMC3    O2 8522   4.570   3.308   0.876  0.0879  0.2523 -0.5371
  575TMC3    C1 8523   2.684   3.684  11.459 -0.6015  0.1086  0.1438
  575TMC3    C2 8524   2.736   3.558  11.482  0.2641 -0.3020 -0.0925
  575TMC3    C3 8525   2.791   3.486  11.376 -1.0982 -0.7953  0.0796
  575TMC3    C4 8526   2.700   3.748  11.334  0.3102  0.1170 -0.0902
  575TMC3    C5 8527   2.743   3.671  11.233 -0.3968 -0.3027  0.8361
  575TMC3    C6 8528   2.796   3.544  11.247 -0.7289  0.3972 -0.4653
  575TMC3     C 8529   2.628   3.759  11.575  0.3756  0.4691 -0.2816
  575TMC3     O 8530   2.628   3.682  11.674  0.0394  0.0475  0.1884
  575TMC3     H 8531   2.729   3.513  11.580  0.3824  1.5568  0.7655
  575TMC3    H1 8532   2.673   3.853  11.321 -1.0048 -0.1546  0.5019
  575TMC3    H2 8533   2.814   3.475  11.166 -3.3615 -1.7333  0.7533
  575TMC3    C7 8534   2.753   3.735  11.105 -0.3847 -0.7972 -0.8384
  575TMC3    C8 8535   2.837   3.348  11.406  0.0358  0.6445  0.0703
  575TMC3    O1 8536   2.697   3.842  11.095  0.0039 -0.6421  0.4685
  575TMC3    O2 8537   2.797   3.299  11.513 -0.1400 -0.0527 -0.1624
  576MPD2     C 8538   2.539   0.530  12.680 -0.3684  0.2517 -0.6147
  576MPD2    C1 8539   2.504   0.605  12.568  0.0049 -0.0004 -0.3513
  576MPD2    C2 8540   2.433   0.721  12.587 -0.4982 -0.7156 -0.1487
  576MPD2    C3 8541   2.393   0.763  12.714 -0.6554 -1.0340  1.0016
  576MPD2    C4 8542   2.427   0.686  12.824  0.3897 -0.1967 -1.0282
  576MPD2    C5 8543   2.484   0.569  12.807 -0.1691 -0.8699  0.3173
  576MPD2     H 8544   2.411   0.785  12.502  1.4216 -0.9788 -0.8304
  576MPD2    H1 8545   2.388   0.690  12.925 -0.0143 -0.3741 -1.1759
  576MPD2    H2 8546   2.587   0.432  12.678 -1.6641 -0.3946 -0.2347
  576MPD2    H3 8547   2.507   0.502  12.889 -0.6055  0.1847  1.2996
  576MPD2     N 8548   2.326   0.884  12.724 -0.0575 -0.6119  0.5449
  576MPD2    H5 8549   2.303   0.927  12.635 -0.6640 -1.7739  0.1508
  576MPD2    N1 8550   2.549   0.572  12.435  0.1223  0.1070 -0.6683
  576MPD2    H7 8551   2.535   0.647  12.369  0.0624  1.3066  0.6975
  577TMC3    C1 8552   2.676   0.442  12.267 -0.5240 -0.5064 -0.9981
  577TMC3    C2 8553   2.778   0.353  12.252  0.0798  0.0952  0.2776
  577TMC3    C3 8554   2.844   0.332  12.129 -0.0956 -0.6474 -0.0219
  577TMC3    C4 8555   2.638   0.518  12.160 -0.5277 -0.2810  0.8502
  577TMC3    C5 8556   2.704   0.497  12.041  0.1575 -0.2850 -0.1143
  577TMC3    C6 8557   2.810   0.409  12.020  0.2158 -0.2433  0.2223
  577TMC3     C 8558   2.618   0.456  12.398 -0.5799 -0.3373 -0.6554
  577TMC3     O 8559   2.645   0.362  12.473  0.3381  0.6385 -0.2854
  577TMC3     H 8560   2.813   0.306  12.343 -1.2665 -2.0656 -0.3192
  577TMC3    H1 8561   2.548   0.578  12.173 -1.3278 -1.6827  1.7249
  577TMC3    H2 8562   2.853   0.389  11.923  0.7701 -0.9960  0.6249
  577TMC3    C7 8563   2.646   0.569  11.920 -0.1483  0.0123 -0.0540
  577TMC3    C8 8564   2.928   0.214  12.126  1.0609  0.1525  0.6723
  577TMC3    O1 8565   2.547   0.633  11.943  0.4498 -0.3502 -0.1960
  577TMC3    O2 8566   2.913   0.143  12.221  0.0538 -0.5724 -0.0972
  578MPD2     C 8567   4.564   1.233   0.934  0.5875 -0.4292  0.0155
  578MPD2    C1 8568   4.699   1.221   0.901 -0.2716  0.1557 -0.6668
  578MPD2    C2 8569   0.064   1.199   1.001  0.2352  0.1257 -0.3698
  578MPD2    C3 8570   0.021   1.176   1.131  0.0536  0.0646 -0.4264
  578MPD2    C4 8571   4.612   1.199   1.162  0.3678  0.3432  0.3246
  578MPD2    C5 8572   4.516   1.215   1.064  0.2990  0.5944 -0.1284
  578MPD2     H 8573   0.171   1.198   0.983 -0.1511 -0.0895 -2.5443
  578MPD2    H1 8574   4.588   1.193   1.267 -0.4730  0.4831  0.1340
  578MPD2    H2 8575   4.489   1.250   0.858  0.1384  3.0815  1.2279
  578MPD2    H3 8576   4.413   1.222   1.098  0.1896  0.3978 -0.4258
  578MPD2     N 8577   0.120   1.137   1.229  0.0421  0.1978 -0.5021
  578MPD2    H5 8578   0.217   1.151   1.203  0.5271  1.5560  1.9961
  578MPD2    N1 8579   0.013   1.223   0.769 -0.1169  0.6000 -0.4422
  578MPD2    H7 8580   4.663   1.231   0.698 -1.4112 -2.5738  0.5425
  579TMC3    C1 8581   0.236   1.069   1.413  0.6034 -0.5689  0.3704
  579TMC3    C2 8582   0.319   1.160   1.483  0.5267 -0.3421 -0.0610
  579TMC3    C3 8583   0.452   1.139   1.482  0.0739  0.2443 -0.4026
  579TMC3    C4 8584   0.291   0.976   1.333 -0.2535  0.3724  0.4719
  579TMC3    C5 8585   0.425   0.948   1.341 -0.0593 -0.3221 -0.6534
  579TMC3    C6 8586   0.505   1.026   1.427  0.5616  0.8516  0.4597
  579TMC3     C 8587   0.106   1.108   1.364 -0.5207  0.0464 -0.1277
  579TMC3     O 8588   0.024   1.157   1.446  0.3106 -0.1720  0.0006
  579TMC3     H 8589   0.264   1.241   1.530  1.6369 -1.1465  2.6455
  579TMC3    H1 8590   0.232   0.905   1.277 -0.2986  0.9830 -0.2583
  579TMC3    H2 8591   0.613   1.016   1.422  0.1534 -1.9431 -2.8248
  579TMC3    C7 8592   0.481   0.822   1.291  0.1043 -0.2871  0.1514
  579TMC3    C8 8593   0.522   1.230   1.560 -0.6138 -0.2430 -0.8779
  579TMC3    O1 8594   0.580   0.778   1.348  0.0597  0.2910  0.1749
  579TMC3    O2 8595   0.458   1.303   1.638 -0.3561  0.0194 -0.0770
  580TMC3    C1 8596   0.638   0.158  11.753 -0.7075  0.5704  0.8407
  580TMC3    C2 8597   0.723   0.146  11.643 -0.0947  0.4233  0.0949
  580TMC3    C3 8598   0.798   0.031  11.632 -0.1029  0.2634  0.0456
  580TMC3    C4 8599   0.622   0.061  11.852  0.3544  0.4018 -0.7266
  580TMC3    C5 8600   0.697   4.667  11.827  0.3909  0.7422  0.0050
  580TMC3    C6 8601   0.776   4.652  11.722  0.1651  0.1623  0.6031
  580TMC3     C 8602   0.560   0.277  11.764 -0.0477  0.2218 -0.1019
  580TMC3     O 8603   0.516   0.315  11.872  0.4239  0.3833  0.0733
  580TMC3     H 8604   0.737   0.225  11.570  0.5521 -1.3948 -1.7525
  580TMC3    H1 8605   0.559   0.067  11.939  1.2917 -1.6429  0.0864
  580TMC3    H2 8606   0.821   4.559  11.690 -1.2875  0.4723 -2.2986
  580TMC3    C7 8607   0.709   4.566  11.932  0.2885 -0.4139 -0.2904
  580TMC3    C8 8608   0.854   4.721  11.506  0.0863  0.3679  0.1918
  580TMC3    O1 8609   0.686   4.612  12.047  0.2110  0.1843 -0.1353
  580TMC3    O2 8610   0.806   4.632  11.440  0.2481  0.1574  0.4532
  581MPD2     C 8611   2.594   0.186  15.282 -0.2056 -0.2597 -0.0662
  581MPD2    C1 8612   2.580   0.104  15.166 -0.0346 -0.7319 -0.3421
  581MPD2    C2 8613   2.467   0.114  15.095 -0.5324  0.1692 -0.6641
  581MPD2    C3 8614   2.367   0.208  15.124  0.1692 -0.3870 -0.3142
  581MPD2    C4 8615   2.389   0.293  15.225  0.3799 -0.1764 -0.0793
  581MPD2    C5 8616   2.499   0.283  15.303 -0.6135  0.1509  0.1630
  581MPD2     H 8617   2.457   0.044  15.012 -0.1795  0.5871 -1.0615
  581MPD2    H1 8618   2.314   0.367  15.252  1.1236  0.2375  0.8186
  581MPD2    H2 8619   2.681   0.171  15.345  0.3600  1.3208 -0.4587
  581MPD2    H3 8620   2.503   0.351  15.387  1.2039  1.0417 -0.6535
  581MPD2     N 8621   2.261   0.209  15.027 -0.1082  0.3421  0.8050
  581MPD2    H5 8622   2.257   0.139  14.954  0.7165  1.0167  0.1062
  581MPD2    N1 8623   2.683   0.005  15.146 -0.7108 -0.1578  0.6667
  581MPD2    H7 8624   2.750   0.002  15.222 -1.0809  0.6459  1.0230
  582TMC3    C1 8625   2.761   4.519  15.086 -0.0766  0.5224 -0.4859
  582TMC3    C2 8626   2.817   4.521  15.207  0.1579 -0.0242 -0.1805
  582TMC3    C3 8627   2.770   4.437  15.308  0.0820 -0.0406  0.4975
  582TMC3    C4 8628   2.692   4.415  15.052 -0.3221 -0.6120 -0.5685
  582TMC3    C5 8629   2.648   4.327  15.148 -0.4526  1.1159 -0.3345
  582TMC3    C6 8630   2.695   4.332  15.273 -0.4336 -0.2362  0.7383
  582TMC3     C 8631   2.695   4.644  15.037 -0.4226 -0.3355  0.3383
  582TMC3     O 8632   2.624   4.635  14.935 -0.1425 -0.0366 -0.0265
  582TMC3     H 8633   2.881   4.607  15.227  0.5860  0.5482 -3.9925
  582TMC3    H1 8634   2.649   4.413  14.952  0.5363 -3.3952 -0.8857
  582TMC3    H2 8635   2.665   4.267  15.354 -0.0403 -1.6374 -0.2461
  582TMC3    C7 8636   2.535   4.249  15.113  0.4040  0.0904 -1.0418
  582TMC3    C8 8637   2.855   4.426  15.425 -0.3597 -0.0347 -0.3889
  582TMC3    O1 8638   2.518   4.236  14.992  0.2033 -0.1349  0.2029
  582TMC3    O2 8639   2.968   4.475  15.423  0.1063 -0.5554  0.4061
  583MPD2     C 8640   2.764   1.404  17.034  0.4980  0.2513  0.1108
  583MPD2    C1 8641   2.807   1.475  16.918 -0.0529  0.3448 -0.0543
  583MPD2    C2 8642   2.761   1.609  16.913 -0.1536 -0.3541 -0.2665
  583MPD2    C3 8643   2.686   1.666  17.014  0.0679  0.5885  0.0882
  583MPD2    C4 8644   2.657   1.590  17.126  0.3175  0.3084  0.8424
  583MPD2    C5 8645   2.705   1.462  17.138  0.1729  0.1300  0.2729
  583MPD2     H 8646   2.782   1.662  16.821  0.6517 -0.1160  0.0481
  583MPD2    H1 8647   2.607   1.642  17.207  0.3679 -0.4688  1.3693
  583MPD2    H2 8648   2.787   1.301  17.058 -0.9017 -0.0065  0.3088
  583MPD2    H3 8649   2.676   1.398  17.220  2.2187 -0.1118  0.8179
  583MPD2     N 8650   2.638   1.792  16.988 -0.3901  0.2219 -0.7410
  583MPD2    H5 8651   2.663   1.827  16.896  0.7862 -0.6159 -0.7333
  583MPD2    N1 8652   2.867   1.422  16.800  0.3702  0.4946 -0.1510
  583MPD2    H7 8653   2.893   1.476  16.717  1.6571 -1.1178 -0.7967
  584TMC3    C1 8654   2.555   2.016  17.021  0.9360  0.2107  0.2784
  584TMC3    C2 8655   2.655   2.060  16.937  0.2085 -0.4184  0.8066
  584TMC3    C3 8656   2.690   2.186  16.937  0.1032  0.1490 -1.1039
  584TMC3    C4 8657   2.497   2.111  17.106  0.1609  0.4355 -0.1156
  584TMC3    C5 8658   2.528   2.241  17.090 -0.1045  0.2051  0.1103
  584TMC3    C6 8659   2.634   2.278  17.014  0.2345  0.0533 -0.1940
  584TMC3     C 8660   2.563   1.875  17.068  0.6828 -0.6221 -0.3854
  584TMC3     O 8661   2.527   1.858  17.187 -0.8058 -0.7762  0.1169
  584TMC3     H 8662   2.713   1.990  16.877 -1.3758 -0.7437 -0.3708
  584TMC3    H1 8663   2.435   2.087  17.192 -1.0436 -0.9731 -1.3835
  584TMC3    H2 8664   2.643   2.385  16.995  0.0206  0.4555  1.9323
  584TMC3    C7 8665   2.532   2.323  17.213 -0.4370 -1.1991  0.1230
  584TMC3    C8 8666   2.837   2.198  16.927 -0.1713  0.2012 -0.4514
  584TMC3    O1 8667   2.636   2.371  17.250  0.2914 -0.2998  0.0633
  584TMC3    O2 8668   2.898   2.126  16.850 -0.2548  0.0374 -0.4134
  585MPD2     C 8669   1.741   0.853   0.607 -0.0066 -0.2097  0.1020
  585MPD2    C1 8670   1.855   0.782   0.595 -0.6660 -0.2137 -0.2983
  585MPD2    C2 8671   1.918   0.769   0.472  0.3060  0.2319  0.6027
  585MPD2    C3 8672   1.856   0.820   0.358  0.7364  0.4984 -0.2098
  585MPD2    C4 8673   1.737   0.883   0.369  1.0390 -0.0165 -0.5853
  585MPD2    C5 8674   1.682   0.897   0.492 -0.6194 -0.3529  0.2844
  585MPD2     H 8675   2.006   0.707   0.457  0.6566  0.6062  1.1039
  585MPD2    H1 8676   1.688   0.938   0.289  0.3955  1.5311  0.8682
  585MPD2    H2 8677   1.697   0.883   0.701  0.0880  1.3326 -0.3437
  585MPD2    H3 8678   1.589   0.953   0.496  1.0059  2.5006 -1.8505
  585MPD2     N 8679   1.909   0.811   0.229  0.3731 -0.4060  0.2026
  585MPD2    H5 8680   1.861   0.846   0.146  1.4328 -2.8413 -1.4489
  585MPD2    N1 8681   1.912   0.714   0.709 -0.3902 -0.1639  0.6468
  585MPD2    H7 8682   1.872   0.716   0.802  1.0283 -0.2150  1.2622
  586TMC3    C1 8683   2.070   0.771   0.056 -0.2092  0.0272 -0.4886
  586TMC3    C2 8684   2.162   0.677   0.012 -1.0603  0.1661  0.0198
  586TMC3    C3 8685   2.145   0.637  17.566 -0.9564 -0.7740  0.4457
  586TMC3    C4 8686   1.990   0.838  17.651 -0.3649  0.0381  0.6217
  586TMC3    C5 8687   1.980   0.791  17.530  0.3330  0.4401  0.0092
  586TMC3    C6 8688   2.054   0.689  17.480  0.1119  0.5379 -0.3279
  586TMC3     C 8689   2.037   0.759   0.194  0.2303  0.5449  0.2367
  586TMC3     O 8690   2.114   0.690   0.261  0.1541  0.5481  0.0680
  586TMC3     H 8691   2.242   0.638   0.072  0.0930  0.9465 -1.0163
  586TMC3    H1 8692   1.925   0.919  17.681  0.2369  0.6955  0.1525
  586TMC3    H2 8693   2.013   0.630  17.399 -1.7245 -0.4859  1.3194
  586TMC3    C7 8694   1.852   0.804  17.464 -0.1048 -0.0253  1.0339
  586TMC3    C8 8695   2.201   0.507  17.545  0.1559  0.0327  0.2622
  586TMC3    O1 8696   1.831   0.904  17.396  0.1772 -0.1058 -0.2377
  586TMC3    O2 8697   2.226   0.442  17.645 -0.3007 -0.0295 -0.1490
  587TMC3    C1 8698   4.521   3.461  16.277 -0.5484 -0.0618 -0.1264
  587TMC3    C2 8699   4.499   3.593  16.260  0.2368 -0.2585 -0.1150
  587TMC3    C3 8700   4.603   3.673  16.232 -0.0884  0.8000 -0.6414
  587TMC3    C4 8701   4.640   3.409  16.248  0.3801  0.4534 -0.5393
  587TMC3    C5 8702   0.010   3.491  16.198  0.0167 -0.1580  0.7295
  587TMC3    C6 8703   0.002   3.628  16.194 -0.2353  0.4258  0.0950
  587TMC3     C 8704   4.410   3.363  16.295 -0.0113  0.1731  0.7026
  587TMC3     O 8705   4.428   3.246  16.263 -0.5975 -0.3917 -0.0281
  587TMC3     H 8706   4.399   3.632  16.269  0.1578 -0.8629  1.6229
  587TMC3    H1 8707   4.649   3.301  16.256  1.5114  0.5490 -0.5790
  587TMC3    H2 8708   0.087   3.688  16.163 -0.6898 -0.5756 -3.0716
  587TMC3    C7 8709   0.150   3.430  16.181 -0.4341 -0.1611 -0.6045
  587TMC3    C8 8710   4.583   3.823  16.237 -0.8036  0.0179 -0.0298
  587TMC3    O1 8711   0.162   3.312  16.206 -0.1863 -0.2653  0.2434
  587TMC3    O2 8712   4.670   3.897  16.193  0.0265  0.2534 -0.0545
  588TMC3    C1 8713   3.441   1.016  10.166 -0.3501  0.1878 -0.1294
  588TMC3    C2 8714   3.351   0.926  10.117  0.4576  0.0660 -0.0576
  588TMC3    C3 8715   3.388   0.789  10.110  0.0832  0.3782 -0.4191
  588TMC3    C4 8716   3.575   0.978  10.185  0.2905  0.7396  0.1495
  588TMC3    C5 8717   3.598   0.846  10.185 -0.0291 -0.6886 -0.8381
  588TMC3    C6 8718   3.514   0.748  10.142 -0.0504 -0.0363 -0.0758
  588TMC3     C 8719   3.398   1.134  10.225  0.6265 -0.4723  0.8294
  588TMC3     O 8720   3.305   1.196  10.176  0.0585 -0.0732  0.5818
  588TMC3     H 8721   3.255   0.966  10.087  0.5850 -0.7824 -1.6325
  588TMC3    H1 8722   3.658   1.048  10.185  0.0053  1.0510 -2.3546
  588TMC3    H2 8723   3.533   0.643  10.126 -1.1568 -0.5615  2.0775
  588TMC3    C7 8724   3.742   0.809  10.185  0.0635 -0.3001 -0.0232
  588TMC3    C8 8725   3.286   0.695  10.072 -1.0621 -0.1456  0.3832
  588TMC3    O1 8726   3.784   0.703  10.139 -0.4288 -0.2786  0.1611
  588TMC3    O2 8727   3.234   0.711   9.961 -0.1503 -0.1391  0.5565
  589TMC3    C1 8728   0.738   3.972   1.281 -0.3570 -0.6391  0.1639
  589TMC3    C2 8729   0.810   3.932   1.387  0.2514  0.1746  0.6681
  589TMC3    C3 8730   0.870   3.808   1.388 -0.7654 -0.0463  0.0643
  589TMC3    C4 8731   0.713   3.883   1.178 -0.5945  0.5920  0.1154
  589TMC3    C5 8732   0.791   3.767   1.172  0.1423  0.2445  0.3866
  589TMC3    C6 8733   0.876   3.732   1.274  0.7734 -0.1974 -0.4925
  589TMC3     C 8734   0.672   4.103   1.288  0.6123  0.3728 -0.1378
  589TMC3     O 8735   0.593   4.133   1.197  0.0836  0.3656 -0.1783
  589TMC3     H 8736   0.816   3.987   1.480  0.8048  0.5266  0.4268
  589TMC3    H1 8737   0.655   3.928   1.098  0.3879  1.7700  0.0631
  589TMC3    H2 8738   0.925   3.635   1.274  0.4517 -0.3608  0.0555
  589TMC3    C7 8739   0.776   3.667   1.069  0.3635  0.0402  0.9877
  589TMC3    C8 8740   0.950   3.779   1.506  0.3317 -0.4706  0.2879
  589TMC3    O1 8741   0.780   3.552   1.113 -0.3309 -0.0281 -0.9043
  589TMC3    O2 8742   0.914   3.825   1.612  0.4588  0.0678  0.2382
  590MPD2     C 8743   0.878   2.043  16.779 -0.1246  0.1310  0.2240
  590MPD2    C1 8744   0.819   2.130  16.687  0.8757  0.0351  0.8868
  590MPD2    C2 8745   0.877   2.251  16.647 -0.5099  0.0009  0.0877
  590MPD2    C3 8746   0.996   2.292  16.698  0.6262 -0.2663 -0.1163
  590MPD2    C4 8747   1.056   2.211  16.789  0.6986 -0.2966  0.1838
  590MPD2    C5 8748   1.004   2.087  16.828  0.3529 -0.0867 -0.1074
  590MPD2     H 8749   0.820   2.313  16.579  0.1688  0.7297  0.1797
  590MPD2    H1 8750   1.158   2.231  16.821  0.3818 -0.7164  1.4190
  590MPD2    H2 8751   0.833   1.947  16.803 -0.2109  0.2831  0.6775
  590MPD2    H3 8752   1.060   2.014  16.884  1.7785 -1.2155 -3.0199
  590MPD2     N 8753   1.060   2.411  16.664  0.0262  0.2691  0.3684
  590MPD2    H5 8754   1.151   2.436  16.700  0.3304 -1.0566  0.5257
  590MPD2    N1 8755   0.695   2.089  16.638  0.0095  0.3821 -0.0235
  590MPD2    H7 8756   0.645   2.009  16.676 -2.4511  2.7293  1.7033
  591TMC3    C1 8757   1.113   2.599  16.549  0.1965  0.0893 -0.6138
  591TMC3    C2 8758   1.220   2.547  16.481 -0.6268  0.0881 -0.8962
  591TMC3    C3 8759   1.294   2.638  16.414 -0.2458 -0.1567  0.5552
  591TMC3    C4 8760   1.067   2.727  16.524 -0.0304  0.4189 -0.6502
  591TMC3    C5 8761   1.144   2.813  16.450  0.0011 -0.0218 -0.2549
  591TMC3    C6 8762   1.263   2.775  16.397  0.0930 -0.1476 -0.0896
  591TMC3     C 8763   1.012   2.511  16.591  0.6643 -0.2178 -0.0401
  591TMC3     O 8764   0.908   2.532  16.532  0.5595 -0.3031  0.1232
  591TMC3     H 8765   1.249   2.443  16.488  1.9607  0.9513  1.0433
  591TMC3    H1 8766   0.968   2.755  16.558  0.4788  0.1453  1.0694
  591TMC3    H2 8767   1.333   2.842  16.348 -0.2833 -0.6970 -1.3853
  591TMC3    C7 8768   1.092   2.947  16.446 -0.1122  0.3139  0.4145
  591TMC3    C8 8769   1.398   2.570  16.323 -0.2190 -0.5895  0.2257
  591TMC3    O1 8770   1.030   2.987  16.544  0.5277  0.1136  0.1571
  591TMC3    O2 8771   1.387   2.457  16.286  0.6291 -0.1980 -0.4214
  592MPD2     C 8772   1.300   3.935  11.371 -0.4386  0.1196 -0.1929
  592MPD2    C1 8773   1.302   3.998  11.487  0.4370  0.7471  0.1180
  592MPD2    C2 8774   1.235   3.935  11.592 -0.0396  0.7000  0.0542
  592MPD2    C3 8775   1.167   3.814  11.573 -0.1906  0.1389 -0.5775
  592MPD2    C4 8776   1.168   3.749  11.450  0.3978  0.9952 -0.6183
  592MPD2    C5 8777   1.240   3.812  11.351 -0.2012  0.2793  0.5299
  592MPD2     H 8778   1.250   3.973  11.693  0.3216  1.0503 -0.1332
  592MPD2    H1 8779   1.122   3.653  11.428  0.4988  0.9046 -0.4380
  592MPD2    H2 8780   1.342   3.981  11.283  1.0865 -0.5265  0.1984
  592MPD2    H3 8781   1.238   3.766  11.253 -1.0710  1.2928  0.0660
  592MPD2     N 8782   1.109   3.763  11.689 -0.1647 -0.2530  0.4122
  592MPD2    H5 8783   1.106   3.825  11.770 -1.4527 -0.1761  0.3032
  592MPD2    N1 8784   1.372   4.124  11.494  0.7096 -0.0350  0.0280
  592MPD2    H7 8785   1.417   4.146  11.406 -1.0576 -1.2235 -1.1522
  593TMC3    C1 8786   1.483   4.311  11.586  0.6265  0.4198  0.4491
  593TMC3    C2 8787   1.492   4.400  11.690  0.0895 -0.6906 -0.6052
  593TMC3    C3 8788   1.598   4.488  11.680  0.2173  0.0800 -0.5903
  593TMC3    C4 8789   1.571   4.306  11.481  0.7851 -0.1805 -0.2624
  593TMC3    C5 8790   1.673   4.394  11.479 -1.0033 -0.9420  0.3395
  593TMC3    C6 8791   1.694   4.488  11.582 -0.0635  0.3474  0.2470
  593TMC3     C 8792   1.393   4.197  11.606  0.8662 -0.4500  0.3089
  593TMC3     O 8793   1.344   4.183  11.720 -0.0665  0.0069  0.7380
  593TMC3     H 8794   1.416   4.402  11.767  1.8073 -2.3652  1.1498
  593TMC3    H1 8795   1.563   4.224  11.410 -1.3246 -1.5871  1.5737
  593TMC3    H2 8796   1.762   4.570  11.565  1.1125 -0.1911  2.3020
  593TMC3    C7 8797   1.726   4.442  11.351  0.0963 -0.2012  0.2569
  593TMC3    C8 8798   1.594   4.612  11.764 -0.3968  0.2789 -0.4418
  593TMC3    O1 8799   1.798   4.543  11.353  0.1529 -0.4457 -0.2036
  593TMC3    O2 8800   1.480   4.629  11.805  0.2975  0.0501 -0.0162
  594MPD2     C 8801   4.701   2.844  14.096 -0.4050 -0.1550 -0.3043
  594MPD2    C1 8802   0.001   2.854  14.232 -0.1475 -0.2352 -0.0852
  594MPD2    C2 8803   0.090   2.946  14.283 -0.7879  0.1783  0.2403
  594MPD2    C3 8804   0.179   3.009  14.196 -0.2860 -0.2038  0.2767
  594MPD2    C4 8805   0.171   2.982  14.063  0.1798 -0.7303  0.0809
  594MPD2    C5 8806   0.074   2.902  14.012  0.2082  0.2799 -1.0025
  594MPD2     H 8807   0.097   2.972  14.388 -0.9022  0.4823  0.1721
  594MPD2    H1 8808   0.243   3.015  13.989 -2.5351  1.8310 -1.4026
  594MPD2    H2 8809   4.638   2.773  14.043  1.4522 -1.6101 -0.5898
  594MPD2    H3 8810   0.084   2.886  13.905 -3.1875  0.5655 -1.3694
  594MPD2     N 8811   0.267   3.108  14.242  0.4297  0.3548 -0.0731
  594MPD2    H5 8812   0.251   3.145  14.335  2.0178 -2.0893  1.1721
  594MPD2    N1 8813   4.628   2.787  14.310  0.2097  0.1897  0.4715
  594MPD2    H7 8814   4.563   2.739  14.248  2.3704 -1.2270 -0.6839
  595TMC3    C1 8815   0.612   3.409  14.251 -0.6219 -0.9075 -0.7833
  595TMC3    C2 8816   0.553   3.292  14.214  0.1540 -0.8567  0.2365
  595TMC3    C3 8817   0.419   3.287  14.224 -0.0539  0.2427 -0.2715
  595TMC3    C4 8818   0.540   3.507  14.314  1.0736  0.2037 -0.0995
  595TMC3    C5 8819   0.403   3.495  14.321  0.1708 -0.0693  0.7084
  595TMC3    C6 8820   0.340   3.384  14.280  0.1020  0.1432  0.4054
  595TMC3     C 8821   0.757   3.424  14.257  0.0333 -0.3195 -0.6499
  595TMC3     O 8822   0.803   3.430  14.371 -0.6123  0.3871  0.1528
  595TMC3     H 8823   0.606   3.219  14.155  1.6910 -1.3392  2.2344
  595TMC3    H1 8824   0.595   3.593  14.349 -1.4451  1.2580  1.2966
  595TMC3    H2 8825   0.232   3.374  14.273  0.1015 -0.2952  1.1036
  595TMC3    C7 8826   0.329   3.578  14.410  0.6138  0.1067  0.2173
  595TMC3    C8 8827   0.356   3.171  14.162  0.6329  0.0347 -0.4475
  595TMC3    O1 8828   0.207   3.556  14.408  0.1489 -0.1292 -0.1434
  595TMC3    O2 8829   0.404   3.139  14.053  0.2387  0.9471  0.5499
  596MPD2     C 8830   3.668   0.950  16.834  0.4047 -0.0071  0.6730
  596MPD2    C1 8831   3.681   1.082  16.795 -0.5803  1.0318  0.2118
  596MPD2    C2 8832   3.662   1.118  16.660  0.4625  0.0770  0.3934
  596MPD2    C3 8833   3.677   1.023  16.560  0.5149 -0.2590 -0.2090
  596MPD2    C4 8834   3.671   0.891  16.601  0.0485  0.8325  0.1966
  596MPD2    C5 8835   3.670   0.858  16.737 -0.5318  0.4206  0.1409
  596MPD2     H 8836   3.653   1.223  16.636  0.1283 -0.3068 -1.1884
  596MPD2    H1 8837   3.674   0.809  16.530  0.1939  0.6967  0.3576
  596MPD2    H2 8838   3.671   0.925  16.940  1.2679 -0.7960  0.4665
  596MPD2    H3 8839   3.672   0.755  16.771 -1.3403 -0.5562 -2.8290
  596MPD2     N 8840   3.655   1.052  16.421  0.5610 -0.0115  0.7817
  596MPD2    H5 8841   3.643   0.967  16.366 -2.2762  0.2189  1.0256
  596MPD2    N1 8842   3.695   1.190  16.893 -0.5258  0.1484  0.1781
  596MPD2    H7 8843   3.673   1.281  16.855 -1.3053 -0.3610 -0.5737
  597TMC3    C1 8844   3.743   1.309  17.082 -1.2339 -0.0624  0.4183
  597TMC3    C2 8845   3.857   1.369  17.120 -0.0696  0.5013  0.9306
  597TMC3    C3 8846   3.859   1.502  17.154  0.1816 -0.1618 -0.6875
  597TMC3    C4 8847   3.627   1.373  17.081  0.3283 -0.1038 -0.7546
  597TMC3    C5 8848   3.632   1.509  17.095  0.6262  0.7416 -0.4660
  597TMC3    C6 8849   3.746   1.577  17.135 -0.4094  0.1121  0.2415
  597TMC3     C 8850   3.753   1.183  17.015  0.0953  1.1426  0.5422
  597TMC3     O 8851   3.795   1.086  17.081  0.3298  0.2953  0.2779
  597TMC3     H 8852   3.944   1.305  17.123  0.3255  0.8064 -3.5732
  597TMC3    H1 8853   3.533   1.328  17.051  0.5597 -2.0604  1.4682
  597TMC3    H2 8854   3.739   1.684  17.156 -1.8156 -0.5225  3.1501
  597TMC3    C7 8855   3.516   1.564  17.154 -0.6347  0.4648  0.4984
  597TMC3    C8 8856   3.983   1.565  17.214 -0.0986  0.5151  0.1117
  597TMC3    O1 8857   3.450   1.485  17.216 -0.5985  0.1524  0.4244
  597TMC3    O2 8858   3.964   1.675  17.266 -0.0924  0.1016 -0.1389
  598TMC3    C1 8859   1.528   2.905  15.773 -0.3773 -1.4846 -0.1754
  598TMC3    C2 8860   1.448   2.798  15.805  0.9332  0.3111 -0.2256
  598TMC3    C3 8861   1.455   2.687  15.728  0.0749 -0.3916  0.4565
  598TMC3    C4 8862   1.624   2.894  15.676 -0.6832 -0.2985 -0.0186
  598TMC3    C5 8863   1.623   2.788  15.593 -0.2869 -0.3425  0.5634
  598TMC3    C6 8864   1.541   2.681  15.623  0.1982 -0.0203 -0.1967
  598TMC3     C 8865   1.511   3.034  15.825 -0.0157  0.2887 -0.4169
  598TMC3     O 8866   1.552   3.126  15.760 -0.0229  0.0368  0.8100
  598TMC3     H 8867   1.375   2.802  15.884  2.3352  2.2638  0.9531
  598TMC3    H1 8868   1.683   2.983  15.652  1.2022 -1.1122  1.5615
  598TMC3    H2 8869   1.560   2.594  15.561 -1.6758 -1.3686  1.1239
  598TMC3    C7 8870   1.700   2.774  15.475  0.2881 -0.5621  0.6657
  598TMC3    C8 8871   1.370   2.576  15.750 -0.5091  0.2309 -0.2513
  598TMC3    O1 8872   1.668   2.691  15.390  0.2692 -0.2009 -0.0518
  598TMC3    O2 8873   1.312   2.578  15.859 -0.0880  0.6190 -0.8268
  599MPD2     C 8874   2.150   0.293  16.144 -0.3777 -0.3966  0.1181
  599MPD2    C1 8875   2.058   0.193  16.114 -0.1001  0.3624  0.7311
  599MPD2    C2 8876   1.926   0.204  16.157  0.2623  0.4690 -0.5583
  599MPD2    C3 8877   1.895   0.311  16.239  0.1598 -0.3513  0.7107
  599MPD2    C4 8878   1.985   0.407  16.273  0.5108  0.1324  0.1566
  599MPD2    C5 8879   2.112   0.396  16.224  0.5098 -0.0511 -0.6566
  599MPD2     H 8880   1.860   0.124  16.126  0.6458 -0.3609  0.7581
  599MPD2    H1 8881   1.965   0.494  16.334 -0.8897  0.1600 -0.3398
  599MPD2    H2 8882   2.250   0.296  16.104 -1.7444  2.7361 -3.0741
  599MPD2    H3 8883   2.187   0.470  16.248  0.2217 -0.8902  2.9400
  599MPD2     N 8884   1.771   0.331  16.306  0.7190 -0.2562 -0.5360
  599MPD2    H5 8885   1.763   0.416  16.361 -2.2016  0.4573 -2.0649
  599MPD2    N1 8886   2.111   0.087  16.040  0.2931 -0.4648 -0.3971
  599MPD2    H7 8887   2.208   0.100  16.012  0.6148 -2.4550 -0.2135
  600TMC3    C1 8888   1.559   0.267  16.394 -0.2228  0.8380  0.5174
  600TMC3    C2 8889   1.495   0.165  16.458  0.3484 -0.8851 -0.3608
  600TMC3    C3 8890   1.432   0.194  16.579  0.0133  0.5043 -0.1693
  600TMC3    C4 8891   1.542   0.394  16.443 -0.6075 -0.0257  0.2163
  600TMC3    C5 8892   1.461   0.421  16.556 -0.2311 -0.1436 -0.0383
  600TMC3    C6 8893   1.407   0.320  16.625  0.3673 -0.1065  0.3886
  600TMC3     C 8894   1.673   0.232  16.314 -0.0452 -0.5149 -0.4471
  600TMC3     O 8895   1.672   0.120  16.263  0.2387  0.0873  0.2816
  600TMC3     H 8896   1.512   0.065  16.421  0.7681 -0.0554 -2.3975
  600TMC3    H1 8897   1.568   0.465  16.365  0.8353 -0.7966 -0.0044
  600TMC3    H2 8898   1.346   0.330  16.714  1.5176  1.1606  1.0375
  600TMC3    C7 8899   1.434   0.555  16.615  0.0982  0.0695  0.3876
  600TMC3    C8 8900   1.378   0.080  16.640 -0.1295 -0.0647  0.4149
  600TMC3    O1 8901   1.360   0.559  16.709 -0.7783 -0.0675 -0.2264
  600TMC3    O2 8902   1.399   0.057  16.759 -0.0607 -0.1285  0.3687
  601MPD2     C 8903   3.735   3.760   1.032 -0.7028  0.2422  0.7430
  601MPD2    C1 8904   3.695   3.697   0.918  0.1719  0.4655  1.2166
  601MPD2    C2 8905   3.632   3.574   0.925  0.1764 -0.1503  0.2849
  601MPD2    C3 8906   3.608   3.510   1.050  0.1191 -0.3723 -0.2095
  601MPD2    C4 8907   3.652   3.571   1.166 -0.2751 -0.0700 -0.3471
  601MPD2    C5 8908   3.707   3.701   1.156  0.3513  0.6774 -0.2741
  601MPD2     H 8909   3.618   3.525   0.829  0.4202 -0.4972  0.4264
  601MPD2    H1 8910   3.635   3.533   1.267  2.0357 -1.5399 -0.4881
  601MPD2    H2 8911   3.777   3.861   1.031 -2.1088  0.8536  3.6955
  601MPD2    H3 8912   3.730   3.758   1.245  1.0461  0.0890 -0.0749
  601MPD2     N 8913   3.546   3.381   1.061 -0.0692 -0.5288  0.3863
  601MPD2    H5 8914   3.532   3.344   1.155  1.5258  1.3626  1.3635
  601MPD2    N1 8915   3.705   3.760   0.791 -0.1934  0.5976 -0.0941
  601MPD2    H7 8916   3.657   3.715   0.714 -2.1280 -0.3565  1.6610
  602TMC3    C1 8917   3.738   3.912   0.624 -0.1170 -0.1925 -0.2663
  602TMC3    C2 8918   3.681   4.023   0.585 -0.5410  0.3639 -0.1575
  602TMC3    C3 8919   3.635   4.036   0.461 -0.0765 -1.0328 -0.1611
  602TMC3    C4 8920   3.763   3.806   0.536 -0.6707  0.8763  1.0624
  602TMC3    C5 8921   3.733   3.829   0.405 -0.1824  0.3335 -0.7947
  602TMC3    C6 8922   3.675   3.945   0.362 -0.2453  0.4013  0.6133
  602TMC3     C 8923   3.755   3.881   0.762 -0.7219  0.1468 -0.2987
  602TMC3     O 8924   3.778   3.978   0.835  0.1857  0.3713 -0.0861
  602TMC3     H 8925   3.645   4.092   0.661 -1.9774  0.6173 -1.0544
  602TMC3    H1 8926   3.812   3.711   0.551  0.3186  1.1100 -0.6180
  602TMC3    H2 8927   3.637   3.970   0.263 -0.5157 -0.8180  0.4158
  602TMC3    C7 8928   3.715   3.707   0.329 -0.1611 -0.1534  0.1816
  602TMC3    C8 8929   3.529   4.128   0.449  0.8513 -1.1459  0.1177
  602TMC3    O1 8930   3.759   3.598   0.361 -0.0687  0.2637 -0.3770
  602TMC3    O2 8931   3.543   4.240   0.497  0.3296  0.5250  0.2469
  603TMC3    C1 8932   2.462   3.497  10.972  0.2917  0.6592 -0.9477
  603TMC3    C2 8933   2.421   3.489  11.102  0.1841 -0.1194  0.3635
  603TMC3    C3 8934   2.372   3.596  11.163 -0.3096 -0.6117 -0.2904
  603TMC3    C4 8935   2.440   3.612  10.906  0.2501  0.3931  0.8586
  603TMC3    C5 8936   2.398   3.722  10.967 -0.4181 -0.7231  0.2031
  603TMC3    C6 8937   2.354   3.716  11.100 -0.0080  0.0994 -0.1797
  603TMC3     C 8938   2.561   3.404  10.929 -0.6655  0.4525 -0.3221
  603TMC3     O 8939   2.627   3.341  11.014 -0.3333 -0.4025 -0.0340
  603TMC3     H 8940   2.442   3.401  11.162 -0.5404 -1.4431 -1.3112
  603TMC3    H1 8941   2.486   3.629  10.809  0.9860 -1.7458  0.8150
  603TMC3    H2 8942   2.325   3.811  11.142  0.8024 -0.1207  0.8938
  603TMC3    C7 8943   2.383   3.846  10.900 -0.4634  0.4439  0.3656
  603TMC3    C8 8944   2.347   3.589  11.308 -0.6234 -0.1580 -0.5062
  603TMC3    O1 8945   2.409   3.951  10.961 -0.4644 -0.3269 -0.3727
  603TMC3    O2 8946   2.399   3.498  11.364 -0.6071  0.5776  0.2168
  604MPD2     C 8947   3.082   2.610  16.811  0.0199 -0.0937 -0.1856
  604MPD2    C1 8948   2.945   2.604  16.790  0.4424 -0.4706 -0.4497
  604MPD2    C2 8949   2.901   2.561  16.665  0.7225  0.8114  0.2464
  604MPD2    C3 8950   2.995   2.528  16.570  0.6119  0.0087  1.0870
  604MPD2    C4 8951   3.125   2.547  16.593 -0.3949 -0.1446 -0.0913
  604MPD2    C5 8952   3.172   2.589  16.708 -0.1683 -0.0711 -0.6317
  604MPD2     H 8953   2.795   2.561  16.641  0.6054 -0.6535  0.8139
  604MPD2    H1 8954   3.197   2.532  16.513  1.0734  0.2983  1.1383
  604MPD2    H2 8955   3.118   2.640  16.908  0.0551 -0.2223 -0.1581
  604MPD2    H3 8956   3.277   2.602  16.734  0.2456 -1.6234 -1.4993
  604MPD2     N 8957   2.942   2.485  16.441  0.5907 -0.3865  0.7299
  604MPD2    H5 8958   2.842   2.470  16.439  0.6085 -0.4638  0.4431
  604MPD2    N1 8959   2.862   2.644  16.894 -0.7368 -0.4740  0.2179
  604MPD2    H7 8960   2.905   2.675  16.980 -0.9300  0.6925 -0.0985
  605TMC3    C1 8961   2.667   2.688  17.017 -0.1383 -0.3955 -0.5669
  605TMC3    C2 8962   2.748   2.682  17.127  0.2578  0.4538  0.1603
  605TMC3    C3 8963   2.757   2.788  17.214 -0.6525 -0.9519 -0.3998
  605TMC3    C4 8964   2.578   2.792  17.005  0.0957  0.7648 -0.3190
  605TMC3    C5 8965   2.582   2.897  17.093 -0.6222 -0.5423 -0.0610
  605TMC3    C6 8966   2.675   2.895  17.195  0.3080 -0.3796  0.5108
  605TMC3     C 8967   2.720   2.653  16.892  0.4360  0.1087 -0.1730
  605TMC3     O 8968   2.643   2.622  16.808 -0.6039  0.0725 -0.2563
  605TMC3     H 8969   2.820   2.602  17.144  2.2935  2.4768  0.9852
  605TMC3    H1 8970   2.520   2.802  16.914 -3.2122  3.3205  2.0544
  605TMC3    H2 8971   2.697   2.981  17.258  0.9320 -1.7830  2.1803
  605TMC3    C7 8972   2.511   3.015  17.065  0.4980 -0.0753  0.1035
  605TMC3    C8 8973   2.897   2.824  17.211 -0.3545 -1.1873 -0.4404
  605TMC3    O1 8974   2.548   3.112  17.124  0.2202 -0.3147 -0.5082
  605TMC3    O2 8975   2.975   2.748  17.158 -0.2834 -0.3795  0.2242
  606TMC3    C1 8976   4.140   1.096  16.888  0.3222 -0.1747  0.4324
  606TMC3    C2 8977   4.245   1.062  16.977  0.2228  0.7381  0.2448
  606TMC3    C3 8978   4.280   0.932  16.986 -0.4831  0.5222 -0.0706
  606TMC3    C4 8979   4.066   1.001  16.818 -0.5656 -0.4188  0.4915
  606TMC3    C5 8980   4.116   0.873  16.821  0.1669  0.0648  0.1587
  606TMC3    C6 8981   4.223   0.836  16.899  0.4100  0.3105 -0.7392
  606TMC3     C 8982   4.123   1.246  16.878 -0.0845  0.4369  0.5785
  606TMC3     O 8983   4.151   1.309  16.975  0.5052  0.4117 -0.0103
  606TMC3     H 8984   4.294   1.136  17.039  1.1436  1.5309 -1.4402
  606TMC3    H1 8985   3.975   1.022  16.763 -1.5766  1.1767  2.7383
  606TMC3    H2 8986   4.264   0.736  16.891 -1.3191 -0.4851  0.4864
  606TMC3    C7 8987   4.041   0.773  16.746  0.4869 -0.2316  0.3778
  606TMC3    C8 8988   4.377   0.900  17.090 -0.5789 -0.2340 -1.1451
  606TMC3    O1 8989   3.969   0.812  16.653 -0.1091 -0.4284 -0.3593
  606TMC3    O2 8990   4.428   0.996  17.153  0.0166  0.0537 -0.3005
  607MPD2     C 8991   1.344   3.577  12.043  0.2340  0.0964  0.6745
  607MPD2    C1 8992   1.368   3.697  12.110  0.4522 -0.2184  0.1543
  607MPD2    C2 8993   1.352   3.694  12.245 -0.5443 -0.0551  0.1175
  607MPD2    C3 8994   1.328   3.580  12.321 -0.3096  0.2326 -0.9154
  607MPD2    C4 8995   1.317   3.463  12.258  0.3925 -0.2257 -0.6645
  607MPD2    C5 8996   1.333   3.459  12.122  0.1829  0.5695  0.6042
  607MPD2     H 8997   1.355   3.783  12.306 -2.9440 -0.5278  0.8948
  607MPD2    H1 8998   1.310   3.363  12.299 -1.1625  0.9854  1.9899
  607MPD2    H2 8999   1.340   3.565  11.936  0.1063  2.3951  0.4297
  607MPD2    H3 9000   1.332   3.361  12.076 -0.4289 -0.0028  1.8467
  607MPD2     N 9001   1.335   3.603  12.459 -0.1174  0.0842 -0.2524
  607MPD2    H5 9002   1.346   3.699  12.489  2.7525  0.2312 -1.7446
  607MPD2    N1 9003   1.399   3.822  12.046 -0.0837 -0.2862 -0.9409
  607MPD2    H7 9004   1.397   3.904  12.106 -0.1229 -1.9115  1.2687
  608TMC3    C1 9005   1.489   3.970  11.890 -0.6309  0.1013 -0.4519
  608TMC3    C2 9006   1.490   4.069  11.984  0.2296  0.6182 -0.7871
  608TMC3    C3 9007   1.585   4.162  11.973 -0.0308 -0.3416 -0.2355
  608TMC3    C4 9008   1.580   3.972  11.787  0.2684  0.0676  0.0180
  608TMC3    C5 9009   1.672   4.067  11.785 -0.2682 -0.7166  0.8310
  608TMC3    C6 9010   1.675   4.173  11.878 -0.3551 -0.0152 -0.4303
  608TMC3     C 9011   1.427   3.835  11.912 -0.1897 -0.0111 -0.2380
  608TMC3     O 9012   1.451   3.748  11.831  0.4604 -0.0055 -0.0701
  608TMC3     H 9013   1.421   4.071  12.068  0.9719 -3.1716 -0.0689
  608TMC3    H1 9014   1.578   3.901  11.705 -0.3662 -1.3545  1.2769
  608TMC3    H2 9015   1.731   4.265  11.864  0.8553 -0.7001 -0.0769
  608TMC3    C7 9016   1.772   4.075  11.674  0.5167  0.2110  0.1837
  608TMC3    C8 9017   1.619   4.241  12.089 -0.1744 -0.1596  0.4034
  608TMC3    O1 9018   1.750   3.997  11.577 -0.3503  0.1058 -0.3601
  608TMC3    O2 9019   1.625   4.358  12.079 -0.1317  0.0204  0.0194
  609TMC3    C1 9020   1.389   2.713   8.878  0.0989 -0.9039  0.0762
  609TMC3    C2 9021   1.453   2.708   8.763 -1.5125 -0.2464 -0.3000
  609TMC3    C3 9022   1.551   2.619   8.744  0.2131 -0.1279 -0.0503
  609TMC3    C4 9023   1.425   2.623   8.979  0.1990  0.9135  0.1101
  609TMC3    C5 9024   1.538   2.537   8.959 -1.0887 -0.1606 -0.7082
  609TMC3    C6 9025   1.601   2.533   8.840  0.0516  0.6153 -0.5219
  609TMC3     C 9026   1.249   2.752   8.894  0.2925 -0.1830  0.0507
  609TMC3     O 9027   1.198   2.764   9.003 -0.4692  0.1051  0.7460
  609TMC3     H 9028   1.442   2.784   8.687  1.2575  2.4907  2.0457
  609TMC3    H1 9029   1.370   2.619   9.072 -1.9739 -1.0110 -1.2463
  609TMC3    H2 9030   1.673   2.456   8.815  1.1972  0.5811  2.9067
  609TMC3    C7 9031   1.588   2.458   9.071 -0.1498  0.0834 -0.1775
  609TMC3    C8 9032   1.632   2.620   8.623  0.1791  0.0141 -0.5237
  609TMC3    O1 9033   1.535   2.469   9.177 -0.1158  0.6001 -0.0664
  609TMC3    O2 9034   1.750   2.585   8.629 -0.6427  0.7589 -0.2606
  610TMC3    C1 9035   1.844   4.032  13.140  0.1736  0.1529  0.1429
  610TMC3    C2 9036   1.856   4.073  13.005 -0.1592 -0.2137 -0.1420
  610TMC3    C3 9037   1.912   3.985  12.920 -0.2974 -0.4576 -0.4534
  610TMC3    C4 9038   1.900   3.917  13.186 -0.5695  0.0523  0.3785
  610TMC3    C5 9039   1.967   3.841  13.095  0.4289 -0.2879 -0.2431
  610TMC3    C6 9040   1.966   3.860  12.962  0.2115 -0.2158  0.4619
  610TMC3     C 9041   1.747   4.096  13.219  0.0073 -0.0510 -0.4869
  610TMC3     O 9042   1.676   4.162  13.147  0.4616  0.0215  1.1687
  610TMC3     H 9043   1.824   4.172  12.974  1.0055  0.4787  0.8645
  610TMC3    H1 9044   1.871   3.863  13.276 -0.2122 -0.5545  0.1271
  610TMC3    H2 9045   2.037   3.805  12.900  0.5881 -0.6695  1.2916
  610TMC3    C7 9046   2.035   3.734  13.150  0.3035 -0.8712 -0.9125
  610TMC3    C8 9047   1.907   4.016  12.779 -0.2032 -0.0612 -0.1626
  610TMC3    O1 9048   2.070   3.739  13.265  0.4894  0.6591  0.0938
  610TMC3    O2 9049   1.882   4.133  12.765 -0.1290 -0.3787  0.2260
  611MPD2     C 9050   1.431   3.510  10.477  0.3304 -0.1905 -0.2663
  611MPD2    C1 9051   1.398   3.567  10.352  0.3855 -0.3932 -0.1991
  611MPD2    C2 9052   1.486   3.645  10.281  0.4944 -0.4105  0.4006
  611MPD2    C3 9053   1.611   3.667  10.344  0.2905  0.3597  0.1242
  611MPD2    C4 9054   1.643   3.605  10.462  0.3654  0.1341 -0.1558
  611MPD2    C5 9055   1.553   3.529  10.533 -0.5012  0.0098 -0.3093
  611MPD2     H 9056   1.458   3.674  10.180  3.4556  0.1301 -0.2620
  611MPD2    H1 9057   1.743   3.618  10.502  0.1861  0.2176  0.2671
  611MPD2    H2 9058   1.356   3.466  10.542  0.1607 -0.4797 -0.6587
  611MPD2    H3 9059   1.578   3.481  10.627  1.2464 -0.1573 -0.8640
  611MPD2     N 9060   1.700   3.749  10.282  0.3400 -0.4980  1.0367
  611MPD2    H5 9061   1.786   3.767  10.333  3.7140 -3.7086 -3.5915
  611MPD2    N1 9062   1.271   3.530  10.298  0.1071  0.3599  0.1584
  611MPD2    H7 9063   1.220   3.448  10.331 -0.2562  0.8783  0.8955
  612TMC3    C1 9064   1.804   3.912  10.124  0.2445 -0.2448 -0.8968
  612TMC3    C2 9065   1.889   3.960  10.215  0.0131  0.5462 -0.1477
  612TMC3    C3 9066   1.987   4.048  10.176  0.2170 -0.5304  0.3292
  612TMC3    C4 9067   1.798   3.968   9.997 -0.5841  0.1206  0.1555
  612TMC3    C5 9068   1.899   4.057   9.961  0.1306 -0.0693  0.4883
  612TMC3    C6 9069   1.992   4.098  10.048 -0.3206  0.1469 -0.6868
  612TMC3     C 9070   1.685   3.826  10.164  0.2000 -0.2827  0.7937
  612TMC3     O 9071   1.599   3.813  10.077  0.1121  0.0930 -0.7222
  612TMC3     H 9072   1.901   3.896  10.302  2.7664  2.1469  0.6384
  612TMC3    H1 9073   1.716   3.934   9.935  0.7312 -3.1517  0.1992
  612TMC3    H2 9074   2.079   4.154  10.016 -0.1572 -0.6243 -1.5985
  612TMC3    C7 9075   1.911   4.110   9.823 -0.7281 -0.5049 -0.2417
  612TMC3    C8 9076   2.096   4.078  10.261  0.5835  0.3758  0.0297
  612TMC3    O1 9077   1.983   4.208   9.800  0.1053  0.3758  0.5750
  612TMC3    O2 9078   2.164   4.172  10.221 -0.4205 -0.7736  0.1148
  613MPD2     C 9079   0.489   1.227  17.136 -0.5587 -0.3386  0.0925
  613MPD2    C1 9080   0.442   1.300  17.029  0.4766  0.7200  1.1588
  613MPD2    C2 9081   0.343   1.251  16.945 -0.9168 -0.1526  0.2326
  613MPD2    C3 9082   0.287   1.130  16.976  0.5383  0.2149  0.8088
  613MPD2    C4 9083   0.330   1.061  17.089 -0.5348  0.2443  0.3906
  613MPD2    C5 9084   0.427   1.109  17.171 -0.7879 -0.1283  0.4058
  613MPD2     H 9085   0.311   1.308  16.859  0.7046 -0.1587 -0.3756
  613MPD2    H1 9086   0.286   0.966  17.116  0.9176 -0.6833 -0.5374
  613MPD2    H2 9087   0.566   1.275  17.195  0.1280  1.1455 -1.9879
  613MPD2    H3 9088   0.463   1.058  17.260  0.2388  1.2212  0.7652
  613MPD2     N 9089   0.186   1.073  16.903  0.2726  0.7061  0.1538
  613MPD2    H5 9090   0.148   0.989  16.945 -0.4759 -0.1433 -2.2057
  613MPD2    N1 9091   0.498   1.431  17.009 -0.2395 -0.2690  0.2843
  613MPD2    H7 9092   0.554   1.476  17.082  0.9318 -0.1329 -0.6975
  614TMC3    C1 9093   0.489   1.456  16.765 -0.0433  0.6457  0.5063
  614TMC3    C2 9094   0.552   1.339  16.733 -0.2596 -0.4246  0.1745
  614TMC3    C3 9095   0.541   1.289  16.603  0.2236 -0.5104  0.3791
  614TMC3    C4 9096   0.422   1.527  16.672  0.3637  0.6819  0.5458
  614TMC3    C5 9097   0.400   1.472  16.549 -0.2177  0.3874  0.1454
  614TMC3    C6 9098   0.458   1.353  16.510  0.8277 -0.2628 -0.0454
  614TMC3     C 9099   0.475   1.511  16.895  0.1678 -0.7202  0.9023
  614TMC3     O 9100   0.493   1.632  16.886  0.1458 -0.0224 -0.0379
  614TMC3     H 9101   0.599   1.278  16.809 -1.7900  0.6167  1.9541
  614TMC3    H1 9102   0.371   1.622  16.689 -1.7500  0.3705 -4.0513
  614TMC3    H2 9103   0.442   1.326  16.406 -0.8379  1.9881 -0.3774
  614TMC3    C7 9104   0.313   1.550  16.457  0.3461 -0.0611  0.0880
  614TMC3    C8 9105   0.526   1.145  16.592 -0.3740  0.6244 -0.1349
  614TMC3    O1 9106   0.281   1.668  16.482 -0.4093  0.0834 -0.0220
  614TMC3    O2 9107   0.516   1.093  16.704 -0.6511  0.1470  0.0023
  615MPD2     C 9108   4.532   2.715  16.637  0.3091 -0.2376  0.4467
  615MPD2    C1 9109   4.407   2.746  16.579 -0.2571 -0.5009  0.1385
  615MPD2    C2 9110   4.390   2.721  16.445 -0.7639  0.0939 -0.5069
  615MPD2    C3 9111   4.495   2.682  16.362 -0.8475  0.4176 -0.1796
  615MPD2    C4 9112   4.622   2.651  16.418 -0.6621  0.5625  0.4745
  615MPD2    C5 9113   4.636   2.664  16.558 -0.2555  0.2994 -0.3498
  615MPD2     H 9114   4.300   2.755  16.395 -0.3844  1.6021 -0.1611
  615MPD2    H1 9115   4.709   2.612  16.366 -0.2658  2.2013 -0.0873
  615MPD2    H2 9116   4.563   2.736  16.739  2.3666 -2.9645  0.3918
  615MPD2    H3 9117   0.007   2.635  16.605 -0.1712 -0.9177 -1.2635
  615MPD2     N 9118   4.478   2.646  16.225 -0.6668 -0.1423  0.1434
  615MPD2    H5 9119   4.557   2.620  16.168  0.8991  3.6435  0.6019
  615MPD2    N1 9120   4.304   2.824  16.645 -0.3834 -0.3896 -0.2227
  615MPD2    H7 9121   4.226   2.852  16.586  0.4621  0.7662 -0.7848
  616TMC3    C1 9122   4.200   2.962  16.800  0.1792 -0.7109  0.0824
  616TMC3    C2 9123   4.225   3.084  16.857 -0.5002  0.7800  0.1867
  616TMC3    C3 9124   4.125   3.173  16.865  0.0028 -0.1610  0.6909
  616TMC3    C4 9125   4.082   2.936  16.737 -0.4174  0.0832  0.2382
  616TMC3    C5 9126   3.985   3.025  16.747 -0.2165 -0.1149  0.1096
  616TMC3    C6 9127   4.004   3.148  16.807  0.5326 -0.4827 -0.5983
  616TMC3     C 9128   4.309   2.872  16.773 -0.3700  0.9766 -0.1583
  616TMC3     O 9129   4.404   2.875  16.856  0.4759  0.4414  0.1098
  616TMC3     H 9130   4.318   3.117  16.902 -0.0241 -0.2184 -0.0614
  616TMC3    H1 9131   4.056   2.840  16.694  0.9259 -0.7611  1.2963
  616TMC3    H2 9132   3.925   3.222  16.806 -1.1191 -2.2181  1.6914
  616TMC3    C7 9133   3.866   3.014  16.669  0.4811 -0.0979  0.2700
  616TMC3    C8 9134   4.164   3.304  16.833  0.0065  0.0315  0.1828
  616TMC3    O1 9135   3.870   2.935  16.579 -0.0417 -0.4013 -0.3165
  616TMC3    O2 9136   4.095   3.393  16.871  0.3801 -0.3637 -0.2706
  617MPD2     C 9137   2.854   1.026  13.661 -0.1035  1.0859 -0.9616
  617MPD2    C1 9138   2.841   0.956  13.778 -0.0948 -0.2502 -0.3808
  617MPD2    C2 9139   2.712   0.912  13.811 -0.1667 -0.2747  0.1950
  617MPD2    C3 9140   2.597   0.938  13.734 -0.1786  0.9690  0.6781
  617MPD2    C4 9141   2.614   0.989  13.602  0.8432 -0.1347 -0.0707
  617MPD2    C5 9142   2.745   1.031  13.575  0.8130 -0.2535 -0.2828
  617MPD2     H 9143   2.688   0.879  13.911 -0.4592  0.3182  0.3198
  617MPD2    H1 9144   2.529   1.015  13.540 -0.9726 -3.9980  0.7963
  617MPD2    H2 9145   2.948   1.056  13.617  0.5219  0.2351 -0.1863
  617MPD2    H3 9146   2.758   1.065  13.473  2.4262 -1.3488 -0.4491
  617MPD2     N 9147   2.466   0.899  13.774  0.4137  1.0854 -0.0271
  617MPD2    H5 9148   2.390   0.923  13.711  0.9335  2.1695 -0.2447
  617MPD2    N1 9149   2.957   0.944  13.857  0.1072 -0.0032 -0.0122
  617MPD2    H7 9150   3.039   0.981  13.811 -0.3975  2.3196  0.9349
  618TMC3    C1 9151   3.086   0.921  14.049  0.0250 -0.2345  0.7069
  618TMC3    C2 9152   3.163   0.822  14.104 -0.0184 -0.5889 -0.0850
  618TMC3    C3 9153   3.301   0.834  14.085 -1.0507 -1.5902 -0.2190
  618TMC3    C4 9154   3.143   1.030  13.989  0.1059 -0.0489 -0.1743
  618TMC3    C5 9155   3.278   1.031  13.967  0.0873 -0.0784  0.4891
  618TMC3    C6 9156   3.362   0.938  14.018 -0.4620  0.1618  0.3635
  618TMC3     C 9157   2.966   0.877  13.976 -0.1196  0.2299  0.4449
  618TMC3     O 9158   2.902   0.787  14.028 -0.7357  0.6263  0.8081
  618TMC3     H 9159   3.114   0.730  14.135 -0.4845 -0.2150  0.2870
  618TMC3    H1 9160   3.079   1.113  13.959  1.7935  0.8835 -1.1975
  618TMC3    H2 9161   3.470   0.946  14.015 -0.4224 -0.8054 -0.6326
  618TMC3    C7 9162   3.296   1.077  13.831 -0.4326 -0.3717  0.1668
  618TMC3    C8 9163   3.356   0.701  14.067  0.7538 -0.6952 -0.5959
  618TMC3    O1 9164   3.189   1.096  13.772  0.5452  0.0803  0.4093
  618TMC3    O2 9165   3.280   0.612  14.032 -0.5130  0.0793  0.0834
  619MPD2     C 9166   4.469   2.372  13.779 -0.6012  0.3409  0.2934
  619MPD2    C1 9167   4.362   2.452  13.735 -0.2836 -0.1850 -0.1597
  619MPD2    C2 9168   4.234   2.396  13.712  0.3384  0.2725  0.2822
  619MPD2    C3 9169   4.206   2.263  13.739 -0.2060 -0.6739 -0.5476
  619MPD2    C4 9170   4.316   2.186  13.785  0.1165  0.4157 -0.5100
  619MPD2    C5 9171   4.445   2.234  13.798 -0.5187 -0.1327  0.4960
  619MPD2     H 9172   4.151   2.457  13.677  1.0699 -0.0969 -2.1217
  619MPD2    H1 9173   4.309   2.079  13.797  2.1215  0.3646  0.3315
  619MPD2    H2 9174   4.568   2.413  13.793 -0.0376 -0.6043 -1.0158
  619MPD2    H3 9175   4.529   2.175  13.831  0.0070 -0.1804 -0.9678
  619MPD2     N 9176   4.076   2.203  13.710 -0.7951  0.4627 -0.6603
  619MPD2    H5 9177   4.068   2.106  13.741  2.5441  0.3398 -0.1882
  619MPD2    N1 9178   4.382   2.586  13.694 -0.0853 -0.1079 -0.3920
  619MPD2    H7 9179   4.300   2.633  13.657  0.0437  0.4325  0.0195
  620TMC3    C1 9180   4.461   2.806  13.682  0.3311  0.3225  0.4823
  620TMC3    C2 9181   4.376   2.831  13.582 -0.0170 -0.1326 -0.1947
  620TMC3    C3 9182   4.349   2.959  13.553  0.0127 -0.5058  0.4781
  620TMC3    C4 9183   4.524   2.901  13.760 -0.4703  0.1222 -0.0764
  620TMC3    C5 9184   4.495   3.032  13.730 -1.1134 -1.2573  0.4297
  620TMC3    C6 9185   4.410   3.061  13.622 -0.0903  0.2565 -0.8353
  620TMC3     C 9186   4.493   2.663  13.715 -0.0510 -0.2105  0.6721
  620TMC3     O 9187   4.598   2.633  13.764  0.1373 -0.3218 -0.3582
  620TMC3     H 9188   4.320   2.758  13.524 -1.7603  1.5870 -0.6968
  620TMC3    H1 9189   4.579   2.868  13.847 -2.1746  0.1388  1.0029
  620TMC3    H2 9190   4.375   3.164  13.614 -1.7163 -0.2819 -0.6132
  620TMC3    C7 9191   4.543   3.138  13.822  0.0859  0.3200 -0.1582
  620TMC3    C8 9192   4.209   2.993  13.515 -0.0069 -0.1945  0.1280
  620TMC3    O1 9193   4.633   3.207  13.780  0.4482 -0.4893  0.0587
  620TMC3    O2 9194   4.152   3.050  13.603 -0.3074  0.1198 -0.9241
  621MPD2     C 9195   0.261   1.487   9.841 -0.0727 -0.4841  0.1199
  621MPD2    C1 9196   0.366   1.491   9.750 -0.7898  0.4778 -0.1673
  621MPD2    C2 9197   0.461   1.594   9.763 -0.2599 -0.2956 -0.6408
  621MPD2    C3 9198   0.446   1.693   9.854 -0.2068  0.2452  1.0458
  621MPD2    C4 9199   0.338   1.693   9.940  0.2374 -0.0854  0.6317
  621MPD2    C5 9200   0.246   1.590   9.932  0.9363 -0.1906 -0.7474
  621MPD2     H 9201   0.543   1.595   9.691 -1.6305 -1.7092 -2.2190
  621MPD2    H1 9202   0.321   1.769  10.015  0.3139 -0.6035  1.1746
  621MPD2    H2 9203   0.198   1.399   9.842 -0.9568  0.1365 -0.5969
  621MPD2    H3 9204   0.153   1.596   9.988  0.6724  1.1694 -1.3222
  621MPD2     N 9205   0.551   1.791   9.859 -0.1484  0.1594  0.0147
  621MPD2    H5 9206   0.636   1.767   9.809 -1.1460 -1.4658 -0.9281
  621MPD2    N1 9207   0.372   1.415   9.631  0.6449 -0.1844  0.5130
  621MPD2    H7 9208   0.441   1.438   9.561  0.6613  3.4128  1.7118
  622TMC3    C1 9209   0.318   1.268   9.466 -0.4290 -0.0376  0.2413
  622TMC3    C2 9210   0.271   1.147   9.434  0.5557 -1.0942  0.5586
  622TMC3    C3 9211   0.251   1.126   9.299  0.2496  0.1137 -0.6684
  622TMC3    C4 9212   0.350   1.369   9.372  0.0477  0.7807 -0.3111
  622TMC3    C5 9213   0.337   1.336   9.242  0.9815  0.2867 -0.2803
  622TMC3    C6 9214   0.287   1.218   9.204 -0.0864 -0.3370 -0.2694
  622TMC3     C 9215   0.288   1.309   9.603 -0.1951 -0.4142  0.0411
  622TMC3     O 9216   0.215   1.248   9.680  0.0037  0.5195  0.8737
  622TMC3     H 9217   0.233   1.078   9.508  1.8163 -1.2103  1.0944
  622TMC3    H1 9218   0.375   1.470   9.403  1.3975  0.2560  0.3157
  622TMC3    H2 9219   0.266   1.195   9.100 -0.4715  0.5847 -0.3941
  622TMC3    C7 9220   0.400   1.415   9.137  0.8062 -0.1271 -0.1535
  622TMC3    C8 9221   0.164   1.021   9.257 -0.5757 -0.4487 -0.1337
  622TMC3    O1 9222   0.402   1.366   9.025 -0.1880  0.1145  0.2740
  622TMC3    O2 9223   0.192   0.967   9.151  0.0064  0.3156  0.5624
  623MPD2     C 9224   3.001   2.782  16.081  0.3715 -0.8935 -0.1055
  623MPD2    C1 9225   2.939   2.801  16.206 -0.1193 -0.0444  0.5206
  623MPD2    C2 9226   3.019   2.799  16.312 -0.1991 -0.0896  0.2464
  623MPD2    C3 9227   3.155   2.800  16.308  0.1349 -0.2829 -0.1004
  623MPD2    C4 9228   3.212   2.786  16.188  0.7477  0.2543 -0.1808
  623MPD2    C5 9229   3.136   2.764  16.071 -0.1988  0.1570  0.0647
  623MPD2     H 9230   2.965   2.796  16.407 -1.5103 -0.4180 -0.5093
  623MPD2    H1 9231   3.318   2.773  16.172  0.6902 -0.1107 -0.2819
  623MPD2    H2 9232   2.946   2.787  15.988  1.9687 -3.6401 -1.2164
  623MPD2    H3 9233   3.195   2.746  15.982  1.6611 -0.1932  1.3718
  623MPD2     N 9234   3.223   2.819  16.427 -0.7435  0.6242 -0.0954
  623MPD2    H5 9235   3.168   2.826  16.512 -1.8037  0.2290 -0.7485
  623MPD2    N1 9236   2.797   2.817  16.220  0.1839 -0.5499  0.8177
  623MPD2    H7 9237   2.769   2.826  16.317 -0.9052 -0.1280  0.4587
  624TMC3    C1 9238   3.557   2.752  16.737 -0.5494 -0.0339 -0.0399
  624TMC3    C2 9239   3.479   2.811  16.835  0.2329  0.5931  0.4415
  624TMC3    C3 9240   3.369   2.878  16.784 -0.3548 -0.7826  0.0979
  624TMC3    C4 9241   3.528   2.743  16.602  0.3042  0.7475 -0.1493
  624TMC3    C5 9242   3.407   2.809  16.569 -0.1507  0.0511  0.1625
  624TMC3    C6 9243   3.327   2.876  16.654  0.6903 -0.4101  0.4134
  624TMC3     C 9244   3.675   2.684  16.779  0.7252  0.9133  0.0865
  624TMC3     O 9245   3.704   2.682  16.899  0.1379 -0.6767 -0.0201
  624TMC3     H 9246   3.515   2.822  16.937 -0.1538  2.0995  0.4157
  624TMC3    H1 9247   3.574   2.678  16.529  0.0674  0.5632 -0.1326
  624TMC3    H2 9248   3.244   2.937  16.621  0.1473 -1.8579 -0.8715
  624TMC3    C7 9249   3.356   2.810  16.430  0.3555  0.3213  0.3126
  624TMC3    C8 9250   3.280   2.954  16.868 -0.0543  0.0546  0.0820
  624TMC3    O1 9251   3.439   2.782  16.345 -0.5286 -0.3595 -0.6317
  624TMC3    O2 9252   3.165   2.967  16.828  0.3423  0.1862 -0.0122
  625MPD2     C 9253   3.259   4.582   1.245  0.0668 -0.1738  0.2273
  625MPD2    C1 9254   3.297   4.642   1.128 -0.9079  0.1668  0.4445
  625MPD2    C2 9255   3.428   4.669   1.102 -0.7560  0.0796 -0.2571
  625MPD2    C3 9256   3.523   4.629   1.203 -0.8920 -0.2887 -0.0934
  625MPD2    C4 9257   3.481   4.569   1.320  0.3687 -0.4950 -0.1998
  625MPD2    C5 9258   3.349   4.550   1.337  0.8036 -0.4000  0.2289
  625MPD2     H 9259   3.457   4.714   1.007  1.3248  2.1219  1.3532
  625MPD2    H1 9260   3.545   4.554   1.406  0.0710  0.6853  0.2252
  625MPD2    H2 9261   3.160   4.539   1.259  0.4306 -1.0588  0.0959
  625MPD2    H3 9262   3.311   4.514   1.432 -0.6572 -0.5844 -0.4269
  625MPD2     N 9263   3.662   4.647   1.177 -0.6696  0.3478  1.1082
  625MPD2    H5 9264   3.684   4.709   1.100  1.8726 -1.6478  0.2380
  625MPD2    N1 9265   3.197   4.683   1.041  0.4608  0.4025 -0.4235
  625MPD2    H7 9266   3.235   4.712   0.951 -0.4778 -2.4148 -1.7117
  626TMC3    C1 9267   2.969   4.711   0.957 -0.1388  0.3314  0.0111
  626TMC3    C2 9268   3.019   4.676   0.833  0.0979  0.1120 -0.0366
  626TMC3    C3 9269   2.923   4.693   0.728  0.8358 -1.1214  0.2369
  626TMC3    C4 9270   2.842   0.035   0.979  0.0244 -0.2173 -0.0715
  626TMC3    C5 9271   2.756   0.052   0.871  0.3390 -0.0228  0.0018
  626TMC3    C6 9272   2.802   0.022   0.747  0.2725 -0.1933 -0.1655
  626TMC3     C 9273   3.059   4.697   1.068  0.1873  0.0546  0.6734
  626TMC3     O 9274   3.009   4.703   1.179  0.1437 -0.2057 -0.6082
  626TMC3     H 9275   3.106   4.612   0.828 -0.4123 -0.6862  1.5063
  626TMC3    H1 9276   2.812   0.058   1.080 -0.2469  0.1967 -0.2453
  626TMC3    H2 9277   2.736   0.045   0.664 -0.0228  0.5045  0.2579
  626TMC3    C7 9278   2.613   0.064   0.903  0.1408 -0.0295 -0.2471
  626TMC3    C8 9279   2.972   4.712   0.593 -0.0203  0.8414  0.3324
  626TMC3    O1 9280   2.591   0.107   1.017 -0.5726 -0.0906 -0.2274
  626TMC3    O2 9281   2.899   0.019   0.494 -0.3527 -0.0299 -0.3402
  627MPD2     C 9282   1.753   4.469  14.876  0.0858 -0.2189  0.3178
  627MPD2    C1 9283   1.869   4.529  14.820  0.5220 -0.9443  0.6627
  627MPD2    C2 9284   1.950   4.445  14.746 -0.3013 -0.6410  0.2084
  627MPD2    C3 9285   1.931   4.309  14.739  0.1567 -0.9454  0.0416
  627MPD2    C4 9286   1.815   4.262  14.786  0.7103  0.4671  0.2193
  627MPD2    C5 9287   1.727   4.340  14.854 -0.7570  0.7554 -0.6008
  627MPD2     H 9288   2.038   4.482  14.696  0.1414  1.3419  2.4255
  627MPD2    H1 9289   1.796   4.156  14.777 -0.1023  0.4388  2.3267
  627MPD2    H2 9290   1.681   4.524  14.937  0.3564  1.4087 -0.8477
  627MPD2    H3 9291   1.649   4.290  14.911  1.7741 -0.8471  1.4872
  627MPD2     N 9292   2.016   4.229  14.664 -0.1760 -0.0054 -1.0533
  627MPD2    H5 9293   2.096   4.284  14.633  0.6392  0.0625  1.2148
  627MPD2    N1 9294   1.906   4.667  14.831 -0.2423 -0.2695  0.4568
  627MPD2    H7 9295   1.999   4.700  14.808  0.4613 -2.3546  0.3318
  628TMC3    C1 9296   1.891   0.167  14.876 -0.1022  0.6491 -0.3041
  628TMC3    C2 9297   2.025   0.171  14.913 -0.5119 -0.2671  0.6149
  628TMC3    C3 9298   2.085   0.292  14.911  0.2833  0.1519  0.2887
  628TMC3    C4 9299   1.828   0.273  14.822 -0.2974 -0.5210  0.5717
  628TMC3    C5 9300   1.897   0.387  14.816 -0.0333 -0.2690 -0.2003
  628TMC3    C6 9301   2.024   0.398  14.854  0.1825  0.3234 -0.6141
  628TMC3     C 9302   1.819   0.042  14.870  0.3408  0.2807 -0.5109
  628TMC3     O 9303   1.697   0.039  14.859  0.2296  0.0236  0.9469
  628TMC3     H 9304   2.060   0.088  14.972  0.8992  0.4471  0.7824
  628TMC3    H1 9305   1.729   0.265  14.779  0.2785  0.8295 -1.0043
  628TMC3    H2 9306   2.053   0.499  14.881  0.1950  0.8247 -2.5255
  628TMC3    C7 9307   1.829   0.495  14.751 -0.1596  0.3547 -0.3912
  628TMC3    C8 9308   2.182   0.320  15.010  0.8222 -0.6400 -0.0564
  628TMC3    O1 9309   1.709   0.502  14.765 -0.2083 -0.0925  0.6971
  628TMC3    O2 9310   2.196   0.436  15.044 -0.5606  0.2586  0.0425
  629MPD2     C 9311   4.505   3.645  16.652  0.1776  0.0876  0.0985
  629MPD2    C1 9312   4.557   3.516  16.635  0.1438  1.1084  0.1271
  629MPD2    C2 9313   4.476   3.413  16.673  0.1285 -0.4065 -0.0076
  629MPD2    C3 9314   4.353   3.434  16.728  0.3668 -0.3421  0.6703
  629MPD2    C4 9315   4.310   3.566  16.758  0.0744 -0.2326  0.1954
  629MPD2    C5 9316   4.387   3.667  16.716 -0.2574  0.6160 -0.6819
  629MPD2     H 9317   4.510   3.314  16.646  1.9550  0.2070  0.0739
  629MPD2    H1 9318   4.224   3.583  16.820 -2.3913 -1.5973 -2.8463
  629MPD2    H2 9319   4.559   3.734  16.623 -0.7956  0.2097 -1.3000
  629MPD2    H3 9320   4.362   3.769  16.740  0.3787  0.3896  0.8951
  629MPD2     N 9321   4.277   3.315  16.760  0.6017 -0.0628 -0.2629
  629MPD2    H5 9322   4.313   3.227  16.727  0.2833  0.2025 -1.3304
  629MPD2    N1 9323   4.690   3.486  16.588 -0.1023 -0.1480  0.0770
  629MPD2    H7 9324   0.003   3.396  16.621  2.7222  1.4996  1.5969
  630TMC3    C1 9325   0.195   3.543  16.527 -0.3018  0.0958 -0.9245
  630TMC3    C2 9326   0.279   3.608  16.445  0.6370 -0.6791  0.1322
  630TMC3    C3 9327   0.413   3.571  16.442 -0.0489 -0.6430  0.5336
  630TMC3    C4 9328   0.234   3.439  16.609  0.3873 -0.2105 -0.3468
  630TMC3    C5 9329   0.363   3.399  16.589 -0.0123 -0.0390 -0.4557
  630TMC3    C6 9330   0.453   3.461  16.513 -0.0711  0.0478  0.3402
  630TMC3     C 9331   0.052   3.583  16.536  0.1342 -0.6790 -0.3390
  630TMC3     O 9332   0.033   3.698  16.499 -0.2154 -0.0966  0.5821
  630TMC3     H 9333   0.244   3.702  16.404 -2.3565 -1.0402  1.8713
  630TMC3    H1 9334   0.178   3.378  16.679  1.1317 -0.2741  0.1981
  630TMC3    H2 9335   0.549   3.413  16.502 -0.0173  0.1740  0.2506
  630TMC3    C7 9336   0.414   3.285  16.669 -0.9492  0.0013  0.1302
  630TMC3    C8 9337   0.513   3.660  16.384 -0.1749 -0.0089 -1.0033
  630TMC3    O1 9338   0.529   3.286  16.704 -0.3039  0.9627 -0.2591
  630TMC3    O2 9339   0.632   3.633  16.411  0.1234  0.1013 -0.3641
  631MPD2     C 9340   3.639   2.760  15.589 -0.3166  0.0970  0.2134
  631MPD2    C1 9341   3.721   2.865  15.612 -0.0592  0.4386 -1.3829
  631MPD2    C2 9342   3.851   2.851  15.650 -0.2639 -0.2623 -0.8458
  631MPD2    C3 9343   3.899   2.728  15.686 -0.6040 -0.0072 -0.9013
  631MPD2    C4 9344   3.820   2.618  15.671 -0.1575 -0.0782  0.3280
  631MPD2    C5 9345   3.694   2.636  15.617 -0.7841  0.4150 -0.4814
  631MPD2     H 9346   3.909   2.941  15.663 -1.4688  0.4422 -0.3765
  631MPD2    H1 9347   3.858   2.518  15.693 -2.9066 -1.0594  0.5759
  631MPD2    H2 9348   3.539   2.762  15.548 -0.6121  2.3601  1.0364
  631MPD2    H3 9349   3.634   2.546  15.608  0.7489 -0.3858 -2.6678
  631MPD2     N 9350   4.030   2.719  15.741 -0.2821 -0.0285  0.1183
  631MPD2    H5 9351   4.088   2.803  15.747  1.3603 -1.0066 -2.0677
  631MPD2    N1 9352   3.670   2.995  15.574  0.1328 -0.4282 -0.1025
  631MPD2    H7 9353   3.580   2.999  15.527  1.7166  1.6080 -2.9120
  632TMC3    C1 9354   3.645   3.217  15.556  0.0700 -0.3273 -0.6190
  632TMC3    C2 9355   3.624   3.321  15.631 -0.0504 -0.1653 -0.0155
  632TMC3    C3 9356   3.569   3.427  15.574  0.3443 -0.7331  0.2750
  632TMC3    C4 9357   3.647   3.218  15.417 -0.4127  0.0295 -0.6350
  632TMC3    C5 9358   3.610   3.340  15.360 -0.4953  0.5310  0.2960
  632TMC3    C6 9359   3.561   3.443  15.435 -0.9090  0.6809  0.3891
  632TMC3     C 9360   3.720   3.112  15.621 -0.0437 -0.5901 -0.3806
  632TMC3     O 9361   3.809   3.143  15.698  0.2005  0.1961  0.0599
  632TMC3     H 9362   3.614   3.303  15.737  2.3807 -1.8193 -0.0534
  632TMC3    H1 9363   3.691   3.131  15.368 -0.6173 -1.6590  2.1884
  632TMC3    H2 9364   3.503   3.523  15.390  1.0427  1.0596 -1.4842
  632TMC3    C7 9365   3.644   3.364  15.219  1.2544 -0.0811 -0.7122
  632TMC3    C8 9366   3.529   3.539  15.656 -0.2109 -0.4984 -0.0292
  632TMC3    O1 9367   3.663   3.264  15.158 -0.0751 -0.0545  0.0158
  632TMC3    O2 9368   3.493   3.522  15.772 -0.0812  0.7046 -0.0142
  633MPD2     C 9369   3.164   0.850  17.419  0.3378  0.5372  0.7471
  633MPD2    C1 9370   3.257   0.814  17.327  0.9756  0.3587  0.7640
  633MPD2    C2 9371   3.340   0.710  17.338  0.1535 -0.4227  0.4278
  633MPD2    C3 9372   3.318   0.618  17.439 -0.0178 -0.2959  0.4691
  633MPD2    C4 9373   3.223   0.649  17.531  0.2647  0.6318  0.3248
  633MPD2    C5 9374   3.150   0.761  17.523  0.5189  0.8801 -0.1754
  633MPD2     H 9375   3.418   0.703  17.264  1.6276  0.3593  1.9087
  633MPD2    H1 9376   3.195   0.594  17.621  0.8613 -1.9616 -1.0970
  633MPD2    H2 9377   3.106   0.941  17.432  2.0849  1.8205 -0.3466
  633MPD2    H3 9378   3.080   0.778  17.604  0.6327 -2.0102  0.4977
  633MPD2     N 9379   3.374   0.486  17.438 -0.1873  0.0537  0.5495
  633MPD2    H5 9380   3.335   0.416  17.500 -0.2202 -1.9459 -1.7397
  633MPD2    N1 9381   3.288   0.904  17.220 -0.4636 -0.1629  0.7398
  633MPD2    H7 9382   3.370   0.881  17.165 -2.7272 -1.6116 -2.0012
  634TMC3    C1 9383   3.260   1.094  17.081  0.7745 -0.3965  0.9388
  634TMC3    C2 9384   3.282   1.011  16.977 -0.0622  0.4622  0.2025
  634TMC3    C3 9385   3.284   1.062  16.851 -0.7666 -0.1421  0.4357
  634TMC3    C4 9386   3.255   1.231  17.072  0.4512  0.7215  0.9036
  634TMC3    C5 9387   3.258   1.279  16.944 -0.3844 -0.3138  1.1130
  634TMC3    C6 9388   3.277   1.197  16.834 -0.2791 -0.6593 -0.1587
  634TMC3     C 9389   3.226   1.028  17.209  0.3810  0.2062  0.8812
  634TMC3     O 9390   3.164   1.100  17.286 -0.3365 -0.3082  0.7789
  634TMC3     H 9391   3.282   0.904  16.995 -1.2461 -0.2298 -3.7827
  634TMC3    H1 9392   3.249   1.299  17.156 -2.1598 -1.3574  2.4116
  634TMC3    H2 9393   3.281   1.245  16.736 -0.7618 -0.7328 -0.2165
  634TMC3    C7 9394   3.220   1.414  16.914 -1.0523  0.3869  0.4486
  634TMC3    C8 9395   3.281   0.969  16.737 -0.0449 -1.1372 -0.2080
  634TMC3    O1 9396   3.228   1.452  16.800 -0.2413  0.5466  0.0642
  634TMC3    O2 9397   3.266   0.849  16.760 -0.0205  0.2776 -0.0340
  635TMC3    C1 9398   3.345   2.186   0.680 -0.2533  0.5607  0.6065
  635TMC3    C2 9399   3.340   2.150   0.543 -0.3665  0.2816  0.8581
  635TMC3    C3 9400   3.317   2.017   0.511 -0.0259 -0.0326 -0.3703
  635TMC3    C4 9401   3.320   2.086   0.775  0.3973 -0.7215 -0.3233
  635TMC3    C5 9402   3.286   1.961   0.734 -0.0494 -0.2010 -0.6212
  635TMC3    C6 9403   3.282   1.920   0.605  0.5294  1.0539 -0.4444
  635TMC3     C 9404   3.346   2.326   0.718  0.3053  0.5006  0.0325
  635TMC3     O 9405   3.364   2.351   0.834  0.4789 -0.1402 -0.2753
  635TMC3     H 9406   3.370   2.210   0.458  0.8547 -1.4038  0.1024
  635TMC3    H1 9407   3.311   2.117   0.878 -2.4467 -1.4221 -0.3476
  635TMC3    H2 9408   3.281   1.815   0.580 -0.5730  0.5320  1.8070
  635TMC3    C7 9409   3.305   1.862   0.840  0.2103 -0.2920 -0.4425
  635TMC3    C8 9410   3.382   1.975   0.388 -0.7357  0.7230 -0.1494
  635TMC3    O1 9411   3.392   1.883   0.918  0.2565  0.1609  0.3638
  635TMC3    O2 9412   3.454   2.057   0.334  0.7204 -0.0987  0.0976
  636MPD2     C 9413   4.438   1.177  16.018 -0.5579  0.3902  0.6063
  636MPD2    C1 9414   4.501   1.263  16.105 -0.4634 -0.2633 -0.5813
  636MPD2    C2 9415   4.591   1.210  16.194 -0.0825 -0.7022 -0.0983
  636MPD2    C3 9416   4.613   1.076  16.211  0.0298 -0.6021 -0.7777
  636MPD2    C4 9417   4.563   0.993  16.117 -0.2183  0.5187  0.0309
  636MPD2    C5 9418   4.475   1.042  16.023  0.4466  0.4714 -0.5671
  636MPD2     H 9419   4.637   1.272  16.271  0.8494 -0.5850 -0.7533
  636MPD2    H1 9420   4.591   0.888  16.120 -0.0487  0.5622 -0.0431
  636MPD2    H2 9421   4.373   1.211  15.938  1.4605 -1.5299 -1.8632
  636MPD2    H3 9422   4.430   0.977  15.949  0.2806  0.1912 -0.2225
  636MPD2     N 9423   4.696   1.027  16.313  0.0913  1.0585 -0.1139
  636MPD2    H5 9424   0.005   1.096  16.381  2.2827  2.0402 -2.0836
  636MPD2    N1 9425   4.471   1.399  16.118  0.0602  0.1981 -0.3405
  636MPD2    H7 9426   4.500   1.446  16.203 -0.4391 -1.2774  0.6489
  637TMC3    C1 9427   0.063   0.894  16.483  0.4286 -0.2116 -0.1649
  637TMC3    C2 9428   0.053   0.995  16.577 -0.5558  0.3448  0.2168
  637TMC3    C3 9429   0.109   0.979  16.705 -1.0661 -0.2832  0.0438
  637TMC3    C4 9430   0.127   0.775  16.514 -0.4789 -0.6825  0.0161
  637TMC3    C5 9431   0.190   0.768  16.637  1.1739  0.1730  0.2709
  637TMC3    C6 9432   0.174   0.861  16.734  0.7262 -0.7195  0.1570
  637TMC3     C 9433   0.002   0.904  16.354  0.2011  0.3451 -0.3326
  637TMC3     O 9434   4.693   0.796  16.309 -0.3875 -0.4899  0.3263
  637TMC3     H 9435   4.708   1.081  16.575  0.2254  0.9631  0.7420
  637TMC3    H1 9436   0.138   0.706  16.431 -0.2309  1.2146 -1.5399
  637TMC3    H2 9437   0.224   0.845  16.828  0.2741  0.8068  0.6431
  637TMC3    C7 9438   0.295   0.670  16.674 -0.0949 -0.3235  0.6109
  637TMC3    C8 9439   0.160   1.099  16.768  0.4468 -0.4751  0.1460
  637TMC3    O1 9440   0.291   0.623  16.784 -0.0855 -0.1274  0.0333
  637TMC3    O2 9441   0.183   1.200  16.700  0.4045  0.2254 -0.4498
  638MPD2     C 9442   4.502   0.176  15.194  0.1342 -0.2768  0.0545
  638MPD2    C1 9443   4.487   0.082  15.097 -0.9576 -0.1029  1.1893
  638MPD2    C2 9444   4.458   4.675  15.139  0.8985  0.7490 -0.7406
  638MPD2    C3 9445   4.453   4.638  15.274  0.3230  0.1451  0.4540
  638MPD2    C4 9446   4.461   0.014  15.368  0.8212 -0.5020  0.1151
  638MPD2    C5 9447   4.484   0.142  15.325 -0.4302  0.4222 -0.2253
  638MPD2     H 9448   4.471   4.598  15.064 -1.3363 -0.4800  0.1225
  638MPD2    H1 9449   4.463   4.709  15.473  2.4769 -1.8283 -0.2484
  638MPD2    H2 9450   4.534   0.278  15.173 -0.5115  0.1710  1.2804
  638MPD2    H3 9451   4.497   0.224  15.395 -1.3481  1.4990 -1.2906
  638MPD2     N 9452   4.438   4.497  15.296  0.8110 -1.0975 -0.1946
  638MPD2    H5 9453   4.411   4.435  15.220 -2.3271  1.7743 -1.4336
  638MPD2    N1 9454   4.505   0.117  14.956 -0.7378  0.5438  0.2541
  638MPD2    H7 9455   4.546   0.204  14.925 -0.3912 -0.9300 -3.4009
  639TMC3    C1 9456   4.471   4.293  15.402 -0.1374 -0.3775  0.2976
  639TMC3    C2 9457   4.349   4.233  15.369 -0.8533  0.9374 -0.7298
  639TMC3    C3 9458   4.348   4.101  15.348  0.3673  0.1892  0.2766
  639TMC3    C4 9459   4.587   4.225  15.421  0.9979 -0.1296 -0.0200
  639TMC3    C5 9460   4.588   4.094  15.383 -0.5727  0.1983  0.3749
  639TMC3    C6 9461   4.467   4.029  15.352 -0.4700  0.7699 -0.5751
  639TMC3     C 9462   4.474   4.436  15.414  0.3296 -0.4150  0.0310
  639TMC3     O 9463   4.510   4.483  15.520 -0.6826  0.5211 -0.1656
  639TMC3     H 9464   4.264   4.292  15.337  0.2808  2.8737 -0.1900
  639TMC3    H1 9465   4.673   4.273  15.466 -0.1619  0.1403  1.9223
  639TMC3    H2 9466   4.473   3.932  15.304  1.3894  0.2952  0.5906
  639TMC3    C7 9467   4.713   4.024  15.350  0.4303  0.7024  0.4504
  639TMC3    C8 9468   4.243   4.045  15.263  0.0278 -0.2750  0.4960
  639TMC3    O1 9469   4.698   3.907  15.313 -0.0856  0.1658  0.0182
  639TMC3    O2 9470   4.280   3.965  15.178  0.3302 -0.4269  0.6129
  640MPD2     C 9471   0.601   2.984  10.230 -0.8645 -0.2515 -0.5506
  640MPD2    C1 9472   0.626   3.039  10.106 -0.2854  0.1621  0.1808
  640MPD2    C2 9473   0.568   3.162  10.078 -0.4343 -0.4485 -0.0562
  640MPD2    C3 9474   0.478   3.225  10.167 -0.5075  0.1745  0.4610
  640MPD2    C4 9475   0.462   3.169  10.291  0.0125 -0.1245  0.0554
  640MPD2    C5 9476   0.516   3.049  10.318  0.2835 -0.3148 -0.3895
  640MPD2     H 9477   0.592   3.211   9.985 -1.2079  0.2813  0.1388
  640MPD2    H1 9478   0.403   3.215  10.369  1.0770 -1.3840  1.5943
  640MPD2    H2 9479   0.635   2.885  10.257  2.0791  1.0611  0.5291
  640MPD2    H3 9480   0.479   3.013  10.414  1.9301  2.4688  1.2849
  640MPD2     N 9481   0.407   3.349  10.135  0.8009  0.3734 -0.1228
  640MPD2    H5 9482   0.331   3.372  10.199  0.7608 -1.2008  0.3864
  640MPD2    N1 9483   0.700   2.963  10.010 -0.2882 -0.0953 -0.2474
  640MPD2    H7 9484   0.749   2.883  10.047 -0.5640  0.1471  0.6465
  641TMC3    C1 9485   0.772   2.882   9.798 -0.4189 -0.2810  0.2006
  641TMC3    C2 9486   0.859   2.792   9.851  0.3220  0.3312  0.4273
  641TMC3    C3 9487   0.893   2.685   9.764  0.0132 -0.1767 -0.7679
  641TMC3    C4 9488   0.729   2.862   9.670 -0.1556  0.3644 -0.4998
  641TMC3    C5 9489   0.761   2.756   9.589  0.1642  0.2112  0.0002
  641TMC3    C6 9490   0.856   2.670   9.632  0.3233 -0.2379  0.3529
  641TMC3     C 9491   0.690   2.976   9.871 -0.2503 -0.3864 -0.9003
  641TMC3     O 9492   0.636   3.066   9.806  0.0777 -0.4713  0.0185
  641TMC3     H 9493   0.896   2.799   9.952  0.4699  0.7143  0.3444
  641TMC3    H1 9494   0.655   2.934   9.637 -1.3530 -1.1090 -1.0354
  641TMC3    H2 9495   0.887   2.582   9.578 -1.7651 -0.7473 -0.0359
  641TMC3    C7 9496   0.798   2.789   9.457  0.2268  0.3326 -0.0370
  641TMC3    C8 9497   0.993   2.586   9.802 -0.2245  0.2452 -0.2796
  641TMC3    O1 9498   0.895   2.733   9.410 -0.0551  0.1228 -0.1335
  641TMC3    O2 9499   1.058   2.534   9.711 -0.7038  0.2219 -0.3525
  642TMC3    C1 9500   1.153   0.016  12.029  0.1543 -0.5176 -0.3880
  642TMC3    C2 9501   1.260   0.054  12.104 -0.3276 -0.4313  0.1090
  642TMC3    C3 9502   1.356   4.684  12.130 -0.3829  0.0315  0.2318
  642TMC3    C4 9503   1.144   4.610  11.974 -0.1795  0.2981 -0.8324
  642TMC3    C5 9504   1.243   4.521  12.007 -0.2809 -0.2284  0.8427
  642TMC3    C6 9505   1.347   4.553  12.089 -0.7709  0.4528 -0.6357
  642TMC3     C 9506   1.050   0.117  12.010 -0.0571  0.6129  0.1336
  642TMC3     O 9507   0.986   0.102  11.913  0.4664 -0.0625  0.1922
  642TMC3     H 9508   1.283   0.152  12.145  0.8911 -0.7499  0.1828
  642TMC3    H1 9509   1.054   4.569  11.929  0.7892 -1.7638 -0.9064
  642TMC3    H2 9510   1.424   4.478  12.106 -0.9250  0.3593 -0.3549
  642TMC3    C7 9511   1.195   4.383  12.027  0.0963 -0.0521  0.3221
  642TMC3    C8 9512   1.456   4.717  12.231 -0.0362 -0.2504 -0.0848
  642TMC3    O1 9513   1.102   4.334  11.967  0.1996 -0.1739  0.8984
  642TMC3    O2 9514   1.415   0.074  12.314  0.1829 -0.0306 -0.4309
  643TMC3    C1 9515   0.444   4.320   0.855 -0.3792  0.0886 -0.1717
  643TMC3    C2 9516   0.346   4.328   0.760 -0.1462 -0.0775  0.6302
  643TMC3    C3 9517   0.320   4.215   0.685  0.0050 -0.3038 -0.5316
  643TMC3    C4 9518   0.514   4.200   0.881  0.1175 -0.5622  0.0042
  643TMC3    C5 9519   0.483   4.095   0.802  0.2339 -0.8410  0.3447
  643TMC3    C6 9520   0.385   4.099   0.709  0.0153 -0.5367 -0.4952
  643TMC3     C 9521   0.476   4.448   0.915 -0.5213 -0.4837  0.0773
  643TMC3     O 9522   0.418   4.545   0.872  0.0256 -0.3690 -0.7474
  643TMC3     H 9523   0.276   4.411   0.757 -2.2286 -1.8896 -0.6482
  643TMC3    H1 9524   0.597   4.189   0.950  1.2684  2.0984 -0.9494
  643TMC3    H2 9525   0.361   4.014   0.646 -2.2069  0.3276 -0.8366
  643TMC3    C7 9526   0.600   4.028   0.754  0.5245  0.2069  0.1598
  643TMC3    C8 9527   0.257   4.229   0.554 -0.0035  0.0527  0.6208
  643TMC3    O1 9528   0.689   4.001   0.834  0.3601 -0.2226 -0.3015
  643TMC3    O2 9529   0.215   4.128   0.501 -0.0660 -0.3168 -0.0060
  644MPD2     C 9530   0.648   3.241   9.445  0.2814  0.1095 -0.5157
  644MPD2    C1 9531   0.762   3.302   9.387 -0.9787  0.0304 -0.3793
  644MPD2    C2 9532   0.751   3.418   9.305  0.0176 -0.0205  0.0475
  644MPD2    C3 9533   0.623   3.476   9.295  0.3752  0.0767  0.1318
  644MPD2    C4 9534   0.517   3.408   9.351  0.2296 -0.2863 -0.3667
  644MPD2    C5 9535   0.527   3.290   9.419 -0.6880 -0.0100  0.0747
  644MPD2     H 9536   0.838   3.471   9.270 -0.7051  0.5554 -0.8762
  644MPD2    H1 9537   0.412   3.429   9.330  0.0416 -0.4790  0.3727
  644MPD2    H2 9538   0.655   3.150   9.502  0.3562  0.2437 -0.3127
  644MPD2    H3 9539   0.438   3.243   9.458  1.0760 -2.9367  0.6017
  644MPD2     N 9540   0.610   3.599   9.218  0.1018  0.1755  0.5639
  644MPD2    H5 9541   0.696   3.634   9.176  1.5308 -0.3777  2.9818
  644MPD2    N1 9542   0.882   3.229   9.406 -0.4649 -0.2252 -0.2885
  644MPD2    H7 9543   0.866   3.140   9.453 -1.8542 -0.7185 -1.7209
  645TMC3    C1 9544   0.498   3.773   9.092 -0.0309 -0.0591 -0.6004
  645TMC3    C2 9545   0.602   3.863   9.106  0.5786 -0.7702 -0.0096
  645TMC3    C3 9546   0.587   3.975   9.031 -0.4284 -0.6038 -0.5622
  645TMC3    C4 9547   0.379   3.816   9.050  0.2429  0.4524 -0.3863
  645TMC3    C5 9548   0.370   3.923   8.970  0.0653 -0.6953 -0.3022
  645TMC3    C6 9549   0.473   4.012   8.957  0.1533 -0.1562 -0.0474
  645TMC3     C 9550   0.490   3.648   9.175 -0.4372 -0.5878  0.1797
  645TMC3     O 9551   0.376   3.606   9.193  0.4938 -0.1170  0.0933
  645TMC3     H 9552   0.685   3.850   9.173 -0.8221 -0.8043  1.7118
  645TMC3    H1 9553   0.300   3.742   9.049  0.4406  0.1829  2.7774
  645TMC3    H2 9554   0.482   4.095   8.888 -1.6406 -0.0695 -0.1672
  645TMC3    C7 9555   0.240   3.952   8.912  0.1976  0.7441  0.4656
  645TMC3    C8 9556   0.708   4.057   9.024 -0.3948 -0.3016 -0.2480
  645TMC3    O1 9557   0.166   3.857   8.887  0.3158 -0.5166 -0.6620
  645TMC3    O2 9558   0.806   4.002   9.070  0.4705 -0.2547  0.0269
  646MPD2     C 9559   4.550   3.572  14.461  0.0995 -0.1503  0.1929
  646MPD2    C1 9560   4.475   3.550  14.574 -0.1405 -0.4746  0.0079
  646MPD2    C2 9561   4.348   3.613  14.589 -0.3896 -0.0884 -0.0710
  646MPD2    C3 9562   4.300   3.698  14.485  0.1681 -0.2532  0.2110
  646MPD2    C4 9563   4.380   3.720  14.374 -0.4984  0.2802  0.3163
  646MPD2    C5 9564   4.501   3.663  14.370 -0.3881 -0.6125 -0.0777
  646MPD2     H 9565   4.285   3.606  14.677 -0.6889 -1.5280 -0.3965
  646MPD2    H1 9566   4.350   3.782  14.290  1.3720  0.9242  0.1460
  646MPD2    H2 9567   4.655   3.551  14.444  0.0209  1.5566 -2.4004
  646MPD2    H3 9568   4.561   3.683  14.281  0.2594 -0.6290  0.3503
  646MPD2     N 9569   4.172   3.763  14.501 -0.1624 -0.1521 -0.3538
  646MPD2    H5 9570   4.103   3.733  14.569  1.5384  1.1329  1.9523
  646MPD2    N1 9571   4.524   3.461  14.677 -0.2471 -0.5508  0.0042
  646MPD2    H7 9572   4.617   3.422  14.667  0.5418  1.2022  0.5700
  647TMC3    C1 9573   4.531   3.339  14.870 -0.4768 -0.4097  0.1223
  647TMC3    C2 9574   4.470   3.270  14.972 -0.7106  0.0547  0.4434
  647TMC3    C3 9575   4.534   3.243  15.086  0.1251 -0.1744  0.3365
  647TMC3    C4 9576   4.664   3.364  14.884  0.3046 -0.4067  0.3737
  647TMC3    C5 9577   0.013   3.322  15.000 -0.1466  0.3093 -0.0549
  647TMC3    C6 9578   4.670   3.268  15.105 -0.1411 -0.0970 -0.1982
  647TMC3     C 9579   4.448   3.411  14.781 -0.1081  0.3268 -0.0094
  647TMC3     O 9580   4.328   3.407  14.796 -0.1471 -0.4388  0.2405
  647TMC3     H 9581   4.365   3.249  14.956 -1.5735  2.4782  2.9335
  647TMC3    H1 9582   0.003   3.417  14.812 -0.9396  2.3545  1.3417
  647TMC3    H2 9583   0.000   3.242  15.196  1.0811  1.0571 -0.5631
  647TMC3    C7 9584   0.161   3.324  15.008  0.3079 -0.4189 -0.0935
  647TMC3    C8 9585   4.477   3.158  15.189 -0.3063  0.8092  0.5971
  647TMC3    O1 9586   0.203   3.283  15.115 -0.4893  0.0184  0.1555
  647TMC3    O2 9587   4.551   3.120  15.278 -0.3770  1.0281 -0.5808
  648TMC3    C1 9588   3.620   1.179  16.220 -0.3317  0.4690  0.1369
  648TMC3    C2 9589   3.678   1.080  16.150 -0.1673  0.5760 -0.0878
  648TMC3    C3 9590   3.639   1.076  16.018  0.0186 -0.0937 -0.2335
  648TMC3    C4 9591   3.545   1.280  16.166  0.3861  0.0057  0.1150
  648TMC3    C5 9592   3.530   1.280  16.026 -0.6572  0.1891 -0.5990
  648TMC3    C6 9593   3.569   1.173  15.958 -0.0107  0.6695 -0.0788
  648TMC3     C 9594   3.650   1.177  16.360 -0.0547  0.0209 -0.2381
  648TMC3     O 9595   3.653   1.287  16.416 -0.1302 -0.0569  0.2083
  648TMC3     H 9596   3.730   0.996  16.195  0.5199  1.0399 -0.0212
  648TMC3    H1 9597   3.507   1.365  16.221 -0.1206  1.0695 -1.8800
  648TMC3    H2 9598   3.556   1.164  15.850 -2.2725  1.2546  0.1472
  648TMC3    C7 9599   3.443   1.384  15.961 -0.4734  0.3925 -0.0112
  648TMC3    C8 9600   3.610   0.944  15.969  0.0535 -0.3759  1.0438
  648TMC3    O1 9601   3.445   1.386  15.838 -0.8474 -0.6023  0.4361
  648TMC3    O2 9602   3.526   0.930  15.883 -0.1062 -0.0680  0.2800
  649TMC3    C1 9603   3.077   2.543  12.620  0.4790  0.4054 -0.2997
  649TMC3    C2 9604   3.190   2.620  12.583 -0.4018  0.7152  0.6756
  649TMC3    C3 9605   3.289   2.638  12.674 -0.3305  0.2295  0.0570
  649TMC3    C4 9606   3.072   2.476  12.738  0.1933  0.2417 -0.1864
  649TMC3    C5 9607   3.190   2.483  12.816 -0.1015  0.7299  0.3034
  649TMC3    C6 9608   3.285   2.577  12.796 -0.7759  0.2934  0.6214
  649TMC3     C 9609   2.958   2.537  12.541 -0.3897  0.4131 -0.4974
  649TMC3     O 9610   2.860   2.476  12.592  0.3382  0.1786 -0.0230
  649TMC3     H 9611   3.192   2.676  12.491  0.0173 -1.4744 -0.6631
  649TMC3    H1 9612   2.996   2.402  12.759 -0.1201  0.5171 -0.3523
  649TMC3    H2 9613   3.360   2.605  12.869  1.3031 -2.0950 -0.6058
  649TMC3    C7 9614   3.198   2.394  12.931 -0.0714 -0.0419 -0.3448
  649TMC3    C8 9615   3.372   2.758  12.664 -0.0888 -0.0553  0.2268
  649TMC3    O1 9616   3.088   2.358  12.977  0.6330  0.0114 -0.0650
  649TMC3    O2 9617   3.452   2.770  12.753  0.8520 -0.1801  0.1129
  650TMC3    C1 9618   0.661   4.094  12.743 -0.3348 -0.2459 -0.8770
  650TMC3    C2 9619   0.605   4.212  12.779 -0.7786 -0.0050  0.5921
  650TMC3    C3 9620   0.618   4.303  12.674  0.1525 -0.2465  0.0511
  650TMC3    C4 9621   0.716   4.061  12.613  0.0011 -0.5034 -0.0345
  650TMC3    C5 9622   0.709   4.157  12.514  0.6458  0.0583  0.1913
  650TMC3    C6 9623   0.662   4.277  12.552  0.0570 -0.4513 -0.1709
  650TMC3     C 9624   0.626   3.979  12.828  0.2785  0.6404  0.1162
  650TMC3     O 9625   0.527   3.979  12.900  0.4958  0.1311 -0.3626
  650TMC3     H 9626   0.550   4.229  12.871 -1.3196  1.9896 -0.1008
  650TMC3    H1 9627   0.749   3.962  12.583 -0.8781  0.1889 -3.2664
  650TMC3    H2 9628   0.673   4.367  12.492  0.6422  0.1446  0.8359
  650TMC3    C7 9629   0.746   4.101  12.385 -0.0681  0.0181  0.3393
  650TMC3    C8 9630   0.657   4.437  12.727  0.1932 -0.2497 -0.4567
  650TMC3    O1 9631   0.734   3.983  12.351  0.2855 -0.2305  0.0664
  650TMC3    O2 9632   0.669   4.532  12.651 -0.0569 -0.3035  0.3235
  651MPD2     C 9633   4.456   0.632  10.489  0.7300  0.4341 -0.1271
  651MPD2    C1 9634   4.451   0.762  10.546  0.2003 -0.2297  0.4783
  651MPD2    C2 9635   4.554   0.849  10.528  0.1138  0.2423 -0.3233
  651MPD2    C3 9636   4.668   0.814  10.460  0.1972  0.1434 -1.3265
  651MPD2    C4 9637   4.679   0.685  10.408  0.1174 -0.2218  0.3131
  651MPD2    C5 9638   4.571   0.601  10.420 -0.6736 -0.0213 -0.4082
  651MPD2     H 9639   4.552   0.948  10.571  0.9102  1.4364 -3.0278
  651MPD2    H1 9640   0.049   0.648  10.365 -0.2776  0.6402 -1.3031
  651MPD2    H2 9641   4.376   0.560  10.476  0.6832  0.4790 -0.0903
  651MPD2    H3 9642   4.574   0.500  10.380  1.4076  0.1836 -0.7617
  651MPD2     N 9643   0.052   0.910  10.449 -0.2508 -0.1735 -0.4195
  651MPD2    H5 9644   0.038   1.003  10.489  2.0505 -0.1952  0.4438
  651MPD2    N1 9645   4.338   0.807  10.623  0.0656  0.4685  0.2343
  651MPD2    H7 9646   4.358   0.889  10.679 -0.2630  0.9151 -0.3038
  652TMC3    C1 9647   0.490   1.075  10.404  0.3700  0.5788 -0.4114
  652TMC3    C2 9648   0.401   0.974  10.393  0.3723 -0.0572 -0.3507
  652TMC3    C3 9649   0.271   0.992  10.433 -0.3066 -1.0380 -0.1593
  652TMC3    C4 9650   0.451   1.191  10.467 -0.3053 -0.9646  0.5741
  652TMC3    C5 9651   0.327   1.198  10.511 -0.1278 -0.4120 -0.4302
  652TMC3    C6 9652   0.232   1.109  10.490  0.0578 -0.2050 -0.0999
  652TMC3     C 9653   0.625   1.041  10.440  0.1261 -0.3831 -1.1396
  652TMC3     O 9654   0.647   0.946  10.515  0.1323 -0.1184  0.5497
  652TMC3     H 9655   0.422   0.878  10.347  1.5153 -1.1202  2.3989
  652TMC3    H1 9656   0.523   1.268  10.494  0.8076 -2.4444  1.8720
  652TMC3    H2 9657   0.140   1.128  10.543  0.3097  2.3312 -0.5863
  652TMC3    C7 9658   0.292   1.295  10.613 -0.5018 -0.1812 -0.5903
  652TMC3    C8 9659   0.175   0.884  10.405 -0.4360 -0.5415  0.8331
  652TMC3    O1 9660   0.173   1.318  10.632 -0.4937 -0.6231 -0.1544
  652TMC3    O2 9661   0.228   0.777  10.367  0.0194  0.0995  0.0222
  653MPD2     C 9662   2.857   1.256   0.214 -0.0445 -0.0335 -0.8557
  653MPD2    C1 9663   2.876   1.322   0.092 -0.1976 -0.1504  0.0892
  653MPD2    C2 9664   2.842   1.255  17.664  0.2846  0.6081  0.0565
  653MPD2    C3 9665   2.792   1.124  17.670  1.0169  0.3720  0.3956
  653MPD2    C4 9666   2.768   1.062   0.098 -0.0893 -0.1215  0.2562
  653MPD2    C5 9667   2.803   1.132   0.213  0.2241  0.5403 -0.1471
  653MPD2     H 9668   2.855   1.301  17.566 -0.2309  0.3989 -0.1086
  653MPD2    H1 9669   2.712   0.970   0.102  1.9452 -1.3734 -0.3463
  653MPD2    H2 9670   2.868   1.302   0.312  1.3567 -0.6640 -0.7259
  653MPD2    H3 9671   2.791   1.083   0.309  0.4099 -0.7362 -0.7732
  653MPD2     N 9672   2.754   1.075  17.538  0.5024  0.4969  0.6549
  653MPD2    H5 9673   2.774   1.132  17.456  0.9717  0.5693  0.8157
  653MPD2    N1 9674   2.930   1.452   0.073  0.0667 -0.3002 -0.6367
  653MPD2    H7 9675   2.920   1.497  17.672 -2.3211 -0.4395 -0.4290
  654TMC3    C1 9676   2.678   0.920  17.374  0.4744 -0.1220  0.0842
  654TMC3    C2 9677   2.616   1.018  17.295  0.2159  0.3202  0.1733
  654TMC3    C3 9678   2.538   0.980  17.189  0.3723 -0.1388  0.2590
  654TMC3    C4 9679   2.662   0.789  17.341 -0.5238 -0.1392  0.2989
  654TMC3    C5 9680   2.590   0.759  17.226 -0.1947  0.4890  0.9483
  654TMC3    C6 9681   2.509   0.848  17.160 -0.2119  0.0714 -0.5526
  654TMC3     C 9682   2.716   0.948  17.512  0.1720 -0.0429 -0.6460
  654TMC3     O 9683   2.703   0.857  17.589 -0.9780  0.6499 -0.3003
  654TMC3     H 9684   2.649   1.120  17.309  1.5866 -0.4373  2.4658
  654TMC3    H1 9685   2.697   0.711  17.407  0.9242 -0.2881 -0.6562
  654TMC3    H2 9686   2.439   0.811  17.086 -0.9692  1.5053 -0.5559
  654TMC3    C7 9687   2.573   0.619  17.184  0.3028  0.2139  0.4406
  654TMC3    C8 9688   2.457   1.083  17.124  0.4475 -0.3664 -0.1093
  654TMC3    O1 9689   2.491   0.596  17.096 -0.0808  0.4404 -0.1037
  654TMC3    O2 9690   2.438   1.187  17.189  0.1198 -0.0480 -0.2361
  655MPD2     C 9691   4.023   1.223  15.937 -0.0087  1.0969  0.6151
  655MPD2    C1 9692   3.921   1.265  15.856 -0.5221  1.1020 -0.7555
  655MPD2    C2 9693   3.869   1.182  15.756 -0.5393  0.3608  1.0632
  655MPD2    C3 9694   3.920   1.058  15.738 -0.2935 -0.0039  0.7629
  655MPD2    C4 9695   4.033   1.020  15.811  0.0215  0.0694  0.7405
  655MPD2    C5 9696   4.082   1.102  15.914 -0.2195 -0.5900  0.3387
  655MPD2     H 9697   3.777   1.202  15.703 -0.6217 -1.0173  0.6866
  655MPD2    H1 9698   4.083   0.924  15.804  0.9598  0.5351  1.1262
  655MPD2    H2 9699   4.071   1.287  16.010  1.8539  1.8435 -1.2999
  655MPD2    H3 9700   4.161   1.068  15.980  0.7338  0.1407 -0.4334
  655MPD2     N 9701   3.867   0.965  15.641 -0.5809 -0.4335  0.0490
  655MPD2    H5 9702   3.919   0.880  15.617 -0.0612  0.3003 -1.4519
  655MPD2    N1 9703   3.878   1.397  15.875 -0.0879 -0.7605 -0.1373
  655MPD2    H7 9704   3.912   1.449  15.955  0.5952 -0.8226 -0.3845
  656TMC3    C1 9705   3.730   1.582  15.837  0.1802 -0.5055 -0.6746
  656TMC3    C2 9706   3.742   1.613  15.972 -0.6615 -0.0800  0.3923
  656TMC3    C3 9707   3.660   1.708  16.022 -0.3297  0.2291  0.2429
  656TMC3    C4 9708   3.675   1.658  15.745 -0.2735 -0.0606  0.5811
  656TMC3    C5 9709   3.587   1.756  15.804  0.6942  0.5620  0.3892
  656TMC3    C6 9710   3.573   1.773  15.940 -0.7528 -0.4708  0.0731
  656TMC3     C 9711   3.794   1.459  15.787  0.6085 -0.0306 -0.2630
  656TMC3     O 9712   3.785   1.433  15.670 -0.4782  0.4973  0.6235
  656TMC3     H 9713   3.793   1.544  16.039  1.7057  1.8951  0.6060
  656TMC3    H1 9714   3.691   1.658  15.638 -0.9265  2.8648  0.4793
  656TMC3    H2 9715   3.512   1.849  15.988  0.3349  0.1716  0.4425
  656TMC3    C7 9716   3.506   1.837  15.715 -0.0439 -0.3752 -0.8133
  656TMC3    C8 9717   3.615   1.669  16.163 -0.2814  0.4597  0.1312
  656TMC3    O1 9718   3.498   1.804  15.597 -0.2842  0.0444 -0.1629
  656TMC3    O2 9719   3.654   1.559  16.197  0.1064  0.2634 -0.1525
  657TMC3    C1 9720   2.993   0.302  15.399  0.9176  0.3830 -0.0014
  657TMC3    C2 9721   3.085   0.280  15.500  0.8663  0.3396  0.1935
  657TMC3    C3 9722   3.100   0.377  15.594 -0.1464  1.4341 -0.2114
  657TMC3    C4 9723   2.900   0.405  15.396  0.4437 -0.6906  0.3115
  657TMC3    C5 9724   2.911   0.490  15.505 -0.6326 -0.1032  0.3722
  657TMC3    C6 9725   3.018   0.481  15.600  0.0238  0.0239  0.4066
  657TMC3     C 9726   2.993   0.224  15.284 -0.0215 -0.4082  0.5346
  657TMC3     O 9727   2.887   0.167  15.254 -0.1316 -0.3506 -0.8570
  657TMC3     H 9728   3.143   0.188  15.499 -0.1405 -0.2985  0.7317
  657TMC3    H1 9729   2.816   0.391  15.329  0.7728 -1.9173  0.1520
  657TMC3    H2 9730   3.020   0.548  15.685  0.0212  0.2941  0.1928
  657TMC3    C7 9731   2.809   0.581  15.543 -0.0580 -0.0643 -0.5684
  657TMC3    C8 9732   3.178   0.352  15.713 -0.2713  0.5197 -0.8849
  657TMC3    O1 9733   2.809   0.630  15.656 -0.0164  0.5563 -0.8244
  657TMC3    O2 9734   3.142   0.399  15.819 -0.1675  0.4924  0.5193
  658MPD2     C 9735   4.333   0.828  15.271 -0.7261  0.9818  0.8251
  658MPD2    C1 9736   4.221   0.835  15.192  0.2486  0.1591 -0.0345
  658MPD2    C2 9737   4.235   0.883  15.061  0.8777 -0.1641 -0.6732
  658MPD2    C3 9738   4.359   0.926  15.020 -0.0577 -0.1621  0.0399
  658MPD2    C4 9739   4.470   0.924  15.099 -0.6735  0.0503  1.2563
  658MPD2    C5 9740   4.451   0.876  15.225  0.3447 -0.1930 -0.5131
  658MPD2     H 9741   4.149   0.886  14.995  1.8472  1.4574 -1.8832
  658MPD2    H1 9742   4.568   0.961  15.070 -0.6026 -1.0677  0.0660
  658MPD2    H2 9743   4.325   0.792  15.372 -1.5412 -0.6265  0.1850
  658MPD2    H3 9744   4.537   0.871  15.291  1.8366  2.0013 -2.2725
  658MPD2     N 9745   4.356   0.987  14.893 -0.0766  0.4016 -0.1045
  658MPD2    H5 9746   4.264   0.988  14.850  0.0441 -3.1293 -0.4395
  658MPD2    N1 9747   4.096   0.793  15.248  0.0751  0.1476 -0.1835
  658MPD2    H7 9748   4.101   0.789  15.350  2.1148 -0.0971 -0.2912
  659TMC3    C1 9749   3.865   0.796  15.266  0.1711 -1.0240  0.4980
  659TMC3    C2 9750   3.873   0.869  15.385 -0.1744 -0.2055  0.0014
  659TMC3    C3 9751   3.748   0.911  15.445 -0.0655 -0.1870 -0.0792
  659TMC3    C4 9752   3.739   0.793  15.201  0.3561  0.1486  0.3639
  659TMC3    C5 9753   3.629   0.849  15.253 -0.5359  1.2576  0.2006
  659TMC3    C6 9754   3.632   0.905  15.383  0.3205 -0.0326 -0.4528
  659TMC3     C 9755   3.979   0.789  15.181 -0.2141  0.2144 -0.2703
  659TMC3     O 9756   3.954   0.787  15.060 -0.2113  0.2990 -0.0652
  659TMC3     H 9757   3.966   0.904  15.428 -0.5706  1.2780 -0.3672
  659TMC3    H1 9758   3.731   0.722  15.121 -0.2660  0.9742 -0.3025
  659TMC3    H2 9759   3.543   0.925  15.442 -0.2592 -1.0791 -0.9785
  659TMC3    C7 9760   3.498   0.856  15.187  0.1579  0.4846  0.3748
  659TMC3    C8 9761   3.747   0.985  15.567  0.0945  0.1067  0.5201
  659TMC3    O1 9762   3.411   0.927  15.237  0.4968 -0.4683 -0.3331
  659TMC3    O2 9763   3.645   1.052  15.600 -0.3949  0.3419 -0.0929
  660MPD2     C 9764   2.579   0.133  12.792  0.6315 -0.3294  0.6850
  660MPD2    C1 9765   2.445   0.138  12.741 -1.2937  0.8371 -0.2534
  660MPD2    C2 9766   2.342   0.080  12.814  0.1369 -0.2564 -0.0801
  660MPD2    C3 9767   2.378   0.015  12.929 -0.0036 -0.3236  0.1038
  660MPD2    C4 9768   2.505   0.016  12.979 -0.1734  0.7821  0.7655
  660MPD2    C5 9769   2.607   0.071  12.909  0.1625  0.0827  0.9394
  660MPD2     H 9770   2.240   0.071  12.779 -0.1622  2.7843  0.0419
  660MPD2    H1 9771   2.516   4.700  13.080 -0.8498 -1.3601  0.0577
  660MPD2    H2 9772   2.664   0.172  12.738  0.1823  1.0812  0.9751
  660MPD2    H3 9773   2.710   0.076  12.945  0.3576 -1.1104  0.5539
  660MPD2     N 9774   2.291   4.664  13.004  0.3321 -0.2805  0.4919
  660MPD2    H5 9775   2.323   4.612  13.085 -0.0326  0.6918  1.2509
  660MPD2    N1 9776   2.425   0.198  12.613  0.1124 -0.3279 -0.7230
  660MPD2    H7 9777   2.505   0.223  12.556  0.4424  2.4144  0.9281
  661TMC3    C1 9778   2.309   0.242  12.419 -0.0022  0.4004  0.9289
  661TMC3    C2 9779   2.409   0.179  12.339 -0.1052  0.9811  0.2505
  661TMC3    C3 9780   2.380   0.169  12.203  0.2705  0.2395  0.2252
  661TMC3    C4 9781   2.184   0.282  12.368 -0.2355  0.2272  0.1138
  661TMC3    C5 9782   2.161   0.257  12.240  0.2000 -0.7561 -0.5113
  661TMC3    C6 9783   2.259   0.218  12.157  0.7871  0.1317 -0.2830
  661TMC3     C 9784   2.300   0.214  12.558  0.4203 -0.0199 -0.8125
  661TMC3     O 9785   2.190   0.218  12.617  0.2591 -0.5059  0.6819
  661TMC3     H 9786   2.502   0.134  12.370 -0.0504 -0.1810 -1.5523
  661TMC3    H1 9787   2.096   0.306  12.427 -1.3079  1.3706 -1.9869
  661TMC3    H2 9788   2.234   0.232  12.052  1.9405 -2.6979 -0.9323
  661TMC3    C7 9789   2.035   0.296  12.183 -0.2594 -0.1409  0.9635
  661TMC3    C8 9790   2.494   0.171  12.111  1.0114 -0.1999 -0.0253
  661TMC3    O1 9791   1.968   0.374  12.246 -0.0526  0.1558 -0.1399
  661TMC3    O2 9792   2.603   0.129  12.154 -0.5566  0.0927 -0.5625
  662MPD2     C 9793   2.253   0.127  17.212  0.4580 -0.1785  0.2531
  662MPD2    C1 9794   2.240   0.128  17.346 -0.1982  0.1861 -0.5510
  662MPD2    C2 9795   2.238   0.251  17.416  0.6205  0.3754  0.1473
  662MPD2    C3 9796   2.256   0.372  17.350  0.1655 -0.3368 -0.2989
  662MPD2    C4 9797   2.278   0.366  17.215 -0.1850 -0.0562  0.3917
  662MPD2    C5 9798   2.286   0.244  17.152 -0.0899  0.0227  0.1012
  662MPD2     H 9799   2.222   0.241  17.522  3.7401 -1.3227  0.4644
  662MPD2    H1 9800   2.287   0.458  17.159 -1.8462  0.6473  1.2849
  662MPD2    H2 9801   2.237   0.036  17.154 -1.1081  0.7987 -0.8275
  662MPD2    H3 9802   2.308   0.251  17.047  0.7214  5.5085  0.6633
  662MPD2     N 9803   2.226   0.492  17.412 -0.0478 -0.0018 -0.6833
  662MPD2    H5 9804   2.213   0.572  17.351  3.1550  0.8960 -0.1840
  662MPD2    N1 9805   2.198   0.013  17.419  0.7250 -0.3483  0.3102
  662MPD2    H7 9806   2.167   0.027  17.515  2.6327  1.4468  0.6757
  663TMC3    C1 9807   2.134   4.512  17.466  0.2736  0.4938 -0.0538
  663TMC3    C2 9808   2.137   4.534  17.599 -0.5361 -0.1202 -0.0796
  663TMC3    C3 9809   2.071   4.446  17.687 -0.3076 -0.2745 -0.1975
  663TMC3    C4 9810   2.081   4.389  17.416  0.1703  0.1303 -0.5907
  663TMC3    C5 9811   2.021   4.308  17.504 -0.5062 -0.5021 -1.0347
  663TMC3    C6 9812   2.033   4.325  17.635 -0.5379  0.0563 -0.1123
  663TMC3     C 9813   2.201   4.608  17.377  0.5050 -0.2629  1.4035
  663TMC3     O 9814   2.237   4.559  17.269 -0.3497  0.4782 -0.4633
  663TMC3     H 9815   2.180   4.629  17.627  1.1053 -1.3918  1.7898
  663TMC3    H1 9816   2.086   4.362  17.311 -1.3176 -2.2503 -0.0560
  663TMC3    H2 9817   1.964   4.271   0.010  1.2592 -1.2454  0.7318
  663TMC3    C7 9818   1.941   4.201  17.454 -0.1047  0.1008  0.4199
  663TMC3    C8 9819   1.960   4.522   0.042 -0.4966  0.6026  0.4727
  663TMC3    O1 9820   1.908   4.222  17.340  0.0133 -0.3842 -0.2390
  663TMC3    O2 9821   1.954   4.634  17.685  0.6388 -0.0545 -0.7753
  664MPD2     C 9822   0.529   2.506  17.590 -0.1717  0.1283  0.8937
  664MPD2    C1 9823   0.565   2.636  17.615 -0.6549 -0.5248  0.4372
  664MPD2    C2 9824   0.530   2.694   0.044 -0.0165 -0.1789  0.4624
  664MPD2    C3 9825   0.469   2.618   0.146  0.7662  0.5320  0.3999
  664MPD2    C4 9826   0.426   2.492   0.109 -0.6341 -0.1424  0.4462
  664MPD2    C5 9827   0.460   2.433  17.678  0.3441 -0.3085  0.2451
  664MPD2     H 9828   0.576   2.790   0.066  0.1084 -0.3898  1.1050
  664MPD2    H1 9829   0.367   2.421   0.166 -0.0913  0.3594  1.6328
  664MPD2    H2 9830   0.552   2.456  17.497  0.5815  0.5724  0.8401
  664MPD2    H3 9831   0.428   2.333  17.651 -2.3651  0.5723  0.1889
  664MPD2     N 9832   0.435   2.666   0.276  0.0236  0.0828 -0.1698
  664MPD2    H5 9833   0.477   2.754   0.305  1.5455 -1.3735  2.0345
  664MPD2    N1 9834   0.634   2.711  17.523 -0.1570 -0.4477 -0.0093
  664MPD2    H7 9835   0.664   2.804  17.553  2.3658 -2.0893  2.5943
  665TMC3    C1 9836   0.336   2.669   0.495  0.2532  0.4291 -0.2408
  665TMC3    C2 9837   0.275   2.601   0.596 -0.1895  0.4594 -0.7760
  665TMC3    C3 9838   0.235   2.674   0.712  0.5580 -0.1099  0.1299
  665TMC3    C4 9839   0.359   2.804   0.505 -0.1859 -0.2330  0.2964
  665TMC3    C5 9840   0.336   2.870   0.620  0.3498  0.2945  0.4952
  665TMC3    C6 9841   0.273   2.804   0.726  0.2009  0.0053  0.1598
  665TMC3     C 9842   0.352   2.602   0.370  0.4061 -0.3177 -1.0066
  665TMC3     O 9843   0.294   2.494   0.369 -0.3135  0.1263 -0.5106
  665TMC3     H 9844   0.251   2.495   0.585  0.5095  0.4975 -2.6295
  665TMC3    H1 9845   0.377   2.862   0.415 -0.2393  3.3307  2.6105
  665TMC3    H2 9846   0.249   2.856   0.817 -1.0437 -0.6226  0.1966
  665TMC3    C7 9847   0.359   3.014   0.617  0.6149  0.6619  0.5211
  665TMC3    C8 9848   0.174   2.604   0.825  0.2156  0.0025 -0.7647
  665TMC3    O1 9849   0.402   3.071   0.521 -0.5539  0.2275 -0.1378
  665TMC3    O2 9850   0.198   2.654   0.930  0.7075 -0.6687  0.2157
  666TMC3    C1 9851   0.658   1.989   9.934  0.0266 -0.2462 -0.2263
  666TMC3    C2 9852   0.762   1.936  10.009 -0.0590 -0.1068  0.3970
  666TMC3    C3 9853   0.857   2.015  10.070  0.3074  0.1908  0.3214
  666TMC3    C4 9854   0.636   2.126   9.938 -0.3350 -0.3122 -0.5185
  666TMC3    C5 9855   0.742   2.205   9.987 -0.1286  0.0970 -0.1844
  666TMC3    C6 9856   0.847   2.153  10.057 -0.4769  0.6375 -0.1141
  666TMC3     C 9857   0.541   1.910   9.926  0.2910  0.0337 -0.1957
  666TMC3     O 9858   0.435   1.967   9.961 -0.3500  0.7161  0.0111
  666TMC3     H 9859   0.758   1.830  10.031 -0.4074  0.0268  0.9849
  666TMC3    H1 9860   0.543   2.170   9.904 -0.9761  0.0676  1.7410
  666TMC3    H2 9861   0.923   2.214  10.103 -0.1200 -0.6863  1.0416
  666TMC3    C7 9862   0.719   2.344   9.996 -0.9860  1.1695 -0.4707
  666TMC3    C8 9863   0.915   1.968  10.194  0.0249 -0.1934  0.3638
  666TMC3    O1 9864   0.742   2.410  10.093  0.3232 -0.3539 -0.4914
  666TMC3    O2 9865   0.841   1.897  10.264 -0.2802  0.0850 -0.5389
  667MPD2     C 9866   1.971   2.828  14.799 -0.1892 -0.2208  0.8182
  667MPD2    C1 9867   1.838   2.877  14.808  0.3380 -0.6267 -0.0303
  667MPD2    C2 9868   1.726   2.793  14.776  0.0706 -0.8109  0.4271
  667MPD2    C3 9869   1.747   2.676  14.703 -0.1721  0.2786  0.3057
  667MPD2    C4 9870   1.882   2.636  14.689 -0.0402 -0.2205 -0.2841
  667MPD2    C5 9871   1.988   2.704  14.750 -0.0164  0.3776  0.3463
  667MPD2     H 9872   1.627   2.830  14.800 -0.0166 -0.8624  0.1494
  667MPD2    H1 9873   1.908   2.542  14.642 -1.4248 -1.0165  0.5380
  667MPD2    H2 9874   2.054   2.888  14.836  1.3755  0.1060 -3.1554
  667MPD2    H3 9875   2.088   2.663  14.743  0.2889  1.0085  0.9892
  667MPD2     N 9876   1.639   2.596  14.651  0.1763  0.2323 -0.7954
  667MPD2    H5 9877   1.670   2.510  14.605 -1.6749 -2.3093  2.7123
  667MPD2    N1 9878   1.814   2.996  14.872  0.4530 -0.3435  0.1646
  667MPD2    H7 9879   1.717   3.025  14.879  0.4331 -0.1011 -0.9976
  668TMC3    C1 9880   1.842   3.179  15.007 -0.7747 -0.6888 -0.4788
  668TMC3    C2 9881   1.889   3.307  15.006  0.2229 -0.1530  0.0115
  668TMC3    C3 9882   1.873   3.384  15.117  0.6019  0.4374  0.6969
  668TMC3    C4 9883   1.763   3.137  15.109 -0.0902  0.5906  0.7311
  668TMC3    C5 9884   1.760   3.212  15.222 -0.0326 -0.2529  0.9430
  668TMC3    C6 9885   1.811   3.336  15.226  0.1451  0.3636 -0.4640
  668TMC3     C 9886   1.905   3.091  14.906  0.4435  0.0602  0.6946
  668TMC3     O 9887   2.023   3.104  14.874  0.1949  0.2733  0.3703
  668TMC3     H 9888   1.952   3.335  14.922 -0.4425  1.2852 -0.0124
  668TMC3    H1 9889   1.740   3.032  15.115  1.9770  0.2224  2.1408
  668TMC3    H2 9890   1.796   3.394  15.316  2.2301  1.9017 -1.0963
  668TMC3    C7 9891   1.666   3.166  15.325  0.1496  0.6390  0.3440
  668TMC3    C8 9892   1.906   3.524  15.111  0.2822 -1.2443 -0.1115
  668TMC3    O1 9893   1.688   3.215  15.435 -0.6919 -0.0677 -0.3407
  668TMC3    O2 9894   1.852   3.595  15.201  0.1606 -0.1408 -0.8206
  669TMC3    C1 9895   4.414   2.514  14.589 -0.1929 -0.1710 -0.0342
  669TMC3    C2 9896   4.302   2.525  14.511 -0.3942  0.2130  0.4267
  669TMC3    C3 9897   4.281   2.638  14.441  0.6317  0.2278 -0.5577
  669TMC3    C4 9898   4.522   2.601  14.573 -0.3120 -1.0854  0.3320
  669TMC3    C5 9899   4.496   2.702  14.480  0.0211  0.6571  0.2182
  669TMC3    C6 9900   4.374   2.730  14.418  0.8424  0.3399 -0.4935
  669TMC3     C 9901   4.422   2.414  14.688 -0.7682 -0.2856 -0.1559
  669TMC3     O 9902   4.327   2.335  14.677  0.5118 -0.1195 -0.7218
  669TMC3     H 9903   4.227   2.447  14.521 -0.5715  0.3821  0.4328
  669TMC3    H1 9904   4.619   2.578  14.614  0.1100 -0.3787 -0.2581
  669TMC3    H2 9905   4.361   2.820  14.359  2.1497  2.1670  1.9955
  669TMC3    C7 9906   4.612   2.787  14.450 -0.1681  0.2957  0.8300
  669TMC3    C8 9907   4.146   2.652  14.385  0.0452 -0.3123 -0.1795
  669TMC3    O1 9908   4.697   2.800  14.538  0.1049 -0.0767  0.7417
  669TMC3    O2 9909   4.088   2.552  14.351 -0.7255 -0.0942  1.0306
  670MPD2     C 9910   2.561   0.710  13.172 -0.9152 -0.0863 -0.1799
  670MPD2    C1 9911   2.665   0.742  13.259  0.0702  0.6597  0.3417
  670MPD2    C2 9912   2.658   0.710  13.396  0.0067  0.0541  0.7900
  670MPD2    C3 9913   2.543   0.645  13.436 -0.7001 -0.2701 -0.6984
  670MPD2    C4 9914   2.437   0.622  13.352 -0.2076 -0.1897 -0.9929
  670MPD2    C5 9915   2.445   0.654  13.221  0.5423 -0.5333 -0.4484
  670MPD2     H 9916   2.738   0.735  13.465 -0.7509  0.1545  1.6254
  670MPD2    H1 9917   2.352   0.569  13.392 -0.2937  1.2476  0.7662
  670MPD2    H2 9918   2.563   0.730  13.066  0.2550  0.7333 -0.0061
  670MPD2    H3 9919   2.360   0.632  13.157  0.2090 -0.9417  0.1358
  670MPD2     N 9920   2.524   0.596  13.565 -0.7380  0.0345  0.4621
  670MPD2    H5 9921   2.437   0.549  13.587  0.2645 -1.9487  0.1498
  670MPD2    N1 9922   2.784   0.801  13.220 -0.6673  0.4574  0.1131
  670MPD2    H7 9923   2.850   0.824  13.294 -0.3761 -1.5700  0.4969
  671TMC3    C1 9924   2.535   0.583  13.795 -0.3041 -0.2905 -0.1531
  671TMC3    C2 9925   2.615   0.564  13.905  0.4345 -0.2092 -0.5613
  671TMC3    C3 9926   2.564   0.540  14.034 -0.2128 -0.3853 -0.5398
  671TMC3    C4 9927   2.398   0.569  13.814  0.0085 -0.1644 -0.3732
  671TMC3    C5 9928   2.355   0.530  13.941  0.2238  0.0023 -0.0382
  671TMC3    C6 9929   2.427   0.530  14.054 -0.2851 -0.2514  0.0695
  671TMC3     C 9930   2.610   0.598  13.669  0.7266 -0.4412  0.2645
  671TMC3     O 9931   2.732   0.619  13.682  0.0598 -0.0027 -0.0657
  671TMC3     H 9932   2.722   0.578  13.894  0.4108  1.0054  0.6600
  671TMC3    H1 9933   2.327   0.579  13.733  1.7349 -0.1127 -1.8833
  671TMC3    H2 9934   2.391   0.504  14.153 -1.0985  0.9596  0.0911
  671TMC3    C7 9935   2.228   0.469  13.938  0.8102  0.1083  0.9803
  671TMC3    C8 9936   2.640   0.452  14.111 -0.1178  0.4064  0.1267
  671TMC3    O1 9937   2.210   0.401  13.842 -0.1576 -0.2056 -0.5384
  671TMC3    O2 9938   2.593   0.348  14.162 -0.1343 -0.5976  0.1558
  672MPD2     C 9939   3.539   1.664   0.570  0.5547  0.2221 -0.1121
  672MPD2    C1 9940   3.491   1.580   0.673  0.4434 -0.2241 -0.1617
  672MPD2    C2 9941   3.562   1.574   0.793  0.2583  0.2753 -0.0400
  672MPD2    C3 9942   3.666   1.663   0.817  0.2242  0.3317 -0.7948
  672MPD2    C4 9943   3.710   1.743   0.719 -0.8798 -0.4958 -0.2976
  672MPD2    C5 9944   3.647   1.750   0.595  0.4765 -0.1487 -1.0885
  672MPD2     H 9945   3.523   1.519   0.878  3.9173 -1.4792  0.4998
  672MPD2    H1 9946   3.788   1.813   0.749  0.3800 -2.5685  1.2703
  672MPD2    H2 9947   3.485   1.674   0.477  1.8435 -1.2151 -0.9878
  672MPD2    H3 9948   3.684   1.826   0.528 -2.6776  0.7687 -1.7977
  672MPD2     N 9949   3.723   1.673   0.937  0.3245  0.0628  0.1893
  672MPD2    H5 9950   3.778   1.756   0.957 -0.1833  0.2821  0.6803
  672MPD2    N1 9951   3.382   1.498   0.660 -0.4811  0.2390 -0.4193
  672MPD2    H7 9952   3.365   1.425   0.729  1.5780 -1.7348 -1.9966
  673TMC3    C1 9953   3.170   1.440   0.609  0.5969  0.7597  0.1271
  673TMC3    C2 9954   3.197   1.313   0.656  0.6219  0.2219  0.0823
  673TMC3    C3 9955   3.086   1.227   0.657 -0.2864  0.3830 -0.0188
  673TMC3    C4 9956   3.047   1.484   0.568 -0.5459  0.4993  0.9767
  673TMC3    C5 9957   2.939   1.406   0.595  0.2711  0.0801  0.4129
  673TMC3    C6 9958   2.963   1.275   0.633 -0.2844  0.6356 -0.3889
  673TMC3     C 9959   3.284   1.520   0.567  0.3548 -0.1712  0.0775
  673TMC3     O 9960   3.267   1.609   0.484 -0.1689 -0.4494  0.2190
  673TMC3     H 9961   3.298   1.275   0.645  1.3573  2.7824 -2.1291
  673TMC3    H1 9962   3.042   1.590   0.544  2.0330  0.2907 -0.4561
  673TMC3    H2 9963   2.874   1.213   0.641  0.2673  0.0972  1.5077
  673TMC3    C7 9964   2.816   1.441   0.534  0.2275  0.1689  0.6127
  673TMC3    C8 9965   3.101   1.086   0.635  0.3143 -0.3694  0.0686
  673TMC3    O1 9966   2.738   1.347   0.518  0.5179 -0.0560 -0.5284
  673TMC3    O2 9967   3.010   1.019   0.586 -0.3935  0.3129 -0.1137
  674MPD2     C 9968   2.834   0.393   0.827  0.3635  0.0801  0.3120
  674MPD2    C1 9969   2.737   0.381   0.738  0.0004  0.4766 -0.0718
  674MPD2    C2 9970   2.604   0.410   0.770 -0.2479 -0.5159  0.1102
  674MPD2    C3 9971   2.567   0.442   0.894  0.3124 -0.3374 -0.2299
  674MPD2    C4 9972   2.662   0.457   0.985  0.1988 -0.1272 -0.3833
  674MPD2    C5 9973   2.796   0.424   0.951 -0.1456  0.5483 -0.1268
  674MPD2     H 9974   2.522   0.402   0.699  1.2699  1.4090 -1.8389
  674MPD2    H1 9975   2.650   0.512   1.078 -0.2455  1.5361 -1.4247
  674MPD2    H2 9976   2.940   0.392   0.802  0.6108  2.0398  1.2925
  674MPD2    H3 9977   2.881   0.448   1.015 -1.1198  0.3563  1.2441
  674MPD2     N 9978   2.431   0.459   0.912 -0.0258  0.1029 -0.1175
  674MPD2    H5 9979   2.370   0.449   0.831  0.2991 -1.8161 -0.1195
  674MPD2    N1 9980   2.775   0.349   0.610  0.3159 -0.0196 -0.2427
  674MPD2    H7 9981   2.873   0.331   0.591  0.8688  1.3858  1.2715
  675TMC3    C1 9982   2.763   0.287   0.379  1.0612 -0.0264 -0.2111
  675TMC3    C2 9983   2.701   0.219   0.280 -0.1960  0.3107 -0.4353
  675TMC3    C3 9984   2.769   0.194   0.165  0.1689  0.1340 -0.0397
  675TMC3    C4 9985   2.888   0.339   0.361 -1.5907  0.5023  0.1137
  675TMC3    C5 9986   2.955   0.313   0.244 -0.0136 -0.8002 -0.4598
  675TMC3    C6 9987   2.898   0.236   0.150 -0.3880 -0.5826 -0.2448
  675TMC3     C 9988   2.691   0.317   0.501  0.2988 -0.4520 -0.0228
  675TMC3     O 9989   2.567   0.310   0.496  0.2924 -0.4628 -0.2189
  675TMC3     H 9990   2.596   0.193   0.286  0.0427 -1.1010 -2.1931
  675TMC3    H1 9991   2.922   0.411   0.435 -2.1391  0.2809  0.5832
  675TMC3    H2 9992   2.956   0.202   0.066 -1.0722  1.4791 -1.5573
  675TMC3    C7 9993   3.089   0.368   0.226 -0.1223  0.3167  0.6026
  675TMC3    C8 9994   2.733   0.078   0.083 -0.4714 -0.5034  0.7931
  675TMC3    O1 9995   3.139   0.346   0.117  0.1696  0.0160  0.1153
  675TMC3    O2 9996   2.779   0.067  17.658 -0.3560 -0.0993 -0.3093
  676MPD2     C 9997   0.760   3.678  10.883  0.2560  0.8394 -0.3852
  676MPD2    C1 9998   0.732   3.620  11.005 -0.1048 -0.3580 -0.3200
  676MPD2    C2 9999   0.709   3.486  11.003 -0.8481 -0.7221 -0.3587
  676MPD2    C310000   0.709   3.412  10.880 -0.4390 -0.3878 -0.7230
  676MPD2    C410001   0.744   3.475  10.765 -0.3277 -0.8396  0.7999
  676MPD2    C510002   0.761   3.612  10.766 -0.0437 -0.2804  0.3393
  676MPD2     H10003   0.685   3.438  11.097  0.7784  1.7892  1.3395
  676MPD2    H110004   0.744   3.417  10.674  0.6031  1.2162 -0.5063
  676MPD2    H210005   0.758   3.786  10.883  0.6952  0.8509 -0.7761
  676MPD2    H310006   0.764   3.651  10.665  1.1952 -1.3633 -0.0410
  676MPD2     N10007   0.671   3.276  10.879 -0.1875  0.3649  0.3420
  676MPD2    H510008   0.674   3.227  10.790 -0.3699  2.1443 -0.6548
  676MPD2    N110009   0.743   3.690  11.132  0.3992 -0.1215 -0.3824
  676MPD2    H710010   0.693   3.650  11.210 -0.1733  1.0064 -0.1839
  677TMC3    C110011   0.808   3.876  11.283  0.5655 -0.1088  0.0302
  677TMC3    C210012   0.697   3.855  11.359 -0.2002  0.6513  0.6587
  677TMC3    C310013   0.680   3.918  11.479  0.4250 -0.1973  0.2316
  677TMC3    C410014   0.900   3.975  11.320  0.2015 -0.0326  0.0177
  677TMC3    C510015   0.882   4.027  11.449  0.2586  0.1085 -0.1283
  677TMC3    C610016   0.769   4.008  11.526  0.3964 -0.1180  0.4647
  677TMC3     C10017   0.823   3.806  11.149 -0.6489  0.0904  0.1229
  677TMC3     O10018   0.902   3.847  11.067  0.7873 -0.4340  0.5198
  677TMC3     H10019   0.626   3.777  11.334  0.2791 -0.2256  2.0599
  677TMC3    H110020   0.996   3.981  11.270  0.2923 -2.3201 -0.0940
  677TMC3    H210021   0.773   4.024  11.633  4.4813 -3.9308  0.8404
  677TMC3    C710022   0.966   4.122  11.509 -0.2720  0.1608  0.2806
  677TMC3    C810023   0.620   3.835  11.580  1.2095 -0.9598 -0.5874
  677TMC3    O110024   0.964   4.129  11.630  0.8817 -0.3357 -0.0080
  677TMC3    O210025   0.648   3.718  11.573  0.3052 -0.6705  0.0485
  678MPD2     C10026   1.330   3.556   1.771 -0.1667  0.9379  0.1316
  678MPD2    C110027   1.354   3.558   1.635  0.2819 -0.2837 -0.5677
  678MPD2    C210028   1.260   3.597   1.545 -0.6853 -0.7056 -0.0606
  678MPD2    C310029   1.139   3.647   1.588  0.3209 -1.1596 -0.1729
  678MPD2    C410030   1.113   3.637   1.723 -0.0775 -0.2316 -0.3399
  678MPD2    C510031   1.207   3.593   1.809 -0.0570  0.2472  0.4675
  678MPD2     H10032   1.292   3.595   1.442  0.1646  1.2307  0.1456
  678MPD2    H110033   1.014   3.656   1.761  0.9366  1.9021  1.2420
  678MPD2    H210034   1.403   3.522   1.843  0.6883  0.8580 -0.7621
  678MPD2    H310035   1.189   3.571   1.914 -0.5539 -0.4544  0.2345
  678MPD2     N10036   1.055   3.693   1.480  0.1589  0.3575  0.3702
  678MPD2    H510037   1.078   3.679   1.382 -1.6114 -2.1728  0.3204
  678MPD2    N110038   1.488   3.525   1.588  0.1839 -0.3572  0.0126
  678MPD2    H710039   1.520   3.576   1.506 -2.8299  0.0172 -0.9369
  679TMC3    C110040   1.907   3.363   1.515  0.1204 -0.0905 -0.5254
  679TMC3    C210041   1.802   3.360   1.606  0.5153  0.2438 -0.3270
  679TMC3    C310042   1.722   3.476   1.605 -0.3821  0.5942 -0.1172
  679TMC3    C410043   1.918   3.453   1.414 -0.1999  0.2608  0.3843
  679TMC3    C510044   1.837   3.563   1.415 -0.1897 -0.8988  0.0891
  679TMC3    C610045   1.739   3.578   1.516 -0.2176 -0.0919  0.1955
  679TMC3     C10046   2.026   3.274   1.537  0.2129 -0.0860  0.0583
  679TMC3     O10047   2.133   3.300   1.484 -1.0214 -0.5575 -0.6072
  679TMC3     H10048   1.780   3.281   1.677 -1.1786 -0.0359 -1.1712
  679TMC3    H110049   2.007   3.453   1.351 -1.4221  0.7017 -1.3444
  679TMC3    H210050   1.668   3.658   1.499 -0.0650  0.3740  1.7681
  679TMC3    C710051   1.818   3.649   1.297 -0.4779 -0.0505 -0.2898
  679TMC3    C810052   1.583   3.467   1.669  0.2249  0.5293 -0.3118
  679TMC3    O110053   1.756   3.756   1.318 -0.2564  0.0987  0.1420
  679TMC3    O210054   1.568   3.385   1.760  0.6359 -0.0485 -0.0082
  680MPD2     C10055   2.845   2.654  13.575 -0.1931 -0.1067 -0.2563
  680MPD2    C110056   2.883   2.586  13.689 -0.5768 -0.6071  0.2817
  680MPD2    C210057   2.928   2.653  13.798 -0.9201  0.6630 -0.3034
  680MPD2    C310058   2.934   2.789  13.795  0.0912 -0.2613 -0.1287
  680MPD2    C410059   2.899   2.853  13.680  0.2414 -0.0197  0.9654
  680MPD2    C510060   2.849   2.788  13.576 -0.2157  0.6356 -0.1060
  680MPD2     H10061   2.974   2.605  13.883 -3.5883 -0.7514  0.3708
  680MPD2    H110062   2.905   2.961  13.678  1.0713 -0.0859 -0.0795
  680MPD2    H210063   2.813   2.597  13.488  1.8184 -0.5467 -0.7079
  680MPD2    H310064   2.812   2.825  13.481  1.1317 -0.7811 -1.1814
  680MPD2     N10065   2.964   2.871  13.905  0.5614  0.0355  0.0627
  680MPD2    H510066   2.947   2.969  13.886 -1.2283  0.2972  2.9367
  680MPD2    N110067   2.887   2.441  13.693  0.3684  0.3520 -0.2290
  680MPD2    H710068   2.960   2.397  13.748  0.0580 -3.0562 -2.6079
  681TMC3    C110069   2.869   2.236  13.594 -0.4985  0.1515 -0.3727
  681TMC3    C210070   2.801   2.129  13.631 -0.1499  0.0530 -0.1343
  681TMC3    C310071   2.865   2.005  13.648 -0.6263  0.5139  0.9020
  681TMC3    C410072   3.007   2.237  13.578 -0.3183  0.1700  0.9346
  681TMC3    C510073   3.068   2.115  13.597 -0.2716 -0.6043  0.9192
  681TMC3    C610074   2.999   2.005  13.630  0.6428  0.1392  0.0111
  681TMC3     C10075   2.804   2.363  13.616  0.1003  0.0307  0.5670
  681TMC3     O10076   2.696   2.394  13.558 -0.3518 -0.3586  0.2100
  681TMC3     H10077   2.695   2.145  13.646 -0.0094  0.6274  0.2463
  681TMC3    H110078   3.055   2.329  13.549  0.9848 -0.7959  0.0236
  681TMC3    H210079   3.056   1.913  13.630 -1.0956 -0.9434 -0.8526
  681TMC3    C710080   3.177   2.093  13.502  0.3685  0.1053 -1.0494
  681TMC3    C810081   2.790   1.884  13.668 -0.7871  0.2365  0.3040
  681TMC3    O110082   3.251   2.004  13.540  0.5992  0.2880 -0.5041
  681TMC3    O210083   2.836   1.772  13.660  0.3137  0.4168  0.2827
  682MPD2     C10084   0.067   3.444  10.433 -0.7062 -0.2944 -0.7716
  682MPD2    C110085   0.040   3.326  10.506  0.1422  0.6626  1.0841
  682MPD2    C210086   4.710   3.341  10.637 -0.5149 -0.4199 -0.6828
  682MPD2    C310087   4.690   3.464  10.690 -0.0511  0.0035 -0.4897
  682MPD2    C410088   0.020   3.571  10.625 -0.2560 -0.0934  0.1171
  682MPD2    C510089   0.055   3.562  10.489 -0.2398 -0.2631  0.7047
  682MPD2     H10090   4.693   3.251  10.696  0.4852  0.1135  0.4120
  682MPD2    H110091   0.025   3.668  10.672 -1.7838  0.8112 -1.5894
  682MPD2    H210092   0.098   3.441  10.329 -0.4744 -1.2820 -0.6739
  682MPD2    H310093   0.085   3.653  10.437  0.0695 -0.4612  0.5406
  682MPD2     N10094   4.637   3.485  10.828  0.0697  0.2940  1.0866
  682MPD2    H510095   4.623   3.580  10.859 -0.1324 -0.4414  3.2389
  682MPD2    N110096   0.040   3.199  10.446 -0.1097  0.9390  0.3825
  682MPD2    H710097   0.002   3.123  10.502 -0.9406 -0.3899 -1.9187
  683TMC3    C110098   4.603   3.636  11.188  0.2246  0.2907  0.6875
  683TMC3    C210099   4.652   3.559  11.288  0.3812  0.4766  0.0926
  683TMC3    C310100   4.673   3.423  11.268  0.3263 -0.2826 -0.3099
  683TMC3    C410101   4.571   3.578  11.065 -0.3038  0.2571  0.0705
  683TMC3    C510102   4.590   3.444  11.048 -0.0001 -0.3986 -0.0342
  683TMC3    C610103   4.632   3.360  11.153  0.5914  0.0587 -0.1531
  683TMC3     C10104   4.609   3.782  11.191  0.2356 -0.3808 -0.3066
  683TMC3     O10105   4.608   3.836  11.081 -0.2596 -0.1291  0.1620
  683TMC3     H10106   4.699   3.595  11.378  0.1142 -0.1019  0.4658
  683TMC3    H110107   4.519   3.642  10.994  1.0779  0.2942 -0.9198
  683TMC3    H210108   4.649   3.254  11.138  0.3165 -0.1554  1.0588
  683TMC3    C710109   4.608   3.388  10.916 -0.0428 -0.1844  0.7816
  683TMC3    C810110   0.007   3.350  11.383  0.3298 -0.1938 -0.0795
  683TMC3    O110111   4.613   3.266  10.902 -0.0270  0.0041 -0.2197
  683TMC3    O210112   0.103   3.402  11.434 -0.4483  0.4958  0.3562
  684MPD2     C10113   2.699   2.971  16.729  0.2275  0.4355 -0.4438
  684MPD2    C110114   2.640   3.038  16.624  0.0424  0.5019 -0.4408
  684MPD2    C210115   2.660   3.175  16.606 -0.3186 -0.8766 -0.0433
  684MPD2    C310116   2.735   3.260  16.689 -0.9972  0.0982  0.0558
  684MPD2    C410117   2.791   3.186  16.796 -0.0247 -0.2962  0.3156
  684MPD2    C510118   2.782   3.047  16.812  0.4468  0.3535  0.4601
  684MPD2     H10119   2.614   3.219  16.519 -2.1191 -0.3630  1.1660
  684MPD2    H110120   2.843   3.248  16.869 -0.3579  0.5480 -0.1687
  684MPD2    H210121   2.667   2.869  16.750  0.0490  0.6373  0.2453
  684MPD2    H310122   2.826   2.999  16.898 -0.4652  1.2224  1.4104
  684MPD2     N10123   2.775   3.394  16.668  0.1383  0.3323  0.1948
  684MPD2    H510124   2.805   3.456  16.743 -1.0459  1.5080 -0.2951
  684MPD2    N110125   2.558   2.983  16.527  0.1009 -0.0702 -0.1397
  684MPD2    H710126   2.534   3.040  16.447  1.1073 -0.6028 -0.8226
  685TMC3    C110127   2.455   2.843  16.381 -0.8646 -0.3353  0.2339
  685TMC3    C210128   2.387   2.960  16.356 -0.7870  0.4887  0.1359
  685TMC3    C310129   2.415   3.030  16.242  1.5133 -0.0235  0.1748
  685TMC3    C410130   2.548   2.800  16.290  0.5938  0.0429  0.5107
  685TMC3    C510131   2.587   2.892  16.190  0.2006  0.6652 -0.4108
  685TMC3    C610132   2.528   3.011  16.168 -0.6703 -0.8457 -0.5793
  685TMC3     C10133   2.523   2.853  16.508  0.1371  0.4234  0.5168
  685TMC3     O10134   2.570   2.751  16.555 -0.0321  0.0285 -0.5712
  685TMC3     H10135   2.314   2.987  16.431  0.1501 -0.4467  1.3846
  685TMC3    H110136   2.607   2.709  16.302 -0.0670 -0.4423  0.1124
  685TMC3    H210137   2.562   3.072  16.086 -1.6376 -1.6496 -1.5780
  685TMC3    C710138   2.712   2.858  16.121  0.0188 -0.2567  0.5543
  685TMC3    C810139   2.363   3.169  16.245 -0.8173 -0.5160 -0.3665
  685TMC3    O110140   2.741   2.903  16.011  0.2880  0.3920 -0.0811
  685TMC3    O210141   2.440   3.257  16.228  0.0667 -0.2139  0.3514
  686MPD2     C10142   4.143   3.166  15.658  0.1712  0.1125  0.2784
  686MPD2    C110143   4.156   3.088  15.770  0.2960  0.0475  0.9672
  686MPD2    C210144   4.271   3.013  15.775 -0.4946 -0.0760  0.0805
  686MPD2    C310145   4.371   3.016  15.679  0.0137  0.3131  0.0106
  686MPD2    C410146   4.355   3.107  15.577 -1.3146  0.2946 -0.9321
  686MPD2    C510147   4.250   3.189  15.572  0.0481  0.2046  0.1721
  686MPD2     H10148   4.293   2.955  15.864  2.9349  0.5294 -0.3597
  686MPD2    H110149   4.428   3.112  15.497 -1.2259 -0.4052 -0.8959
  686MPD2    H210150   4.054   3.221  15.631 -0.6325 -1.0262  0.5826
  686MPD2    H310151   4.237   3.267  15.498  1.7010  0.2053 -0.1223
  686MPD2     N10152   4.488   2.934  15.681  0.0819  0.1962  0.3025
  686MPD2    H510153   4.556   2.969  15.614 -0.6903  1.5129  0.2218
  686MPD2    N110154   4.053   3.068  15.862 -0.1559 -0.1372 -0.1739
  686MPD2    H710155   3.961   3.100  15.833 -0.2055 -0.3785 -0.2868
  687TMC3    C110156   4.422   2.770  15.849 -0.6356 -1.5052 -0.8201
  687TMC3    C210157   4.314   2.727  15.777 -0.3212 -0.1233  0.1517
  687TMC3    C310158   4.237   2.637  15.850 -0.2600  0.2192  0.0714
  687TMC3    C410159   4.452   2.716  15.971  0.0630 -0.0755  0.7883
  687TMC3    C510160   4.371   2.620  16.029 -0.1290  0.3913  0.4414
  687TMC3    C610161   4.252   2.590  15.971 -0.6117 -0.0740  0.3328
  687TMC3     C10162   4.525   2.831  15.768  0.1546 -0.4600  0.5708
  687TMC3     O10163   4.628   2.761  15.762  0.3683 -0.3116  0.0303
  687TMC3     H10164   4.304   2.740  15.670  1.5548  1.4472  0.1670
  687TMC3    H110165   4.549   2.743  16.012  0.0453  0.4710  0.4717
  687TMC3    H210166   4.166   2.537  16.011 -1.1898  0.8987  0.4057
  687TMC3    C710167   4.355   2.630  16.168 -0.0960 -0.1307 -0.3904
  687TMC3    C810168   4.095   2.612  15.796 -0.1264 -0.3869 -0.7127
  687TMC3    O110169   4.240   2.641  16.205  0.0656 -0.1705 -0.4847
  687TMC3    O210170   4.046   2.508  15.840 -0.5042  0.0650 -0.1286
  688MPD2     C10171   3.242   1.975  17.300  0.3571 -0.5420 -0.1187
  688MPD2    C110172   3.262   1.852  17.369 -0.0624 -0.5012  0.1911
  688MPD2    C210173   3.344   1.759  17.310  0.0818 -0.8919 -0.2735
  688MPD2    C310174   3.411   1.789  17.195  0.0676 -0.2457 -0.6224
  688MPD2    C410175   3.386   1.905  17.127 -0.2076  0.0519 -0.9792
  688MPD2    C510176   3.302   2.001  17.181 -0.1218  0.6339 -0.1788
  688MPD2     H10177   3.358   1.660  17.353  0.6078  0.2805  2.2177
  688MPD2    H110178   3.430   1.915  17.028 -0.9502  1.0753 -1.2024
  688MPD2    H210179   3.179   2.058  17.330 -1.6667 -1.4039 -1.9944
  688MPD2    H310180   3.288   2.096  17.131  0.1179 -0.0530 -1.5571
  688MPD2     N10181   3.498   1.699  17.130 -0.1095  0.4090 -0.0826
  688MPD2    H510182   3.559   1.735  17.057  0.4700 -0.6404 -0.1199
  688MPD2    N110183   3.186   1.816  17.485  0.1868  0.1728  0.5580
  688MPD2    H710184   3.206   1.728  17.532 -3.4637 -0.9690 -0.0190
  689TMC3    C110185   3.059   1.845  17.675 -0.0207 -0.1340  0.6013
  689TMC3    C210186   3.030   1.940   0.070  0.4234 -0.3379  0.4189
  689TMC3    C310187   3.019   1.900   0.205  0.6895 -0.6461 -0.1163
  689TMC3    C410188   3.046   1.714   0.008 -0.6693 -0.5621  1.1453
  689TMC3    C510189   2.999   1.676   0.134 -0.8737 -0.1142 -0.4288
  689TMC3    C610190   3.002   1.766   0.238  0.3043 -0.3021  0.2125
  689TMC3     C10191   3.094   1.891  17.546 -0.3883  0.2750 -0.3115
  689TMC3     O10192   3.059   2.007  17.519 -0.0768 -0.5446  0.4886
  689TMC3     H10193   3.049   2.045   0.052 -0.1000 -0.0019  1.8675
  689TMC3    H110194   3.054   1.645  17.615 -0.4950  0.6602  0.1291
  689TMC3    H210195   2.971   1.753   0.341  3.0215  0.4822  1.1237
  689TMC3    C710196   2.975   1.539   0.176 -0.4247 -0.8968 -0.4990
  689TMC3    C810197   3.000   1.994   0.312  0.8232 -0.1597 -0.1900
  689TMC3    O110198   2.997   1.503   0.291 -0.0278 -0.2556  0.4555
  689TMC3    O210199   3.012   1.948   0.422  0.3051 -0.3897  0.1490
  690MPD2     C10200   0.426   3.883  15.645 -0.6833  0.3450  0.0692
  690MPD2    C110201   0.469   3.783  15.567  0.3668 -0.2623 -0.3723
  690MPD2    C210202   0.583   3.799  15.494  0.4216 -0.0664  0.0741
  690MPD2    C310203   0.641   3.926  15.475 -0.1624  0.4086 -0.5884
  690MPD2    C410204   0.607   4.023  15.566  0.4215  0.0429 -0.1117
  690MPD2    C510205   0.495   3.999  15.644  0.5962 -0.1210 -0.6473
  690MPD2     H10206   0.621   3.716  15.435 -0.6718 -1.0593  0.7631
  690MPD2    H110207   0.662   4.117  15.573  0.5137 -0.0011 -0.2505
  690MPD2    H210208   0.345   3.872  15.717  0.3927 -0.0552  1.2197
  690MPD2    H310209   0.451   4.085  15.694 -0.5133 -0.3197 -1.2799
  690MPD2     N10210   0.747   3.942  15.387 -0.6007 -0.4069 -0.0239
  690MPD2    H510211   0.797   4.029  15.405  1.0022 -1.3640  0.1157
  690MPD2    N110212   0.405   3.657  15.559 -0.7100  0.0197  0.2480
  690MPD2    H710213   0.459   3.583  15.515 -3.5416 -1.1001 -1.3313
  691TMC3    C110214   0.247   3.486  15.622  0.6412 -0.4832 -0.2927
  691TMC3    C210215   0.133   3.457  15.687  0.3273 -0.3721 -0.6445
  691TMC3    C310216   0.133   3.343  15.770  0.0195 -0.7708  0.0686
  691TMC3    C410217   0.356   3.399  15.629  0.0916 -0.0636  0.4688
  691TMC3    C510218   0.341   3.286  15.710 -0.0846  0.4385 -0.1215
  691TMC3    C610219   0.231   3.247  15.776 -0.5218  0.7771  0.0995
  691TMC3     C10220   0.278   3.634  15.608  0.2362  0.2693 -0.3074
  691TMC3     O10221   0.193   3.710  15.658 -0.5085  0.1384  0.0575
  691TMC3     H10222   0.047   3.522  15.674 -1.0665 -2.7484 -3.2316
  691TMC3    H110223   0.447   3.404  15.570 -1.1137 -1.5244 -1.5016
  691TMC3    H210224   0.247   3.176  15.856 -1.3216  0.7724  0.2522
  691TMC3    C710225   0.416   3.169  15.677  0.4703 -0.4904 -0.0537
  691TMC3    C810226   0.012   3.307  15.838 -0.0913 -0.4710 -0.4466
  691TMC3    O110227   0.536   3.182  15.639  0.0543 -0.8868  0.2849
  691TMC3    O210228   0.007   3.188  15.862  0.5787  0.4075  0.0467
  692TMC3    C110229   2.125   4.595  15.933  0.4711  0.8240 -0.0213
  692TMC3    C210230   2.243   4.634  15.873 -1.2650 -0.0074 -0.0777
  692TMC3    C310231   2.347   4.550  15.872  0.5674  0.3639  0.2674
  692TMC3    C410232   2.115   4.461  15.979  0.8711 -0.5801  0.2953
  692TMC3    C510233   2.223   4.379  15.970 -0.6634 -0.0079  0.1115
  692TMC3    C610234   2.343   4.414  15.911 -0.5911  0.1959  0.1572
  692TMC3     C10235   2.049   4.686  16.013 -0.4580 -0.5155  0.1533
  692TMC3     O10236   1.944   4.636  16.055 -0.5086  0.0176 -0.1895
  692TMC3     H10237   2.266   0.018  15.868  0.5397 -0.4880 -1.8191
  692TMC3    H110238   2.022   4.428  16.024  1.4822  0.6498  2.4493
  692TMC3    H210239   2.434   4.364  15.941 -0.7238 -0.7173 -0.9983
  692TMC3    C710240   2.210   4.252  16.046 -0.9712 -0.1648 -0.3132
  692TMC3    C810241   2.459   4.613  15.941 -0.1624 -0.1439  0.8335
  692TMC3    O110242   2.091   4.226  16.066 -0.1170 -0.2664  0.6957
  692TMC3    O210243   2.574   4.573  15.923 -0.1492  0.0375  0.1204
  693MPD2     C10244   2.215   2.455  10.483  0.5246  0.4834  0.1896
  693MPD2    C110245   2.196   2.492  10.610 -0.5172  0.4028  0.2868
  693MPD2    C210246   2.314   2.522  10.682 -0.2614 -0.0168  0.3203
  693MPD2    C310247   2.441   2.523  10.630 -0.1125  0.2966  0.7770
  693MPD2    C410248   2.449   2.489  10.493  0.8462  0.1830 -0.0569
  693MPD2    C510249   2.337   2.459  10.422  0.5317 -0.2561  0.4305
  693MPD2     H10250   2.308   2.558  10.785  0.5673  2.1434 -0.3737
  693MPD2    H110251   2.540   2.508  10.438  0.0244  0.5938 -1.2843
  693MPD2    H210252   2.129   2.426  10.423  1.7834 -1.0575 -0.8675
  693MPD2    H310253   2.341   2.436  10.317 -0.7752  0.6445  0.1907
  693MPD2     N10254   2.565   2.555  10.701 -0.1360  0.0600  0.6501
  693MPD2    H510255   2.647   2.542  10.643 -0.5505  2.4085 -0.4328
  693MPD2    N110256   2.068   2.489  10.662 -0.2521  0.1404 -0.3207
  693MPD2    H710257   1.995   2.440  10.613 -2.2498  1.9348  0.8625
  694TMC3    C110258   1.889   2.505  10.824  0.4990 -0.5543  0.3916
  694TMC3    C210259   1.841   2.392  10.769 -0.3327  0.1250 -0.0515
  694TMC3    C310260   1.719   2.339  10.819 -0.1484  0.2276  0.2719
  694TMC3    C410261   1.827   2.566  10.924 -0.4718  0.3509 -0.5527
  694TMC3    C510262   1.718   2.504  10.976  0.3847 -0.3416 -0.4687
  694TMC3    C610263   1.652   2.395  10.922  0.1175  0.6669 -0.1470
  694TMC3     C10264   2.026   2.548  10.781 -0.5246 -0.2386  0.2902
  694TMC3     O10265   2.089   2.618  10.855  0.2264  0.2482 -0.1844
  694TMC3     H10266   1.897   2.329  10.701 -1.2175 -1.0748  0.3314
  694TMC3    H110267   1.869   2.660  10.956 -1.1783  1.1878 -2.0921
  694TMC3    H210268   1.557   2.350  10.950  0.6539  0.2574  1.0203
  694TMC3    C710269   1.675   2.540  11.103 -0.0411 -0.0712  0.5419
  694TMC3    C810270   1.654   2.223  10.752  0.0158 -0.3479 -0.0063
  694TMC3    O110271   1.707   2.643  11.154 -0.1353 -0.3389 -0.2662
  694TMC3    O210272   1.553   2.182  10.807 -0.2594 -0.4351 -1.2888
  695MPD2     C10273   2.573   4.221  13.836 -0.7605 -0.6002  0.0364
  695MPD2    C110274   2.522   4.291  13.944 -0.6158  0.8752 -0.3139
  695MPD2    C210275   2.401   4.357  13.927 -0.5643 -0.8845 -0.4275
  695MPD2    C310276   2.340   4.351  13.807  0.0573  0.1671  0.0193
  695MPD2    C410277   2.393   4.289  13.698  0.9148  0.4196  0.2294
  695MPD2    C510278   2.513   4.231  13.712  0.2560  0.0284 -0.3715
  695MPD2     H10279   2.356   4.395  14.018  0.9167 -1.8386  0.7067
  695MPD2    H110280   2.347   4.300  13.601 -1.4941  0.8900  1.4211
  695MPD2    H210281   2.662   4.160  13.845 -0.6184 -0.1611  1.4839
  695MPD2    H310282   2.558   4.187  13.624  2.1185  1.9163 -0.3547
  695MPD2     N10283   2.217   4.418  13.779 -0.0399  0.0643  0.0422
  695MPD2    H510284   2.174   4.401  13.689 -0.9198 -3.3197  1.0575
  695MPD2    N110285   2.585   4.299  14.073  0.8647  0.0841 -0.4037
  695MPD2    H710286   2.544   4.365  14.138 -0.7846  0.3848 -1.7500
  696TMC3    C110287   2.043   4.579  13.802  0.1695 -0.4039  1.6659
  696TMC3    C210288   1.941   4.609  13.880  0.0694 -0.1937 -0.4958
  696TMC3    C310289   1.842   4.689  13.821  0.1990 -0.1978 -0.6232
  696TMC3    C410290   2.058   4.608  13.671 -0.3623  0.1920 -0.7984
  696TMC3    C510291   1.960   4.686  13.621 -0.1198  0.2780 -1.4994
  696TMC3    C610292   1.847   4.717  13.686  0.4759  0.2969 -0.8382
  696TMC3     C10293   2.149   4.496  13.867 -0.1074  0.5407  0.0566
  696TMC3     O10294   2.171   4.529  13.983  0.4488 -0.3810 -0.2706
  696TMC3     H10295   1.950   4.588  13.986 -2.7467  0.2641 -0.1515
  696TMC3    H110296   2.149   4.605  13.612 -0.5618  1.2806 -1.1625
  696TMC3    H210297   1.765   0.034  13.627 -0.2438 -0.3434 -0.2629
  696TMC3    C710298   2.001   0.060  13.526 -0.2917 -0.5887  0.1923
  696TMC3    C810299   1.830   0.092  13.891 -0.3376 -0.2360 -0.4492
  696TMC3    O110300   2.075   0.032  13.433  0.7034 -0.7738  1.3725
  696TMC3    O210301   1.832   0.191  13.816 -0.0548 -0.1249 -0.0960
  697MPD2     C10302   1.811   1.949  16.025  0.0950 -0.0953 -1.1880
  697MPD2    C110303   1.865   1.880  15.918 -1.1420  0.1560  0.2990
  697MPD2    C210304   1.948   1.951  15.829  0.1193 -0.1753 -0.0933
  697MPD2    C310305   1.982   2.085  15.850 -0.3512 -0.3366 -0.1019
  697MPD2    C410306   1.937   2.147  15.962 -0.3097  0.2216 -0.1680
  697MPD2    C510307   1.849   2.072  16.047  0.0621 -0.5801  0.3801
  697MPD2     H10308   2.001   1.910  15.744  0.6355 -0.4767  0.3772
  697MPD2    H110309   1.963   2.248  15.993  0.5009 -0.4004  1.1504
  697MPD2    H210310   1.734   1.902  16.086  1.9701 -0.4167  0.9216
  697MPD2    H310311   1.804   2.126  16.130  0.5633 -0.5150  0.6081
  697MPD2     N10312   2.070   2.149  15.758 -0.6474  0.3187  0.0288
  697MPD2    H510313   2.119   2.086  15.696 -1.5371  0.0010 -0.3433
  697MPD2    N110314   1.847   1.745  15.898 -0.2788  0.1553  0.2221
  697MPD2    H710315   1.890   1.707  15.814 -1.7189  0.4920 -0.6563
  698TMC3    C110316   2.216   2.295  15.663  0.3550  0.0922 -0.4505
  698TMC3    C210317   2.304   2.393  15.690  0.0016 -0.1807 -1.0019
  698TMC3    C310318   2.383   2.433  15.593 -0.4256  0.3814 -0.2996
  698TMC3    C410319   2.210   2.237  15.540  0.2371  0.5314  1.2385
  698TMC3    C510320   2.294   2.291  15.440 -0.2892 -0.4642 -0.5383
  698TMC3    C610321   2.381   2.393  15.461 -0.3619  0.7691 -0.3081
  698TMC3     C10322   2.109   2.281  15.760  0.2870 -0.5485 -0.0825
  698TMC3     O10323   2.087   2.365  15.843 -0.4368 -0.0782 -0.6399
  698TMC3     H10324   2.301   2.444  15.785  1.2564  1.2103 -1.7146
  698TMC3    H110325   2.139   2.158  15.515  1.4591 -0.0352 -0.4481
  698TMC3    H210326   2.426   2.446  15.378 -0.5644  2.0332  0.3841
  698TMC3    C710327   2.288   2.225  15.308  0.0709 -0.1236  0.9418
  698TMC3    C810328   2.502   2.500  15.636 -1.0600  0.0886  0.1223
  698TMC3    O110329   2.320   2.295  15.212 -0.4088 -0.6764 -0.5715
  698TMC3    O210330   2.503   2.544  15.750 -1.0560  0.1678 -0.1098
  699TMC3    C110331   2.068   4.601  13.076 -0.0297  0.2406 -0.2891
  699TMC3    C210332   2.106   4.471  13.108 -0.1854 -0.1761 -0.0064
  699TMC3    C310333   2.014   4.396  13.181 -0.5557  0.7428  0.6907
  699TMC3    C410334   1.950   4.650  13.121  0.4348 -0.3932  0.7339
  699TMC3    C510335   1.866   4.568  13.194 -0.1396  0.5134  0.0383
  699TMC3    C610336   1.895   4.444  13.224  0.1732  0.2603 -0.1084
  699TMC3     C10337   2.155   4.685  12.992  0.5162  0.3501 -0.2372
  699TMC3     O10338   2.093   0.059  12.943  0.1844  0.1613 -0.0402
  699TMC3     H10339   2.196   4.431  13.064 -0.1840 -0.0607 -0.1104
  699TMC3    H110340   1.914   0.023  13.081 -0.6338 -0.5802  1.2596
  699TMC3    H210341   1.831   4.376  13.279 -1.0746  1.4085 -0.1296
  699TMC3    C710342   1.748   4.625  13.254 -0.3079  0.1220  0.2772
  699TMC3    C810343   2.059   4.274  13.251  0.1414 -0.3846  0.2156
  699TMC3    O110344   1.665   4.545  13.286 -0.8256  0.1589 -0.0805
  699TMC3    O210345   2.000   4.228  13.350  0.2125  0.5136 -0.2263
  700TMC3    C110346   0.847   2.234  17.248  0.0375 -0.2290 -0.0729
  700TMC3    C210347   0.943   2.138  17.225  0.5642  0.1537 -0.3522
  700TMC3    C310348   1.066   2.150  17.277 -0.4039  0.1097 -0.2298
  700TMC3    C410349   0.875   2.336  17.334  0.0017 -0.2473  0.0884
  700TMC3    C510350   1.002   2.349  17.383  0.0041  0.2808  0.3398
  700TMC3    C610351   1.100   2.257  17.356 -0.4874  0.0023 -0.6735
  700TMC3     C10352   0.807   2.288  17.116  0.1376 -0.0947 -0.0476
  700TMC3     O10353   0.721   2.221  17.062  0.5312  0.0698  0.3302
  700TMC3     H10354   0.926   2.066  17.146 -4.4550 -0.5585  1.3812
  700TMC3    H110355   0.816   2.428  17.332 -0.0479 -0.3090 -1.0852
  700TMC3    H210356   1.196   2.261  17.407 -0.3533  0.5774 -0.9714
  700TMC3    C710357   1.042   2.486  17.419 -0.4071 -0.4533 -0.4584
  700TMC3    C810358   1.177   2.063  17.227 -0.3130  0.0884 -0.0604
  700TMC3    O110359   0.950   2.557  17.460  0.1791  0.1528 -0.1191
  700TMC3    O210360   1.289   2.098  17.266  0.0835 -0.4618 -0.1092
  701TMC3    C110361   1.300   0.995  15.697 -0.7144  0.0785  0.2544
  701TMC3    C210362   1.300   0.977  15.561 -0.0441  0.0116 -0.0441
  701TMC3    C310363   1.371   1.071  15.491  0.0883 -0.2124 -0.1051
  701TMC3    C410364   1.348   1.101  15.765 -0.3378  0.7824 -0.7332
  701TMC3    C510365   1.396   1.206  15.689 -0.6372  0.0956  0.1085
  701TMC3    C610366   1.424   1.180  15.555  0.8467  0.1615  0.2495
  701TMC3     C10367   1.224   0.889  15.768  0.2112  0.0358 -0.2438
  701TMC3     O10368   1.210   0.775  15.731 -0.0551 -0.0314  0.1013
  701TMC3     H10369   1.239   0.897  15.520  1.0165 -0.1225 -1.3793
  701TMC3    H110370   1.348   1.110  15.873 -2.0217  0.5499 -0.7134
  701TMC3    H210371   1.468   1.252  15.487  0.2659  0.4182  0.1480
  701TMC3    C710372   1.465   1.320  15.748 -0.5824  0.0956  0.3099
  701TMC3    C810373   1.371   1.065  15.344 -0.7727  0.3503  0.7585
  701TMC3    O110374   1.565   1.367  15.687  0.5411 -0.1041  0.0136
  701TMC3    O210375   1.442   1.147  15.283  0.1998  0.1754 -0.4556
  702MPD2     C10376   0.949   2.796  10.485 -0.2484 -0.5643 -0.6085
  702MPD2    C110377   0.863   2.903  10.492 -0.1622 -0.5159  0.2501
  702MPD2    C210378   0.874   3.004  10.404 -0.2604  0.3293  0.4165
  702MPD2    C310379   0.974   3.009  10.312  0.1857  0.5661  0.3276
  702MPD2    C410380   1.049   2.894  10.295 -0.6890 -0.0454  0.3020
  702MPD2    C510381   1.041   2.789  10.380  0.0205  1.0496  0.1581
  702MPD2     H10382   0.800   3.083  10.406  2.2277  2.6328  1.1714
  702MPD2    H110383   1.123   2.897  10.216 -0.7903  2.1096  0.2815
  702MPD2    H210384   0.954   2.723  10.565 -0.3556  0.0615 -0.0328
  702MPD2    H310385   1.116   2.712  10.374 -0.3456  0.6821  0.3079
  702MPD2     N10386   0.996   3.119  10.230 -0.3782  0.0224 -0.3661
  702MPD2    H510387   1.077   3.122  10.168  1.1163  0.6837  1.6214
  702MPD2    N110388   0.766   2.920  10.589  0.9794 -0.0720 -0.2143
  702MPD2    H710389   0.731   3.014  10.604 -0.6055 -1.0490  2.1865
  703TMC3    C110390   0.960   3.336  10.133 -0.5516  0.1133  0.4685
  703TMC3    C210391   0.855   3.403  10.080 -0.0127  0.3800  0.0223
  703TMC3    C310392   0.881   3.534  10.037 -0.4334  0.1982 -0.0682
  703TMC3    C410393   1.080   3.387  10.155 -0.6791 -0.9389 -0.9579
  703TMC3    C510394   1.098   3.523  10.127 -0.0270 -0.4825 -0.3841
  703TMC3    C610395   1.003   3.591  10.054 -0.2509 -0.4718 -0.0542
  703TMC3     C10396   0.914   3.227  10.220 -1.1784 -0.5230  0.5291
  703TMC3     O10397   0.821   3.259  10.284 -0.0988  0.3329 -0.3205
  703TMC3     H10398   0.760   3.352  10.074  0.5001 -0.3796 -1.5153
  703TMC3    H110399   1.166   3.327  10.183 -0.6426 -1.0310 -1.2743
  703TMC3    H210400   1.018   3.699  10.046  0.5625 -0.5213  0.8013
  703TMC3    C710401   1.204   3.600  10.196 -0.2557 -0.1010 -0.4274
  703TMC3    C810402   0.775   3.625  10.039 -0.1069 -0.0166  0.1838
  703TMC3    O110403   1.230   3.711  10.155  0.2375  0.1730  0.2172
  703TMC3    O210404   0.786   3.732   9.977  0.5254 -0.5139 -0.1968
  704TMC3    C110405   3.420   1.925  12.411 -0.0767 -0.3758  0.5278
  704TMC3    C210406   3.558   1.946  12.384  0.4230 -0.1980  0.5349
  704TMC3    C310407   3.650   1.854  12.435 -0.8662  0.4878 -0.0524
  704TMC3    C410408   3.376   1.814  12.484  0.0863  0.6818 -0.2428
  704TMC3    C510409   3.469   1.724  12.521 -0.7378 -0.2579 -0.3511
  704TMC3    C610410   3.607   1.745  12.504  0.0448  0.4906  0.2974
  704TMC3     C10411   3.323   1.998  12.341  0.0534  0.1580  0.1732
  704TMC3     O10412   3.205   1.990  12.378  0.4165  0.2618 -0.2776
  704TMC3     H10413   3.598   2.027  12.325  1.1881  0.0315  1.3628
  704TMC3    H110414   3.268   1.807  12.492 -0.1196  2.3988 -1.4520
  704TMC3    H210415   3.673   1.667  12.539  1.8382  2.0466  0.3809
  704TMC3    C710416   3.426   1.585  12.527 -0.1861  0.1434 -0.2496
  704TMC3    C810417   3.767   1.842  12.356  0.3296 -0.1771 -0.3656
  704TMC3    O110418   3.508   1.499  12.509  0.1986 -0.0079  0.1569
  704TMC3    O210419   3.763   1.885  12.243  0.6408  0.1268 -0.0549
  705MPD2     C10420   2.243   4.379  16.412 -0.0147  0.2183  0.3847
  705MPD2    C110421   2.323   4.449  16.501 -0.3337 -0.0727  0.3215
  705MPD2    C210422   2.281   4.483  16.626  0.6153 -0.1701  0.0399
  705MPD2    C310423   2.152   4.453  16.665  0.7830 -0.5736 -0.0389
  705MPD2    C410424   2.070   4.369  16.582  0.9293  0.4755 -0.7190
  705MPD2    C510425   2.120   4.342  16.453  0.4841  0.1981  0.6374
  705MPD2     H10426   2.351   4.529  16.696 -0.2909  1.9223 -0.4364
  705MPD2    H110427   1.968   4.337  16.601  0.5893  1.8593 -0.1543
  705MPD2    H210428   2.273   4.329  16.320 -0.7485  1.8081 -0.7082
  705MPD2    H310429   2.049   4.302  16.381  3.9797  0.2726 -2.8888
  705MPD2     N10430   2.094   4.491  16.787 -0.1815  0.2863  0.2393
  705MPD2    H510431   1.997   4.463  16.788 -0.0438 -0.2937 -2.8348
  705MPD2    N110432   2.455   4.486  16.461 -0.2292 -0.0861  0.0087
  705MPD2    H710433   2.508   4.546  16.523 -0.8394 -0.1430  0.5888
  706TMC3    C110434   2.811   4.576  16.190 -0.4240 -0.3504 -0.6002
  706TMC3    C210435   2.861   4.673  16.279 -0.3092 -0.3619 -0.3659
  706TMC3    C310436   2.789   4.702  16.390 -0.1709  0.2975  0.2001
  706TMC3    C410437   2.700   4.497  16.215  0.8047  0.4723 -0.1732
  706TMC3    C510438   2.637   4.539  16.328  0.6163 -0.1254 -0.0332
  706TMC3    C610439   2.670   4.636  16.419  0.0042 -0.3521  0.2488
  706TMC3     C10440   2.903   4.532  16.082 -0.1297 -0.4737 -0.1355
  706TMC3     O10441   3.025   4.536  16.101 -0.5539  0.1324  0.9161
  706TMC3     H10442   2.954   0.001  16.257 -0.0131 -1.3830 -1.4257
  706TMC3    H110443   2.665   4.423  16.144 -1.0608  1.0495  0.1326
  706TMC3    H210444   2.594   4.672  16.487 -1.1720 -1.6121 -0.3945
  706TMC3    C710445   2.503   4.475  16.335 -0.4736  0.0734  0.3857
  706TMC3    C810446   2.799   0.120  16.431 -1.0522 -0.4262  0.2966
  706TMC3    O110447   2.465   4.416  16.237 -0.2285 -0.0583 -0.4864
  706TMC3    O210448   2.855   0.191  16.350  0.0592  0.1313  0.1666
  707TMC3    C110449   4.324   2.743   2.170  0.5513 -0.6004 -0.3684
  707TMC3    C210450   4.343   2.631   2.096 -0.0337  0.1250 -0.2198
  707TMC3    C310451   4.289   2.514   2.150  0.3063  0.4217  0.2064
  707TMC3    C410452   4.249   2.747   2.283  0.1103  0.0815 -0.0226
  707TMC3    C510453   4.207   2.627   2.336  0.6071 -0.2353  0.0810
  707TMC3    C610454   4.222   2.508   2.267 -0.4859 -0.4928 -0.4573
  707TMC3     C10455   4.356   2.871   2.123  0.1177  0.0843 -0.0916
  707TMC3     O10456   4.440   2.866   2.033  0.2850  0.2673 -0.0037
  707TMC3     H10457   4.398   2.641   2.003  2.7523 -0.1298  1.3761
  707TMC3    H110458   4.242   2.829   2.354 -1.9676 -1.7750  1.9188
  707TMC3    H210459   4.162   2.423   2.298  0.5247 -1.1199 -0.2489
  707TMC3    C710460   4.124   2.624   2.457 -0.4964 -0.1457  0.0970
  707TMC3    C810461   4.299   2.386   2.079  0.5213 -0.5400 -0.4143
  707TMC3    O110462   4.122   2.522   2.525  0.1312 -0.0937  0.2020
  707TMC3    O210463   4.216   2.300   2.095 -0.0215  0.0024  0.4284
  708MPD2     C10464   1.736   2.923  13.660 -0.1346 -0.0083  0.2267
  708MPD2    C110465   1.652   2.825  13.702 -0.1719  0.1163  0.0479
  708MPD2    C210466   1.705   2.720  13.777  0.3910  0.2564 -0.8115
  708MPD2    C310467   1.837   2.727  13.815  0.2096 -0.2720  0.3106
  708MPD2    C410468   1.918   2.835  13.773  0.5642  0.2097 -0.6245
  708MPD2    C510469   1.864   2.930  13.694 -0.1204 -0.2532 -0.2395
  708MPD2     H10470   1.641   2.635  13.799  0.3832  0.2837 -0.7297
  708MPD2    H110471   2.026   2.838  13.783  0.5382 -0.2230 -0.2359
  708MPD2    H210472   1.705   3.008  13.600 -1.4132 -1.6486 -1.4472
  708MPD2    H310473   1.927   3.011  13.657 -1.3280  0.5330 -0.5646
  708MPD2     N10474   1.904   2.635  13.898 -0.0414 -0.3290  0.4058
  708MPD2    H510475   1.998   2.654  13.931  0.4750 -0.3714 -1.0536
  708MPD2    N110476   1.516   2.829  13.658  0.2634  0.1043 -0.4818
  708MPD2    H710477   1.477   2.901  13.598 -1.3241  0.1023  0.5616
  709TMC3    C110478   1.292   2.752  13.647  0.5821 -0.2325 -0.3698
  709TMC3    C210479   1.248   2.866  13.704 -0.3593 -0.2081 -0.0899
  709TMC3    C310480   1.123   2.866  13.764 -0.1575 -0.4847 -0.5179
  709TMC3    C410481   1.218   2.638  13.661 -0.1909  0.0487 -0.4523
  709TMC3    C510482   1.100   2.640  13.717 -0.6048  0.3424  0.1831
  709TMC3    C610483   1.043   2.756  13.768  0.0063  0.2376  0.7772
  709TMC3     C10484   1.424   2.721  13.678 -0.6077 -0.8049  0.5289
  709TMC3     O10485   1.441   2.602  13.716  0.4817  0.3277 -0.5269
  709TMC3     H10486   1.320   2.946  13.716 -0.0438 -0.4614 -0.2867
  709TMC3    H110487   1.248   2.547  13.611 -1.6534 -0.6498 -0.0456
  709TMC3    H210488   0.947   2.755  13.820 -0.5848 -1.4548 -0.3646
  709TMC3    C710489   1.092   2.533  13.821  0.2695  0.2332 -0.1187
  709TMC3    C810490   1.055   2.990  13.762  0.9393  0.1313 -0.7561
  709TMC3    O110491   0.985   2.495  13.855 -0.3228  1.0953 -0.4505
  709TMC3    O210492   0.942   2.997  13.804 -0.2391  0.3467 -0.4800
  710TMC3    C110493   1.535   4.371   0.928  0.1777  0.0612 -0.3108
  710TMC3    C210494   1.551   4.396   0.788  0.0446  0.0416 -0.1529
  710TMC3    C310495   1.644   4.322   0.733  0.5561  0.6459 -0.1821
  710TMC3    C410496   1.607   4.279   1.001 -0.1199 -0.1366  0.4886
  710TMC3    C510497   1.695   4.201   0.935  0.2443 -0.2887 -0.1364
  710TMC3    C610498   1.715   4.221   0.801 -0.9503 -0.0931 -0.2338
  710TMC3     C10499   1.439   4.461   0.991  0.1407 -1.1095  0.0751
  710TMC3     O10500   1.340   4.490   0.927  0.4596  0.2433 -0.2040
  710TMC3     H10501   1.490   4.475   0.745  0.4731  0.5872  0.2367
  710TMC3    H110502   1.569   4.253   1.099  1.0248  1.7923  1.4459
  710TMC3    H210503   1.803   4.178   0.754 -0.2991  1.2568 -0.2354
  710TMC3    C710504   1.719   4.064   0.988 -0.8608 -0.9634  0.2736
  710TMC3    C810505   1.676   4.348   0.597  0.4593 -0.4982  0.3765
  710TMC3    O110506   1.691   4.044   1.106  0.1513  0.3106 -0.2359
  710TMC3    O210507   1.733   4.258   0.540  0.0572 -0.4741  0.0846
  711TMC3    C110508   1.751   0.948  15.273  0.2773  0.1509 -0.0977
  711TMC3    C210509   1.781   0.975  15.405  0.1876 -0.1381  0.2572
  711TMC3    C310510   1.902   0.942  15.454 -0.2479  0.1943  0.5115
  711TMC3    C410511   1.849   0.895  15.196 -0.3447 -0.7271 -0.0708
  711TMC3    C510512   1.963   0.849  15.249 -0.2829 -0.1499  0.4169
  711TMC3    C610513   1.990   0.879  15.382  0.2989 -0.3164  0.9177
  711TMC3     C10514   1.637   0.863  15.248 -0.0154 -0.2802  0.0198
  711TMC3     O10515   1.635   0.818  15.136 -0.4594  0.7698 -0.5261
  711TMC3     H10516   1.727   1.046  15.467  1.3599  1.2430 -0.2947
  711TMC3    H110517   1.835   0.893  15.089  0.1022 -1.2019 -0.1190
  711TMC3    H210518   2.059   0.817  15.439  0.3056  0.3905  1.6842
  711TMC3    C710519   1.999   0.711  15.221  0.1828  0.0297 -0.8120
  711TMC3    C810520   1.898   0.947  15.601 -0.0604  0.2988  0.1972
  711TMC3    O110521   2.092   0.664  15.285 -0.0585 -0.0343  0.3129
  711TMC3    O210522   1.793   0.986  15.656 -0.4597 -0.4473  0.0005
  712MPD2     C10523   3.577   1.567  14.038 -0.4712  0.1606  0.3388
  712MPD2    C110524   3.524   1.627  13.930  0.0614  0.1339  0.0933
  712MPD2    C210525   3.570   1.751  13.901  0.1535  0.3417  0.2527
  712MPD2    C310526   3.664   1.825  13.973  0.2011 -1.1367 -0.1768
  712MPD2    C410527   3.715   1.764  14.078  0.2976  0.5668 -0.6183
  712MPD2    C510528   3.660   1.642  14.113  0.2415 -0.9833 -1.1208
  712MPD2     H10529   3.538   1.784  13.803  1.1326 -1.7121 -0.7451
  712MPD2    H110530   3.794   1.819  14.127 -0.0130  0.3164  0.1637
  712MPD2    H210531   3.563   1.462  14.061  0.8974 -0.2929 -0.8778
  712MPD2    H310532   3.690   1.599  14.209 -1.9381 -0.1721 -0.0852
  712MPD2     N10533   3.706   1.954  13.931  0.0430  0.1843 -0.4972
  712MPD2    H510534   3.786   1.996  13.977 -0.8764 -0.1860  1.4186
  712MPD2    N110535   3.435   1.573  13.834 -0.8521  0.1979  0.2619
  712MPD2    H710536   3.414   1.633  13.755  2.6123  1.2333  0.1057
  713TMC3    C110537   3.685   2.155  13.793  0.0484 -0.5182  1.0045
  713TMC3    C210538   3.818   2.157  13.757  0.2823  0.0621 -0.2652
  713TMC3    C310539   3.855   2.208  13.637 -0.8300  0.6802 -0.4586
  713TMC3    C410540   3.592   2.226  13.718  1.0630  0.2274 -0.2636
  713TMC3    C510541   3.639   2.295  13.607 -0.0648  0.2911  0.0897
  713TMC3    C610542   3.767   2.282  13.558  0.6407 -0.9493  0.9247
  713TMC3     C10543   3.624   2.042  13.853 -0.3181 -0.4234 -0.1937
  713TMC3     O10544   3.504   2.044  13.839 -0.1179 -0.6998  0.1893
  713TMC3     H10545   3.884   2.103  13.824  0.2718  0.7351  0.2906
  713TMC3    H110546   3.495   2.245  13.761  0.5193  0.2175 -1.4845
  713TMC3    H210547   3.799   2.310  13.459 -1.2974 -2.4684 -0.1327
  713TMC3    C710548   3.538   2.374  13.538 -0.0233  0.3992 -0.5106
  713TMC3    C810549   3.985   2.259  13.626  0.5356  0.6584 -0.6608
  713TMC3    O110550   3.427   2.377  13.587 -0.4946  0.0267  0.3639
  713TMC3    O210551   3.996   2.353  13.550 -0.6578 -0.5106  0.2616
  714MPD2     C10552   0.285   0.887   1.729 -0.5583 -0.2470 -0.4392
  714MPD2    C110553   0.334   0.772   1.669  0.3236  0.5118 -0.6335
  714MPD2    C210554   0.259   0.713   1.569  0.2295 -0.1251  0.6179
  714MPD2    C310555   0.139   0.764   1.526 -0.4445 -0.1586 -0.4068
  714MPD2    C410556   0.084   0.876   1.589 -0.8011 -0.6988  0.3700
  714MPD2    C510557   0.154   0.928   1.701  0.3473 -0.3912  0.0190
  714MPD2     H10558   0.283   0.623   1.512  0.0159  0.5893 -0.6009
  714MPD2    H110559   4.703   0.906   1.574 -0.9153 -1.4547 -0.3492
  714MPD2    H210560   0.343   0.943   1.801 -1.8690 -1.8970  1.8996
  714MPD2    H310561   0.116   1.015   1.754 -1.5503 -2.0099  1.3071
  714MPD2     N10562   0.085   0.707   1.407  0.1482 -0.1691 -0.2018
  714MPD2    H510563   0.130   0.632   1.355 -1.5878  0.2291 -2.2891
  714MPD2    N110564   0.471   0.735   1.704  0.1284  0.0368 -0.5428
  714MPD2    H710565   0.515   0.786   1.780  0.1678 -1.0579  0.1670
  715TMC3    C110566   0.675   0.615   1.706  0.2823 -0.3900  0.2272
  715TMC3    C210567   0.723   0.486   1.710 -0.6554 -0.1299 -0.6278
  715TMC3    C310568   0.851   0.471   1.761  0.2965  0.1888 -0.0762
  715TMC3    C410569   0.743   0.723   1.751 -0.0383  0.6419 -0.8416
  715TMC3    C510570   0.867   0.703   1.799  0.0407  0.4608  0.9960
  715TMC3    C610571   0.927   0.579   1.806 -0.5141 -0.4086  0.0784
  715TMC3     C10572   0.540   0.629   1.656 -0.0973  0.1127  0.4065
  715TMC3     O10573   0.488   0.538   1.591  0.3194 -0.2114 -0.1565
  715TMC3     H10574   0.669   0.408   1.658  0.7775 -1.7996  0.3536
  715TMC3    H110575   0.702   0.821   1.730 -1.1732  0.5791  1.0957
  715TMC3    H210576   1.033   0.566   1.824 -0.4729 -1.2956 -0.7789
  715TMC3    C710577   0.962   0.818   1.824 -0.1450 -0.2874 -0.7586
  715TMC3    C810578   0.915   0.344   1.746 -0.7796 -0.6765  0.2480
  715TMC3    O110579   1.078   0.785   1.843 -0.3108 -0.1956 -0.2815
  715TMC3    O210580   0.875   0.267   1.660 -0.6762  0.3652 -0.1030
  716MPD2     C10581   1.099   2.505  10.145  0.2687  0.1966 -0.0779
  716MPD2    C110582   1.100   2.504  10.010  0.6534  0.5296 -0.4679
  716MPD2    C210583   1.219   2.460   9.960 -0.7220  0.2215 -0.2591
  716MPD2    C310584   1.321   2.397  10.033  0.0629 -0.0139  0.4981
  716MPD2    C410585   1.299   2.396  10.163  0.6162 -0.0511  0.2778
  716MPD2    C510586   1.189   2.448  10.221 -0.2647 -0.3019  0.5658
  716MPD2     H10587   1.240   2.464   9.854 -0.2065  2.3483 -0.0691
  716MPD2    H110588   1.371   2.354  10.232  1.9000  3.5160  1.1199
  716MPD2    H210589   1.017   2.554  10.196 -0.9859 -1.6612 -0.2867
  716MPD2    H310590   1.184   2.448  10.329  1.2968 -1.9351  0.6393
  716MPD2     N10591   1.424   2.334   9.963 -0.8911 -0.1300  0.5888
  716MPD2    H510592   1.437   2.327   9.863 -0.9321 -0.9769  0.6483
  716MPD2    N110593   1.001   2.568   9.937  0.2644 -0.5625  0.3420
  716MPD2    H710594   0.920   2.616   9.974  0.3773 -1.8299  2.2689
  717TMC3    C110595   1.623   2.205   9.915 -0.1829 -0.3841  0.1833
  717TMC3    C210596   1.620   2.253   9.787 -0.5653 -0.7291 -0.2773
  717TMC3    C310597   1.692   2.178   9.696 -0.4061  0.5599 -0.3843
  717TMC3    C410598   1.698   2.096   9.954  0.3235  0.4976  0.0555
  717TMC3    C510599   1.762   2.026   9.858 -0.7516 -0.0282 -0.2491
  717TMC3    C610600   1.754   2.066   9.726  0.1684 -0.2463  0.3391
  717TMC3     C10601   1.532   2.265  10.019  1.3623  0.3764  0.1524
  717TMC3     O10602   1.550   2.231  10.134 -0.1331  0.5124  0.3419
  717TMC3     H10603   1.566   2.346   9.768  1.5956  0.2494 -1.6789
  717TMC3    H110604   1.685   2.055  10.053 -2.1712 -0.3577 -0.6139
  717TMC3    H210605   1.780   2.002   9.643 -0.2183 -0.2881  0.2500
  717TMC3    C710606   1.822   1.902   9.900 -0.4817 -0.1500 -0.4611
  717TMC3    C810607   1.694   2.224   9.557 -0.5132  0.3245  0.5073
  717TMC3    O110608   1.800   1.859  10.010  0.5052  0.2976 -0.5166
  717TMC3    O210609   1.617   2.314   9.536  0.0381  0.3853 -0.2500
  718MPD2     C10610   0.820   2.231  13.147  0.3961  0.1685  0.1664
  718MPD2    C110611   0.727   2.330  13.130  0.0997  0.1912 -0.5221
  718MPD2    C210612   0.602   2.294  13.078 -0.0870 -0.9401 -0.7524
  718MPD2    C310613   0.575   2.168  13.030  0.1735 -0.6391 -0.4614
  718MPD2    C410614   0.674   2.074  13.040 -0.3899  0.4086 -0.0107
  718MPD2    C510615   0.786   2.106  13.107  0.4301 -0.1609 -0.3937
  718MPD2     H10616   0.536   2.380  13.071  1.3650  0.3214  1.1468
  718MPD2    H110617   0.667   1.973  13.000  1.3586  0.4653 -0.4808
  718MPD2    H210618   0.910   2.259  13.200 -1.9340  3.0593  2.6410
  718MPD2    H310619   0.859   2.029  13.129 -0.2470 -0.5434  0.4982
  718MPD2     N10620   0.458   2.145  12.956 -0.6619  0.0001 -0.3455
  718MPD2    H510621   0.390   2.219  12.971  0.1294  0.5470  0.5764
  718MPD2    N110622   0.754   2.467  13.143 -0.0126 -0.6393 -0.2783
  718MPD2    H710623   0.674   2.525  13.121 -0.6382 -1.8127 -1.0903
  719TMC3    C110624   0.875   2.667  13.117  0.6539  0.1087  0.3297
  719TMC3    C210625   0.748   2.707  13.133 -0.4087 -0.2732  0.1785
  719TMC3    C310626   0.694   2.793  13.037 -0.0477 -0.5947 -0.1613
  719TMC3    C410627   0.957   2.708  13.020 -0.2071  0.4967  0.5345
  719TMC3    C510628   0.909   2.796  12.928  0.0002  0.3113  0.2351
  719TMC3    C610629   0.775   2.836  12.928  0.8436  0.2706  0.3343
  719TMC3     C10630   0.881   2.526  13.137 -0.7141 -0.5463  0.1809
  719TMC3     O10631   0.992   2.472  13.139  0.3234  0.1134  0.4091
  719TMC3     H10632   0.691   2.683  13.222 -2.2049 -0.4475 -1.0101
  719TMC3    H110633   1.060   2.678  13.004 -1.1121 -1.0121 -2.4371
  719TMC3    H210634   0.735   2.900  12.849 -0.7848  1.0384  1.7718
  719TMC3    C710635   0.990   2.835  12.815  0.7038  0.0996 -0.1701
  719TMC3    C810636   0.557   2.747  13.000  0.0641 -0.6744  0.3967
  719TMC3    O110637   1.089   2.765  12.791  0.5264  0.0283  0.4977
  719TMC3    O210638   0.510   2.657  13.067  0.3193 -0.3662  0.0365
  720MPD2     C10639   3.197   3.427  14.015 -0.5705 -0.2661  0.2545
  720MPD2    C110640   3.299   3.490  13.942  0.0234 -0.2186  0.0798
  720MPD2    C210641   3.432   3.480  13.992  0.1533  0.6820 -0.1752
  720MPD2    C310642   3.465   3.419  14.106 -0.3142  0.6693  0.5287
  720MPD2    C410643   3.357   3.364  14.178 -0.1507 -0.6797 -0.2468
  720MPD2    C510644   3.227   3.369  14.140  0.5139  0.0774  0.4944
  720MPD2     H10645   3.503   3.541  13.938 -1.3681  0.7054 -2.1939
  720MPD2    H110646   3.374   3.313  14.272  1.2532  1.3694  0.6307
  720MPD2    H210647   3.091   3.429  13.995  0.0191  0.6387 -2.7663
  720MPD2    H310648   3.152   3.326  14.205 -0.3456  0.4492 -0.2451
  720MPD2     N10649   3.602   3.424  14.160  0.7886 -0.1520  0.5220
  720MPD2    H510650   3.677   3.464  14.104  1.7462 -1.5050  0.8252
  720MPD2    N110651   3.274   3.556  13.823  0.1601  0.0078 -0.4337
  720MPD2    H710652   3.354   3.608  13.788 -0.7732  1.7103 -0.0214
  721TMC3    C110653   3.766   3.397  14.325 -0.3460  0.1408 -0.1861
  721TMC3    C210654   3.771   3.410  14.465 -0.0469 -0.8963 -0.5027
  721TMC3    C310655   3.895   3.441  14.509 -0.6993  0.7544 -0.4803
  721TMC3    C410656   3.868   3.421  14.245  0.1501 -0.0526 -0.0444
  721TMC3    C510657   3.993   3.446  14.294 -0.4106 -0.2694  0.5328
  721TMC3    C610658   4.005   3.462  14.425 -0.3523  0.0975  0.1801
  721TMC3     C10659   3.637   3.364  14.276  0.0052  0.6310 -0.3395
  721TMC3     O10660   3.575   3.292  14.355  0.0041  0.0123 -1.2474
  721TMC3     H10661   3.683   3.393  14.526  1.4865 -2.7683  1.1997
  721TMC3    H110662   3.850   3.397  14.141  1.7493 -1.8804  0.1018
  721TMC3    H210663   4.105   3.478  14.465 -1.7235  0.7084  3.3069
  721TMC3    C710664   4.113   3.383  14.228  0.5805  0.2574  0.0052
  721TMC3    C810665   3.912   3.508  14.636  0.4570  0.1372  0.2957
  721TMC3    O110666   4.128   3.414  14.108  0.2532 -0.1158  0.1378
  721TMC3    O210667   3.989   3.601  14.622  0.4275 -0.2508  0.3580
  722MPD2     C10668   2.710   2.032  13.321 -0.1756 -0.1334  0.4454
  722MPD2    C110669   2.643   2.135  13.250  0.0814 -0.1732  0.6146
  722MPD2    C210670   2.513   2.110  13.214 -0.3681 -0.5188  0.3566
  722MPD2    C310671   2.447   1.992  13.248 -0.4885  0.1666  0.7446
  722MPD2    C410672   2.515   1.894  13.319 -0.1567 -0.6893  0.6133
  722MPD2    C510673   2.644   1.912  13.344 -0.5690 -0.2803  0.2118
  722MPD2     H10674   2.458   2.180  13.152  1.7469  1.2057  0.4182
  722MPD2    H110675   2.474   1.798  13.350 -1.6899 -0.2275  0.0266
  722MPD2    H210676   2.815   2.049  13.344 -0.1910  2.7771 -1.4865
  722MPD2    H310677   2.693   1.829  13.392  0.4205 -0.1355 -0.5478
  722MPD2     N10678   2.309   1.993  13.200  0.3101  0.1298  0.0790
  722MPD2    H510679   2.269   2.079  13.165 -1.6922 -0.8514 -0.0811
  722MPD2    N110680   2.684   2.265  13.225 -0.1367 -1.0038 -0.2604
  722MPD2    H710681   2.615   2.325  13.180  0.2867 -0.8178 -0.6677
  723TMC3    C110682   2.102   1.908  13.148 -0.0874 -0.5938 -0.6077
  723TMC3    C210683   2.007   1.823  13.198  0.4019  0.0453 -0.0026
  723TMC3    C310684   1.889   1.824  13.134  0.7834 -0.2214 -0.4287
  723TMC3    C410685   2.069   2.004  13.060  0.0666  0.5668 -0.2664
  723TMC3    C510686   1.942   2.017  13.011 -0.3986  0.2298 -0.3420
  723TMC3    C610687   1.853   1.915  13.036 -0.8214 -0.4125 -0.0823
  723TMC3     C10688   2.230   1.882  13.204  0.0835 -0.3787 -0.3176
  723TMC3     O10689   2.251   1.771  13.246  0.7142  0.1880 -0.1620
  723TMC3     H10690   2.029   1.752  13.277 -1.0744  0.8209  1.1114
  723TMC3    H110691   2.152   2.067  13.030  1.6549 -1.1743  0.4739
  723TMC3    H210692   1.756   1.912  12.988 -0.1484 -0.0829 -1.4399
  723TMC3    C710693   1.901   2.129  12.930  0.1771  0.1952 -0.3261
  723TMC3    C810694   1.795   1.745  13.201 -0.3301 -0.4835  0.6988
  723TMC3    O110695   1.820   2.104  12.843  0.2771  0.4625 -0.5993
  723TMC3    O210696   1.780   1.767  13.319  0.2945  0.0940 -0.2962
  724TMC3    C110697   2.601   1.990   9.794 -0.3381 -0.0017  0.0104
  724TMC3    C210698   2.709   2.015   9.882 -0.4086  0.3923  0.8344
  724TMC3    C310699   2.800   1.918   9.895 -0.1765  0.6022  0.3354
  724TMC3    C410700   2.576   1.869   9.736 -0.1726  0.3174  0.3575
  724TMC3    C510701   2.669   1.766   9.765  0.2630  0.3151 -0.7125
  724TMC3    C610702   2.779   1.790   9.842 -0.1344  0.0004  0.0053
  724TMC3     C10703   2.533   2.099   9.742  0.3913  0.3011  0.0977
  724TMC3     O10704   2.498   2.080   9.628  0.0982  0.3533  0.0628
  724TMC3     H10705   2.735   2.116   9.912 -0.9087  0.3889  1.2959
  724TMC3    H110706   2.486   1.843   9.681 -1.0134 -0.8886  2.2558
  724TMC3    H210707   2.847   1.710   9.866 -0.5040 -0.4338 -0.3863
  724TMC3    C710708   2.644   1.639   9.703  1.0264 -0.5024  0.2519
  724TMC3    C810709   2.935   1.968   9.918 -0.2315  0.1938 -0.1376
  724TMC3    O110710   2.749   1.590   9.662  0.2509  0.2751  0.2217
  724TMC3    O210711   2.939   2.078   9.966 -0.1587  0.3567 -0.0321
  725TMC3    C110712   3.459   4.112  12.930 -0.3332 -0.3638 -0.0593
  725TMC3    C210713   3.431   4.143  12.801 -0.5708 -0.2670  0.2536
  725TMC3    C310714   3.442   4.044  12.709  0.1127  0.2290  0.6402
  725TMC3    C410715   3.517   3.990  12.963  0.8037  0.1468 -0.8154
  725TMC3    C510716   3.534   3.895  12.865  0.3435 -0.1895 -0.3443
  725TMC3    C610717   3.484   3.920  12.745  0.3593  0.7319 -0.2309
  725TMC3     C10718   3.441   4.209  13.034 -0.2955  0.4000 -0.3119
  725TMC3     O10719   3.398   4.175  13.147 -0.2415 -0.6450 -0.7276
  725TMC3     H10720   3.373   4.229  12.770 -0.2844 -0.6516 -1.3408
  725TMC3    H110721   3.546   3.965  13.064  1.9102  2.2692 -0.6167
  725TMC3    H210722   3.474   3.835  12.679 -1.7580 -0.5308  1.7021
  725TMC3    C710723   3.589   3.763  12.891 -0.2708 -0.1009 -0.5021
  725TMC3    C810724   3.379   4.047  12.581 -0.3504 -0.4199 -0.2815
  725TMC3    O110725   3.611   3.691  12.796  0.3468 -0.1118 -0.7485
  725TMC3    O210726   3.343   3.942  12.529  0.6636  0.0430  0.1971
  726MPD2     C10727   2.545   0.122   9.951  0.9181 -0.1482 -0.3000
  726MPD2    C110728   2.431   0.169   9.893 -0.0800  0.4375 -1.2280
  726MPD2    C210729   2.310   0.095   9.896 -0.7413  0.0925  0.0860
  726MPD2    C310730   2.302   4.706   9.972  0.3251 -0.4859 -0.9710
  726MPD2    C410731   2.413   4.661  10.039 -0.3734 -0.6106  0.0071
  726MPD2    C510732   2.533   0.008  10.033 -0.5504  0.9301  0.0284
  726MPD2     H10733   2.223   0.137   9.846  0.4201  0.7194 -1.3892
  726MPD2    H110734   2.413   4.574  10.103  0.8043 -0.6377 -0.0312
  726MPD2    H210735   2.637   0.178   9.948  0.3099  0.7293 -3.2274
  726MPD2    H310736   2.625   4.692  10.079  0.3025  0.4101 -2.1115
  726MPD2     N10737   2.180   4.631   9.997  0.4136  0.3201 -0.0928
  726MPD2    H510738   2.188   4.545  10.051 -0.2531 -0.1801 -0.7912
  726MPD2    N110739   2.420   0.297   9.838  0.0649  0.3225 -0.0992
  726MPD2    H710740   2.334   0.319   9.789  0.5897 -0.3402 -1.3264
  727TMC3    C110741   2.486   0.535   9.825 -0.1466 -0.3873 -0.3778
  727TMC3    C210742   2.545   0.641   9.889 -0.3859  0.1368 -0.2145
  727TMC3    C310743   2.509   0.767   9.859 -0.1213 -1.0688  0.2307
  727TMC3    C410744   2.396   0.556   9.723 -0.0847  1.0851 -0.1081
  727TMC3    C510745   2.358   0.685   9.701  0.7002 -0.5535 -0.2810
  727TMC3    C610746   2.419   0.796   9.759  0.4425 -0.1313  0.1689
  727TMC3     C10747   2.507   0.400   9.877  0.5615  0.1528  0.2107
  727TMC3     O10748   2.595   0.400   9.964  0.3758 -0.4947  0.1979
  727TMC3     H10749   2.608   0.627   9.976 -3.3582 -1.6829  1.6467
  727TMC3    H110750   2.337   0.474   9.685  0.4368  0.3274  0.7177
  727TMC3    H210751   2.391   0.898   9.737 -0.0762 -0.5303 -1.0405
  727TMC3    C710752   2.260   0.708   9.597 -0.2541  0.5605 -0.4406
  727TMC3    C810753   2.558   0.875   9.944  0.0472 -0.8157  0.3721
  727TMC3    O110754   2.174   0.621   9.598 -0.5618  0.4501 -0.2193
  727TMC3    O210755   2.487   0.976   9.953 -0.1948 -0.3811  0.0298
  728TMC3    C110756   0.911   3.873  15.216  0.5997 -0.4440 -0.1391
  728TMC3    C210757   1.015   3.907  15.296  0.0296  0.1741 -0.3260
  728TMC3    C310758   1.135   3.921  15.239 -0.8997 -0.0003 -0.6982
  728TMC3    C410759   0.922   3.865  15.083  0.5214  0.0682  0.4668
  728TMC3    C510760   1.038   3.912  15.028  0.1137 -0.0623 -0.1670
  728TMC3    C610761   1.149   3.929  15.101  0.3609 -0.0038 -0.3781
  728TMC3     C10762   0.777   3.852  15.284  0.1265 -0.5739  0.2264
  728TMC3     O10763   0.700   3.779  15.226 -0.5194  0.3613 -0.4565
  728TMC3     H10764   1.010   3.904  15.404  1.6998 -2.2459 -0.3106
  728TMC3    H110765   0.835   3.842  15.024  1.5696 -1.9058 -0.3165
  728TMC3    H210766   1.244   3.957  15.055  0.0598  0.8837 -0.4562
  728TMC3    C710767   1.010   3.994  14.914  0.4113 -0.0911  1.1428
  728TMC3    C810768   1.256   3.890  15.318 -0.1309  0.3291 -0.2724
  728TMC3    O110769   0.953   3.943  14.818  0.4037 -0.2811  0.6450
  728TMC3    O210770   1.343   3.822  15.269  0.1874 -1.0542 -0.7381
  729MPD2     C10771   3.089   0.155  16.677 -0.2469 -0.1659  1.2282
  729MPD2    C110772   3.227   0.156  16.671 -0.5003  0.1237 -0.0227
  729MPD2    C210773   3.296   0.128  16.786 -0.3355  0.0728  0.0847
  729MPD2    C310774   3.230   0.102  16.904 -0.3350 -0.5914 -0.1284
  729MPD2    C410775   3.098   0.092  16.910 -0.4505 -0.2216  0.1138
  729MPD2    C510776   3.028   0.126  16.793 -0.3602  0.1195  0.6505
  729MPD2     H10777   3.404   0.140  16.792 -0.3434 -0.4227  1.2559
  729MPD2    H110778   3.044   0.086  17.004 -0.7469  1.2134  0.0491
  729MPD2    H210779   3.036   0.180  16.586  1.0339 -1.8764  0.0196
  729MPD2    H310780   2.919   0.126  16.788 -0.2039 -1.6844 -2.9167
  729MPD2     N10781   3.311   0.097  17.017 -0.1664  0.1651  0.3263
  729MPD2    H510782   3.410   0.098  16.998 -0.7630  2.1197 -2.7110
  729MPD2    N110783   3.285   0.184  16.547  0.0872  0.1396  0.5040
  729MPD2    H710784   3.222   0.217  16.475  1.8065 -0.9950 -1.5161
  730TMC3    C110785   3.388   0.119  17.241  0.8201  0.2178  0.0419
  730TMC3    C210786   3.499   0.090  17.173 -0.0543  0.2586 -0.0845
  730TMC3    C310787   3.604   0.176  17.163  0.0744 -0.0754  0.1706
  730TMC3    C410788   3.381   0.236  17.313  0.4011  0.1686  0.1539
  730TMC3    C510789   3.491   0.316  17.317  0.5103  0.7786 -0.7350
  730TMC3    C610790   3.610   0.283  17.248 -0.7485 -0.2907 -0.3405
  730TMC3     C10791   3.271   0.106  17.152  0.7104  0.3948  0.7765
  730TMC3     O10792   3.163   0.145  17.190  0.9697  0.2025  0.0205
  730TMC3     H10793   3.497   4.718  17.118  0.7971  0.5654 -0.6363
  730TMC3    H110794   3.289   0.273  17.356  0.4163 -0.8896  1.1065
  730TMC3    H210795   3.703   0.338  17.261 -0.4842 -0.6234 -0.8264
  730TMC3    C710796   3.479   0.449  17.354 -0.6183  0.1144 -0.5636
  730TMC3    C810797   3.664   0.203  17.030  0.1741 -0.0049 -0.1897
  730TMC3    O110798   3.547   0.525  17.292 -0.8330  0.3501  0.1671
  730TMC3    O210799   3.601   0.153  16.942 -0.1751  0.8768 -0.1278
  731MPD2     C10800   3.184   3.503  12.446  0.1738 -0.1082  0.4576
  731MPD2    C110801   3.304   3.564  12.464  0.2484  0.0339 -0.1609
  731MPD2    C210802   3.378   3.544  12.578 -0.2220  0.2519  0.4288
  731MPD2    C310803   3.328   3.470  12.682  1.1703 -0.4795 -0.0349
  731MPD2    C410804   3.201   3.402  12.659 -0.9358 -0.1942  0.0058
  731MPD2    C510805   3.128   3.422  12.542 -0.4354  0.2291 -0.5025
  731MPD2     H10806   3.465   3.608  12.587 -0.5072  0.4954  1.4763
  731MPD2    H110807   3.159   3.330  12.729  0.6120  0.2366  1.3880
  731MPD2    H210808   3.121   3.512  12.358 -0.8903 -0.7043  1.1501
  731MPD2    H310809   3.046   3.359  12.511 -0.6422  0.9273 -1.3951
  731MPD2     N10810   3.409   3.458  12.798 -0.2795  0.1602  0.4106
  731MPD2    H510811   3.505   3.492  12.795 -0.0558 -0.3321  1.8828
  731MPD2    N110812   3.340   3.648  12.356  0.7664  0.0060 -0.4876
  731MPD2    H710813   3.274   3.664  12.281  0.2098  2.0712  0.4458
  732TMC3    C110814   3.480   3.776  12.210  0.3590 -0.0183  0.4912
  732TMC3    C210815   3.382   3.779  12.112  0.1492 -0.9240 -0.3237
  732TMC3    C310816   3.412   3.772  11.980 -0.3992 -0.0018 -0.5730
  732TMC3    C410817   3.614   3.788  12.174 -0.2024 -0.0551 -0.6161
  732TMC3    C510818   3.636   3.787  12.034 -0.2872 -0.5740 -0.6038
  732TMC3    C610819   3.542   3.794  11.939  0.3603 -0.2956 -0.2026
  732TMC3     C10820   3.458   3.720  12.352 -0.3702 -0.5300  0.0369
  732TMC3     O10821   3.558   3.715  12.422 -0.5268 -0.1284  0.3523
  732TMC3     H10822   3.277   3.776  12.138  0.3175 -0.6609  0.3754
  732TMC3    H110823   3.691   3.776  12.249 -1.4104 -2.4366  0.2192
  732TMC3    H210824   3.571   3.784  11.835 -1.4183 -2.4882 -0.4758
  732TMC3    C710825   3.777   3.786  11.986 -0.2495 -0.0780 -0.3832
  732TMC3    C810826   3.344   3.673  11.895 -0.0582  0.4678  0.4729
  732TMC3    O110827   3.801   3.793  11.867  0.0034 -0.6132  0.4949
  732TMC3    O210828   3.404   3.626  11.801 -0.6767  0.0461 -0.0969
  733TMC3    C110829   0.066   2.029  12.776 -0.7255  0.7377 -0.4053
  733TMC3    C210830   0.183   1.977  12.827  0.0896  0.1435  0.3654
  733TMC3    C310831   0.297   2.059  12.810  0.8790 -0.0789 -0.5955
  733TMC3    C410832   0.059   2.159  12.717 -0.7358 -0.4304  1.0502
  733TMC3    C510833   0.177   2.220  12.697  0.1772  0.0138  0.5888
  733TMC3    C610834   0.296   2.173  12.741  0.0877 -0.0856 -0.1525
  733TMC3     C10835   4.659   1.959  12.799 -0.7642  0.0523 -0.1065
  733TMC3     O10836   4.555   2.012  12.760  0.4263  0.1872 -0.3482
  733TMC3     H10837   0.202   1.887  12.885  0.9922 -0.6769 -1.2071
  733TMC3    H110838   4.690   2.201  12.676  1.8026  1.7909 -2.2864
  733TMC3    H210839   0.389   2.222  12.717 -0.5132  0.8456 -0.5746
  733TMC3    C710840   0.166   2.363  12.656 -0.2554 -0.3685  0.0103
  733TMC3    C810841   0.425   2.029  12.885 -0.0612  0.4103  0.0619
  733TMC3    O110842   0.073   2.384  12.583  0.0823 -0.7205 -0.7663
  733TMC3    O210843   0.478   1.919  12.876 -0.1253  0.0224  0.2114
  734MPD2     C10844   1.621   4.214  12.605 -0.5894 -0.7073 -0.6949
  734MPD2    C110845   1.584   4.092  12.556  0.3519 -0.2134  0.2689
  734MPD2    C210846   1.561   4.084  12.418 -0.2869 -0.4292 -0.4964
  734MPD2    C310847   1.602   4.183  12.333  0.0914 -0.6137  0.1449
  734MPD2    C410848   1.646   4.305  12.389  0.3739 -0.0090 -0.2056
  734MPD2    C510849   1.641   4.326  12.527  0.6367 -0.7546 -0.7087
  734MPD2     H10850   1.517   3.997  12.371 -2.8899  1.2683 -1.2200
  734MPD2    H110851   1.678   4.388  12.328 -2.7141  0.9718 -0.4761
  734MPD2    H210852   1.625   4.222  12.713 -0.3296 -0.1292 -0.7458
  734MPD2    H310853   1.677   4.419  12.571 -0.9632  0.3287 -1.6903
  734MPD2     N10854   1.594   4.161  12.197 -0.0845 -0.7584  0.1043
  734MPD2    H510855   1.571   4.065  12.175  0.4632 -0.6340 -1.0511
  734MPD2    N110856   1.565   3.985  12.647  0.3020 -0.4182  0.0369
  734MPD2    H710857   1.594   4.007  12.742  1.1997  0.8128 -0.5085
  735TMC3    C110858   1.497   3.772  12.726  0.4272 -0.2138  0.3180
  735TMC3    C210859   1.393   3.680  12.705 -0.1766 -0.2686 -0.1155
  735TMC3    C310860   1.411   3.550  12.675 -0.4958 -0.6406  0.0672
  735TMC3    C410861   1.616   3.718  12.749  0.4742  0.4692  0.6441
  735TMC3    C510862   1.632   3.581  12.743  0.1282  0.2712  0.6886
  735TMC3    C610863   1.533   3.499  12.693 -0.0979  0.3623  1.3017
  735TMC3     C10864   1.503   3.866  12.618 -0.8036  0.1538  0.3387
  735TMC3     O10865   1.440   3.839  12.520  0.0641 -0.6432  0.5925
  735TMC3     H10866   1.291   3.717  12.702  0.0147  0.3450  0.8364
  735TMC3    H110867   1.706   3.777  12.763  1.4733 -1.3493  1.8316
  735TMC3    H210868   1.543   3.392  12.685 -0.1193  0.4692 -0.0675
  735TMC3    C710869   1.774   3.535  12.751 -0.1215  0.3573  0.2817
  735TMC3    C810870   1.354   3.503  12.550  0.6904  0.4995 -0.3470
  735TMC3    O110871   1.865   3.617  12.728  0.4705 -0.2343 -0.0555
  735TMC3    O210872   1.361   3.384  12.540  0.2359  0.5525  0.1879
  736MPD2     C10873   1.879   3.190  12.721 -0.8309 -0.2631 -0.2270
  736MPD2    C110874   1.890   3.325  12.686  0.2025  0.6292 -0.5023
  736MPD2    C210875   1.995   3.368  12.602  0.1148 -0.0534  0.2393
  736MPD2    C310876   2.079   3.276  12.545  0.5445 -0.6062  0.4736
  736MPD2    C410877   2.068   3.148  12.583 -0.0083 -0.3212 -0.2733
  736MPD2    C510878   1.977   3.103  12.674  0.1226  0.4829 -0.3557
  736MPD2     H10879   1.988   3.473  12.576 -0.5478 -0.7462 -2.3387
  736MPD2    H110880   2.142   3.079  12.544 -0.0580  0.9139 -2.6165
  736MPD2    H210881   1.791   3.149  12.769  0.6757 -1.0516  1.8718
  736MPD2    H310882   1.978   2.997  12.696 -1.5206  0.3177 -1.0716
  736MPD2     N10883   2.170   3.301  12.440 -0.4420 -0.0491  0.1495
  736MPD2    H510884   2.199   3.219  12.388 -1.1100 -0.6020  0.6349
  736MPD2    N110885   1.780   3.396  12.737 -0.8837 -0.3361 -0.3261
  736MPD2    H710886   1.702   3.340  12.772 -1.0045 -0.4860 -0.8403
  737TMC3    C110887   2.293   3.434  12.282 -0.1399 -0.2316 -0.0164
  737TMC3    C210888   2.272   3.542  12.194 -0.2505  0.0354  0.5051
  737TMC3    C310889   2.333   3.538  12.074 -0.1230 -0.0510 -1.1553
  737TMC3    C410890   2.356   3.319  12.247  0.2907 -0.5680 -0.1996
  737TMC3    C510891   2.418   3.326  12.124 -0.0745  0.3074  0.6666
  737TMC3    C610892   2.410   3.434  12.049 -0.8102 -0.6998 -0.3925
  737TMC3     C10893   2.222   3.429  12.408  0.3196 -0.9207 -0.2526
  737TMC3     O10894   2.197   3.538  12.451  0.9560  0.0633 -0.2643
  737TMC3     H10895   2.212   3.628  12.220  0.1032  0.0096  1.4129
  737TMC3    H110896   2.372   3.237  12.316  0.9572  0.2429  0.6276
  737TMC3    H210897   2.451   3.425  11.949  0.6467 -2.0653  0.3230
  737TMC3    C710898   2.476   3.205  12.078  0.1981  0.1147  0.5006
  737TMC3    C810899   2.311   3.642  11.984  0.3139  0.5472  0.5915
  737TMC3    O110900   2.437   3.103  12.137  0.4195  0.5639 -0.4253
  737TMC3    O210901   2.256   3.743  12.034  0.0590  0.0996  0.6780
  738MPD2     C10902   2.778   2.602  15.666  0.2555 -0.1125 -0.1304
  738MPD2    C110903   2.741   2.533  15.557 -0.3494  0.1316  0.0471
  738MPD2    C210904   2.831   2.491  15.460  0.1178 -0.2208  0.5576
  738MPD2    C310905   2.968   2.509  15.478  0.5287  0.5985 -0.6466
  738MPD2    C410906   3.007   2.577  15.591 -0.8620 -0.1252  0.3301
  738MPD2    C510907   2.912   2.633  15.675 -0.3438  0.3428  0.0576
  738MPD2     H10908   2.789   2.443  15.372 -0.2032 -0.3099  0.7611
  738MPD2    H110909   3.114   2.590  15.605 -0.4675 -0.6151 -2.2687
  738MPD2    H210910   2.704   2.616  15.744 -0.6095 -4.2424 -0.2276
  738MPD2    H310911   2.929   2.680  15.771 -2.2460  2.2194 -0.5328
  738MPD2     N10912   3.069   2.464  15.396  0.0072 -0.0477 -0.8772
  738MPD2    H510913   3.166   2.476  15.422 -0.5836  1.9579  0.4635
  738MPD2    N110914   2.606   2.486  15.541  0.4351  0.1515 -0.2929
  738MPD2    H710915   2.573   2.448  15.453 -0.0921  0.8468 -0.3967
  739TMC3    C110916   3.175   2.440  15.183  0.0771  0.0525 -0.3237
  739TMC3    C210917   3.175   2.487  15.054 -0.1449  0.3798  0.1173
  739TMC3    C310918   3.290   2.500  14.983  1.4333  0.9120 -0.0066
  739TMC3    C410919   3.301   2.409  15.239 -0.2101  0.0981 -0.0657
  739TMC3    C510920   3.414   2.430  15.171 -0.0417  0.2701 -0.3832
  739TMC3    C610921   3.410   2.489  15.051  0.4242 -0.1314 -0.3233
  739TMC3     C10922   3.049   2.443  15.259 -0.0803  0.0403  0.1154
  739TMC3     O10923   2.940   2.431  15.193  0.4661 -0.1253 -0.2489
  739TMC3     H10924   3.078   2.489  15.006 -1.5690 -2.5848  2.9565
  739TMC3    H110925   3.303   2.370  15.340  1.4309 -0.0860 -0.1659
  739TMC3    H210926   3.497   2.530  15.001 -0.7136 -0.6728 -2.7549
  739TMC3    C710927   3.539   2.418  15.242  0.6924  0.9196 -0.1763
  739TMC3    C810928   3.287   2.572  14.850 -0.1447  0.5768 -0.4101
  739TMC3    O110929   3.534   2.406  15.364 -0.1494  0.2056  0.4444
  739TMC3    O210930   3.179   2.624  14.822  0.0401 -0.2937 -0.3404
  740TMC3    C110931   3.181   3.678  14.856 -0.5427  0.7955  0.2699
  740TMC3    C210932   3.194   3.587  14.957 -0.4011 -0.2988 -0.1752
  740TMC3    C310933   3.298   3.503  14.953 -0.3861 -0.4947 -0.4063
  740TMC3    C410934   3.244   3.670  14.736  0.9347  0.0596 -0.1202
  740TMC3    C510935   3.344   3.576  14.733 -0.8331  0.1218 -0.3700
  740TMC3    C610936   3.373   3.493  14.837 -0.6417  0.0594 -0.0519
  740TMC3     C10937   3.073   3.762  14.855 -0.4195  0.5012 -0.7951
  740TMC3     O10938   3.080   3.857  14.779  0.3009  0.4094 -0.2561
  740TMC3     H10939   3.168   3.614  15.058  0.3063  0.5462 -0.2139
  740TMC3    H110940   3.230   3.744  14.658 -0.3104 -0.4120 -0.3403
  740TMC3    H210941   3.450   3.417  14.836  0.0307  0.6807  2.9778
  740TMC3    C710942   3.452   3.588  14.639  0.1327  0.0989 -0.3482
  740TMC3    C810943   3.331   3.402  15.055  0.7073  0.4711 -0.0697
  740TMC3    O110944   3.543   3.507  14.657 -0.0532  0.1855  0.1199
  740TMC3    O210945   3.372   3.298  15.011 -0.0157  0.4223 -0.5302
  741TMC3    C110946   3.084   2.826  15.122  0.0449 -0.4037 -0.1739
  741TMC3    C210947   3.052   2.843  14.988  0.4374  0.2714 -0.7087
  741TMC3    C310948   2.919   2.828  14.951 -0.4352  0.1032 -0.0399
  741TMC3    C410949   2.989   2.801  15.214 -0.2400  0.1519  0.0890
  741TMC3    C510950   2.861   2.773  15.177 -0.4377 -0.5214 -1.2216
  741TMC3    C610951   2.826   2.783  15.041  0.0675 -0.0154 -0.0030
  741TMC3     C10952   3.230   2.800  15.162  0.0196 -0.6784  0.5107
  741TMC3     O10953   3.254   2.721  15.251  0.2923  0.5121 -0.1590
  741TMC3     H10954   3.120   2.876  14.911  1.6382 -0.8452 -0.1362
  741TMC3    H110955   3.027   2.777  15.312  1.1360 -0.5765 -0.6265
  741TMC3    H210956   2.721   2.783  15.012 -0.3047 -2.0907  1.3102
  741TMC3    C710957   2.757   2.774  15.290 -0.3386  0.1710 -0.0413
  741TMC3    C810958   2.871   2.865  14.816 -0.4576  0.0026 -0.4312
  741TMC3    O110959   2.771   2.850  15.388 -0.5649 -0.0796 -0.4407
  741TMC3    O210960   2.768   2.926  14.815  0.0776  0.3013  0.2912
  742TMC3    C110961   2.260   1.546  15.631  0.0881 -0.2796  1.1703
  742TMC3    C210962   2.211   1.601  15.518 -0.0220 -0.2389 -0.1158
  742TMC3    C310963   2.247   1.528  15.407  0.2330  0.2727  0.2363
  742TMC3    C410964   2.363   1.449  15.641  0.8884  0.1634 -0.2207
  742TMC3    C510965   2.396   1.387  15.528  0.4704 -0.3369 -0.3569
  742TMC3    C610966   2.343   1.421  15.409  0.3341 -0.1012 -0.3356
  742TMC3     C10967   2.216   1.604  15.756  0.1251  0.1627 -0.1306
  742TMC3     O10968   2.169   1.715  15.753  0.1788  0.1781 -0.0793
  742TMC3     H10969   2.123   1.665  15.519 -1.0322 -1.6076 -1.2739
  742TMC3    H110970   2.412   1.434  15.736 -1.0915  0.5171  0.8446
  742TMC3    H210971   2.363   1.368  15.317 -0.7854 -0.1119 -0.5711
  742TMC3    C710972   2.495   1.278  15.530 -0.4863  0.3988 -0.4190
  742TMC3    C810973   2.184   1.543  15.277  0.1678  0.8778  0.0949
  742TMC3    O110974   2.539   1.250  15.419  0.3543  0.0037  0.2341
  742TMC3    O210975   2.233   1.484  15.180  0.1811  0.4350  0.0551
  743MPD2     C10976   0.538   2.599   2.016 -0.0783  0.7268  0.5676
  743MPD2    C110977   0.585   2.560   1.892  0.3002 -0.3748  0.4599
  743MPD2    C210978   0.709   2.616   1.852  0.3698  0.4041  0.0622
  743MPD2    C310979   0.766   2.717   1.921  0.0369 -0.0816  0.9799
  743MPD2    C410980   0.712   2.760   2.035  0.9166 -0.4582 -0.5527
  743MPD2    C510981   0.598   2.696   2.089  0.0987  0.3495 -0.2263
  743MPD2     H10982   0.747   2.590   1.754  3.5756  0.6786  1.2451
  743MPD2    H110983   0.754   2.846   2.085  0.2246  0.2341 -1.1598
  743MPD2    H210984   0.442   2.562   2.050  1.3126 -1.6074  1.9916
  743MPD2    H310985   0.558   2.728   2.185 -0.3645 -0.9561  0.0111
  743MPD2     N10986   0.884   2.766   1.869  0.5115 -0.4508  0.3673
  743MPD2    H510987   0.917   2.727   1.781  2.7286 -1.1178  1.4971
  743MPD2    N110988   0.503   2.472   1.808 -0.7294  0.4837 -0.0822
  743MPD2    H710989   0.407   2.454   1.835 -0.8541  0.8973 -0.2459
  744TMC3    C110990   0.420   2.364   1.622 -0.8345 -0.4770 -0.2622
  744TMC3    C210991   0.324   2.307   1.706  0.1546  0.1593  0.6644
  744TMC3    C310992   0.218   2.259   1.642  0.4531  0.1558  0.1643
  744TMC3    C410993   0.415   2.364   1.486  0.6810  0.6067 -1.3214
  744TMC3    C510994   0.303   2.322   1.424  0.1010 -0.5766 -0.4049
  744TMC3    C610995   0.200   2.281   1.508  0.4303 -0.4972 -0.2485
  744TMC3     C10996   0.533   2.429   1.684 -0.3798  0.1323  0.2037
  744TMC3     O10997   0.633   2.453   1.616  0.0687 -0.1187  0.0720
  744TMC3     H10998   0.348   2.295   1.811 -1.6178 -3.0133  0.7180
  744TMC3    H110999   0.485   2.421   1.426  0.5156  2.3935  0.1751
  744TMC3    H211000   0.106   2.255   1.461  0.9621 -0.5401 -1.2922
  744TMC3    C711001   0.274   2.344   1.280  0.5783  0.4018 -0.4229
  744TMC3    C811002   0.105   2.250   1.732 -0.0037  0.9246 -0.0563
  744TMC3    O111003   0.342   2.435   1.237  0.0341  0.0562  0.5486
  744TMC3    O211004   0.126   2.311   1.839  0.1360 -0.1618 -0.3871
  745TMC3    C111005   3.276   1.447  13.730  0.5809 -0.2702 -0.2756
  745TMC3    C211006   3.149   1.406  13.765  0.3462  0.3974  0.0655
  745TMC3    C311007   3.053   1.386  13.670 -0.2575  0.0787  0.0238
  745TMC3    C411008   3.304   1.481  13.600  0.2311 -0.1389  0.5171
  745TMC3    C511009   3.208   1.460  13.511 -0.2185 -0.9503  0.6882
  745TMC3    C611010   3.086   1.402  13.544  0.5989 -0.0522  0.0845
  745TMC3     C11011   3.369   1.453  13.833 -0.2099  0.3008 -0.1441
  745TMC3     O11012   3.375   1.377  13.923  0.0598  0.3290 -0.2370
  745TMC3     H11013   3.136   1.393  13.872  0.7271 -1.3908 -0.1079
  745TMC3    H111014   3.406   1.505  13.574  0.5859 -0.3787  1.6855
  745TMC3    H211015   3.011   1.375  13.470 -0.4367 -0.2059  1.1937
  745TMC3    C711016   3.241   1.475  13.367 -0.2338  0.1038 -0.3153
  745TMC3    C811017   2.917   1.341  13.694  0.1539  0.0186  0.7860
  745TMC3    O111018   3.146   1.455  13.288  0.6010  0.5807 -0.5175
  745TMC3    O211019   2.841   1.339  13.598 -0.1661  0.4426 -0.4660
  746TMC3    C111020   0.620   3.055  10.946 -0.1876 -0.4218 -0.1502
  746TMC3    C211021   0.687   3.009  10.827  0.5270  0.3718  0.3087
  746TMC3    C311022   0.663   2.877  10.790  0.7275 -0.2188 -0.1239
  746TMC3    C411023   0.533   2.976  11.015  0.3623  0.9211  0.7433
  746TMC3    C511024   0.511   2.846  10.970  0.1904  0.6450  0.2228
  746TMC3    C611025   0.578   2.794  10.857 -0.7745  0.9769  0.5537
  746TMC3     C11026   0.623   3.195  10.980 -0.5296  0.7764  0.0172
  746TMC3     O11027   0.592   3.219  11.094  0.1308 -0.3066 -0.5517
  746TMC3     H11028   0.767   3.065  10.780  0.7236  0.5996  0.9236
  746TMC3    H111029   0.486   3.009  11.107  0.9171 -2.7030  2.3276
  746TMC3    H211030   0.578   2.690  10.824  1.5746  1.8455 -2.2668
  746TMC3    C711031   0.449   2.744  11.056  0.6226  0.1252  0.5077
  746TMC3    C811032   0.729   2.824  10.675  0.4592 -0.7580  0.1162
  746TMC3    O111033   0.349   2.680  11.016  0.4815 -0.0758 -0.4739
  746TMC3    O211034   0.739   2.701  10.659  0.9784  0.1206  0.8101
  747TMC3    C111035   3.314   3.271  11.491 -0.5211 -0.7679  0.9431
  747TMC3    C211036   3.255   3.172  11.566  0.3123  0.4945 -0.2034
  747TMC3    C311037   3.146   3.205  11.639  0.8550  0.8022  0.3467
  747TMC3    C411038   3.262   3.396  11.495  0.3972 -0.3591 -0.7707
  747TMC3    C511039   3.164   3.423  11.590  0.0332  0.2084  0.2882
  747TMC3    C611040   3.102   3.332  11.664  1.0860  0.9881  0.0910
  747TMC3     C11041   3.460   3.272  11.473 -0.8851 -0.3009  0.1124
  747TMC3     O11042   3.523   3.366  11.512  0.2895 -0.4131 -0.3501
  747TMC3     H11043   3.293   3.071  11.564  0.1689  0.4492 -0.5047
  747TMC3    H111044   3.313   3.477  11.445 -0.0439  0.5004  0.1592
  747TMC3    H211045   2.999   3.354  11.694  1.2874  2.2797 -0.1702
  747TMC3    C711046   3.112   3.557  11.587  0.6440  0.3735 -0.0611
  747TMC3    C811047   3.076   3.096  11.706 -0.1324  0.0731  0.4517
  747TMC3    O111048   3.035   3.584  11.678 -0.1520  0.2289  0.1276
  747TMC3    O211049   3.138   3.010  11.759  0.0967 -0.3843 -0.4945
  748MPD2     C11050   4.272   4.660   2.016  0.0245  0.1725  0.0464
  748MPD2    C111051   4.324   4.533   2.017 -0.4503 -0.2049 -0.2214
  748MPD2    C211052   4.433   4.497   1.934 -0.3960  0.3888 -0.4663
  748MPD2    C311053   4.489   4.597   1.857 -0.2800 -0.5476 -0.0242
  748MPD2    C411054   4.441   0.010   1.864 -0.6537  0.1106 -0.0674
  748MPD2    C511055   4.331   0.036   1.940 -0.0777  0.2726 -0.2695
  748MPD2     H11056   4.477   4.399   1.930  2.4732  1.5993  1.6787
  748MPD2    H111057   4.486   0.087   1.803  0.0468 -0.5016 -0.3261
  748MPD2    H211058   4.188   4.684   2.081 -0.3491 -0.3389 -0.2470
  748MPD2    H311059   4.285   0.134   1.939 -0.0894  0.2728  1.5848
  748MPD2     N11060   4.587   4.566   1.761  0.5923 -0.9554  0.2096
  748MPD2    H511061   4.601   4.467   1.747  0.0299 -0.7640 -1.6798
  748MPD2    N111062   4.256   4.441   2.096  0.1723  0.3725  0.0419
  748MPD2    H711063   4.176   4.472   2.151  0.6723  2.6411 -0.4912
  749TMC3    C111064   0.030   4.564   1.590  0.7520 -0.5172 -0.3398
  749TMC3    C211065   0.110   4.465   1.650 -0.7890  0.1608  0.5419
  749TMC3    C311066   0.191   4.391   1.566  0.4424  0.9183 -0.5889
  749TMC3    C411067   0.042   4.594   1.458  0.5195 -0.6468 -0.5687
  749TMC3    C511068   0.114   4.508   1.376 -0.0333  1.0854  0.2957
  749TMC3    C611069   0.190   4.406   1.424 -0.3708 -0.3071 -0.1338
  749TMC3     C11070   4.652   4.642   1.667  0.6107  0.3459 -0.1804
  749TMC3     O11071   4.624   0.030   1.627  0.1444  0.2668  0.5393
  749TMC3     H11072   0.126   4.455   1.757  3.0006 -1.8382 -0.2173
  749TMC3    H111073   4.705   4.673   1.414  0.5709 -0.2958 -0.0063
  749TMC3    H211074   0.256   4.355   1.356 -1.0677 -1.0674 -0.2282
  749TMC3    C711075   0.117   4.556   1.238 -0.0355 -0.1878  0.2219
  749TMC3    C811076   0.294   4.314   1.630  0.1148 -0.3039 -0.3003
  749TMC3    O111077   0.127   4.672   1.220  0.2915  0.6495  0.1281
  749TMC3    O211078   0.326   4.342   1.743 -0.1683 -0.1234  0.1959
  750MPD2     C11079   0.798   0.252  10.827  0.5476  0.0612  0.5759
  750MPD2    C111080   0.702   0.274  10.928 -0.3741 -0.4015 -0.7618
  750MPD2    C211081   0.667   0.164  11.006  0.8337  0.9188 -0.3613
  750MPD2    C311082   0.714   0.042  10.974 -0.5344  0.3775  0.0445
  750MPD2    C411083   0.808   0.031  10.867  0.3497  0.1166  0.2129
  750MPD2    C511084   0.857   0.135  10.800 -0.4244  0.0372 -0.3280
  750MPD2     H11085   0.581   0.172  11.072 -0.3549 -0.3585 -1.7288
  750MPD2    H111086   0.845   4.657  10.834  0.9294  0.9010 -1.4109
  750MPD2    H211087   0.826   0.339  10.769 -1.5767 -0.9376 -1.9704
  750MPD2    H311088   0.930   0.129  10.720 -1.0111  0.2563 -0.8762
  750MPD2     N11089   0.671   4.639  11.027  1.0560 -0.1985  0.0040
  750MPD2    H511090   0.697   4.549  10.988  0.6012 -0.6284  0.6878
  750MPD2    N111091   0.652   0.406  10.937  0.4454 -0.0740  0.1935
  750MPD2    H711092   0.685   0.472  10.867  1.9196  0.7002  1.6092
  751TMC3    C111093   0.591   4.485  11.175  0.5444 -0.2563 -0.0236
  751TMC3    C211094   0.473   4.436  11.216  0.4762  0.2973 -0.2470
  751TMC3    C311095   0.472   4.304  11.252 -0.4022  0.3842 -0.2516
  751TMC3    C411096   0.710   4.412  11.181 -0.3219 -0.8837  0.6383
  751TMC3    C511097   0.706   4.281  11.209  0.3207 -0.1980  0.4545
  751TMC3    C611098   0.589   4.226  11.255 -0.1667 -0.0926  0.6136
  751TMC3     C11099   0.593   4.622  11.139 -0.6383 -0.1544 -0.6214
  751TMC3     O11100   0.529   4.694  11.213 -0.4693 -0.2306  0.2443
  751TMC3     H11101   0.382   4.495  11.222 -0.3319 -0.7995 -1.5456
  751TMC3    H111102   0.805   4.448  11.142 -0.7877 -0.6174 -0.2429
  751TMC3    H211103   0.581   4.119  11.271  1.5494 -0.4194 -0.7643
  751TMC3    C711104   0.742   4.207  11.090 -0.4954 -0.4287  1.0369
  751TMC3    C811105   0.357   4.228  11.222  0.0316 -0.3344  0.0384
  751TMC3    O111106   0.859   4.217  11.055  0.1144  0.4798 -0.2369
  751TMC3    O211107   0.337   4.207  11.100  0.2056  0.0195  0.0507
  752TMC3    C111108   4.229   0.252  16.906 -0.4534 -0.6018  0.0831
  752TMC3    C211109   4.203   0.293  17.029 -0.2111  0.3856  0.3886
  752TMC3    C311110   4.272   0.220  17.125  0.2511  0.5723 -0.0443
  752TMC3    C411111   4.301   0.147  16.868  0.0548  0.0805 -0.1547
  752TMC3    C511112   4.361   0.075  16.964 -0.6256 -0.7233 -0.1065
  752TMC3    C611113   4.343   0.105  17.098 -0.2462  0.9868 -0.0983
  752TMC3     C11114   4.212   0.352  16.800 -0.0272  0.4374 -0.2001
  752TMC3     O11115   4.252   0.466  16.827 -0.4546 -0.1101 -0.0435
  752TMC3     H11116   4.156   0.389  17.045 -0.5895 -0.0809  2.0308
  752TMC3    H111117   4.338   0.148  16.766 -0.8391 -0.4507 -0.4830
  752TMC3    H211118   4.392   0.051  17.179 -2.0595 -0.6177 -0.0673
  752TMC3    C711119   4.466   4.719  16.921  0.3468 -0.7073  0.0967
  752TMC3    C811120   4.253   0.267  17.263  0.3547  0.1127 -0.7498
  752TMC3    O111121   4.460   4.696  16.801  1.1590  0.8365  0.0653
  752TMC3    O211122   4.154   0.333  17.278  0.3684 -0.1384 -0.3755
  753TMC3    C111123   1.656   1.652  13.680  0.5267 -0.4080  0.4905
  753TMC3    C211124   1.569   1.627  13.780 -0.1235  0.1200 -0.2647
  753TMC3    C311125   1.538   1.501  13.809  0.3602  0.1774  0.1087
  753TMC3    C411126   1.683   1.558  13.589 -0.7259  0.0088  0.8801
  753TMC3    C511127   1.640   1.431  13.612  0.0919 -0.0468 -0.4787
  753TMC3    C611128   1.574   1.401  13.726 -0.4280  0.0393 -0.7430
  753TMC3     C11129   1.742   1.770  13.696  0.4556  0.5271  0.4552
  753TMC3     O11130   1.694   1.871  13.745  0.0324  0.1672  0.1522
  753TMC3     H11131   1.543   1.703  13.853 -1.7037 -1.7170  1.0704
  753TMC3    H111132   1.727   1.588  13.494 -2.2573 -0.7806 -0.0843
  753TMC3    H211133   1.548   1.296  13.738  0.8654 -0.2547 -0.4940
  753TMC3    C711134   1.673   1.338  13.509 -0.7350  0.1649  0.2297
  753TMC3    C811135   1.496   1.464  13.949  0.1861 -0.7379 -1.1487
  753TMC3    O111136   1.773   1.356  13.445 -0.4102  0.0355  0.5663
  753TMC3    O211137   1.460   1.347  13.966  0.2667  0.1756  0.4614
  754MPD2     C11138   4.107   4.204  12.690 -0.2793  0.3929  0.1049
  754MPD2    C111139   4.217   4.251  12.750  0.3059  0.3876 -0.3468
  754MPD2    C211140   4.227   4.377  12.798  0.0192 -0.7871 -0.6124
  754MPD2    C311141   4.111   4.453  12.804  0.1656  1.2611 -0.6854
  754MPD2    C411142   3.991   4.401  12.757  0.2343 -0.1473  0.2595
  754MPD2    C511143   3.995   4.277  12.697 -0.3224  0.0668  0.2938
  754MPD2     H11144   4.320   4.407  12.843 -0.0351 -2.5079  0.6304
  754MPD2    H111145   3.897   4.455  12.753  0.9038  1.1164  1.5754
  754MPD2    H211146   4.094   4.103  12.653  0.5262  0.6635 -0.9265
  754MPD2    H311147   3.906   4.227  12.661 -0.7660  0.7576  0.4198
  754MPD2     N11148   4.097   4.577  12.876  0.3853 -0.2659 -0.1661
  754MPD2    H511149   4.004   4.616  12.882  0.0870 -0.8500 -0.9419
  754MPD2    N111150   4.320   4.159  12.763 -0.1015  0.2642  0.1906
  754MPD2    H711151   4.302   4.063  12.735 -2.5921  0.7687  0.1282
  755MPD2     C11152   4.535   0.337  13.643  0.1640  0.3142 -1.0603
  755MPD2    C111153   4.400   0.336  13.668 -0.9979 -0.2510 -0.0716
  755MPD2    C211154   4.311   0.277  13.583  0.1161 -0.6704  0.1260
  755MPD2    C311155   4.358   0.215  13.469 -0.9010 -0.3912  0.1007
  755MPD2    C411156   4.494   0.216  13.442  0.1493 -0.3949  0.3921
  755MPD2    C511157   4.581   0.266  13.536  0.3294  0.2335 -0.1146
  755MPD2     H11158   4.204   0.290  13.592 -0.1164 -0.8389 -2.2329
  755MPD2    H111159   4.548   0.179  13.355 -0.9082 -1.8980  0.3780
  755MPD2    H211160   4.612   0.385  13.702 -0.1753 -1.8276  1.0800
  755MPD2    H311161   4.686   0.269  13.512 -0.2418 -0.7162 -2.7658
  755MPD2     N11162   4.289   0.161  13.359 -0.1432  0.3332 -0.1921
  755MPD2    H511163   4.346   0.131  13.281 -2.6204 -2.2508 -1.0347
  755MPD2    N111164   4.340   0.407  13.774  0.1022  0.0883 -0.6081
  755MPD2    H711165   4.242   0.388  13.794  1.2136 -3.0578  1.7534
  756MPD2     C11166   1.007   0.335   9.737  0.2271  0.4848 -0.5793
  756MPD2    C111167   1.003   0.401   9.621  0.0290 -0.2597 -0.1129
  756MPD2    C211168   0.924   0.363   9.513  0.0853 -0.5254 -0.7758
  756MPD2    C311169   0.854   0.244   9.530 -0.4871  0.3000  0.3788
  756MPD2    C411170   0.847   0.180   9.654 -0.4646  0.0395  0.0064
  756MPD2    C511171   0.922   0.227   9.756  0.0310  0.2209  0.1144
  756MPD2     H11172   0.929   0.424   9.424  1.4160  0.9955  0.3150
  756MPD2    H111173   0.784   0.096   9.681 -0.8446  0.6112  0.8960
  756MPD2    H211174   1.064   0.371   9.822  0.1647  1.4671 -0.9437
  756MPD2    H311175   0.913   0.178   9.852 -0.4247 -0.8315 -0.4582
  756MPD2     N11176   0.778   0.191   9.417 -0.0484  0.1606  0.5852
  756MPD2    H511177   0.763   0.253   9.338 -0.6609 -0.5471  0.1408
  756MPD2    N111178   1.080   0.515   9.604  0.4335 -0.2140 -0.3867
  756MPD2    H711179   1.087   0.564   9.515  1.6704 -0.2004 -0.2927
  757MPD2     C11180   0.230   4.090   9.309 -0.3917  0.1867  0.0304
  757MPD2    C111181   0.363   4.086   9.349  0.1920 -0.1488 -0.2287
  757MPD2    C211182   0.446   4.191   9.320  0.6218 -0.1025  0.4118
  757MPD2    C311183   0.391   4.301   9.246  0.0554  0.1688  0.0964
  757MPD2    C411184   0.262   4.299   9.197  0.6392 -0.1724 -0.1722
  757MPD2    C511185   0.183   4.196   9.239  0.3844  0.1311  0.2148
  757MPD2     H11186   0.552   4.194   9.340  0.5999 -0.8076  0.6276
  757MPD2    H111187   0.219   4.373   9.130  1.0947  1.0813  0.9420
  757MPD2    H211188   0.158   4.011   9.328  1.3385 -0.7811  2.6080
  757MPD2    H311189   0.081   4.196   9.201  0.0193 -0.4947  1.1887
  757MPD2     N11190   0.480   4.405   9.225  0.4693  0.7851 -0.2199
  757MPD2    H511191   0.570   4.410   9.271  1.6737 -2.4663 -2.2456
  757MPD2    N111192   0.402   3.976   9.426  0.1152 -0.1196 -0.2347
  757MPD2    H711193   0.329   3.910   9.450  0.5880  0.4593  2.8397
  758MPD2     C11194   0.273   4.230  16.012  0.0118  0.6885  0.4979
  758MPD2    C111195   0.347   4.209  16.127  0.6992  0.2495 -0.1645
  758MPD2    C211196   0.275   4.214  16.249  0.0216  0.0989 -0.5703
  758MPD2    C311197   0.138   4.234  16.258  0.0063  0.3589  0.0221
  758MPD2    C411198   0.071   4.248  16.135  0.4193  0.2603 -0.2060
  758MPD2    C511199   0.143   4.251  16.022 -0.2748  0.6532 -0.3098
  758MPD2     H11200   0.335   4.213  16.338  0.4653 -0.6998 -0.8761
  758MPD2    H111201   4.685   4.257  16.127  0.7526  3.2294 -1.6078
  758MPD2    H211202   0.318   4.226  15.914  0.4916 -1.1733  0.7813
  758MPD2    H311203   0.088   4.267  15.930 -1.5561  1.0461  0.5191
  758MPD2     N11204   0.065   4.244  16.384  0.2869 -0.3846 -0.0092
  758MPD2    H511205   4.687   4.260  16.375  0.1857 -0.2396  1.2789
  758MPD2    N111206   0.489   4.181  16.111 -0.1230  0.3931  0.7909
  758MPD2    H711207   0.520   4.179  16.015  0.8235 -2.6636  1.1960
  759MPD2     C11208   0.551   1.910   9.395 -0.3005  0.1645  0.4238
  759MPD2    C111209   0.442   1.981   9.438  0.1611 -0.3890 -0.8118
  759MPD2    C211210   0.424   2.111   9.397  0.3639  0.2461 -0.0398
  759MPD2    C311211   0.514   2.179   9.312  0.1787  0.2758 -0.2143
  759MPD2    C411212   0.631   2.110   9.287 -0.3559  0.5184 -0.5938
  759MPD2    C511213   0.647   1.978   9.323 -0.1878  0.0642  0.1586
  759MPD2     H11214   0.331   2.156   9.426  0.2164 -0.3943  0.4889
  759MPD2    H111215   0.711   2.149   9.224 -0.7773  0.2353 -1.3006
  759MPD2    H211216   0.567   1.804   9.413 -2.0322 -0.1097  0.2730
  759MPD2    H311217   0.735   1.917   9.303  0.0602 -0.1035  1.7522
  759MPD2     N11218   0.493   2.314   9.264  0.0124  0.8506  0.9574
  759MPD2    H511219   0.403   2.360   9.274  0.0475  0.9446  0.8443
  759MPD2    N111220   0.323   1.917   9.486  0.5606 -0.7501  0.5211
  759MPD2    H711221   0.245   1.973   9.518  1.7524  0.2368  1.7187
  760MPD2     C11222   3.552   0.590  11.860  0.4536 -0.2122 -0.2266
  760MPD2    C111223   3.678   0.555  11.820 -0.6780  0.3794  0.1935
  760MPD2    C211224   3.730   0.431  11.858  0.2342  0.7070  0.3666
  760MPD2    C311225   3.654   0.343  11.937 -0.1385 -0.6971 -0.3657
  760MPD2    C411226   3.526   0.384  11.964 -1.1104  0.2180 -0.9723
  760MPD2    C511227   3.474   0.504  11.931 -0.0798  0.6447  0.1535
  760MPD2     H11228   3.824   0.397  11.816 -1.1823 -1.3747 -1.1336
  760MPD2    H111229   3.458   0.321  12.020 -1.6261 -1.2015 -3.1929
  760MPD2    H211230   3.507   0.684  11.830 -0.5683 -0.8611 -0.7185
  760MPD2    H311231   3.370   0.527  11.949 -0.3149 -0.0451 -0.3178
  760MPD2     N11232   3.697   0.219  11.982  0.1010 -0.3448  0.3217
  760MPD2    H511233   3.623   0.169  12.030  0.8664 -0.4589  1.3946
  760MPD2    N111234   3.756   0.637  11.741  0.1806  0.2791  0.0639
  760MPD2    H711235   3.852   0.605  11.729 -0.3756 -0.2752 -2.7844
  761MPD2     C11236   0.243   3.754  11.368 -0.9444 -0.0057  0.3622
  761MPD2    C111237   0.265   3.802  11.241  0.1539  0.0281 -1.2730
  761MPD2    C211238   0.290   3.935  11.226 -0.2181  0.0291 -0.7361
  761MPD2    C311239   0.292   4.019  11.336 -0.3514 -0.0104 -0.2632
  761MPD2    C411240   0.271   3.971  11.456 -0.0762  0.5154 -0.3538
  761MPD2    C511241   0.248   3.838  11.475  0.1134  1.1615  0.2918
  761MPD2     H11242   0.306   3.975  11.126  0.9534 -2.6548 -1.6282
  761MPD2    H111243   0.282   4.035  11.543 -2.5653 -0.0132  0.3319
  761MPD2    H211244   0.236   3.648  11.391 -0.5872  0.5795  3.2763
  761MPD2    H311245   0.243   3.803  11.578 -1.8008 -0.9424 -0.5079
  761MPD2     N11246   0.317   4.157  11.329 -0.1708  0.2456 -0.6243
  761MPD2    H511247   0.305   4.211  11.414 -0.5269  0.0674 -0.5580
  761MPD2    N111248   0.267   3.703  11.136  0.2749  0.2984  0.2801
  761MPD2    H711249   0.276   3.606  11.162 -0.9515  0.5634  1.7260
  762MPD2     C11250   0.412   3.817  10.359 -0.1729  0.5501  1.3503
  762MPD2    C111251   0.436   3.687  10.399  0.1283 -0.0382 -0.0043
  762MPD2    C211252   0.516   3.611  10.315 -0.2417 -0.2704  0.0805
  762MPD2    C311253   0.596   3.664  10.210  0.0898 -0.2157 -0.2535
  762MPD2    C411254   0.576   3.799  10.183 -0.9293 -0.2691  0.7702
  762MPD2    C511255   0.486   3.868  10.255 -0.5286 -0.5704 -0.1184
  762MPD2     H11256   0.536   3.507  10.341  1.4730  0.0958  0.2473
  762MPD2    H111257   0.646   3.852  10.119  1.1267 -3.3174  0.4847
  762MPD2    H211258   0.346   3.877  10.420  0.0428  1.1427  1.0053
  762MPD2    H311259   0.469   3.974  10.239 -0.4007 -0.3646  1.0698
  762MPD2     N11260   0.698   3.587  10.148 -0.0190  0.1969  0.0520
  762MPD2    H511261   0.726   3.500  10.192 -0.4564 -0.2321 -0.5172
  762MPD2    N111262   0.388   3.643  10.528  0.5520 -0.0120  0.4021
  762MPD2    H711263   0.322   3.704  10.575  0.2534  0.3032 -0.4171
  763MPD2     C11264   1.556   4.466  16.388  0.2847  0.5221  0.1144
  763MPD2    C111265   1.679   4.489  16.336  0.8291  0.1576  0.1676
  763MPD2    C211266   1.780   4.567  16.408 -0.2789 -0.5874 -0.1809
  763MPD2    C311267   1.750   4.626  16.530 -0.1109 -0.0794 -0.2033
  763MPD2    C411268   1.628   4.593  16.583  0.0902 -0.2316 -0.4259
  763MPD2    C511269   1.535   4.518  16.512  0.7499  0.7602 -0.9542
  763MPD2     H11270   1.875   4.587  16.359  0.8079  0.4070  2.3423
  763MPD2    H111271   1.584   4.636  16.672 -2.8010 -1.0007 -1.4747
  763MPD2    H211272   1.474   4.417  16.337 -0.2181  0.8055  0.6531
  763MPD2    H311273   1.429   4.514  16.535  0.9023 -1.0822 -0.5043
  763MPD2     N11274   1.832   4.718  16.598  0.1490 -0.0888 -0.2863
  763MPD2    H511275   1.798   0.045  16.680  0.0682 -3.5547  1.7451
  763MPD2    N111276   1.722   4.447  16.209 -0.2197  0.0229 -0.1022
  763MPD2    H711277   1.818   4.477  16.195 -0.1046 -0.1371  0.3287
  764MPD2     C11278   0.242   1.568  17.182  0.0303  0.0913  0.6951
  764MPD2    C111279   0.145   1.471  17.187  0.4601  0.5235 -0.3024
  764MPD2    C211280   0.153   1.360  17.268 -0.4394 -0.1890  0.2212
  764MPD2    C311281   0.253   1.352  17.362  0.1502  0.3076  0.6548
  764MPD2    C411282   0.350   1.449  17.364  0.4368  0.0268 -0.3643
  764MPD2    C511283   0.343   1.560  17.280 -0.1013  0.4703  0.3008
  764MPD2     H11284   0.073   1.287  17.268 -0.4334 -0.2051 -2.8489
  764MPD2    H111285   0.440   1.444  17.425  0.7008  1.3009 -0.6430
  764MPD2    H211286   0.238   1.660  17.124  0.4829  0.9598  2.0551
  764MPD2    H311287   0.423   1.633  17.280 -0.9871  1.4362 -0.2640
  764MPD2     N11288   0.254   1.239  17.449 -0.7743  0.7844  0.3673
  764MPD2    H511289   0.179   1.172  17.433  1.2220 -1.0608 -1.2681
  764MPD2    N111290   0.047   1.464  17.088  0.0116  0.1453 -0.0197
  764MPD2    H711291   4.718   1.377  17.074 -2.2061  1.3116  0.7408
  765MPD2     C11292   4.248   3.412  15.991 -0.4020 -0.2729 -0.1514
  765MPD2    C111293   4.310   3.535  15.963 -0.6085  0.5302 -0.3294
  765MPD2    C211294   4.447   3.527  15.919 -0.1362  0.7136  1.1529
  765MPD2    C311295   4.517   3.405  15.908  0.3205 -0.4681  0.3395
  765MPD2    C411296   4.454   3.291  15.948  0.5998 -0.1761  0.4173
  765MPD2    C511297   4.321   3.296  15.982  0.4283  0.6948 -0.7643
  765MPD2     H11298   4.492   3.619  15.883 -0.5430  0.3278 -0.3406
  765MPD2    H111299   4.509   3.198  15.950  2.8339  1.1326 -0.4199
  765MPD2    H211300   4.145   3.411  16.023 -0.0486  0.2097  0.9938
  765MPD2    H311301   4.286   3.203  16.025  0.8897  0.2747 -1.3078
  765MPD2     N11302   4.651   3.415  15.859 -0.2425 -0.0226 -0.2821
  765MPD2    H511303   4.686   3.508  15.840 -0.2212 -0.1617 -0.9186
  765MPD2    N111304   4.236   3.656  15.966 -0.3847 -0.3963  0.2752
  765MPD2    H711305   4.135   3.642  15.973 -0.8422  2.4265 -0.6170
  766MPD2     C11306   3.923   3.561  15.491  0.4731  0.2152  0.8640
  766MPD2    C111307   3.976   3.688  15.491 -0.2384 -0.0081  0.2321
  766MPD2    C211308   4.060   3.720  15.395 -0.2141 -0.4229 -0.3410
  766MPD2    C311309   4.103   3.633  15.298  0.8509  0.3305 -0.3421
  766MPD2    C411310   4.053   3.503  15.298  0.1893  0.3162 -0.1052
  766MPD2    C511311   3.964   3.468  15.395  0.1422  0.0952 -0.9348
  766MPD2     H11312   4.113   3.814  15.409 -0.9428 -0.1752  0.7401
  766MPD2    H111313   4.067   3.424  15.226 -1.1537 -0.4592  0.4858
  766MPD2    H211314   3.855   3.529  15.569 -1.7462 -1.0162 -1.5830
  766MPD2    H311315   3.932   3.364  15.395  0.0057  0.1313  1.0494
  766MPD2     N11316   4.192   3.681  15.199 -0.2908  0.2435 -0.6279
  766MPD2    H511317   4.206   3.782  15.191 -1.2107  0.1488 -3.3539
  766MPD2    N111318   3.951   3.774  15.599  0.3271 -0.3461  0.4480
  766MPD2    H711319   3.911   3.725  15.678  0.2175  1.0357  1.2580
  767MPD2     C11320   3.883   4.086  15.263  0.4744 -0.8716 -0.1680
  767MPD2    C111321   4.001   4.058  15.203  0.2458  0.3722  0.5707
  767MPD2    C211322   4.001   4.017  15.066 -0.4137  0.1417 -0.3131
  767MPD2    C311323   3.885   4.002  14.997 -0.0281  0.6547 -0.8015
  767MPD2    C411324   3.769   4.030  15.066  0.6176 -0.1265  0.2811
  767MPD2    C511325   3.770   4.068  15.197 -0.4113  0.3413 -0.3487
  767MPD2     H11326   4.099   3.994  15.024 -0.0369 -1.3525  1.3748
  767MPD2    H111327   3.673   4.025  15.016 -0.4719  2.1663  2.1101
  767MPD2    H211328   3.873   4.130  15.362  0.6860 -1.9764  0.3329
  767MPD2    H311329   3.676   4.078  15.250 -0.3139  1.5070 -0.3830
  767MPD2     N11330   3.890   3.968  14.856 -0.8648  0.2219  0.1346
  767MPD2    H511331   3.986   3.961  14.825 -0.6769  4.0078 -0.2070
  767MPD2    N111332   4.114   4.087  15.285 -0.0536 -0.9583 -0.4122
  767MPD2    H711333   4.097   4.138  15.372 -1.6032  0.0771 -1.3255
  768MPD2     C11334   0.652   2.110  10.755 -0.7274  0.7779  0.6363
  768MPD2    C111335   0.610   2.111  10.887 -0.4285  0.3774 -0.2211
  768MPD2    C211336   0.694   2.156  10.990  0.1787 -0.4482 -0.3643
  768MPD2    C311337   0.822   2.208  10.961  0.2174  0.4286  0.3793
  768MPD2    C411338   0.860   2.206  10.830 -0.5418  0.2310  0.3019
  768MPD2    C511339   0.781   2.151  10.727 -0.2785 -0.3334 -0.2712
  768MPD2     H11340   0.660   2.153  11.093  0.0653 -1.7876 -0.4502
  768MPD2    H111341   0.943   2.269  10.801  0.7974 -1.8099 -0.3177
  768MPD2    H211342   0.583   2.074  10.680 -1.3455  0.1565  1.5016
  768MPD2    H311343   0.818   2.154  10.625  0.8620  0.6160  0.1874
  768MPD2     N11344   0.919   2.258  11.053 -0.7772 -0.1499  0.1698
  768MPD2    H511345   1.014   2.272  11.018 -0.5717 -3.3539 -0.5827
  768MPD2    N111346   0.480   2.075  10.926 -0.2972 -0.8563 -0.0708
  768MPD2    H711347   0.473   2.081  11.027  1.2718  0.1226 -0.0267
  769MPD2     C11348   1.170   0.956  14.885  0.2607  0.2307 -0.1394
  769MPD2    C111349   1.127   0.864  14.983  0.3185  0.2459 -0.6453
  769MPD2    C211350   1.179   0.866  15.108 -0.2011  0.6536 -0.3975
  769MPD2    C311351   1.263   0.970  15.153  0.1953  0.9006  0.2267
  769MPD2    C411352   1.312   1.046  15.056  0.0310  0.0393  0.2528
  769MPD2    C511353   1.263   1.043  14.929  0.0823  0.1596  0.5628
  769MPD2     H11354   1.148   0.796  15.184 -0.1443  0.0520 -0.9325
  769MPD2    H111355   1.384   1.126  15.069  0.9390 -0.2181 -2.9956
  769MPD2    H211356   1.129   0.978  14.787  0.1646  2.2762  0.3596
  769MPD2    H311357   1.293   1.118  14.857  1.2005  1.4125  2.3359
  769MPD2     N11358   1.288   0.974  15.291  0.1537  0.3918 -0.3053
  769MPD2    H511359   1.236   0.913  15.352  0.5958 -1.2491 -1.5595
  769MPD2    N111360   1.031   0.773  14.946 -0.2865 -0.4596 -0.0930
  769MPD2    H711361   0.989   0.793  14.856 -0.0525 -0.6300 -0.2391
  770MPD2     C11362   0.424   0.055  15.307  0.0351 -0.0191  0.8407
  770MPD2    C111363   0.563   0.066  15.283  0.0082 -0.0871 -0.0843
  770MPD2    C211364   0.608   0.187  15.252 -0.1484 -0.1325  0.9227
  770MPD2    C311365   0.531   0.302  15.232 -0.6575  0.0936 -0.3928
  770MPD2    C411366   0.393   0.286  15.251 -0.6468 -0.7730 -0.3905
  770MPD2    C511367   0.341   0.167  15.294  1.0625  0.6932 -0.3522
  770MPD2     H11368   0.713   0.200  15.229 -0.0654 -1.4489  0.5665
  770MPD2    H111369   0.326   0.371  15.242 -1.0334 -1.0901 -0.5126
  770MPD2    H211370   0.383   4.680  15.332  3.1568 -1.0802  1.9355
  770MPD2    H311371   0.234   0.153  15.299  1.2812 -0.9292 -0.2429
  770MPD2     N11372   0.597   0.416  15.183 -0.0506  0.4428  0.0817
  770MPD2    H511373   0.697   0.408  15.169 -0.1441  0.9319 -0.8801
  770MPD2    N111374   0.640   4.671  15.287 -0.1226 -0.0981  0.4253
  770MPD2    H711375   0.592   4.584  15.311  0.1864  0.0502  1.5774
  771MPD2     C11376   2.288   3.206  13.757 -0.0419 -0.3140 -0.3086
  771MPD2    C111377   2.242   3.312  13.688  0.9113 -0.3780  0.0811
  771MPD2    C211378   2.176   3.293  13.569 -0.5798 -0.4197  0.0932
  771MPD2    C311379   2.169   3.172  13.504  0.1630 -0.3226 -0.0331
  771MPD2    C411380   2.211   3.067  13.579  0.0581 -0.0079  0.6058
  771MPD2    C511381   2.271   3.087  13.704 -0.0156 -0.1878 -0.5238
  771MPD2     H11382   2.147   3.378  13.509 -2.9854 -0.1465  1.6431
  771MPD2    H111383   2.193   2.967  13.542  0.0384  0.4488 -0.6289
  771MPD2    H211384   2.326   3.217  13.858 -1.0127 -4.0590  0.4695
  771MPD2    H311385   2.303   3.002  13.763 -0.2153 -0.1698 -0.3904
  771MPD2     N11386   2.109   3.155  13.376 -0.5992 -0.6194  0.2675
  771MPD2    H511387   2.081   3.240  13.328  2.3567  1.3804  2.0900
  771MPD2    N111388   2.258   3.445  13.739  0.0332  0.3098 -0.6631
  771MPD2    H711389   2.250   3.521  13.672 -1.0139  0.4819 -0.3325
  772MPD2     C11390   1.925   3.995  14.221 -0.3174 -0.7433 -1.0807
  772MPD2    C111391   1.900   3.891  14.137 -0.1160 -0.3007 -0.2905
  772MPD2    C211392   1.776   3.826  14.139 -0.2295 -0.4446  0.1110
  772MPD2    C311393   1.682   3.852  14.231 -1.1295  0.3767  0.1702
  772MPD2    C411394   1.713   3.955  14.319  0.2719  0.1767 -0.1091
  772MPD2    C511395   1.827   4.038  14.309  0.1166 -0.6458 -0.4732
  772MPD2     H11396   1.763   3.736  14.080 -0.3834 -0.2373 -0.1692
  772MPD2    H111397   1.643   3.974  14.399  1.1214  1.0667  0.4223
  772MPD2    H211398   2.014   4.055  14.213 -1.6224  1.4598  0.9212
  772MPD2    H311399   1.841   4.115  14.384 -4.0195 -0.2035 -0.1827
  772MPD2     N11400   1.560   3.793  14.241  0.2527 -0.1231  0.4141
  772MPD2    H511401   1.497   3.825  14.314 -0.9545  0.1066 -0.7404
  772MPD2    N111402   1.998   3.849  14.043 -0.2902 -0.0295 -0.0408
  772MPD2    H711403   1.978   3.766  13.988 -2.7388 -0.2738  1.2094
  773MPD2     C11404   0.547   0.486   0.645 -0.1502  0.4267 -0.3293
  773MPD2    C111405   0.540   0.364   0.582 -0.8332  0.4921 -0.2769
  773MPD2    C211406   0.616   0.262   0.630  0.7427  0.3353  0.2304
  773MPD2    C311407   0.698   0.278   0.735  0.0721  0.6984 -0.6154
  773MPD2    C411408   0.700   0.402   0.801  0.5382  0.1746 -0.1004
  773MPD2    C511409   0.633   0.507   0.745 -0.8753  0.3523 -0.8674
  773MPD2     H11410   0.611   0.169   0.575 -0.2952  0.7406 -0.3677
  773MPD2    H111411   0.772   0.431   0.877 -0.4361 -2.8609  1.9800
  773MPD2    H211412   0.489   0.572   0.613  0.1747  0.1539 -1.6597
  773MPD2    H311413   0.636   0.605   0.790  0.9266  1.1164 -2.6676
  773MPD2     N11414   0.787   0.171   0.765 -0.0144 -1.1754  0.0580
  773MPD2    H511415   0.809   0.104   0.692  2.3093 -0.5242  0.1458
  773MPD2    N111416   0.466   0.336   0.467  0.0337 -0.1001 -0.1406
  773MPD2    H711417   0.437   0.242   0.442 -1.8523  0.6371 -0.7403
  774MPD2     C11418   4.411   3.539  13.499  0.6684  0.7031  0.1700
  774MPD2    C111419   4.532   3.597  13.491  1.1570 -0.4424 -0.6313
  774MPD2    C211420   4.565   3.676  13.384  0.2523 -0.1574  0.0506
  774MPD2    C311421   4.477   3.705  13.279  0.3784 -0.0550  0.2095
  774MPD2    C411422   4.354   3.645  13.288  0.3547 -0.3098  0.1668
  774MPD2    C511423   4.324   3.566  13.392  0.6817 -0.5298 -0.1816
  774MPD2     H11424   4.661   3.727  13.383  0.1451  0.0155 -1.0218
  774MPD2    H111425   4.272   3.667  13.221 -0.6432  0.1869  1.5258
  774MPD2    H211426   4.375   3.498  13.592 -0.6258  0.8337 -0.2686
  774MPD2    H311427   4.221   3.533  13.400  0.7284 -0.8636 -1.0059
  774MPD2     N11428   4.526   3.785  13.176  0.3837 -0.0895 -0.7807
  774MPD2    H511429   4.615   3.831  13.193 -0.1461 -0.0280  1.8293
  774MPD2    N111430   4.612   3.568  13.598  0.4439 -0.0074 -0.8474
  774MPD2    H711431   4.561   3.520  13.671  0.4773  0.2810 -0.6353
  775MPD2     C11432   1.435   0.734  16.012 -0.5320 -0.0770 -0.5576
  775MPD2    C111433   1.423   0.829  16.111  0.9853 -0.2180 -0.1082
  775MPD2    C211434   1.487   0.952  16.085 -0.3849  0.7101  0.6194
  775MPD2    C311435   1.562   0.973  15.975  0.4061 -0.5186 -0.2353
  775MPD2    C411436   1.570   0.882  15.876 -0.6018  0.8696  0.0307
  775MPD2    C511437   1.510   0.763  15.900  0.0537 -0.1717  0.0496
  775MPD2     H11438   1.479   1.029  16.161 -2.6806 -0.7478  1.8698
  775MPD2    H111439   1.632   0.894  15.788 -2.7820  1.4976 -1.4094
  775MPD2    H211440   1.379   0.642  16.026 -0.1545 -0.1434  0.4999
  775MPD2    H311441   1.515   0.695  15.815  2.7297  0.0403  0.0454
  775MPD2     N11442   1.632   1.094  15.957  0.3086  0.2889 -0.1371
  775MPD2    H511443   1.693   1.096  15.876 -2.1537 -1.5881 -2.0562
  775MPD2    N111444   1.333   0.802  16.216  0.6893  1.0128 -0.0757
  775MPD2    H711445   1.287   0.712  16.213 -1.0304  1.9116 -0.8787
  776MPD2     C11446   0.986   0.678  11.295  0.0339  0.1271  0.1315
  776MPD2    C111447   0.928   0.786  11.234  0.9114 -0.2055 -0.1271
  776MPD2    C211448   0.988   0.913  11.250 -0.4149 -0.0775  0.2995
  776MPD2    C311449   1.103   0.924  11.327 -0.3725 -0.6003  0.3414
  776MPD2    C411450   1.167   0.809  11.381 -0.5194  0.8722 -0.4650
  776MPD2    C511451   1.105   0.684  11.363  0.3689  0.1267 -1.0278
  776MPD2     H11452   0.943   1.004  11.211  0.4506  0.0884 -0.2882
  776MPD2    H111453   1.253   0.809  11.447 -0.0243 -1.4469 -1.1037
  776MPD2    H211454   0.939   0.580  11.290 -0.1261  0.2160 -0.1302
  776MPD2    H311455   1.145   0.595  11.411  2.1367  1.2363 -0.4786
  776MPD2     N11456   1.180   1.045  11.339  0.5078  0.3639 -0.2770
  776MPD2    H511457   1.265   1.036  11.395  0.6035 -1.2689 -0.6809
  776MPD2    N111458   0.810   0.766  11.167 -0.0688 -0.5557 -0.3140
  776MPD2    H711459   0.772   0.672  11.174  1.6259 -1.1308  1.0346
  777MPD2     C11460   0.499   3.448   0.835  0.0329  0.1427 -0.1374
  777MPD2    C111461   0.485   3.356   0.937  0.3706  0.0808  0.2026
  777MPD2    C211462   0.426   3.234   0.913 -0.0234  0.0097 -0.3681
  777MPD2    C311463   0.408   3.202   0.778 -0.5561 -0.1363 -0.1463
  777MPD2    C411464   0.416   3.298   0.681 -0.0631 -0.4986 -0.7220
  777MPD2    C511465   0.462   3.422   0.706  0.7972  0.0126 -0.2341
  777MPD2     H11466   0.411   3.158   0.989 -1.1424 -0.3507 -0.9431
  777MPD2    H111467   0.381   3.286   0.579 -0.6528  1.2722 -0.7400
  777MPD2    H211468   0.549   3.540   0.863  1.3504 -0.2427 -1.2008
  777MPD2    H311469   0.474   3.492   0.624  0.6594 -1.2439 -1.3151
  777MPD2     N11470   0.374   3.066   0.745  0.1977 -0.2765 -0.3883
  777MPD2    H511471   0.368   2.999   0.822 -0.0421  0.9033  0.6255
  777MPD2    N111472   0.529   3.399   1.069  0.2426  0.4612  1.4670
  777MPD2    H711473   0.548   3.496   1.092  1.0500  1.1711 -2.3097
  778MPD2     C11474   1.986   3.797  15.018  0.5640 -0.6087 -0.1067
  778MPD2    C111475   2.057   3.683  14.985  0.2366 -0.4859 -0.0040
  778MPD2    C211476   2.162   3.697  14.900  0.8548  1.1893  0.2898
  778MPD2    C311477   2.217   3.814  14.865  0.0046 -0.6785 -0.0497
  778MPD2    C411478   2.143   3.925  14.897 -0.2725  0.4436 -0.1444
  778MPD2    C511479   2.033   3.914  14.969 -0.6444  0.6591  0.6243
  778MPD2     H11480   2.202   3.605  14.860 -0.5876  1.4657 -1.8219
  778MPD2    H111481   2.175   4.027  14.881  1.8568 -0.0515  1.0578
  778MPD2    H211482   1.902   3.803  15.086  0.3565 -0.7626 -0.3496
  778MPD2    H311483   1.985   4.005  15.003 -1.8292  0.4532 -0.4994
  778MPD2     N11484   2.338   3.824  14.791  0.2936 -0.1889 -0.7056
  778MPD2    H511485   2.396   3.743  14.772 -0.8649 -1.7400  2.4030
  778MPD2    N111486   2.013   3.554  15.031  0.0653  0.2850  0.1597
  778MPD2    H711487   2.079   3.480  15.006 -1.3004 -1.6454  2.2045
  779MPD2     C11488   2.134   2.209  14.080 -0.0708 -0.6331  0.5147
  779MPD2    C111489   2.140   2.250  14.207  0.2247  0.1295  0.7347
  779MPD2    C211490   2.193   2.376  14.229  0.0520  0.3671 -0.1738
  779MPD2    C311491   2.215   2.453  14.118 -0.2847 -0.5301  0.0847
  779MPD2    C411492   2.200   2.412  13.991 -0.1803  0.8728 -0.4954
  779MPD2    C511493   2.154   2.285  13.971 -0.2616  0.3062 -0.2034
  779MPD2     H11494   2.201   2.419  14.328 -2.1261  1.9447 -0.7106
  779MPD2    H111495   2.203   2.480  13.906  1.2411  0.8035 -0.4888
  779MPD2    H211496   2.092   2.110  14.063  2.0856 -1.6916  1.3107
  779MPD2    H311497   2.124   2.243  13.876  0.2794  2.0868 -1.1510
  779MPD2     N11498   2.265   2.585  14.150 -0.1904 -0.5931 -0.0530
  779MPD2    H511499   2.298   2.603  14.244  0.6298  2.3349 -0.9073
  779MPD2    N111500   2.090   2.172  14.311  0.3390 -0.1671 -0.0074
  779MPD2    H711501   2.054   2.081  14.282 -1.3938  0.2660  0.8017
  780MPD2     C11502   0.897   2.568   0.939 -0.2743  0.1164  0.1072
  780MPD2    C111503   0.836   2.514   0.832  0.4119 -1.1693  0.4330
  780MPD2    C211504   0.906   2.493   0.716  0.0072 -0.2955  0.0373
  780MPD2    C311505   1.038   2.539   0.702  0.4758 -0.2039  0.5075
  780MPD2    C411506   1.091   2.610   0.805 -0.1169 -0.0966  0.3403
  780MPD2    C511507   1.022   2.628   0.923 -0.0868 -0.0406  0.5948
  780MPD2     H11508   0.864   2.437   0.633  0.9721 -0.4156 -0.3758
  780MPD2    H111509   1.186   2.656   0.786  0.7453 -1.5291  1.1638
  780MPD2    H211510   0.842   2.577   1.032 -0.9376  2.7595 -0.5169
  780MPD2    H311511   1.063   2.683   1.007  0.7628 -0.0219  0.1691
  780MPD2     N11512   1.097   2.517   0.573 -0.3206  0.6591 -0.9846
  780MPD2    H511513   1.036   2.479   0.501 -1.8607 -2.5153  2.0066
  780MPD2    N111514   0.704   2.457   0.850 -0.6193  0.6133  0.2735
  780MPD2    H711515   0.669   2.439   0.944 -1.2419  0.4081  0.0030
  781MPD2     C11516   3.033   4.331  12.530 -0.0850  1.1440  0.3532
  781MPD2    C111517   3.008   4.206  12.480  0.2612  0.2669 -0.0887
  781MPD2    C211518   2.957   4.193  12.346 -0.2987 -0.8081 -0.3005
  781MPD2    C311519   2.933   4.308  12.270  0.1768 -0.4349  0.5118
  781MPD2    C411520   2.951   4.428  12.330  0.4984  0.4617  0.0636
  781MPD2    C511521   3.007   4.442  12.449 -0.1249  0.1693 -0.3023
  781MPD2     H11522   2.921   4.099  12.305 -2.3209  0.9116 -2.4632
  781MPD2    H111523   2.940   4.523  12.279  0.4999 -0.3679 -1.4853
  781MPD2    H211524   3.081   4.346  12.626  1.5778 -1.8052 -0.0139
  781MPD2    H311525   3.022   4.539  12.494  2.3075  0.2553 -1.2829
  781MPD2     N11526   2.878   4.303  12.142  1.5294  0.1302 -0.1471
  781MPD2    H511527   2.849   4.391  12.101 -0.7745 -0.9699 -0.8360
  781MPD2    N111528   3.028   4.089  12.560 -0.1227  0.4127 -0.4000
  781MPD2    H711529   2.985   4.007  12.520  0.5425  0.8264 -1.9911
  782MPD2     C11530   1.328   4.003   9.936  0.3421 -1.0268 -0.7665
  782MPD2    C111531   1.345   4.056  10.057 -0.2225  0.5211  0.5922
  782MPD2    C211532   1.450   4.147  10.080  0.6890  0.1567  0.1353
  782MPD2    C311533   1.511   4.200   9.974  0.7479  0.4860  0.1621
  782MPD2    C411534   1.474   4.161   9.849  0.1950 -0.7223 -0.6377
  782MPD2    C511535   1.392   4.052   9.830  0.5965  0.5756  0.4766
  782MPD2     H11536   1.485   4.167  10.180  0.7897 -1.5013  0.4387
  782MPD2    H111537   1.510   4.203   9.755 -1.0773 -1.1851 -1.3360
  782MPD2    H211538   1.265   3.916   9.922 -1.5919  0.3200 -0.2836
  782MPD2    H311539   1.376   4.020   9.728  0.8042  2.1678 -0.0526
  782MPD2     N11540   1.601   4.306  10.010 -0.5311  0.0643  0.6306
  782MPD2    H511541   1.632   4.316  10.106 -0.1665 -2.9644  0.8254
  782MPD2    N111542   1.272   4.001  10.163 -0.6745  0.2463  0.4075
  782MPD2    H711543   1.210   3.922  10.150  0.9450 -0.9996  0.2440
  783MPD2     C11544   0.530   4.034  10.850 -0.0800 -0.2253  0.1589
  783MPD2    C111545   0.651   4.074  10.907 -0.1949  0.4917  0.9763
  783MPD2    C211546   0.770   4.048  10.836  0.0899 -0.3998 -0.6595
  783MPD2    C311547   0.759   3.991  10.707 -0.0614 -0.4972  0.1133
  783MPD2    C411548   0.640   3.961  10.651 -0.4680  0.4297  0.4478
  783MPD2    C511549   0.527   3.985  10.722  0.4488  0.1802  0.7298
  783MPD2     H11550   0.864   4.091  10.869  0.4107 -0.7871 -1.0700
  783MPD2    H111551   0.631   3.913  10.554 -0.1259  0.5986  0.3310
  783MPD2    H211552   0.437   4.060  10.901 -1.1403 -1.1787 -1.2809
  783MPD2    H311553   0.430   3.954  10.683  1.2319  0.4216 -1.4352
  783MPD2     N11554   0.878   3.952  10.641  0.6282  0.4227  0.7265
  783MPD2    H511555   0.967   3.951  10.691  0.5830  0.9920  0.8158
  783MPD2    N111556   0.639   4.146  11.024 -0.2689  0.1217  0.4744
  783MPD2    H711557   0.542   4.151  11.054  0.0570  0.0645  1.5203
  784MPD2     C11558   3.265   0.622   0.845 -0.0324  0.3487  0.6734
  784MPD2    C111559   3.343   0.732   0.890 -0.5103 -0.2098 -0.5330
  784MPD2    C211560   3.318   0.863   0.840 -0.3216 -0.3254 -0.1294
  784MPD2    C311561   3.215   0.898   0.755  0.2868 -0.6614 -0.1748
  784MPD2    C411562   3.132   0.791   0.722 -0.1516  0.2035 -0.1918
  784MPD2    C511563   3.152   0.657   0.779 -0.2173  0.5674  0.1930
  784MPD2     H11564   3.383   0.945   0.869 -1.0967  0.4853 -0.6715
  784MPD2    H111565   3.042   0.802   0.663  0.4600  2.2113 -0.7477
  784MPD2    H211566   3.265   0.521   0.884 -0.8689 -0.4815 -1.4741
  784MPD2    H311567   3.070   0.588   0.763  0.0361  0.6110 -1.3057
  784MPD2     N11568   3.205   1.032   0.718 -0.1823  0.0392 -0.6335
  784MPD2    H511569   3.266   1.098   0.764 -1.1533  0.6538 -0.2065
  784MPD2    N111570   3.444   0.714   0.987 -0.0099  0.3129 -0.2468
  784MPD2    H711571   3.474   0.804   1.023 -2.1616  1.3593 -1.0760
  785MPD2     C11572   3.987   4.424  10.668  0.2846  0.4182 -0.0337
  785MPD2    C111573   3.931   4.499  10.573  0.0952 -0.2565  0.4123
  785MPD2    C211574   3.809   4.469  10.520  0.0960 -0.3547  0.2169
  785MPD2    C311575   3.733   4.371  10.574  0.7734 -0.1554 -0.7459
  785MPD2    C411576   3.788   4.295  10.675  0.2038  0.1535 -0.1634
  785MPD2    C511577   3.916   4.324  10.723  0.2679 -0.4608 -0.1510
  785MPD2     H11578   3.771   4.529  10.438  1.0623  0.0917  0.0901
  785MPD2    H111579   3.728   4.218  10.723  1.0759  0.3771  1.2711
  785MPD2    H211580   4.083   4.445  10.715  0.9069 -1.0667 -0.6401
  785MPD2    H311581   3.962   4.267  10.803  1.6927 -0.1845 -0.7804
  785MPD2     N11582   3.600   4.358  10.532  0.1337 -0.4229 -0.3625
  785MPD2    H511583   3.568   4.419  10.458 -0.8437  1.0654  1.2725
  785MPD2    N111584   4.015   4.598  10.524  0.5063 -0.0343 -0.0487
  785MPD2    H711585   4.112   4.590  10.552  0.2177  3.0824  1.7551
  786MPD2     C11586   1.857   1.656  14.912 -0.1819  0.4706 -0.5052
  786MPD2    C111587   1.926   1.538  14.925  0.3925  0.0761 -0.3976
  786MPD2    C211588   1.988   1.518  15.050  0.1956 -0.1852 -0.3311
  786MPD2    C311589   1.997   1.622  15.148 -0.5774 -0.1455  0.2320
  786MPD2    C411590   1.933   1.744  15.127  0.3741 -0.6101 -0.5967
  786MPD2    C511591   1.860   1.751  15.012  0.6686  1.0281 -0.5194
  786MPD2     H11592   2.038   1.425  15.078 -0.8245  0.1493  2.5594
  786MPD2    H111593   1.936   1.824  15.200  2.0446  1.0462 -2.5072
  786MPD2    H211594   1.795   1.671  14.825 -1.9692 -0.7512  0.5717
  786MPD2    H311595   1.789   1.832  15.002 -1.1414 -0.3523  1.0240
  786MPD2     N11596   2.071   1.619  15.273  0.6445  0.2586  0.1034
  786MPD2    H511597   2.045   1.686  15.344 -0.8128 -0.1756 -0.0076
  786MPD2    N111598   1.919   1.436  14.825 -0.4143 -0.1293 -0.4713
  786MPD2    H711599   1.980   1.358  14.848 -0.7008 -0.0251  0.6363
  787MPD2     C11600   2.168   0.913  14.956  0.4967 -0.8704  0.5278
  787MPD2    C111601   2.137   0.888  14.823 -0.4468 -0.2592 -0.6369
  787MPD2    C211602   2.196   0.781  14.753  0.6153  0.7820  0.1172
  787MPD2    C311603   2.286   0.699  14.812 -0.7689  0.0332 -0.1281
  787MPD2    C411604   2.322   0.734  14.942 -0.7075  0.3659  0.6325
  787MPD2    C511605   2.265   0.836  15.009  0.2480 -0.0818  0.6135
  787MPD2     H11606   2.185   0.762  14.647  0.8879  2.5653 -0.2203
  787MPD2    H111607   2.405   0.687  14.994 -1.5718  0.6335  2.2759
  787MPD2    H211608   2.121   0.983  15.024 -0.4984 -1.1520  0.1403
  787MPD2    H311609   2.306   0.864  15.105 -1.0343  0.5591  0.9825
  787MPD2     N11610   2.349   0.588  14.749  0.0500  0.3668  0.0484
  787MPD2    H511611   2.437   0.548  14.783  0.8005  4.0901  2.4454
  787MPD2    N111612   2.035   0.968  14.759 -0.2751 -0.7589  0.0449
  787MPD2    H711613   1.964   1.005  14.821  0.5630  0.0653  0.5119
  788MPD2     C11614   4.300   0.297   0.904  0.5896 -0.2220 -0.0830
  788MPD2    C111615   4.258   0.185   0.840  0.3293 -0.0919 -0.4909
  788MPD2    C211616   4.281   0.163   0.702  0.0294 -0.3548  0.3233
  788MPD2    C311617   4.327   0.270   0.629 -0.4122 -0.1825 -0.3128
  788MPD2    C411618   4.378   0.383   0.692 -0.2669  0.5987  0.0871
  788MPD2    C511619   4.355   0.400   0.828  0.3941 -0.9514 -0.3966
  788MPD2     H11620   4.242   0.073   0.654  0.6240  0.2519 -1.2671
  788MPD2    H111621   4.425   0.465   0.639  2.2604  0.9592  2.9177
  788MPD2    H211622   4.295   0.309   1.012  0.1875  1.4728 -0.2877
  788MPD2    H311623   4.385   0.489   0.881 -0.0788 -0.9417 -0.1429
  788MPD2     N11624   4.328   0.265   0.487 -0.3782  0.0532 -0.2698
  788MPD2    H511625   4.346   0.355   0.443  2.5467 -0.8213 -0.8073
  788MPD2    N111626   4.182   0.091   0.915 -0.1925  0.2271  0.2341
  788MPD2    H711627   4.189   0.002   0.866  2.4203 -0.3675  1.6650
  789MPD2     C11628   4.455   4.094  16.217  0.1005  0.5861  0.1286
  789MPD2    C111629   4.416   3.989  16.295 -0.3809  0.3440 -0.1739
  789MPD2    C211630   4.312   4.006  16.383 -0.1995  0.0730  0.2841
  789MPD2    C311631   4.241   4.126  16.382  0.2452  0.8734 -0.0566
  789MPD2    C411632   4.284   4.230  16.302  0.2697 -0.4569 -0.6253
  789MPD2    C511633   4.389   4.211  16.217  0.5730  0.8814 -0.1914
  789MPD2     H11634   4.286   3.915  16.435  2.8877  0.5880  2.7324
  789MPD2    H111635   4.244   4.330  16.298 -0.4031 -0.7625 -1.6358
  789MPD2    H211636   4.541   4.089  16.150  0.2875  2.0020  0.2642
  789MPD2    H311637   4.410   4.289  16.145  2.8535  0.0344 -0.4483
  789MPD2     N11638   4.124   4.144  16.452 -0.8109  0.3785  0.2087
  789MPD2    H511639   4.078   4.234  16.449 -0.0990  0.7605  0.7563
  789MPD2    N111640   4.466   3.865  16.298  0.2223  0.6192 -0.2113
  789MPD2    H711641   4.416   3.793  16.349 -0.0795  0.1137 -1.2211
  790MPD2     C11642   0.351   1.519  13.924 -0.2535  0.1652 -0.3871
  790MPD2    C111643   0.440   1.409  13.917 -0.0907 -0.0735 -0.3307
  790MPD2    C211644   0.480   1.361  13.792  0.0548  0.0764  1.2157
  790MPD2    C311645   0.413   1.401  13.677  0.5020  0.1747  0.0724
  790MPD2    C411646   0.308   1.485  13.691  0.5348 -0.1952 -0.0593
  790MPD2    C511647   0.277   1.548  13.808 -0.2161  0.2034 -0.8832
  790MPD2     H11648   0.560   1.288  13.788 -0.9786 -1.0833  1.7001
  790MPD2    H111649   0.260   1.519  13.600  1.5937  0.7876 -0.2402
  790MPD2    H211650   0.331   1.573  14.015  2.0648 -0.6584  0.6156
  790MPD2    H311651   0.209   1.632  13.800  0.7460  0.7975 -2.9567
  790MPD2     N11652   0.435   1.331  13.563  0.4722  0.5245 -0.3817
  790MPD2    H511653   0.492   1.247  13.569  0.7382  0.5528 -2.4097
  790MPD2    N111654   0.503   1.381  14.045 -0.5599 -1.0715 -0.3965
  790MPD2    H711655   0.467   1.434  14.125 -1.7835  1.2172 -2.4616
  791MPD2     C11656   0.030   1.335  12.927  0.1454 -0.3297  0.0190
  791MPD2    C111657   0.079   1.205  12.942 -0.0625 -0.1200 -0.4485
  791MPD2    C211658   0.006   1.094  12.895  0.1481  0.6506  0.1499
  791MPD2    C311659   4.623   1.109  12.815 -0.8561 -0.6710  0.5331
  791MPD2    C411660   4.579   1.237  12.789  0.0873  0.6677  0.3290
  791MPD2    C511661   4.642   1.345  12.847  0.8166  0.0728  0.0638
  791MPD2     H11662   0.048   0.995  12.910  0.5504  1.0663  1.7813
  791MPD2    H111663   4.492   1.259  12.727 -0.9602  0.5154  1.7373
  791MPD2    H211664   0.074   1.426  12.965 -0.3192 -0.2894  0.4649
  791MPD2    H311665   4.600   1.441  12.821 -0.6945 -0.2537  1.3498
  791MPD2     N11666   4.572   0.996  12.747  0.2540 -0.7195  0.9019
  791MPD2    H511667   4.617   0.908  12.769  0.9388 -1.0462 -1.8713
  791MPD2    N111668   0.202   1.197  13.005 -0.1027  0.4874  0.0954
  791MPD2    H711669   0.249   1.282  13.035  0.2639 -0.8457  3.2525
  792MPD2     C11670   1.206   0.386  10.845 -0.2984  0.0996  0.8238
  792MPD2    C111671   1.296   0.488  10.855  0.5947  0.7095  0.0268
  792MPD2    C211672   1.411   0.497  10.774 -0.0235 -0.0864 -0.4124
  792MPD2    C311673   1.438   0.400  10.682  0.4335  0.7915 -0.1561
  792MPD2    C411674   1.348   0.291  10.675  0.7333 -0.4527  0.1986
  792MPD2    C511675   1.229   0.294  10.750  0.6585 -0.2253 -0.2671
  792MPD2     H11676   1.465   0.590  10.759  0.4554 -0.4408 -0.8670
  792MPD2    H111677   1.368   0.214  10.601 -1.4809  0.0256 -0.9016
  792MPD2    H211678   1.113   0.380  10.901 -0.9210 -0.1377 -0.2480
  792MPD2    H311679   1.163   0.211  10.731 -3.2911  2.2149  2.6924
  792MPD2     N11680   1.541   0.407  10.586 -0.0709  0.5933 -0.3608
  792MPD2    H511681   1.521   0.368  10.494 -0.0715 -1.4001  0.4871
  792MPD2    N111682   1.278   0.597  10.937  0.1125  0.1186  0.0895
  792MPD2    H711683   1.357   0.646  10.976 -1.0746 -0.0475  2.6692
  793MPD2     C11684   1.533   1.120   9.962  0.3092 -0.9292 -0.7097
  793MPD2    C111685   1.476   0.997   9.961  0.7200 -0.6731  0.3496
  793MPD2    C211686   1.512   0.905  10.062 -0.5393  0.3926  0.1349
  793MPD2    C311687   1.605   0.935  10.151 -0.6427  0.2507  0.1800
  793MPD2    C411688   1.668   1.052  10.152 -0.4896  0.7012  0.3806
  793MPD2    C511689   1.626   1.151  10.062  0.1618  0.3748 -0.1850
  793MPD2     H11690   1.473   0.804  10.061  0.3235  0.0542  1.1742
  793MPD2    H111691   1.732   1.063  10.238  1.3923  0.9150 -1.0573
  793MPD2    H211692   1.517   1.193   9.883 -0.8793 -0.3604  0.0674
  793MPD2    H311693   1.687   1.240  10.062 -0.2019  0.6235  0.9771
  793MPD2     N11694   1.650   0.824  10.228 -0.0096 -0.9324 -0.0646
  793MPD2    H511695   1.588   0.744  10.236  0.2077 -0.8113  2.6550
  793MPD2    N111696   1.379   0.954   9.870  0.8557 -0.4756 -0.4048
  793MPD2    H711697   1.351   0.857   9.885  2.1717 -0.4623  2.1728
  794MPD2     C11698   0.327   0.647  17.360  0.1134 -0.8060 -0.2195
  794MPD2    C111699   0.277   0.526  17.373 -0.7638 -1.1725 -0.5231
  794MPD2    C211700   0.241   0.457  17.258 -0.9787 -0.2942 -0.0191
  794MPD2    C311701   0.242   0.530  17.136 -0.1377 -0.6625 -0.2568
  794MPD2    C411702   0.301   0.648  17.126  0.0212 -0.3354 -0.1940
  794MPD2    C511703   0.340   0.709  17.237 -0.5866  0.1200  0.0053
  794MPD2     H11704   0.191   0.361  17.268  0.4117 -0.9769  0.3518
  794MPD2    H111705   0.296   0.708  17.036  1.8104 -1.1013 -0.8031
  794MPD2    H211706   0.366   0.701  17.445 -1.7546 -1.7827  1.2704
  794MPD2    H311707   0.371   0.812  17.224 -3.8800  1.1929  0.7367
  794MPD2     N11708   0.183   0.484  17.017 -0.1705  0.5442  0.2192
  794MPD2    H511709   0.214   0.537  16.936  2.2894 -0.2244  0.6718
  794MPD2    N111710   0.268   0.465  17.504 -0.2694 -0.1800  0.2437
  794MPD2    H711711   0.229   0.371  17.508  0.5595 -0.4395  2.5560
  795MPD2     C11712   3.361   2.683  13.159  0.1058 -0.3970  0.5811
  795MPD2    C111713   3.309   2.634  13.276 -0.0434  0.3773  0.3458
  795MPD2    C211714   3.375   2.561  13.365 -0.2220  0.2629  0.1987
  795MPD2    C311715   3.507   2.525  13.347 -0.6065  0.0656  0.2103
  795MPD2    C411716   3.568   2.577  13.238  0.0119  0.2059  0.1517
  795MPD2    C511717   3.499   2.655  13.145 -0.2767  0.2704  0.5527
  795MPD2     H11718   3.324   2.530  13.456 -0.1845 -0.8666 -0.1631
  795MPD2    H111719   3.668   2.556  13.203 -0.2683 -0.8900 -0.0010
  795MPD2    H211720   3.306   2.745  13.088 -2.5285 -1.5275  1.6221
  795MPD2    H311721   3.555   2.686  13.058  0.2135 -0.9790  0.4254
  795MPD2     N11722   3.583   2.444  13.433  0.1705 -0.6740  0.3759
  795MPD2    H511723   3.677   2.429  13.399  0.2794  2.8922 -0.8752
  795MPD2    N111724   3.168   2.648  13.299 -0.0265 -0.4869  0.0555
  795MPD2    H711725   3.121   2.588  13.366  1.7784 -0.4045  1.3976
  796MPD2     C11726   2.369   3.794  16.181  0.4288 -0.3498 -0.0919
  796MPD2    C111727   2.467   3.881  16.224  0.1164  0.0378  0.1952
  796MPD2    C211728   2.451   4.013  16.185 -0.2560 -0.0352  0.4393
  796MPD2    C311729   2.342   4.056  16.111  0.6084  0.3861 -0.0344
  796MPD2    C411730   2.242   3.964  16.080  0.1946 -0.5939 -0.5188
  796MPD2    C511731   2.258   3.836  16.115 -0.2604  0.3874  0.4052
  796MPD2     H11732   2.516   4.089  16.226 -0.0221 -0.6662  1.2430
  796MPD2    H111733   2.154   3.996  16.026  0.4405  1.3613  0.2433
  796MPD2    H211734   2.378   3.692  16.217 -0.9616 -1.2288 -2.2240
  796MPD2    H311735   2.192   3.756  16.083 -0.5016  0.9772 -0.5671
  796MPD2     N11736   2.326   4.195  16.074  0.5026  0.2797 -0.3029
  796MPD2    H511737   2.399   4.263  16.091  0.0013  0.6892  0.1934
  796MPD2    N111738   2.570   3.824  16.302 -0.6073 -0.2633 -0.7711
  796MPD2    H711739   2.572   3.723  16.306 -0.2345 -0.1928  0.5321
  797MPD2     C11740   3.520   3.509   0.228 -0.4480 -0.1352 -0.2064
  797MPD2    C111741   3.540   3.634   0.170 -0.6959  0.5166  0.2092
  797MPD2    C211742   3.461   3.676   0.064 -0.0626 -0.3663 -0.2232
  797MPD2    C311743   3.357   3.595   0.025  0.1755  1.0591  0.8644
  797MPD2    C411744   3.339   3.468   0.076  0.1380  0.1135 -0.0769
  797MPD2    C511745   3.424   3.428   0.175 -0.2893 -0.1032 -0.7445
  797MPD2     H11746   3.473   3.773   0.016  1.1988 -0.1554  0.5260
  797MPD2    H111747   3.263   3.399   0.041 -0.2331  0.5614 -0.1574
  797MPD2    H211748   3.573   3.483   0.318  0.2134  1.3599 -0.1574
  797MPD2    H311749   3.406   3.328   0.211  1.0898  0.2734  0.9631
  797MPD2     N11750   3.251   3.638  17.627 -0.1581 -0.3206 -0.5885
  797MPD2    H511751   3.173   3.575  17.614  0.9640 -1.3277 -2.4207
  797MPD2    N111752   3.626   3.728   0.226  0.5228 -0.1777 -0.0149
  797MPD2    H711753   3.625   3.819   0.182 -0.7310  0.8761  2.2253
  798MPD2     C11754   3.094   4.286   0.233  0.0131 -0.1071  0.0505
  798MPD2    C111755   3.106   4.151   0.216  0.2123  0.1988  0.7014
  798MPD2    C211756   3.204   4.080   0.282  0.0235 -0.5519  1.0022
  798MPD2    C311757   3.303   4.144   0.352  0.0860  0.2753 -0.1527
  798MPD2    C411758   3.293   4.283   0.358  0.1680  0.3512 -0.1494
  798MPD2    C511759   3.186   4.350   0.315 -0.0331  0.1749  0.6778
  798MPD2     H11760   3.220   3.974   0.270 -1.4176 -0.6968  0.3029
  798MPD2    H111761   3.373   4.339   0.405 -0.2360  1.2383 -0.5262
  798MPD2    H211762   3.025   4.349   0.178  0.5184  0.5966  0.2189
  798MPD2    H311763   3.164   4.456   0.323  1.3411  0.6286 -1.4929
  798MPD2     N11764   3.418   4.071   0.388  0.2167  0.0471 -0.7616
  798MPD2    H511765   3.419   3.970   0.378  2.4739  0.0497 -0.5450
  798MPD2    N111766   3.015   4.085   0.126  0.0014 -0.4380 -0.1587
  798MPD2    H711767   2.957   4.149   0.073 -0.5266  0.0403  0.9999
  799MPD2     C11768   1.732   0.708  14.570  0.4381 -0.5742  0.3708
  799MPD2    C111769   1.863   0.659  14.564 -0.3524 -0.7049 -0.0575
  799MPD2    C211770   1.939   0.693  14.453 -0.3348  0.3484  0.4598
  799MPD2    C311771   1.883   0.765  14.350  0.1820  0.3839  0.1544
  799MPD2    C411772   1.753   0.816  14.355  0.4629 -0.0798 -0.0747
  799MPD2    C511773   1.680   0.783  14.464  0.8096 -0.3172  0.5000
  799MPD2     H11774   2.045   0.668  14.448 -0.2457  1.1097 -1.2808
  799MPD2    H111775   1.711   0.868  14.270 -1.5188  0.7675  1.4306
  799MPD2    H211776   1.665   0.690  14.653  0.5255 -1.8406  0.1564
  799MPD2    H311777   1.578   0.820  14.474  1.4783  1.3955  0.9287
  799MPD2     N11778   1.948   0.802  14.234  0.6338 -0.3113 -0.1984
  799MPD2    H511779   1.883   0.835  14.164  1.9232 -0.0783 -1.2872
  799MPD2    N111780   1.906   0.564  14.656 -0.1068  0.0435 -1.0575
  799MPD2    H711781   2.001   0.531  14.642 -0.3417 -1.3811  0.7088
  800MPD2     C11782   2.549   1.214  14.010  0.6526  0.0407  0.8264
  800MPD2    C111783   2.670   1.199  14.078 -0.9493  0.4780 -0.2622
  800MPD2    C211784   2.783   1.251  14.014  0.3423  0.5380  0.9799
  800MPD2    C311785   2.772   1.311  13.887 -0.7322 -0.3666  0.3428
  800MPD2    C411786   2.648   1.326  13.821 -0.1151  0.1055 -0.0734
  800MPD2    C511787   2.535   1.280  13.887  0.6637 -0.4292  0.7567
  800MPD2     H11788   2.887   1.238  14.042  0.9911 -0.0330 -1.6440
  800MPD2    H111789   2.643   1.377  13.725 -0.9799  1.9302  0.9296
  800MPD2    H211790   2.458   1.187  14.063 -0.8439  0.7631 -1.3798
  800MPD2    H311791   2.437   1.296  13.845  0.8676 -2.6429 -0.6049
  800MPD2     N11792   2.895   1.347  13.823  0.2863 -0.0218  0.4638
  800MPD2    H511793   2.973   1.343  13.889  0.6212  2.3444  0.1822
  800MPD2    N111794   2.667   1.146  14.211 -0.5528 -0.2880 -0.0785
  800MPD2    H711795   2.577   1.110  14.243 -0.4614  0.2584  0.7821
  801MPD2     C11796   2.310   1.170  14.819 -0.4622 -0.5672 -0.0356
  801MPD2    C111797   2.347   1.188  14.691  0.1393  0.7826 -0.0819
  801MPD2    C211798   2.303   1.291  14.611 -0.1775 -0.2567 -0.4646
  801MPD2    C311799   2.249   1.396  14.681  0.3993 -0.6549  0.3469
  801MPD2    C411800   2.232   1.394  14.816 -0.3388 -0.2338  0.1896
  801MPD2    C511801   2.256   1.279  14.881  0.4073 -0.3707  0.5903
  801MPD2     H11802   2.345   1.301  14.512 -1.2792  0.1634 -0.8862
  801MPD2    H111803   2.193   1.485  14.860 -0.3576 -0.2387  0.1830
  801MPD2    H211804   2.333   1.086  14.883  0.7572  1.3207  1.9693
  801MPD2    H311805   2.232   1.281  14.987  2.2257 -2.1617  1.0321
  801MPD2     N11806   2.210   1.519  14.619  0.3603  0.8598  0.0686
  801MPD2    H511807   2.196   1.602  14.676  0.5675  2.1082 -1.7101
  801MPD2    N111808   2.433   1.102  14.626  0.2966 -0.1993 -0.0273
  801MPD2    H711809   2.463   1.125  14.532  2.6859 -0.5935  0.6383
  802MPD2     C11810   1.463   3.447   1.153 -0.4493 -0.1075  0.0462
  802MPD2    C111811   1.534   3.449   1.031  0.1983  0.0920 -0.4579
  802MPD2    C211812   1.642   3.364   1.015  0.1901  0.8654  0.2609
  802MPD2    C311813   1.682   3.279   1.111  0.0880  0.1700 -0.4258
  802MPD2    C411814   1.624   3.289   1.235 -0.6724 -0.3465 -0.2151
  802MPD2    C511815   1.514   3.365   1.255 -0.5056  0.5743  0.2764
  802MPD2     H11816   1.688   3.347   0.918 -0.0908  1.3110  0.0484
  802MPD2    H111817   1.651   3.216   1.311 -0.6137  0.2702  0.3493
  802MPD2    H211818   1.362   3.486   1.157 -0.2458  0.3379  0.8922
  802MPD2    H311819   1.457   3.351   1.347 -1.6868  2.6489 -0.1563
  802MPD2     N11820   1.794   3.198   1.083  0.0130 -0.1612  0.1081
  802MPD2    H511821   1.826   3.195   0.986  0.0462  0.2105  0.1099
  802MPD2    N111822   1.491   3.513   0.914 -0.5093  0.5146 -0.1093
  802MPD2    H711823   1.550   3.496   0.833 -0.7901  0.4781 -0.3079
  803MPD2     C11824   3.607   1.564  11.685 -0.4147  0.5884  0.6713
  803MPD2    C111825   3.712   1.473  11.703 -0.0098 -0.0149  0.2565
  803MPD2    C211826   3.682   1.351  11.754  0.1432 -0.0593  0.0486
  803MPD2    C311827   3.552   1.327  11.797  0.7532  1.3734  0.0753
  803MPD2    C411828   3.448   1.404  11.760 -0.3656  0.9605 -0.0271
  803MPD2    C511829   3.479   1.526  11.703  0.2857 -0.1698 -0.9081
  803MPD2     H11830   3.757   1.276  11.780  2.4400  2.2572  0.0655
  803MPD2    H111831   3.343   1.383  11.778 -0.6062  1.0750 -1.3133
  803MPD2    H211832   3.629   1.663  11.648 -1.4362  0.4567 -0.3077
  803MPD2    H311833   3.399   1.597  11.686  1.2238  1.1229  0.1585
  803MPD2     N11834   3.514   1.213  11.864  0.3946  0.7474  0.1476
  803MPD2    H511835   3.413   1.209  11.878  0.4978 -0.8891  0.4081
  803MPD2    N111836   3.847   1.516  11.683 -0.2024  0.2561 -0.4409
  803MPD2    H711837   3.858   1.615  11.663  0.8524  0.9029  3.2228
  804MPD2     C11838   3.132   2.247  16.958  0.2364 -0.0177  0.0705
  804MPD2    C111839   3.033   2.316  17.023  0.1432  0.3868  0.3079
  804MPD2    C211840   3.083   2.418  17.100  0.0782  0.1246 -0.2975
  804MPD2    C311841   3.216   2.464  17.094 -0.2938  0.3937  0.2144
  804MPD2    C411842   3.308   2.390  17.021  0.4493  0.0103  0.2340
  804MPD2    C511843   3.262   2.282  16.955 -0.4953  0.3461 -0.0127
  804MPD2     H11844   3.003   2.474  17.147 -0.5118  0.4331 -1.6651
  804MPD2    H111845   3.415   2.407  17.029  0.3975  0.9496 -1.1987
  804MPD2    H211846   3.112   2.149  16.917  0.2655  0.5260 -1.2566
  804MPD2    H311847   3.324   2.204  16.912 -0.6674  0.3587 -0.2832
  804MPD2     N11848   3.258   2.573  17.176  0.2650  0.7044 -0.0621
  804MPD2    H511849   3.197   2.599  17.253  0.9153 -0.1826  0.7477
  804MPD2    N111850   2.891   2.288  17.016  0.5631  0.2103  0.0483
  804MPD2    H711851   2.826   2.339  17.075 -1.8663  0.5635 -2.8670
  805MPD2     C11852   1.938   0.782  15.846  0.2636  0.3706 -0.8756
  805MPD2    C111853   2.039   0.854  15.782  0.2635  0.5076  0.3380
  805MPD2    C211854   2.162   0.866  15.839  0.1079 -0.2803 -1.2446
  805MPD2    C311855   2.188   0.808  15.965 -0.6120  0.2630 -0.1916
  805MPD2    C411856   2.092   0.728  16.034  0.6205 -0.2655 -0.2797
  805MPD2    C511857   1.967   0.721  15.967  0.0536 -0.1707 -0.0715
  805MPD2     H11858   2.248   0.918  15.797  0.3448 -0.7149 -1.2959
  805MPD2    H111859   2.104   0.666  16.123  0.1937 -0.1399 -0.1343
  805MPD2    H211860   1.838   0.788  15.804 -0.7788  0.8620  1.6369
  805MPD2    H311861   1.907   0.645  16.016 -0.3074 -0.2587 -0.6546
  805MPD2     N11862   2.324   0.824  16.013  0.3401 -0.4685  0.0927
  805MPD2    H511863   2.380   0.897  15.969  0.8698 -0.1144  1.3440
  805MPD2    N111864   2.020   0.919  15.659  0.4569  0.5339 -0.4367
  805MPD2    H711865   2.099   0.934  15.596  0.2892 -1.9739 -1.2458
  806MPD2     C11866   2.453   4.373  17.686 -0.5965 -0.5770 -0.4044
  806MPD2    C111867   2.427   4.419   0.119 -0.0324 -1.1178 -0.5585
  806MPD2    C211868   2.506   4.528   0.170  0.1903  0.4741 -0.2489
  806MPD2    C311869   2.597   4.595   0.092  0.0149 -0.6056 -1.4923
  806MPD2    C411870   2.615   4.547  17.654  0.2303 -0.1387 -0.0882
  806MPD2    C511871   2.546   4.436  17.608 -0.4017  0.3426 -0.3281
  806MPD2     H11872   2.492   4.561   0.272  0.3775  0.9581 -0.3823
  806MPD2    H111873   2.691   4.585  17.586  0.7170  1.4468  1.3624
  806MPD2    H211874   2.415   4.277  17.654  1.0469 -0.5971 -2.2202
  806MPD2    H311875   2.571   4.402  17.508  2.0689 -1.6152  0.9446
  806MPD2     N11876   2.657   4.711   0.149  0.0684  0.3878 -0.3870
  806MPD2    H511877   2.639   0.003   0.248 -1.1089 -4.0617  0.0246
  806MPD2    N111878   2.329   4.356   0.199  0.7252  0.3899  0.2504
  806MPD2    H711879   2.299   4.261   0.179  1.3945  0.2951 -0.2907
  807MPD2     C11880   2.200   3.848   0.783  0.7752  0.9216 -0.0794
  807MPD2    C111881   2.188   3.973   0.837 -1.0697  0.2527  0.4296
  807MPD2    C211882   2.155   3.969   0.977  0.0954 -0.1497 -0.1584
  807MPD2    C311883   2.150   3.848   1.058 -0.0467  0.7349  0.5172
  807MPD2    C411884   2.186   3.732   0.999 -0.2236 -0.0024  0.6968
  807MPD2    C511885   2.193   3.732   0.867 -0.5302  0.4618  0.6448
  807MPD2     H11886   2.113   4.058   1.023  2.3261  0.9379 -0.2341
  807MPD2    H111887   2.191   3.640   1.057 -0.0629  0.8648  2.0460
  807MPD2    H211888   2.210   3.828   0.677  0.5686 -0.0147  0.0792
  807MPD2    H311889   2.217   3.641   0.814  0.1579  0.9209  0.1732
  807MPD2     N11890   2.130   3.863   1.190  0.0412  0.0706  0.2462
  807MPD2    H511891   2.108   3.953   1.232 -2.7305 -0.7457  0.5500
  807MPD2    N111892   2.161   4.084   0.761  0.1548 -0.4914 -0.4028
  807MPD2    H711893   2.107   4.156   0.808  1.0906 -0.1745  0.1943
  808MPD2     C11894   4.177   1.689   9.932 -0.4142 -0.2651  0.0497
  808MPD2    C111895   4.064   1.750   9.881  0.8978  0.2504 -0.0292
  808MPD2    C211896   4.068   1.886   9.871 -0.5791  0.1051 -0.3131
  808MPD2    C311897   4.180   1.960   9.901  0.1858 -0.4811 -0.0422
  808MPD2    C411898   4.286   1.895   9.957 -0.7976 -0.3606 -0.7300
  808MPD2    C511899   4.287   1.759   9.971  0.2585 -0.2673  0.2994
  808MPD2     H11900   3.977   1.934   9.835 -1.4023 -0.0766  1.5509
  808MPD2    H111901   4.379   1.942   9.988 -1.9759  0.7558  1.1553
  808MPD2    H211902   4.184   1.584   9.957 -1.6149 -0.0257  1.3833
  808MPD2    H311903   4.373   1.719  10.022  1.2821  0.8129 -0.5972
  808MPD2     N11904   4.184   2.094   9.890  0.3837 -0.0612 -0.2898
  808MPD2    H511905   4.263   2.143   9.931  0.8722 -0.6724 -0.5094
  808MPD2    N111906   3.955   1.686   9.819  0.6995  0.3358  0.3469
  808MPD2    H711907   3.878   1.746   9.792 -0.1136 -1.0262 -0.3782
  809MPD2     C11908   4.386   2.339   9.087  0.4979 -0.2141  0.4236
  809MPD2    C111909   4.491   2.343   9.175  0.3980 -0.8229 -0.1973
  809MPD2    C211910   4.469   2.372   9.307  0.3307  0.0221 -0.6919
  809MPD2    C311911   4.335   2.386   9.351  0.4321  0.3669  0.0296
  809MPD2    C411912   4.225   2.377   9.263  0.4144  0.5384  0.0301
  809MPD2    C511913   4.254   2.360   9.126  0.2393  0.4645 -0.0778
  809MPD2     H11914   4.554   2.384   9.372  0.8594 -0.3240 -1.3184
  809MPD2    H111915   4.124   2.398   9.294 -0.3437  0.4699 -2.4167
  809MPD2    H211916   4.409   2.309   8.986  1.2975  0.9805  0.2535
  809MPD2    H311917   4.167   2.369   9.063 -0.1531 -1.2543  0.2185
  809MPD2     N11918   4.290   2.410   9.484 -0.3780  0.0859 -0.1584
  809MPD2    H511919   4.188   2.406   9.487 -0.3588 -0.1189  0.3128
  809MPD2    N111920   4.625   2.329   9.133  0.1540  0.4480  0.0011
  809MPD2    H711921   4.695   2.334   9.206  0.2588 -1.5675  0.0537
  810MPD2     C11922   2.498   0.639  11.043  0.6596 -0.2114  0.2247
  810MPD2    C111923   2.602   0.642  10.948  0.0065  0.2908  0.8673
  810MPD2    C211924   2.635   0.765  10.884  0.2535  0.7522 -0.2975
  810MPD2    C311925   2.567   0.879  10.912  0.0523 -0.4004 -1.2969
  810MPD2    C411926   2.464   0.875  11.001  0.2674  0.4377  0.5814
  810MPD2    C511927   2.433   0.756  11.062  1.2352 -0.1020 -0.0266
  810MPD2     H11928   2.706   0.783  10.804  2.3661 -1.3195  1.1075
  810MPD2    H111929   2.404   0.964  11.016 -0.7218  0.1079 -1.4553
  810MPD2    H211930   2.462   0.548  11.090 -2.3311  1.1786  0.5992
  810MPD2    H311931   2.350   0.749  11.132 -0.5858 -3.1566 -2.4434
  810MPD2     N11932   2.604   0.998  10.838  0.5391 -0.4208 -0.4550
  810MPD2    H511933   2.673   0.989  10.764 -0.2314 -1.5248 -1.0467
  810MPD2    N111934   2.663   0.521  10.931  0.4779 -0.0758  0.1817
  810MPD2    H711935   2.622   0.444  10.982  1.3252 -0.0427  0.9023
  811MPD2     C11936   2.906   0.354  10.189 -0.8019  0.5075  0.3810
  811MPD2    C111937   2.987   0.379  10.305  0.2119  0.1753 -0.2762
  811MPD2    C211938   3.092   0.473  10.300 -0.4024 -0.2080  0.2976
  811MPD2    C311939   3.129   0.532  10.183  0.0826  0.0628 -0.4221
  811MPD2    C411940   3.058   0.504  10.071 -0.0552 -0.2538  0.1135
  811MPD2    C511941   2.946   0.428  10.074  0.5206  0.1980 -0.5258
  811MPD2     H11942   3.148   0.508  10.386  1.7702  1.0041 -1.6056
  811MPD2    H111943   3.081   0.549   9.975 -2.1692 -0.4256 -0.4762
  811MPD2    H211944   2.827   0.281  10.178  0.3968 -0.6732 -0.4615
  811MPD2    H311945   2.887   0.418   9.984  0.0595  0.4943 -0.2621
  811MPD2     N11946   3.237   0.630  10.180  0.1722  0.0169 -0.0215
  811MPD2    H511947   3.294   0.647  10.262 -1.1560  0.3174  0.8454
  811MPD2    N111948   2.943   0.335  10.433 -0.0790 -0.3060  0.2603
  811MPD2    H711949   2.860   0.276  10.431 -1.8288  2.2029 -2.4659
  812MPD2     C11950   1.290   0.632  12.217 -0.0870  0.2751  0.2266
  812MPD2    C111951   1.265   0.717  12.328 -0.0756 -0.0795  0.7091
  812MPD2    C211952   1.243   0.655  12.450  0.0821 -0.6076  0.3706
  812MPD2    C311953   1.253   0.517  12.465  0.5131 -0.5014 -0.4281
  812MPD2    C411954   1.259   0.438  12.349 -0.6346 -0.0694 -0.5151
  812MPD2    C511955   1.286   0.494  12.233  0.1918 -0.2614  0.0565
  812MPD2     H11956   1.220   0.712  12.539 -3.5627 -0.6304 -0.5476
  812MPD2    H111957   1.269   0.330  12.353  3.2699  0.3286 -0.1912
  812MPD2    H211958   1.312   0.662  12.115  0.1388  1.9349  0.7689
  812MPD2    H311959   1.280   0.432  12.144  0.6941 -1.1835  0.6719
  812MPD2     N11960   1.240   0.444  12.588 -0.1993 -0.2704  0.1099
  812MPD2    H511961   1.252   0.343  12.580 -2.2898 -0.3058 -2.5526
  812MPD2    N111962   1.283   0.853  12.304  0.0882  0.3196  0.0237
  812MPD2    H711963   1.299   0.888  12.210 -0.0873  2.2986  0.7364
  813MPD2     C11964   1.200   2.839  13.233  0.5173  0.3566 -0.1301
  813MPD2    C111965   1.133   2.954  13.187 -0.1325 -0.3228 -0.3690
  813MPD2    C211966   1.012   2.988  13.243  0.5180 -0.3711 -0.4789
  813MPD2    C311967   0.956   2.901  13.343  0.2399 -0.0562  0.4371
  813MPD2    C411968   1.032   2.795  13.389  0.4709  0.1100 -0.5121
  813MPD2    C511969   1.149   2.763  13.333 -0.3366  0.4111  0.2592
  813MPD2     H11970   0.947   3.066  13.205  0.2967 -0.6775 -0.7293
  813MPD2    H111971   0.987   2.717  13.450 -0.7240  0.6638 -0.6752
  813MPD2    H211972   1.297   2.811  13.194 -0.8070 -3.8264 -0.3992
  813MPD2    H311973   1.199   2.669  13.356  2.6442  1.5340 -1.6529
  813MPD2     N11974   0.819   2.925  13.381 -0.4800 -0.0771 -0.3359
  813MPD2    H511975   0.771   3.000  13.333 -1.1683 -0.7147 -0.6407
  813MPD2    N111976   1.195   3.035  13.092  0.3024 -0.0069  0.3640
  813MPD2    H711977   1.281   3.006  13.046 -0.0115 -0.1478 -0.1203
  814MPD2     C11978   1.131   3.998  12.346  0.0856 -0.3366  0.6579
  814MPD2    C111979   1.101   4.004  12.211 -0.2345  0.4060  0.1333
  814MPD2    C211980   1.139   4.118  12.143 -0.1874  0.1410  0.3731
  814MPD2    C311981   1.197   4.222  12.212 -0.0462 -0.1724  0.0506
  814MPD2    C411982   1.223   4.212  12.346 -0.1619 -0.6937 -0.3102
  814MPD2    C511983   1.196   4.099  12.413  0.0000  0.6219 -0.6327
  814MPD2     H11984   1.120   4.118  12.036  0.5171  0.7650  0.2515
  814MPD2    H111985   1.262   4.298  12.397 -1.9241 -0.1412  0.1237
  814MPD2    H211986   1.112   3.908  12.404 -1.6667 -0.6729 -0.4277
  814MPD2    H311987   1.218   4.094  12.519  1.1550 -0.9229 -0.9406
  814MPD2     N11988   1.228   4.349  12.155 -0.6797 -0.0101 -0.1473
  814MPD2    H511989   1.268   4.419  12.217 -2.8170  1.0744 -0.0026
  814MPD2    N111990   1.059   3.894  12.127 -0.2543 -0.5945 -0.6462
  814MPD2    H711991   1.069   3.911  12.027  0.2792 -0.3633 -0.5479
  815MPD2     C11992   1.942   2.768  11.544 -0.5515  0.5829 -0.3901
  815MPD2    C111993   1.908   2.659  11.618  0.0945 -0.3319 -0.4695
  815MPD2    C211994   1.842   2.667  11.730  0.1257 -0.1069  0.5264
  815MPD2    C311995   1.813   2.795  11.781 -0.2860 -0.1910 -0.2711
  815MPD2    C411996   1.835   2.907  11.709  1.0111  0.2083 -0.5486
  815MPD2    C511997   1.906   2.889  11.592 -0.3300  0.1726 -0.6447
  815MPD2     H11998   1.810   2.584  11.791 -0.7823 -1.1149 -1.3335
  815MPD2    H111999   1.806   3.009  11.732 -0.0617  0.1498 -1.5972
  815MPD2    H212000   1.990   2.765  11.447  0.1734 -2.4700  0.0807
  815MPD2    H312001   1.931   2.981  11.540  1.2109  1.1325  1.7942
  815MPD2     N12002   1.727   2.790  11.891  0.1815  0.0474  0.1758
  815MPD2    H512003   1.700   2.694  11.909 -1.8406  0.3405 -1.2013
  815MPD2    N112004   1.927   2.531  11.555 -0.3839 -0.3853  0.1429
  815MPD2    H712005   1.975   2.532  11.466 -2.7860 -0.3329 -1.1323
  816MPD2     C12006   1.144   1.735  17.071 -0.0334 -0.1921 -0.4289
  816MPD2    C112007   1.210   1.843  17.126  0.6252  0.6223 -0.1464
  816MPD2    C212008   1.355   1.834  17.153 -0.5759  0.9317 -0.2108
  816MPD2    C312009   1.425   1.722  17.111 -0.3134  0.8920 -0.0855
  816MPD2    C412010   1.352   1.614  17.057  0.6113 -0.1909 -0.4397
  816MPD2    C512011   1.218   1.620  17.052  0.1047 -0.0534 -0.3339
  816MPD2     H12012   1.405   1.921  17.194  1.3803 -1.0914  1.6711
  816MPD2    H112013   1.397   1.519  17.030 -1.0346 -1.8423  2.5772
  816MPD2    H212014   1.038   1.722  17.049 -0.1246  0.5220 -0.4425
  816MPD2    H312015   1.170   1.532  17.011 -1.4556  0.5642  0.1677
  816MPD2     N12016   1.564   1.712  17.134 -1.3650  0.3048 -0.3122
  816MPD2    H512017   1.610   1.788  17.184 -5.3250  2.1372  0.5731
  816MPD2    N112018   1.137   1.954  17.168  0.7651  0.3191 -0.5627
  816MPD2    H712019   1.040   1.945  17.136  0.3755 -1.3505  1.1328
  817MPD2     C12020   1.521   2.689   9.944 -0.0831  0.1968  0.9129
  817MPD2    C112021   1.576   2.689   9.816  0.3770  0.1558 -0.3409
  817MPD2    C212022   1.513   2.759   9.710  0.6751  0.2230  0.3692
  817MPD2    C312023   1.389   2.809   9.729  0.4020 -0.3139 -0.1033
  817MPD2    C412024   1.329   2.793   9.851  0.5474 -0.2418  0.0034
  817MPD2    C512025   1.393   2.739   9.958 -0.8478  0.2448 -0.6382
  817MPD2     H12026   1.573   2.782   9.623  2.1807  0.5286  1.4956
  817MPD2    H112027   1.227   2.825   9.871  1.5771  1.1240  3.0861
  817MPD2    H212028   1.563   2.633  10.027 -1.4149 -2.3685 -0.1339
  817MPD2    H312029   1.340   2.728  10.052 -1.2728  0.8566 -0.8010
  817MPD2     N12030   1.328   2.856   9.613 -0.8995 -0.0536 -0.1210
  817MPD2    H512031   1.379   2.860   9.525 -0.0324  0.7114  0.4086
  817MPD2    N112032   1.693   2.617   9.779 -0.4585 -0.0475 -0.1423
  817MPD2    H712033   1.710   2.619   9.679  1.9167 -1.4163  0.2395
  818MPD2     C12034   0.410   2.717   9.815  0.5714 -0.7083  0.3597
  818MPD2    C112035   0.434   2.683   9.945  0.4763  0.7767 -0.3332
  818MPD2    C212036   0.516   2.570   9.975 -0.0721 -0.2820 -0.1763
  818MPD2    C312037   0.562   2.490   9.873  0.1064 -0.0028 -0.5301
  818MPD2    C412038   0.531   2.525   9.743 -0.0580 -0.4597  0.8684
  818MPD2    C512039   0.461   2.638   9.716 -1.3319 -0.4469 -0.4614
  818MPD2     H12040   0.546   2.545  10.076 -0.9715  0.1810  0.2094
  818MPD2    H112041   0.565   2.463   9.661  0.9203 -0.5881  1.3685
  818MPD2    H212042   0.361   2.811   9.789  1.8058 -0.8734 -2.5684
  818MPD2    H312043   0.417   2.651   9.618 -0.6531 -1.4072 -0.8819
  818MPD2     N12044   0.649   2.380   9.886 -0.2223  0.5482 -0.2171
  818MPD2    H512045   0.661   2.313   9.811 -0.4608  2.5703 -2.0445
  818MPD2    N112046   0.369   2.746  10.055 -0.2329 -0.3664 -0.1078
  818MPD2    H712047   0.393   2.713  10.148  2.5235  0.3517 -0.5900
  819MPD2     C12048   2.604   0.262  15.704 -0.3615 -0.2973 -0.1049
  819MPD2    C112049   2.603   0.141  15.645  0.6484  0.0225  0.3331
  819MPD2    C212050   2.713   0.052  15.638  0.4951 -0.4635  0.0532
  819MPD2    C312051   2.827   0.097  15.702 -0.7765  0.2892 -0.2739
  819MPD2    C412052   2.833   0.224  15.755 -0.0382  0.2213  0.4218
  819MPD2    C512053   2.725   0.308  15.745 -0.2824 -0.3944  0.6989
  819MPD2     H12054   2.710   4.678  15.588  0.8479 -0.2242 -0.4218
  819MPD2    H112055   2.915   0.265  15.812 -1.6554 -0.0982  2.9834
  819MPD2    H212056   2.516   0.326  15.701 -0.2095 -0.0604  0.4652
  819MPD2    H312057   2.734   0.402  15.798 -1.1882  1.7759 -2.9811
  819MPD2     N12058   2.936   0.010  15.692  0.2176  0.2921  0.1233
  819MPD2    H512059   2.918   4.644  15.644 -2.4688  1.1140 -0.4056
  819MPD2    N112060   2.467   0.104  15.602  0.0334 -0.3325 -0.2233
  819MPD2    H712061   2.402   0.182  15.601  0.2311 -0.1480  1.6080
  820MPD2     C12062   1.725   0.481  15.112  0.1167  0.2449  0.0681
  820MPD2    C112063   1.847   0.517  15.166  0.0986 -0.9507  0.3059
  820MPD2    C212064   1.926   0.420  15.228  0.3406  0.3080 -0.9222
  820MPD2    C312065   1.884   0.286  15.218  0.0066  0.3683 -0.6021
  820MPD2    C412066   1.765   0.253  15.157  0.0584 -0.1987 -0.2250
  820MPD2    C512067   1.680   0.347  15.110  0.6544  0.3732 -0.1405
  820MPD2     H12068   2.018   0.448  15.277 -0.8364  1.5656  0.5833
  820MPD2    H112069   1.728   0.152  15.150  1.7035 -0.6701 -2.0909
  820MPD2    H212070   1.662   0.553  15.062 -3.1701  0.2498  4.1646
  820MPD2    H312071   1.582   0.326  15.069  1.0502  0.6488 -1.2439
  820MPD2     N12072   1.948   0.179  15.284  0.1443 -0.4287  0.2321
  820MPD2    H512073   1.930   0.084  15.255 -0.0102 -0.8200  1.5935
  820MPD2    N112074   1.885   0.653  15.164 -0.5970  0.0636 -0.1950
  820MPD2    H712075   1.809   0.710  15.127  1.8538  2.3733 -1.6476
  821MPD2     C12076   3.357   1.560  13.116 -1.1114 -0.2474 -0.6708
  821MPD2    C112077   3.409   1.600  13.235  0.2040 -0.3928  0.3489
  821MPD2    C212078   3.516   1.688  13.246 -0.4400 -0.5034  0.0139
  821MPD2    C312079   3.563   1.752  13.127  0.1887  0.4929  0.0063
  821MPD2    C412080   3.502   1.710  13.006  0.2815 -0.3659 -0.5282
  821MPD2    C512081   3.398   1.621  13.003 -0.9010  0.2339  0.0262
  821MPD2     H12082   3.558   1.723  13.340  1.9451 -0.8600 -0.9099
  821MPD2    H112083   3.538   1.754  12.914 -0.5905  3.4832  0.9943
  821MPD2    H212084   3.275   1.491  13.099 -0.9025 -1.0092  1.3077
  821MPD2    H312085   3.367   1.591  12.904 -1.7526  1.8088 -0.1763
  821MPD2     N12086   3.661   1.848  13.112  0.1532 -0.4210 -0.3057
  821MPD2    H512087   3.679   1.874  13.016 -0.3257 -4.6050 -1.5162
  821MPD2    N112088   3.345   1.558  13.354 -0.1527 -0.0157 -0.2251
  821MPD2    H712089   3.388   1.602  13.435  1.3568 -1.3406 -0.3043
  822MPD2     C12090   3.286   1.611  15.863  0.1513 -0.0212 -0.1848
  822MPD2    C112091   3.299   1.574  15.994 -0.2034 -0.4658  0.2146
  822MPD2    C212092   3.225   1.639  16.093  1.0114  0.2233  0.8211
  822MPD2    C312093   3.158   1.757  16.065 -0.5422  0.1027 -0.2310
  822MPD2    C412094   3.150   1.794  15.931  0.2720 -0.2077 -0.3910
  822MPD2    C512095   3.210   1.722  15.831  0.1708 -0.1669 -0.1024
  822MPD2     H12096   3.231   1.599  16.194 -2.9488  0.7114  1.2443
  822MPD2    H112097   3.091   1.878  15.896  1.5628  0.9651  0.2982
  822MPD2    H212098   3.337   1.565  15.780 -0.3539  1.2711 -1.2141
  822MPD2    H312099   3.189   1.747  15.728  0.7422  0.4019 -0.0856
  822MPD2     N12100   3.112   1.826  16.176  0.3570 -0.8840 -0.1418
  822MPD2    H512101   3.116   1.770  16.261 -0.4464 -0.2548  0.3148
  822MPD2    N112102   3.380   1.469  16.048  0.2197 -0.5975  0.4847
  822MPD2    H712103   3.376   1.447  16.147 -2.1097 -0.0526  0.4924
  823MPD2     C12104   3.021   1.863  17.018  0.0762 -0.3965 -0.1304
  823MPD2    C112105   3.055   1.814  16.896  0.9134  0.4471  0.3466
  823MPD2    C212106   3.104   1.686  16.898  0.2218 -0.2182  0.0606
  823MPD2    C312107   3.106   1.605  17.013  0.0675 -0.6883  0.3561
  823MPD2    C412108   3.049   1.658  17.128  0.5648  0.3344  0.2938
  823MPD2    C512109   3.023   1.789  17.135  0.0200 -0.6475 -0.7073
  823MPD2     H12110   3.134   1.644  16.804  1.3861  1.0191 -0.1228
  823MPD2    H112111   3.051   1.605  17.222 -2.4862  0.1388  0.2435
  823MPD2    H212112   2.984   1.965  17.029  0.9386 -0.1260  0.2926
  823MPD2    H312113   2.992   1.830  17.230 -1.4942  0.5050 -1.6877
  823MPD2     N12114   3.152   1.473  17.016 -0.3770  0.0588 -0.1553
  823MPD2    H512115   3.149   1.429  17.108 -0.3446 -0.2309 -0.2927
  823MPD2    N112116   3.033   1.896  16.781  0.2710  0.1917 -0.6153
  823MPD2    H712117   2.992   1.989  16.785 -3.7118 -1.6773  1.6038
  824MPD2     C12118   3.630   0.647  15.897  0.0348 -0.1335 -0.0524
  824MPD2    C112119   3.729   0.720  15.961 -0.0708  0.9494  0.1404
  824MPD2    C212120   3.846   0.661  15.992 -0.9634 -0.5798  0.1134
  824MPD2    C312121   3.869   0.529  15.957 -0.4024  0.6885 -0.1172
  824MPD2    C412122   3.775   0.456  15.896 -0.4977  0.3071  0.3684
  824MPD2    C512123   3.656   0.521  15.859  0.1042  0.0115  0.2305
  824MPD2     H12124   3.929   0.705  16.048 -0.1453 -0.8400 -0.8895
  824MPD2    H112125   3.793   0.361  15.848 -1.2532 -0.0727  0.8285
  824MPD2    H212126   3.535   0.687  15.865  0.4065 -0.9725 -2.1826
  824MPD2    H312127   3.582   0.459  15.810 -0.6671  1.0946  0.0255
  824MPD2     N12128   3.996   0.480  15.985  0.1816 -0.3219 -0.4267
  824MPD2    H512129   4.058   0.547  16.029 -0.7533  0.1617  0.1391
  824MPD2    N112130   3.717   0.858  15.998 -0.5205 -0.2189 -0.5438
  824MPD2    H712131   3.795   0.889  16.055 -0.6725 -0.3962 -0.2380
  825MPD2     C12132   0.100   0.591  16.059 -0.4320  0.5199 -0.0780
  825MPD2    C112133   4.692   0.623  16.017 -0.3152 -0.3039 -0.2148
  825MPD2    C212134   4.670   0.717  15.921  0.3729  0.9336  0.0860
  825MPD2    C312135   0.049   0.802  15.880 -0.9257 -0.3537 -1.0429
  825MPD2    C412136   0.179   0.772  15.915  0.2642 -0.0606 -0.5651
  825MPD2    C512137   0.206   0.672  16.012  0.1242  0.0424 -0.3545
  825MPD2     H12138   4.572   0.735  15.877  0.3661  3.1725  1.0339
  825MPD2    H112139   0.258   0.839  15.886 -0.5362  1.4576  0.7463
  825MPD2    H212140   0.128   0.510  16.125  0.8712  0.3761 -0.8115
  825MPD2    H312141   0.309   0.657  16.041 -0.1836 -1.6477 -0.1338
  825MPD2     N12142   0.022   0.921  15.812 -0.4736  0.5305 -0.0617
  825MPD2    H512143   0.096   0.990  15.810 -0.0131  0.0974  1.8342
  825MPD2    N112144   4.594   0.539  16.076 -0.2487 -0.0334  0.1011
  825MPD2    H712145   4.621   0.473  16.148  1.4495  0.6701  0.0989
  826MPD2     C12146   0.234   0.325  13.448 -0.6609  0.0567 -0.4286
  826MPD2    C112147   0.160   0.397  13.354  0.4483  0.0116 -0.0410
  826MPD2    C212148   0.097   0.510  13.406 -0.0269  0.0588 -0.0979
  826MPD2    C312149   0.121   0.552  13.538  0.5426 -0.1528  0.4885
  826MPD2    C412150   0.202   0.478  13.621 -0.0542 -0.2359 -0.1312
  826MPD2    C512151   0.255   0.362  13.578 -0.4866  0.6415 -0.3539
  826MPD2     H12152   0.036   0.559  13.332 -1.1378 -1.3473 -0.1202
  826MPD2    H112153   0.215   0.491  13.728  1.1759  1.9074 -0.5318
  826MPD2    H212154   0.275   0.234  13.405 -1.1666 -0.6108  0.5040
  826MPD2    H312155   0.313   0.301  13.646  0.8492  0.6914 -1.4361
  826MPD2     N12156   0.049   0.657  13.596  0.0150 -0.2637 -0.3334
  826MPD2    H512157   0.051   0.677  13.696 -3.2613 -0.0230 -0.3081
  826MPD2    N112158   0.145   0.352  13.225 -0.5305  0.6590 -0.6461
  826MPD2    H712159   0.197   0.265  13.213 -2.4757 -0.5108 -0.6245
  827MPD2     C12160   1.078   1.738  10.043 -0.2732 -0.2498 -0.2093
  827MPD2    C112161   1.031   1.658  10.142  0.5960  0.0979 -0.1052
  827MPD2    C212162   0.944   1.556  10.102 -0.4099  0.4382 -0.0107
  827MPD2    C312163   0.902   1.533   9.970 -0.6838 -0.0649  0.2288
  827MPD2    C412164   0.957   1.618   9.879 -0.3418 -0.8267 -0.3551
  827MPD2    C512165   1.052   1.714   9.914 -0.1003  0.3913 -0.4741
  827MPD2     H12166   0.905   1.490  10.178 -1.5336  0.5766 -0.4733
  827MPD2    H112167   0.928   1.611   9.775  2.2247  0.9459 -1.1950
  827MPD2    H212168   1.142   1.824  10.058 -0.1945 -0.0302 -1.7553
  827MPD2    H312169   1.091   1.787   9.844  1.5769 -0.7611 -0.7396
  827MPD2     N12170   0.801   1.436   9.950  0.3517  0.2846 -0.2182
  827MPD2    H512171   0.752   1.393  10.028 -1.2575  2.0313 -0.2504
  827MPD2    N112172   1.075   1.672  10.274  0.1082 -0.0838 -0.0008
  827MPD2    H712173   1.158   1.730  10.278  0.1091 -0.1061  0.2755
  828MPD2     C12174   4.005   2.005  12.783 -0.1240 -0.0378 -0.2940
  828MPD2    C112175   3.946   2.052  12.666 -0.0805  0.3973 -0.0923
  828MPD2    C212176   4.020   2.070  12.556 -0.0316 -0.1566  0.1979
  828MPD2    C312177   4.153   2.039  12.548 -0.4057  1.3503 -0.5595
  828MPD2    C412178   4.216   1.987  12.660  0.2455  0.6412 -1.0317
  828MPD2    C512179   4.141   1.981  12.777 -0.4594  1.3768 -1.2982
  828MPD2     H12180   3.972   2.109  12.467  1.0503  1.3573  0.2766
  828MPD2    H112181   4.323   1.974  12.666  0.2027  1.4983  1.7126
  828MPD2    H212182   3.952   1.972  12.872 -1.3436  0.2961 -0.8915
  828MPD2    H312183   4.190   1.943  12.866  0.0825  5.5357  0.1856
  828MPD2     N12184   4.235   2.044  12.430  0.3764  0.2493  0.1641
  828MPD2    H512185   4.329   2.008  12.444 -0.0238 -1.6333 -2.0025
  828MPD2    N112186   3.804   2.063  12.658 -0.4228 -0.3636  0.2266
  828MPD2    H712187   3.774   2.117  12.578 -0.1377 -0.7229 -0.1189
  829MPD2     C12188   3.718   2.754  12.341  0.1018  0.3561  0.5165
  829MPD2    C112189   3.632   2.673  12.278  0.2940 -0.3082 -0.6312
  829MPD2    C212190   3.574   2.564  12.342 -0.1377  0.5677  0.6641
  829MPD2    C312191   3.598   2.552  12.483  0.0019 -0.1047  0.0039
  829MPD2    C412192   3.690   2.633  12.545  0.4099 -0.0187 -0.3496
  829MPD2    C512193   3.736   2.740  12.475 -0.2778 -0.5457  0.3470
  829MPD2     H12194   3.501   2.501  12.292 -1.7336 -0.2930  4.0789
  829MPD2    H112195   3.722   2.617  12.647  0.4902 -0.5820 -0.4619
  829MPD2    H212196   3.763   2.840  12.292  0.2078 -0.2587 -0.4635
  829MPD2    H312197   3.797   2.810  12.531  0.8837 -1.1610 -0.1451
  829MPD2     N12198   3.540   2.453  12.564  0.6684 -1.3136 -0.1965
  829MPD2    H512199   3.558   2.461  12.664 -0.1525 -0.9680 -0.0762
  829MPD2    N112200   3.599   2.711  12.146 -0.7106  0.5804 -0.8794
  829MPD2    H712201   3.652   2.783  12.097  0.4487 -0.1604 -0.7261
  830MPD2     C12202   3.176   4.435  15.187 -0.5506 -0.0532  1.0183
  830MPD2    C112203   3.280   4.487  15.265 -0.2630  1.0081  0.8128
  830MPD2    C212204   3.394   4.523  15.200  0.0543 -0.1927 -0.3333
  830MPD2    C312205   3.396   4.529  15.064  0.1772  0.4013  0.0768
  830MPD2    C412206   3.285   4.484  14.992  0.2419  0.3491  0.1196
  830MPD2    C512207   3.177   4.431  15.051  0.3833 -0.3251 -0.2493
  830MPD2     H12208   3.466   4.576  15.261 -1.2057  1.0499  0.0646
  830MPD2    H112209   3.278   4.486  14.884 -0.0131  2.0528  0.1745
  830MPD2    H212210   3.089   4.392  15.235 -0.5961 -1.5443 -0.4084
  830MPD2    H312211   3.090   4.405  14.993  0.0021 -2.4294  1.2687
  830MPD2     N12212   3.498   4.591  14.996 -0.1702 -0.5057  0.3173
  830MPD2    H512213   3.480   4.602  14.897 -0.8706  1.0595  0.6159
  830MPD2    N112214   3.265   4.485  15.410  0.3537 -0.5422 -0.2972
  830MPD2    H712215   3.178   4.450  15.448  0.1003  0.0373 -0.3500
  831MPD2     C12216   3.500   1.859  16.444  0.0649 -0.4213 -0.3671
  831MPD2    C112217   3.499   1.765  16.346  0.6154  0.8734  0.4242
  831MPD2    C212218   3.422   1.648  16.363  0.1607  0.0228 -0.1128
  831MPD2    C312219   3.335   1.642  16.474 -0.2265  0.2870 -1.1314
  831MPD2    C412220   3.349   1.735  16.576 -0.0514  0.2801 -0.2555
  831MPD2    C512221   3.426   1.843  16.558  0.4814  0.0155  0.2233
  831MPD2     H12222   3.417   1.569  16.289 -2.1944  0.4581 -0.4251
  831MPD2    H112223   3.306   1.716  16.673  0.1850 -2.2197 -0.6596
  831MPD2    H212224   3.569   1.943  16.443  0.1880 -0.5256 -0.8022
  831MPD2    H312225   3.427   1.922  16.632 -2.5702 -0.4814  0.8072
  831MPD2     N12226   3.234   1.540  16.493 -0.0672  0.3223  0.1828
  831MPD2    H512227   3.171   1.565  16.568 -0.3910 -1.3549  0.4802
  831MPD2    N112228   3.578   1.782  16.232 -0.0911 -0.2890 -0.1799
  831MPD2    H712229   3.595   1.875  16.193  0.6828 -0.6786 -0.7841
  832MPD2     C12230   1.898   2.787  17.413  0.6932  0.3018  0.2600
  832MPD2    C112231   1.871   2.919  17.393 -0.5001 -0.4378  0.1084
  832MPD2    C212232   1.783   2.949  17.288  0.7475  0.8773 -0.9533
  832MPD2    C312233   1.744   2.848  17.202 -0.3733 -0.0270 -0.3814
  832MPD2    C412234   1.783   2.720  17.226  0.4020 -0.5227  0.5565
  832MPD2    C512235   1.858   2.687  17.334  0.1661  0.5030 -0.2476
  832MPD2     H12236   1.747   3.049  17.266 -1.1918  0.6729  1.2809
  832MPD2    H112237   1.763   2.639  17.158  0.9738 -2.0966  2.2804
  832MPD2    H212238   1.959   2.764  17.500  0.2196  0.7219  0.7018
  832MPD2    H312239   1.886   2.583  17.345 -1.2974  0.1368 -0.0563
  832MPD2     N12240   1.651   2.863  17.097 -0.0540 -0.0872  0.1760
  832MPD2    H512241   1.609   2.775  17.068 -0.9527 -0.0125  1.2346
  832MPD2    N112242   1.927   3.011  17.482 -0.0094  0.7803 -0.0865
  832MPD2    H712243   1.986   2.979  17.558  4.0070  1.6505 -2.8297
  833MPD2     C12244   4.014   4.159  12.130  0.8039  0.0768  0.4404
  833MPD2    C112245   4.098   4.235  12.212  0.0770 -0.6468  0.4982
  833MPD2    C212246   4.238   4.230  12.176  0.1414  0.7353 -0.0800
  833MPD2    C312247   4.290   4.131  12.100 -0.7909 -0.2349  0.0914
  833MPD2    C412248   4.204   4.044  12.030 -0.5245  0.1056 -0.2090
  833MPD2    C512249   4.073   4.054  12.051  0.4977  0.1221 -0.6066
  833MPD2     H12250   4.298   4.303  12.230  0.4881  0.9225 -0.7165
  833MPD2    H112251   4.237   3.959  11.971 -0.8070  0.2232 -0.5332
  833MPD2    H212252   3.908   4.177  12.141  0.4909 -0.4715 -1.6932
  833MPD2    H312253   4.007   3.994  11.989 -0.3499  0.9374 -0.5068
  833MPD2     N12254   4.429   4.125  12.077 -0.1737  0.6550  0.3681
  833MPD2    H512255   4.463   4.057  12.009 -2.8960 -0.1824 -0.1504
  833MPD2    N112256   4.051   4.334  12.301  0.1834  0.0033  0.1346
  833MPD2    H712257   4.120   4.369  12.366  1.9057  0.0087 -1.7051
  834MPD2     C12258   4.662   4.071  11.251  0.0019 -0.9399 -0.4133
  834MPD2    C112259   4.650   3.971  11.348  0.3634  0.5584  0.4135
  834MPD2    C212260   4.663   4.010  11.483 -0.1147 -1.2723  0.2733
  834MPD2    C312261   4.684   4.140  11.519  0.0165 -0.1895  0.0911
  834MPD2    C412262   4.691   4.241  11.424  0.3536 -0.2218 -0.0324
  834MPD2    C512263   4.678   4.202  11.289  0.0904 -0.0195  0.0915
  834MPD2     H12264   4.666   3.925  11.550 -1.5876 -0.5373  1.2752
  834MPD2    H112265   4.699   4.347  11.447  3.1375 -0.7099  1.2750
  834MPD2    H212266   4.670   4.054  11.144  1.7254 -1.0699 -0.2529
  834MPD2    H312267   4.682   4.276  11.209  1.9390  0.1514  0.3379
  834MPD2     N12268   4.706   4.160  11.657 -0.0960 -0.0070  0.0820
  834MPD2    H512269   4.708   4.079  11.719  1.0450  1.3362  1.7835
  834MPD2    N112270   4.617   3.834  11.318 -0.2634  0.3774  0.0521
  834MPD2    H712271   4.600   3.780  11.403  0.2676  0.7183  0.3742
  835MPD2     C12272   0.118   1.682  11.204  0.1336 -0.5988 -0.5678
  835MPD2    C112273   0.042   1.792  11.253  0.4720  0.2048 -0.5797
  835MPD2    C212274   0.092   1.861  11.358 -0.0749  0.0592  0.2331
  835MPD2    C312275   0.197   1.828  11.437 -0.0255  0.2441  0.0163
  835MPD2    C412276   0.265   1.710  11.398  0.3442 -0.3645 -0.1402
  835MPD2    C512277   0.226   1.643  11.285 -0.4019 -0.0006  0.3672
  835MPD2     H12278   0.035   1.948  11.388 -1.0553 -0.1903 -0.9461
  835MPD2    H112279   0.339   1.657  11.456 -0.9683 -2.8288 -0.7240
  835MPD2    H212280   0.083   1.630  11.116  1.1575  1.3182 -2.1151
  835MPD2    H312281   0.288   1.558  11.258 -1.3119 -0.6481  0.3256
  835MPD2     N12282   0.224   1.899  11.555 -0.6460  0.4035 -0.0711
  835MPD2    H512283   0.279   1.854  11.627 -0.0398  2.8367  1.0058
  835MPD2    N112284   4.648   1.848  11.195 -0.8346  0.8252 -0.0414
  835MPD2    H712285   4.626   1.941  11.230 -0.1019  1.0899 -0.3013
  836MPD2     C12286   4.432   2.300  11.610 -0.1331  0.3322 -0.4807
  836MPD2    C112287   4.464   2.293  11.746 -0.6929 -0.1178 -0.5377
  836MPD2    C212288   4.374   2.329  11.842 -0.1270  0.3839  0.5232
  836MPD2    C312289   4.247   2.373  11.809  0.6669  0.4516 -0.0174
  836MPD2    C412290   4.215   2.391  11.674 -0.7017 -0.2209  0.3095
  836MPD2    C512291   4.302   2.349  11.578  0.1574 -0.2052 -0.4957
  836MPD2     H12292   4.407   2.310  11.943  0.0247 -1.3989  0.1400
  836MPD2    H112293   4.116   2.422  11.641  0.1694  1.3938 -0.8232
  836MPD2    H212294   4.501   2.268  11.533  0.4645  1.2551 -0.3309
  836MPD2    H312295   4.288   2.358  11.471 -0.1733  0.4762 -0.3956
  836MPD2     N12296   4.149   2.402  11.907  0.4504 -0.2453 -0.3874
  836MPD2    H512297   4.059   2.427  11.867  0.3754  1.0223  0.5723
  836MPD2    N112298   4.587   2.240  11.773  0.1243 -0.3599  0.1591
  836MPD2    H712299   4.640   2.193  11.700  1.0264  0.3895  0.3194
  837MPD2     C12300   4.041   0.820  10.257  0.8110  0.4804 -0.5702
  837MPD2    C112301   3.945   0.912  10.296  0.9960  0.3952 -0.5106
  837MPD2    C212302   3.977   1.006  10.385  0.8695  0.4341  0.0267
  837MPD2    C312303   4.103   1.038  10.410 -0.5068 -1.0320  0.1011
  837MPD2    C412304   4.204   0.948  10.375  0.3925  0.0401 -0.7937
  837MPD2    C512305   4.170   0.830  10.309  0.4920  1.1912  0.7197
  837MPD2     H12306   3.896   1.067  10.425  2.8448  2.4961  0.9248
  837MPD2    H112307   4.294   0.956  10.435  0.7921  3.2822 -1.8416
  837MPD2    H212308   4.009   0.729  10.208 -0.4134  0.9810 -0.7052
  837MPD2    H312309   4.246   0.752  10.298 -0.3590  0.2343  1.5564
  837MPD2     N12310   4.122   1.159  10.479  0.3050 -0.0592  0.0615
  837MPD2    H512311   4.032   1.197  10.506 -0.1239  0.8520 -2.6096
  837MPD2    N112312   3.804   0.902  10.267 -0.2942  0.3750  0.0104
  837MPD2    H712313   3.751   0.981  10.302 -0.4937  0.5707 -0.7239
  838MPD2     C12314   1.140   0.154  11.118  0.6010  0.1203  0.0147
  838MPD2    C112315   1.175   0.237  11.221  0.1425 -1.0227  0.0940
  838MPD2    C212316   1.105   0.220  11.341  0.9665 -0.0340  0.9446
  838MPD2    C312317   1.011   0.115  11.351  1.0023  0.2046  0.3002
  838MPD2    C412318   0.979   0.037  11.241 -0.0751 -0.5476  0.3989
  838MPD2    C512319   1.042   0.064  11.123  0.4518 -0.9104  0.6676
  838MPD2     H12320   1.119   0.278  11.431 -0.6774 -2.0495  2.5067
  838MPD2    H112321   0.889   4.698  11.240 -0.9997  0.8193 -0.5641
  838MPD2    H212322   1.190   0.162  11.022 -0.8336  3.5510 -0.4288
  838MPD2    H312323   1.015   0.004  11.036  4.0746 -2.2542  0.4879
  838MPD2     N12324   0.944   0.094  11.479 -0.0711 -0.1051 -0.4370
  838MPD2    H512325   0.978   0.147  11.558 -2.0478  0.4546  0.0385
  838MPD2    N112326   1.282   0.323  11.212 -0.4829 -0.1551 -0.9499
  838MPD2    H712327   1.283   0.401  11.276 -0.1466 -0.1356 -0.9802
  839MPD2     C12328   1.089   4.378  11.575 -1.0885 -0.3993 -0.3929
  839MPD2    C112329   1.095   4.328  11.452  0.0411 -0.1681  0.6743
  839MPD2    C212330   1.161   4.402  11.356  0.1196  0.5873  0.2472
  839MPD2    C312331   1.230   4.511  11.398 -0.0026 -0.7374 -0.4673
  839MPD2    C412332   1.227   4.555  11.527  0.5933 -0.3105 -0.3195
  839MPD2    C512333   1.159   4.485  11.615 -0.5114  0.2272  0.0984
  839MPD2     H12334   1.165   4.361  11.256  2.3459  2.8758 -0.6035
  839MPD2    H112335   1.286   4.634  11.574  0.7990  0.9059 -2.6123
  839MPD2    H212336   1.040   4.327  11.657  0.5576 -0.3656  0.6058
  839MPD2    H312337   1.172   4.508  11.720 -1.2592 -1.0408  0.4672
  839MPD2     N12338   1.316   4.580  11.317 -0.6615  0.2998  0.3433
  839MPD2    H512339   1.362   4.663  11.353  0.0457  0.3118 -0.6044
  839MPD2    N112340   1.029   4.206  11.420 -0.3196  0.0433 -0.1085
  839MPD2    H712341   1.030   4.184  11.321 -1.7228 -0.7638  0.0623
  840MPD2     C12342   1.615   1.873  10.383 -0.3287 -0.8744 -0.1844
  840MPD2    C112343   1.563   1.872  10.509  0.2489 -0.0457  0.4113
  840MPD2    C212344   1.598   1.983  10.590 -0.3804  0.0493  0.3843
  840MPD2    C312345   1.680   2.083  10.548 -0.0521 -0.6532  0.0768
  840MPD2    C412346   1.738   2.071  10.424  0.9006 -0.3827  0.0901
  840MPD2    C512347   1.712   1.964  10.340  0.0964 -0.1131  0.2419
  840MPD2     H12348   1.539   1.978  10.682  0.9580 -0.2275  1.2220
  840MPD2    H112349   1.809   2.147  10.392 -0.4289  1.0256  0.4769
  840MPD2    H212350   1.592   1.793  10.314 -1.5186 -0.6784 -0.0116
  840MPD2    H312351   1.745   1.955  10.237 -1.7802  1.3644 -0.4920
  840MPD2     N12352   1.707   2.200  10.629  0.4093 -0.2088  0.1393
  840MPD2    H512353   1.772   2.262  10.582  1.6445  0.1757  2.3632
  840MPD2    N112354   1.461   1.776  10.537 -1.0271  0.3559 -0.1220
  840MPD2    H712355   1.447   1.728  10.449 -0.0164 -0.3590  0.1027
  841MPD2     C12356   0.811   2.423  14.904 -0.2465  0.1941 -0.1005
  841MPD2    C112357   0.805   2.332  14.797 -0.4423  0.0673  0.4303
  841MPD2    C212358   0.870   2.363  14.682 -0.4555 -0.3018 -0.5757
  841MPD2    C312359   0.940   2.477  14.668  0.1960  0.2389 -0.4452
  841MPD2    C412360   0.938   2.570  14.771 -0.3167 -0.4108 -0.2818
  841MPD2    C512361   0.865   2.549  14.888 -0.0886  0.3741  0.0654
  841MPD2     H12362   0.880   2.287  14.605 -0.9701  0.3642 -1.3011
  841MPD2    H112363   1.000   2.659  14.771  0.5875 -1.0384 -0.1367
  841MPD2    H212364   0.751   2.393  14.989  1.1703 -1.2402  0.4084
  841MPD2    H312365   0.865   2.623  14.967 -0.8142  3.0640 -2.4563
  841MPD2     N12366   1.021   2.490  14.550  0.1034 -0.0175  0.2843
  841MPD2    H512367   1.025   2.409  14.488 -1.6291  0.0922  0.0261
  841MPD2    N112368   0.744   2.208  14.799  0.2687  0.2643  0.1325
  841MPD2    H712369   0.743   2.163  14.708 -2.2146 -0.8475  0.7067
  842MPD2     C12370   0.219   2.981  16.711 -0.2432 -0.0229  0.5869
  842MPD2    C112371   0.329   3.065  16.732 -0.3350 -0.1601  0.7464
  842MPD2    C212372   0.446   3.017  16.798  0.4829  0.2039 -0.0436
  842MPD2    C312373   0.440   2.892  16.863 -0.2675 -0.5233  0.3584
  842MPD2    C412374   0.329   2.814  16.849  0.2134 -0.0829  0.2330
  842MPD2    C512375   0.226   2.854  16.764  0.7176 -0.1803 -0.2356
  842MPD2     H12376   0.526   3.088  16.816  2.3316 -2.1384  0.9906
  842MPD2    H112377   0.324   2.715  16.892  0.3136 -0.1443  0.1030
  842MPD2    H212378   0.133   3.015  16.655 -0.7584 -1.9343  0.2115
  842MPD2    H312379   0.136   2.797  16.742 -0.0391  0.6225  0.8007
  842MPD2     N12380   0.543   2.848  16.943  0.0334 -0.1215  0.2225
  842MPD2    H512381   0.533   2.756  16.984 -1.4221 -0.5239 -1.0141
  842MPD2    N112382   0.320   3.193  16.671  0.1066  0.7347 -0.3322
  842MPD2    H712383   0.232   3.209  16.623  0.1629  1.0594 -0.3280
  843MPD2     C12384   3.424   3.803   1.267  0.0092  0.0440 -0.4221
  843MPD2    C112385   3.398   3.839   1.139  0.2607  0.9204  0.2026
  843MPD2    C212386   3.455   3.955   1.091  0.3823  0.0878 -0.2132
  843MPD2    C312387   3.542   4.024   1.168  0.7396 -0.6961 -0.7818
  843MPD2    C412388   3.559   3.995   1.301 -0.3421 -0.1246  0.1788
  843MPD2    C512389   3.503   3.882   1.356  0.7173 -0.2668  0.2219
  843MPD2     H12390   3.451   3.973   0.984  1.0422  2.2002  0.1147
  843MPD2    H112391   3.610   4.059   1.372  1.2139  0.0600 -1.1130
  843MPD2    H212392   3.379   3.714   1.310  3.2107 -0.8497  1.0483
  843MPD2    H312393   3.512   3.857   1.461  1.0090  0.8781  0.4662
  843MPD2     N12394   3.611   4.141   1.127 -0.3863 -0.1767 -0.8334
  843MPD2    H512395   3.691   4.176   1.179 -0.3400 -1.3285 -0.1338
  843MPD2    N112396   3.310   3.755   1.062  0.4959 -0.3247  0.1131
  843MPD2    H712397   3.258   3.685   1.116 -0.1569  1.3720  1.6805
  844MPD2     C12398   2.289   2.796  17.258  0.0867 -0.3898  0.7714
  844MPD2    C112399   2.221   2.911  17.222 -0.6457 -0.4966  0.2524
  844MPD2    C212400   2.237   3.025  17.303 -0.5260 -0.3178  0.6145
  844MPD2    C312401   2.299   3.019  17.427  0.0597 -0.3388  0.9816
  844MPD2    C412402   2.371   2.905  17.458 -0.4262  0.5280  0.5581
  844MPD2    C512403   2.360   2.799  17.374  0.5524  0.4814 -0.3455
  844MPD2     H12404   2.191   3.119  17.271 -0.1065 -0.2938  0.0841
  844MPD2    H112405   2.430   2.893  17.548 -0.0484 -0.0973  0.2223
  844MPD2    H212406   2.283   2.697  17.213 -2.2614 -0.2620  0.8147
  844MPD2    H312407   2.408   2.706  17.406 -3.0306 -0.3985  2.4257
  844MPD2     N12408   2.303   3.131  17.514  0.2227  0.4186  0.5048
  844MPD2    H512409   2.267   3.216  17.473  0.5786  0.5834  0.5309
  844MPD2    N112410   2.138   2.917  17.109  0.4608 -0.2095  0.1138
  844MPD2    H712411   2.066   2.988  17.102  0.3739 -0.1409  1.8039
  845MPD2     C12412   2.181   3.971  17.361 -0.0323  0.0685  0.1321
  845MPD2    C112413   2.130   3.849  17.323  0.0160 -1.4675  0.9587
  845MPD2    C212414   2.176   3.737  17.392  0.0035  0.8665  0.7616
  845MPD2    C312415   2.263   3.747  17.497  0.1509 -0.3567 -0.5927
  845MPD2    C412416   2.328   3.866  17.526  0.8190  0.1041 -0.2335
  845MPD2    C512417   2.277   3.974  17.456  0.3467  0.4053  0.2670
  845MPD2     H12418   2.141   3.635  17.383  0.9229  0.8929 -2.8455
  845MPD2    H112419   2.405   3.879  17.601  1.0023 -0.0564 -0.3929
  845MPD2    H212420   2.156   4.063  17.309  0.5800  0.2954  0.2453
  845MPD2    H312421   2.320   4.073  17.465  1.4491 -0.0149 -0.5505
  845MPD2     N12422   2.289   3.623  17.565  0.5297 -0.5274 -1.0694
  845MPD2    H512423   2.253   3.535  17.532  0.5048 -0.6255 -0.7789
  845MPD2    N112424   2.030   3.841  17.225 -0.3468 -0.3949  0.8118
  845MPD2    H712425   2.008   3.926  17.174 -1.0149 -1.6408 -1.0239
  846MPD2     C12426   3.682   3.789  14.233  0.3120  0.0601  0.1730
  846MPD2    C112427   3.549   3.824  14.228 -0.3326  0.1462  0.8154
  846MPD2    C212428   3.458   3.776  14.323 -0.1936  0.2098  0.1344
  846MPD2    C312429   3.508   3.708  14.431 -0.5742  0.2716 -0.1097
  846MPD2    C412430   3.645   3.694  14.446  0.7750  0.3584 -0.1877
  846MPD2    C512431   3.728   3.722  14.336  0.3355 -1.0947  0.7099
  846MPD2     H12432   3.351   3.783  14.307  0.0245 -0.9616 -1.8695
  846MPD2    H112433   3.690   3.674  14.542  0.0852  0.2937  0.1224
  846MPD2    H212434   3.756   3.815  14.157 -0.2675 -1.4872 -0.9072
  846MPD2    H312435   3.836   3.713  14.336  0.3263 -1.2059  0.7276
  846MPD2     N12436   3.419   3.665  14.530  0.0730 -0.3025 -0.1265
  846MPD2    H512437   3.320   3.685  14.516 -0.1259 -2.7866 -2.1173
  846MPD2    N112438   3.504   3.890  14.118 -0.3346 -0.3906 -0.0295
  846MPD2    H712439   3.403   3.888  14.104 -0.3027 -0.0583 -0.2906
  847MPD2     C12440   3.378   4.539  14.514  0.1538  1.3180 -0.1364
  847MPD2    C112441   3.502   4.590  14.479 -0.2029  0.2643  0.0774
  847MPD2    C212442   3.615   4.532  14.549 -0.6620  0.2478  0.5167
  847MPD2    C312443   3.598   4.433  14.642  0.5516 -0.2962  0.2656
  847MPD2    C412444   3.472   4.384  14.675  0.6512  0.6221  0.5460
  847MPD2    C512445   3.359   4.442  14.613 -0.6515  0.6588 -0.0029
  847MPD2     H12446   3.716   4.557  14.519 -0.7232  1.7410  1.5763
  847MPD2    H112447   3.454   4.295  14.733  0.5280 -0.6607 -1.4650
  847MPD2    H212448   3.283   4.571  14.472 -0.7394 -0.4201  0.5817
  847MPD2    H312449   3.257   4.415  14.641 -0.6782 -1.2046 -1.9630
  847MPD2     N12450   3.715   4.390  14.704  0.0077  1.0534  0.1747
  847MPD2    H512451   3.801   4.431  14.669  0.6275  1.3900  2.0968
  847MPD2    N112452   3.526   4.695  14.390 -0.2194  0.2886  0.3056
  847MPD2    H712453   3.626   4.712  14.381 -0.2231 -0.4554 -1.1270
  848MPD2     C12454   0.967   3.341  16.739 -0.1306 -1.1387  0.1737
  848MPD2    C112455   1.093   3.312  16.686  0.2601  0.3386 -0.7546
  848MPD2    C212456   1.139   3.384  16.572 -0.3748 -0.6692 -0.5369
  848MPD2    C312457   1.061   3.482  16.508 -0.0449 -0.6213 -0.9753
  848MPD2    C412458   0.934   3.504  16.562 -0.7149  0.5466 -0.6648
  848MPD2    C512459   0.892   3.438  16.670  0.0452 -0.8192 -0.0592
  848MPD2     H12460   1.235   3.349  16.535 -0.4334 -1.7500  0.3208
  848MPD2    H112461   0.867   3.576  16.515 -0.4395  1.6105  0.5838
  848MPD2    H212462   0.925   3.297  16.829 -1.0358  0.6214  0.6308
  848MPD2    H312463   0.801   3.477  16.714  0.4182  1.1032 -0.9536
  848MPD2     N12464   1.111   3.559  16.402 -0.4080  0.3854 -0.1503
  848MPD2    H512465   1.038   3.606  16.350 -1.2895 -0.1575  0.5770
  848MPD2    N112466   1.174   3.215  16.753 -1.1682  0.3970 -0.2507
  848MPD2    H712467   1.127   3.162  16.826  1.7156 -2.0846 -0.2107
  849MPD2     C12468   1.175   2.316  14.019  0.2727 -0.1208 -0.0414
  849MPD2    C112469   1.262   2.407  13.959  0.3971  0.2869 -0.2299
  849MPD2    C212470   1.395   2.401  13.984  0.1824 -0.6889 -0.0404
  849MPD2    C312471   1.443   2.324  14.093 -1.0150 -0.3373 -0.4638
  849MPD2    C412472   1.356   2.241  14.158  0.7842  1.1885 -1.2542
  849MPD2    C512473   1.230   2.236  14.112 -0.1452  0.4272 -0.1115
  849MPD2     H12474   1.468   2.463  13.934  0.4483  1.7679  3.3792
  849MPD2    H112475   1.387   2.168  14.233  1.9558  0.8344 -2.0839
  849MPD2    H212476   1.071   2.306  13.991  0.3154  1.3686 -0.7421
  849MPD2    H312477   1.170   2.158  14.159  2.3963 -1.4262  0.0658
  849MPD2     N12478   1.581   2.337  14.121  0.1279 -0.1260  0.3953
  849MPD2    H512479   1.634   2.407  14.070 -0.7475 -0.5056 -1.0381
  849MPD2    N112480   1.221   2.493  13.854  0.0966  0.3997  0.5199
  849MPD2    H712481   1.297   2.535  13.801  1.6171  0.0825  2.4356
  850MPD2     C12482   3.192   0.679  14.808 -0.7177  0.5112 -0.2402
  850MPD2    C112483   3.162   0.742  14.927  0.1689  0.2735  1.0912
  850MPD2    C212484   3.269   0.782  15.000  0.3620  0.1861  0.2624
  850MPD2    C312485   3.402   0.761  14.970  0.2389 -0.5003 -0.2102
  850MPD2    C412486   3.429   0.691  14.850 -0.8034  0.2432 -0.3473
  850MPD2    C512487   3.323   0.659  14.771  0.7721  0.7701 -0.6926
  850MPD2     H12488   3.250   0.850  15.082  0.0939 -1.3169  1.4485
  850MPD2    H112489   3.531   0.660  14.831 -0.4324  1.3310 -0.1235
  850MPD2    H212490   3.112   0.648  14.741 -0.7811  1.2076 -0.4907
  850MPD2    H312491   3.340   0.614  14.674  3.5581  1.1562 -0.3856
  850MPD2     N12492   3.507   0.791  15.061 -0.4536  0.1383 -0.1849
  850MPD2    H512493   3.598   0.759  15.030  0.1893  0.5917  1.2546
  850MPD2    N112494   3.031   0.753  14.965  0.8761 -0.3180 -0.0038
  850MPD2    H712495   2.963   0.731  14.892  0.7486 -1.7256  0.5405
  851MPD2     C12496   3.653   0.556  15.499  0.1383  0.5197  0.0902
  851MPD2    C112497   3.559   0.543  15.399 -0.3453  0.2813  0.4584
  851MPD2    C212498   3.596   0.475  15.281  0.1685 -0.2601 -0.3132
  851MPD2    C312499   3.725   0.411  15.271 -0.1091 -0.5185 -0.1215
  851MPD2    C412500   3.808   0.422  15.377  0.6317 -0.5757  1.0933
  851MPD2    C512501   3.776   0.496  15.490 -0.0671  0.3025 -0.3265
  851MPD2     H12502   3.527   0.478  15.198  0.9834  1.5368 -0.9342
  851MPD2    H112503   3.908   0.380  15.376  0.0237 -2.0428  1.6384
  851MPD2    H212504   3.631   0.609  15.591 -2.8488  1.8022 -1.3784
  851MPD2    H312505   3.848   0.496  15.570 -1.4566  1.3854  0.9234
  851MPD2     N12506   3.774   0.336  15.156 -0.3303  1.0700 -0.4283
  851MPD2    H512507   3.869   0.299  15.166  0.0089  2.0522 -0.0690
  851MPD2    N112508   3.431   0.601  15.416  0.2250 -0.2650  0.1609
  851MPD2    H712509   3.428   0.682  15.477  0.3443  0.1148 -0.3403
  852MPD2     C12510   3.455   3.871   9.985  0.4632 -0.5170  0.3514
  852MPD2    C112511   3.527   3.929  10.082 -0.0449  0.5741  0.0847
  852MPD2    C212512   3.651   3.874  10.112  0.0879 -0.8262 -0.3720
  852MPD2    C312513   3.712   3.786  10.029 -0.5022  0.2728 -0.1623
  852MPD2    C412514   3.648   3.740   9.922 -0.7556 -0.0473  0.8030
  852MPD2    C512515   3.523   3.780   9.904 -0.8634  0.4449  0.8018
  852MPD2     H12516   3.711   3.911  10.195  1.7849  0.2325 -2.0597
  852MPD2    H112517   3.685   3.658   9.862  2.3217  2.0299 -0.1352
  852MPD2    H212518   3.356   3.901   9.951 -0.2045  0.0656  2.7581
  852MPD2    H312519   3.476   3.730   9.820 -0.1139  1.8286 -0.4580
  852MPD2     N12520   3.843   3.744  10.064 -0.3053  1.0062  0.2904
  852MPD2    H512521   3.886   3.794  10.141  0.1782  0.7218  0.2005
  852MPD2    N112522   3.485   4.035  10.166 -0.1507 -0.1162  0.0517
  852MPD2    H712523   3.549   4.065  10.238 -1.4950 -1.1110  1.6716
  853MPD2     C12524   0.863   3.395  12.316 -0.4255  0.8230 -0.0934
  853MPD2    C112525   0.728   3.358  12.299 -0.1883  0.0441 -0.0985
  853MPD2    C212526   0.685   3.260  12.207 -0.0102  0.6105  0.9661
  853MPD2    C312527   0.786   3.207  12.124 -0.8096 -0.4405 -0.1281
  853MPD2    C412528   0.916   3.250  12.135 -0.3886  0.3709  0.3514
  853MPD2    C512529   0.957   3.339  12.233 -0.0352 -0.6266  0.0266
  853MPD2     H12530   0.582   3.232  12.194  1.0014 -2.6661  0.1138
  853MPD2    H112531   1.002   3.218  12.077  0.4720  1.6611  0.9202
  853MPD2    H212532   0.892   3.475  12.384  0.3330  1.5824 -1.3200
  853MPD2    H312533   1.060   3.372  12.236 -0.8822  2.0793 -0.4255
  853MPD2     N12534   0.759   3.124  12.009 -0.3247  0.0078  0.0305
  853MPD2    H512535   0.840   3.097  11.954 -0.2713 -1.0260  0.6261
  853MPD2    N112536   0.631   3.428  12.378 -0.0515  0.2582 -0.2348
  853MPD2    H712537   0.664   3.508  12.431 -2.3511  0.0103  1.5818
  854MPD2     C12538   2.041   3.404  12.987 -0.3791  0.0899  0.4287
  854MPD2    C112539   2.078   3.508  13.073  0.5803  0.3024  0.1662
  854MPD2    C212540   2.195   3.503  13.153  0.2487  0.5687  0.5485
  854MPD2    C312541   2.271   3.387  13.141  0.3086  0.0430  0.6306
  854MPD2    C412542   2.240   3.286  13.051  0.6148  0.4939  0.0838
  854MPD2    C512543   2.127   3.292  12.975 -0.1966 -0.0795 -0.3287
  854MPD2     H12544   2.217   3.579  13.227 -1.5805  0.8552  0.7979
  854MPD2    H112545   2.303   3.200  13.033 -0.6888 -0.1428 -1.4971
  854MPD2    H212546   1.946   3.400  12.936 -0.1623 -1.2019  0.1197
  854MPD2    H312547   2.107   3.216  12.900 -1.7246 -1.7434  1.7756
  854MPD2     N12548   2.405   3.382  13.194 -0.5551  0.5226 -0.2705
  854MPD2    H512549   2.459   3.298  13.179  2.8144  2.7794 -0.8441
  854MPD2    N112550   2.007   3.626  13.073 -0.0226 -0.7714 -0.1726
  854MPD2    H712551   1.946   3.646  12.994  0.8205  0.1179 -0.5994
  855MPD2     C12552   2.767   3.507  14.131 -0.2606 -0.6791  0.1532
  855MPD2    C112553   2.821   3.411  14.055  0.3381 -0.2618  0.0785
  855MPD2    C212554   2.812   3.422  13.919  0.1102  0.5866  0.5583
  855MPD2    C312555   2.733   3.520  13.852 -0.5390  0.0253 -0.4263
  855MPD2    C412556   2.684   3.620  13.928  0.6311  0.2467  0.0762
  855MPD2    C512557   2.699   3.606  14.066  0.8535 -0.1883  0.6786
  855MPD2     H12558   2.854   3.339  13.864 -2.5855  1.7822 -3.3106
  855MPD2    H112559   2.618   3.701  13.899 -0.0908 -0.5431 -0.4996
  855MPD2    H212560   2.771   3.505  14.239  2.5716 -1.3626  0.0431
  855MPD2    H312561   2.647   3.675  14.131  0.3047 -0.6105  0.6832
  855MPD2     N12562   2.704   3.524  13.714 -0.1319 -0.4392  0.5588
  855MPD2    H512563   2.701   3.618  13.675  1.1253 -0.5795  0.1088
  855MPD2    N112564   2.873   3.290  14.102 -0.3912  0.0033  0.2812
  855MPD2    H712565   2.916   3.224  14.037 -1.9970 -0.4650 -0.2937
  856MPD2     C12566   0.297   4.219  13.447  0.7035  0.0224  0.3682
  856MPD2    C112567   0.284   4.269  13.574  0.3715  0.3269 -0.3105
  856MPD2    C212568   0.171   4.348  13.607  0.3191 -0.5894 -0.5428
  856MPD2    C312569   0.078   4.381  13.510 -0.6951  0.8468  0.2771
  856MPD2    C412570   0.102   4.340  13.379 -0.3886  0.6566 -0.6284
  856MPD2    C512571   0.208   4.262  13.351  0.4113 -0.5886  0.4431
  856MPD2     H12572   0.164   4.389  13.707 -0.5068  0.9164 -1.2136
  856MPD2    H112573   0.034   4.376  13.303 -1.0758  1.3735  0.3206
  856MPD2    H212574   0.384   4.167  13.410  1.0411  0.0068  1.1948
  856MPD2    H312575   0.221   4.225  13.250 -2.9972  3.8489 -1.5925
  856MPD2     N12576   4.685   4.465  13.535 -0.0805  0.2284 -0.1393
  856MPD2    H512577   4.620   4.476  13.459  0.0901  2.2627  0.0034
  856MPD2    N112578   0.384   4.244  13.669  0.5246 -0.2288  0.7032
  856MPD2    H712579   0.387   4.299  13.754 -1.7441 -1.0995  1.3504
  857MPD2     C12580   1.413   1.406  13.196 -0.0371 -0.3452  0.2737
  857MPD2    C112581   1.485   1.393  13.077 -0.1080 -0.5852 -0.2220
  857MPD2    C212582   1.598   1.476  13.055  0.3327  0.0942  0.9726
  857MPD2    C312583   1.632   1.568  13.149  0.8048 -0.6723  0.6381
  857MPD2    C412584   1.555   1.581  13.266 -0.5766  0.8754 -0.6335
  857MPD2    C512585   1.446   1.504  13.292  0.4614 -0.3486  0.2961
  857MPD2     H12586   1.660   1.461  12.967  2.0679  1.7359  1.9309
  857MPD2    H112587   1.571   1.667  13.329  2.0946 -0.7937  0.9521
  857MPD2    H212588   1.335   1.335  13.218  0.4322 -0.9554 -0.0457
  857MPD2    H312589   1.383   1.524  13.377  1.2288 -2.4283  1.3427
  857MPD2     N12590   1.740   1.652  13.119  0.6320  0.0677  0.4541
  857MPD2    H512591   1.782   1.637  13.028 -0.1423 -1.1507  0.2925
  857MPD2    N112592   1.434   1.298  12.989  0.4649 -0.2502 -0.1707
  857MPD2    H712593   1.375   1.237  13.045 -0.1505  0.4244 -0.0848
  858MPD2     C12594   1.876   0.757  16.784 -0.1886  0.1725 -0.1841
  858MPD2    C112595   1.980   0.689  16.842 -0.3927 -0.0666 -0.3155
  858MPD2    C212596   2.040   0.744  16.957 -0.5290 -0.5538 -0.1137
  858MPD2    C312597   2.001   0.873  16.998  0.2493  0.1901 -0.1277
  858MPD2    C412598   1.908   0.941  16.928 -0.4077 -0.4089 -0.4038
  858MPD2    C512599   1.845   0.882  16.820 -0.1780  0.5003  0.2393
  858MPD2     H12600   2.121   0.699  17.012 -0.6583 -1.9377 -1.0585
  858MPD2    H112601   1.891   1.043  16.960  1.7745 -0.2490  0.2523
  858MPD2    H212602   1.819   0.722  16.698 -2.1842  1.0220  0.7958
  858MPD2    H312603   1.786   0.945  16.754 -0.7864  0.2241  0.5107
  858MPD2     N12604   2.043   0.945  17.114 -0.0589 -0.6492 -0.3122
  858MPD2    H512605   2.008   1.039  17.123  2.1465  0.2480 -0.9594
  858MPD2    N112606   2.030   0.568  16.794  0.1396 -0.5035  0.3143
  858MPD2    H712607   2.114   0.533  16.839 -1.1491 -5.0291 -0.7392
  859MPD2     C12608   0.952   2.729  15.688  0.3737 -0.6021  0.6770
  859MPD2    C112609   0.930   2.726  15.557  0.1225 -0.0162 -0.9448
  859MPD2    C212610   0.922   2.603  15.492  0.1902  0.4717  0.0405
  859MPD2    C312611   0.944   2.484  15.560  0.3461 -0.0473 -0.3849
  859MPD2    C412612   0.968   2.485  15.696  1.0196 -0.4627 -0.1606
  859MPD2    C512613   0.978   2.608  15.753 -0.0690 -0.3388  0.6330
  859MPD2     H12614   0.893   2.600  15.387  0.6085 -1.1313 -0.0293
  859MPD2    H112615   0.968   2.402  15.765 -0.3161  0.0003  0.3972
  859MPD2    H212616   0.957   2.815  15.754 -1.1981 -0.8418  1.1140
  859MPD2    H312617   0.986   2.615  15.861 -2.9450  0.3136  0.7955
  859MPD2     N12618   0.940   2.356  15.500 -0.2275  0.1316 -0.1821
  859MPD2    H512619   0.982   2.282  15.555 -0.8343 -0.3293 -0.3356
  859MPD2    N112620   0.915   2.857  15.498 -0.3930  0.7032  0.0786
  859MPD2    H712621   0.917   2.939  15.557 -0.2311  0.9207 -0.2269
  860MPD2     C12622   3.351   3.382  11.930 -0.1066  0.3795 -1.2208
  860MPD2    C112623   3.247   3.463  11.974 -0.2407  0.1770 -0.1590
  860MPD2    C212624   3.136   3.399  12.024 -0.3150 -0.6157 -0.1969
  860MPD2    C312625   3.131   3.259  12.039  0.5630 -0.6327  0.7934
  860MPD2    C412626   3.234   3.183  11.992  0.0456  0.2447 -0.0329
  860MPD2    C512627   3.336   3.248  11.931  0.9044  0.8708 -0.0682
  860MPD2     H12628   3.054   3.459  12.062 -0.6612 -1.0299 -0.2944
  860MPD2    H112629   3.242   3.075  11.990 -1.9663  0.0595  2.4302
  860MPD2    H212630   3.441   3.431  11.895  1.0338 -0.7371  0.1555
  860MPD2    H312631   3.421   3.198  11.884  0.8148  0.2362  0.4444
  860MPD2     N12632   3.025   3.196  12.114  0.3396 -0.1592  0.0208
  860MPD2    H512633   2.939   3.251  12.117  0.6010  0.3777 -2.9957
  860MPD2    N112634   3.255   3.604  11.971  0.2338  0.0173  0.1998
  860MPD2    H712635   3.178   3.657  12.012 -1.7650 -0.9922 -2.2708
  861MPD2     C12636   2.080   0.864  11.013 -0.4955  0.4545 -0.4135
  861MPD2    C112637   2.072   0.989  11.063 -0.0613 -0.8405 -0.5511
  861MPD2    C212638   2.012   1.088  10.986 -0.3293  0.1982 -0.0001
  861MPD2    C312639   1.942   1.061  10.864  0.0274 -0.0366  0.5908
  861MPD2    C412640   1.943   0.928  10.827  0.3500 -0.1641  0.2678
  861MPD2    C512641   2.005   0.835  10.904 -0.4482 -0.0324 -0.1159
  861MPD2     H12642   2.000   1.189  11.025  2.1807  0.5826 -0.1820
  861MPD2    H112643   1.893   0.899  10.736  0.6220  1.2990 -0.3452
  861MPD2    H212644   2.140   0.786  11.056  0.3016 -0.6257 -3.4546
  861MPD2    H312645   2.009   0.732  10.872  0.8218 -0.7442  2.3462
  861MPD2     N12646   1.881   1.161  10.788  0.2669 -1.1833  0.3429
  861MPD2    H512647   1.857   1.145  10.691  1.1469 -1.7098  0.2104
  861MPD2    N112648   2.143   1.021  11.183 -0.0711 -0.2074 -0.3091
  861MPD2    H712649   2.177   0.939  11.232  3.7154  1.0915 -0.7527
  862MPD2     C12650   2.004   1.388  10.111  1.1535  0.1062  0.1375
  862MPD2    C112651   1.985   1.300  10.212 -0.0062 -0.1370  0.9106
  862MPD2    C212652   1.986   1.168  10.182  0.5321 -0.5666 -0.3673
  862MPD2    C312653   2.041   1.122  10.065 -0.0872 -0.7157  0.2217
  862MPD2    C412654   2.053   1.208   9.963 -0.0800  0.1251 -0.7204
  862MPD2    C512655   2.034   1.339   9.989 -0.9339  0.5502  0.1416
  862MPD2     H12656   1.967   1.102  10.266  1.6073  0.8165  0.9883
  862MPD2    H112657   2.091   1.182   9.865 -0.1282 -0.3370 -0.6178
  862MPD2    H212658   2.001   1.495  10.128 -0.8441  0.2033 -0.8851
  862MPD2    H312659   2.038   1.408   9.905 -2.7764  3.0058  2.0620
  862MPD2     N12660   2.040   0.983  10.048  0.3221 -0.2060  0.5583
  862MPD2    H512661   2.025   0.930  10.134 -0.7807 -0.6187  0.1248
  862MPD2    N112662   1.965   1.327  10.351  0.0092 -0.1418  0.0416
  862MPD2    H712663   1.926   1.247  10.399 -0.0363  0.2718  0.6953
  863MPD2     C12664   4.685   4.277  17.315  0.6513  0.2847  0.0901
  863MPD2    C112665   0.059   4.264  17.214 -0.0071  0.4753  0.2618
  863MPD2    C212666   0.188   4.257  17.261 -0.7615  0.1324  0.1568
  863MPD2    C312667   0.231   4.283  17.392 -0.0039 -0.0388 -0.4759
  863MPD2    C412668   0.131   4.286  17.486  0.1902  0.4426  0.0866
  863MPD2    C512669   0.002   4.293  17.445 -0.2593 -0.1454  0.4773
  863MPD2     H12670   0.259   4.237  17.182 -0.5322  1.4818  0.0148
  863MPD2    H112671   0.156   4.303  17.590  1.7059  0.0976 -0.2226
  863MPD2    H212672   4.587   4.288  17.271  1.2352  1.4903 -0.9396
  863MPD2    H312673   4.648   4.311  17.519 -0.7825  1.0569 -0.3442
  863MPD2     N12674   0.363   4.272  17.428 -0.4853 -0.7454  0.4267
  863MPD2    H512675   0.431   4.280  17.353  1.0338  2.5494  2.1176
  863MPD2    N112676   0.014   4.265  17.081  0.0539  0.0446  0.1135
  863MPD2    H712677   4.635   4.272  17.070  0.1563  0.9891 -0.2056
  864MPD2     C12678   0.634   0.908  17.531  0.0719 -0.0508  0.0159
  864MPD2    C112679   0.665   0.839  17.416 -0.1564  0.6783  0.4137
  864MPD2    C212680   0.723   0.912  17.311 -0.6822  0.0229  0.1580
  864MPD2    C312681   0.765   1.042  17.340  0.2227 -0.3473 -0.0900
  864MPD2    C412682   0.717   1.113  17.448 -0.4147  0.4254 -0.1239
  864MPD2    C512683   0.651   1.043  17.539  0.1212  0.3587  0.0942
  864MPD2     H12684   0.763   0.869  17.220 -0.3365 -1.7408  1.1499
  864MPD2    H112685   0.741   1.218  17.456 -1.1155  0.4071  2.1507
  864MPD2    H212686   0.595   0.849  17.613 -2.9457 -1.2626 -2.3047
  864MPD2    H312687   0.624   1.091  17.632  1.7031 -4.1358  2.8572
  864MPD2     N12688   0.848   1.112  17.246 -0.7368  0.0920 -0.1024
  864MPD2    H512689   0.849   1.214  17.242 -1.4859  0.1398  0.8299
  864MPD2    N112690   0.633   0.704  17.411 -0.7665  0.3371  0.2321
  864MPD2    H712691   0.584   0.665  17.491 -3.8561 -0.0220 -1.8104
  865MPD2     C12692   0.842   1.318  16.397 -0.4770  0.1340 -1.0487
  865MPD2    C112693   0.869   1.243  16.507  0.7129 -0.2945 -0.1709
  865MPD2    C212694   0.860   1.291  16.640 -0.1380  1.2283  0.5507
  865MPD2    C312695   0.842   1.431  16.658 -0.8087 -1.1256 -0.5542
  865MPD2    C412696   0.826   1.506  16.546 -0.0773  0.0400 -0.4149
  865MPD2    C512697   0.824   1.450  16.418 -0.1099  0.1243 -0.2417
  865MPD2     H12698   0.872   1.221  16.723 -1.1262 -1.1741 -1.3389
  865MPD2    H112699   0.820   1.614  16.557 -0.6000 -0.0758  0.4679
  865MPD2    H212700   0.853   1.278  16.296  0.5102  0.8365 -1.2093
  865MPD2    H312701   0.822   1.516  16.332  0.9616  1.2630  0.5983
  865MPD2     N12702   0.841   1.503  16.780  0.1599  0.0227  0.0336
  865MPD2    H512703   0.801   1.597  16.777 -1.1712 -0.5235  0.9468
  865MPD2    N112704   0.911   1.108  16.485  0.2385  0.6524 -0.3968
  865MPD2    H712705   0.943   1.076  16.394  3.6065 -0.3314  1.1427
  866MPD2     C12706   2.303   2.213  11.543  0.1395 -0.6947  0.6364
  866MPD2    C112707   2.341   2.087  11.584  0.0975 -0.1132  0.7217
  866MPD2    C212708   2.305   1.977  11.505 -0.2154 -0.5380 -0.5184
  866MPD2    C312709   2.246   1.999  11.382  0.6351 -0.1776 -0.1355
  866MPD2    C412710   2.217   2.130  11.343  0.0163  0.5854 -0.1463
  866MPD2    C512711   2.243   2.237  11.424 -0.7346 -0.0783 -0.4314
  866MPD2     H12712   2.317   1.877  11.545  1.8206 -0.4926 -1.0294
  866MPD2    H112713   2.178   2.152  11.245 -0.5162  0.5409  0.0564
  866MPD2    H212714   2.336   2.299  11.602  1.0313 -0.6308  0.0469
  866MPD2    H312715   2.229   2.339  11.389  0.2508 -0.0647 -0.7859
  866MPD2     N12716   2.212   1.881  11.304 -0.4652 -0.2599  0.4754
  866MPD2    H512717   2.233   1.790  11.345 -0.3300  0.0080  1.0026
  866MPD2    N112718   2.406   2.078  11.706 -0.2378  0.3476  0.2274
  866MPD2    H712719   2.408   2.173  11.742 -0.2870  0.7644 -0.8726
  867MPD2     C12720   4.358   0.843  16.486  0.5805 -0.9927 -0.0671
  867MPD2    C112721   4.424   0.836  16.605  0.6011 -0.8225 -0.2000
  867MPD2    C212722   4.444   0.958  16.669 -0.3581  0.2964  0.4707
  867MPD2    C312723   4.398   1.078  16.613 -0.7884  0.6637 -0.0936
  867MPD2    C412724   4.316   1.071  16.504 -0.1908 -0.4035 -0.5540
  867MPD2    C512725   4.303   0.956  16.440 -0.0925  0.5173  0.0031
  867MPD2     H12726   4.505   0.968  16.757  0.4520 -1.4386  0.1012
  867MPD2    H112727   4.280   1.162  16.458 -1.8143 -1.0399 -0.5101
  867MPD2    H212728   4.340   0.745  16.442 -0.3605 -1.5139  1.4934
  867MPD2    H312729   4.249   0.955  16.346 -1.3573  0.5976  0.7149
  867MPD2     N12730   4.424   1.210  16.661 -0.0803 -0.0987  0.1303
  867MPD2    H512731   4.396   1.291  16.608 -1.0313  0.2511  1.1767
  867MPD2    N112732   4.476   0.712  16.653  0.6592  0.0253  0.2278
  867MPD2    H712733   4.473   0.628  16.596  2.8149  0.1831 -0.1361
  868MPD2     C12734   1.673   0.248  13.359  0.4907 -0.0932 -0.3499
  868MPD2    C112735   1.651   0.114  13.340  0.3338  0.2287 -0.4280
  868MPD2    C212736   1.539   0.055  13.402  0.6024 -0.0794 -0.5117
  868MPD2    C312737   1.478   0.134  13.497 -0.2770 -0.1186 -0.5027
  868MPD2    C412738   1.499   0.270  13.509  0.5892 -0.3941  0.1031
  868MPD2    C512739   1.598   0.331  13.440 -0.7812  0.4234  0.1552
  868MPD2     H12740   1.526   4.669  13.407  0.8430  0.0121  2.4302
  868MPD2    H112741   1.448   0.334  13.580  0.1618 -0.2450 -0.3428
  868MPD2    H212742   1.758   0.288  13.305 -1.1636  3.0635 -0.6380
  868MPD2    H312743   1.609   0.439  13.451 -2.1018  0.5501  0.2593
  868MPD2     N12744   1.372   0.093  13.578 -0.0957  0.4616 -0.9177
  868MPD2    H512745   1.337   0.157  13.648 -0.7798 -0.4875 -0.3969
  868MPD2    N112746   1.740   0.041  13.258 -0.0678  0.5310 -0.5258
  868MPD2    H712747   1.803   0.099  13.203  0.0616  0.2306 -0.6968
  869MPD2     C12748   3.044   2.547   2.156  0.5621 -0.7170  0.1056
  869MPD2    C112749   3.034   2.466   2.047 -0.9163  0.4051  0.5716
  869MPD2    C212750   2.990   2.533   1.930 -0.7956 -0.1796  0.5443
  869MPD2    C312751   2.936   2.662   1.934 -0.0266  0.3716  0.2755
  869MPD2    C412752   2.931   2.731   2.056 -0.6172  0.4255  1.0119
  869MPD2    C512753   2.992   2.673   2.161  0.0545 -0.3963  0.6137
  869MPD2     H12754   2.986   2.493   1.830 -0.9558 -2.4721  1.4774
  869MPD2    H112755   2.883   2.825   2.080 -1.4504  0.3059 -0.1893
  869MPD2    H212756   3.088   2.509   2.247  3.1136  0.9317 -0.4149
  869MPD2    H312757   2.992   2.726   2.256 -0.5871  1.4865 -0.4451
  869MPD2     N12758   2.873   2.727   1.825 -0.3104 -0.8972  1.0955
  869MPD2    H512759   2.837   2.819   1.846  1.1373 -0.0480 -0.1739
  869MPD2    N112760   3.075   2.327   2.055 -0.0370  0.0541  0.1561
  869MPD2    H712761   3.094   2.286   2.146 -0.7417  1.4255  0.9134
  870MPD2     C12762   2.073   2.698   1.445  0.0889  0.8969 -0.2264
  870MPD2    C112763   2.169   2.629   1.374 -0.3417  0.0512  0.4126
  870MPD2    C212764   2.263   2.708   1.301  0.8468 -0.5456 -0.1295
  870MPD2    C312765   2.273   2.848   1.307 -0.0451 -0.0360  0.0277
  870MPD2    C412766   2.177   2.915   1.381  0.1977 -0.1213  0.3238
  870MPD2    C512767   2.086   2.838   1.457 -0.2798 -0.2842  0.1272
  870MPD2     H12768   2.331   2.659   1.233  2.5836  2.9868 -0.9305
  870MPD2    H112769   2.175   3.023   1.382 -3.1965 -0.1760  1.1985
  870MPD2    H212770   1.998   2.648   1.505  0.1269  2.1900  0.9180
  870MPD2    H312771   2.028   2.886   1.535 -1.7604 -0.0685 -1.0956
  870MPD2     N12772   2.384   2.909   1.236  0.0658 -0.0639  0.1449
  870MPD2    H512773   2.449   2.839   1.201 -2.3063 -0.9619 -2.4314
  870MPD2    N112774   2.154   2.490   1.370  0.1309  0.1098 -0.0143
  870MPD2    H712775   2.083   2.443   1.425 -0.9687  0.0049 -1.5027
  871MPD2     C12776   3.342   1.043  16.380 -0.3389  0.1609  0.2879
  871MPD2    C112777   3.323   0.966  16.492 -0.3186  0.4811 -0.2357
  871MPD2    C212778   3.323   0.826  16.477  0.2263 -0.2390  0.4876
  871MPD2    C312779   3.318   0.762  16.352  0.3480  0.2443 -0.0139
  871MPD2    C412780   3.334   0.844  16.239  0.1431  0.1122  0.1706
  871MPD2    C512781   3.347   0.983  16.254  0.2217  0.2961  0.2560
  871MPD2     H12782   3.309   0.762  16.564  1.0368  0.8237  1.3923
  871MPD2    H112783   3.343   0.810  16.136  0.7668  0.4276  0.1237
  871MPD2    H212784   3.341   1.152  16.380 -1.0800  0.1463  2.8608
  871MPD2    H312785   3.352   1.053  16.171 -1.3998 -0.4931 -0.5206
  871MPD2     N12786   3.305   0.619  16.337  0.8460 -0.7500  0.4211
  871MPD2    H512787   3.334   0.568  16.419  1.6753 -0.0388  0.5789
  871MPD2    N112788   3.318   1.029  16.615 -0.2941  0.1525 -0.8278
  871MPD2    H712789   3.341   1.127  16.623  2.8758 -0.7257  0.7260
  872MPD2     C12790   4.612   3.264  14.284 -0.3363 -0.2423 -1.0819
  872MPD2    C112791   4.540   3.344  14.197  0.4585 -0.0173 -0.2707
  872MPD2    C212792   4.404   3.360  14.213 -0.2681  0.0156  0.9142
  872MPD2    C312793   4.334   3.303  14.306  0.3699 -0.6469 -1.2539
  872MPD2    C412794   4.404   3.237  14.402  0.1027 -0.3871  0.5977
  872MPD2    C512795   4.540   3.207  14.386  0.8257 -0.5541 -0.3411
  872MPD2     H12796   4.356   3.437  14.154  0.3389  0.3167  0.8200
  872MPD2    H112797   4.363   3.202  14.496  1.5144 -0.3390  1.2200
  872MPD2    H212798   4.719   3.250  14.280 -0.2712 -0.4209  1.0222
  872MPD2    H312799   4.584   3.138  14.457 -2.0016 -0.6126  1.3480
  872MPD2     N12800   4.193   3.321  14.322  0.6990 -0.2114  0.0032
  872MPD2    H512801   4.158   3.298  14.414 -1.4559 -0.2206 -0.8144
  872MPD2    N112802   4.608   3.430  14.099  0.2805 -0.5925  0.4501
  872MPD2    H712803   4.551   3.499  14.051  1.9333 -0.4380 -1.3041
  873MPD2     C12804   0.794   3.715   0.712 -0.4061  0.5642  0.4869
  873MPD2    C112805   0.818   3.656   0.831 -0.2687 -0.1165  0.1572
  873MPD2    C212806   0.900   3.543   0.841  0.0575 -0.0634  0.4562
  873MPD2    C312807   0.945   3.487   0.726  0.6560  0.5035 -0.0421
  873MPD2    C412808   0.913   3.539   0.606 -0.2419  0.0846 -0.4062
  873MPD2    C512809   0.843   3.659   0.600 -0.2408 -0.6891 -0.6906
  873MPD2     H12810   0.929   3.506   0.939 -0.1658  1.5761  1.1321
  873MPD2    H112811   0.957   3.502   0.514  0.0569  1.2676 -0.7462
  873MPD2    H212812   0.726   3.795   0.687 -0.9442  0.7332  2.5121
  873MPD2    H312813   0.826   3.711   0.507 -0.6942 -1.2120 -0.8972
  873MPD2     N12814   1.017   3.363   0.719  0.4814  0.2640 -0.4048
  873MPD2    H512815   1.031   3.319   0.629  1.1407  0.1922 -0.2645
  873MPD2    N112816   0.778   3.725   0.947  0.6572 -0.6290  0.1369
  873MPD2    H712817   0.729   3.814   0.934 -0.7672 -1.6373 -1.4811
  874MPD2     C12818   0.497   3.841  16.057 -0.5749 -0.6576  0.0905
  874MPD2    C112819   0.554   3.782  16.166  0.6880  0.2838 -0.3285
  874MPD2    C212820   0.689   3.768  16.159 -0.5897  0.5180  0.1479
  874MPD2    C312821   0.766   3.806  16.054  1.3610  0.0161  0.0581
  874MPD2    C412822   0.711   3.870  15.943  0.2105 -0.7986  0.0041
  874MPD2    C512823   0.574   3.881  15.948  0.3220  0.4529 -0.3199
  874MPD2     H12824   0.747   3.717  16.235 -1.6062  1.3172  1.4596
  874MPD2    H112825   0.777   3.899  15.862  0.2595 -0.8062  0.0417
  874MPD2    H212826   0.389   3.856  16.058 -0.6067 -0.8570 -0.2457
  874MPD2    H312827   0.525   3.934  15.867 -0.5439 -0.0741 -0.1316
  874MPD2     N12828   0.901   3.800  16.085  0.8162  0.4025  0.2826
  874MPD2    H512829   0.923   3.763  16.177  3.0807  1.0174 -0.0223
  874MPD2    N112830   0.465   3.725  16.269 -0.0827  0.0256 -0.9794
  874MPD2    H712831   0.365   3.729  16.251 -0.1907 -1.1368 -0.6897
  875MPD2     C12832   2.309   1.815  15.008  0.0833  0.8611 -0.4348
  875MPD2    C112833   2.231   1.929  14.988  0.2979  0.4444 -0.7155
  875MPD2    C212834   2.232   2.019  15.092 -0.2280 -0.2911 -0.2589
  875MPD2    C312835   2.303   1.997  15.214  0.0900 -0.0639  0.3566
  875MPD2    C412836   2.361   1.879  15.231 -0.0510  0.1851 -0.6452
  875MPD2    C512837   2.379   1.799  15.125  0.1346  0.5485  1.1918
  875MPD2     H12838   2.189   2.118  15.079 -2.2099 -1.2793 -1.2463
  875MPD2    H112839   2.419   1.867  15.322 -1.5402  1.4082  0.4795
  875MPD2    H212840   2.323   1.755  14.918 -1.9913 -1.7769  0.9846
  875MPD2    H312841   2.442   1.711  15.142  0.1794  0.3406 -0.0819
  875MPD2     N12842   2.301   2.091  15.317  0.4913 -0.4327 -0.4315
  875MPD2    H512843   2.331   2.062  15.410  1.7705 -0.8085 -0.9683
  875MPD2    N112844   2.136   1.948  14.881 -0.0167 -0.1760 -0.0297
  875MPD2    H712845   2.082   2.033  14.900 -0.0519 -0.4201  0.9770
  876MPD2     C12846   0.908   3.365  16.177  0.2982  0.0190 -0.1771
  876MPD2    C112847   1.020   3.306  16.117  0.7360  0.2807  0.1303
  876MPD2    C212848   1.080   3.188  16.159 -0.1058 -0.0657 -0.1719
  876MPD2    C312849   1.036   3.132  16.278 -0.4728 -0.6842  0.0397
  876MPD2    C412850   0.927   3.189  16.345  0.2671  0.1234 -0.6758
  876MPD2    C512851   0.869   3.305  16.290  0.4624  0.1245 -0.4143
  876MPD2     H12852   1.166   3.151  16.105 -0.4064  0.9352 -1.3387
  876MPD2    H112853   0.875   3.148  16.431  0.3811  0.2181 -0.5614
  876MPD2    H212854   0.855   3.452  16.141  1.4419  1.1194  0.8510
  876MPD2    H312855   0.784   3.351  16.340  1.9998  1.2695  1.1749
  876MPD2     N12856   1.100   3.010  16.323  0.0671 -0.9888  0.2753
  876MPD2    H512857   1.163   2.965  16.257  2.6573  1.6323  0.9686
  876MPD2    N112858   1.083   3.359  16.002  0.6188 -0.6548 -0.4811
  876MPD2    H712859   1.165   3.310  15.967  1.6232 -0.5362  1.7129
  877MPD2     C12860   0.946   3.571  15.215 -0.0236  0.3787  0.0169
  877MPD2    C112861   1.078   3.589  15.242 -0.1225  0.0311 -0.5433
  877MPD2    C212862   1.170   3.594  15.135 -0.4867  0.5244  0.1042
  877MPD2    C312863   1.127   3.560  15.013  0.1422 -0.1657  0.2957
  877MPD2    C412864   0.993   3.559  14.983  0.1682 -0.1532 -0.0037
  877MPD2    C512865   0.909   3.549  15.084  0.4694 -0.3840  0.1658
  877MPD2     H12866   1.276   3.609  15.155 -0.6042  1.0025  0.3629
  877MPD2    H112867   0.955   3.549  14.882 -0.2837  2.3186 -0.0694
  877MPD2    H212868   0.863   3.572  15.284 -0.4587 -2.0794 -0.4638
  877MPD2    H312869   0.811   3.504  15.069 -0.2418  0.4903  2.1440
  877MPD2     N12870   1.206   3.547  14.894  0.0285  0.3385  0.2580
  877MPD2    H512871   1.150   3.513  14.817 -1.6807  0.1205  1.6122
  877MPD2    N112872   1.126   3.600  15.376  0.4415  0.0545 -0.0699
  877MPD2    H712873   1.226   3.602  15.388  0.0888 -0.1867  2.7730
  878MPD2     C12874   1.014   3.424  13.512 -0.1080 -0.7023 -0.0600
  878MPD2    C112875   1.116   3.348  13.455  0.5998  0.1319 -0.1351
  878MPD2    C212876   1.139   3.230  13.511  0.2234 -0.1598 -0.2576
  878MPD2    C312877   1.070   3.186  13.614  0.2504 -0.4540  0.3424
  878MPD2    C412878   0.977   3.263  13.678  0.2090 -0.1497  0.1269
  878MPD2    C512879   0.953   3.387  13.628  0.7797  0.2705  0.4571
  878MPD2     H12880   1.222   3.171  13.473  1.2280  0.4706  0.9196
  878MPD2    H112881   0.908   3.224  13.752  1.6233 -1.2668  0.8661
  878MPD2    H212882   0.981   3.516  13.464 -0.5471 -0.6540  0.3300
  878MPD2    H312883   0.878   3.448  13.676 -0.4813  0.0469 -1.2140
  878MPD2     N12884   1.118   3.062  13.660  0.0303 -0.3014 -0.8422
  878MPD2    H512885   1.197   3.015  13.616  1.6037  0.7421  0.8893
  878MPD2    N112886   1.186   3.402  13.343 -0.8122  0.2317  0.2060
  878MPD2    H712887   1.142   3.481  13.298 -1.9946  0.2447  1.3636
  879MPD2     C12888   0.950   4.571  17.120 -0.7290  0.1954 -0.5073
  879MPD2    C112889   1.020   4.503  17.219 -0.1378 -0.2988 -0.7421
  879MPD2    C212890   1.018   4.361  17.222 -0.1299 -0.8954  0.2292
  879MPD2    C312891   0.959   4.288  17.121 -0.3033  0.1799 -0.3249
  879MPD2    C412892   0.909   4.360  17.016 -0.5836  0.1193  0.3281
  879MPD2    C512893   0.900   4.495  17.021 -0.0103  0.3327 -0.1827
  879MPD2     H12894   1.059   4.308  17.307  0.3753  1.6737  1.5863
  879MPD2    H112895   0.862   4.311  16.932 -0.2121 -1.5800  1.1151
  879MPD2    H212896   0.927   4.677  17.116 -2.7224 -0.1547  1.8925
  879MPD2    H312897   0.847   4.546  16.941 -1.5372 -0.3827  0.3812
  879MPD2     N12898   0.961   4.149  17.106  0.3835 -0.0261  0.7085
  879MPD2    H512899   0.923   4.105  17.023  1.6551  1.7124 -0.7756
  879MPD2    N112900   1.086   4.586  17.315  0.0194 -0.3731  0.3260
  879MPD2    H712901   1.090   4.686  17.295 -0.2823  0.1332  2.7238
  880MPD2     C12902   2.483   1.760   0.306  0.2546 -0.0570 -0.3177
  880MPD2    C112903   2.577   1.842   0.372 -0.1353 -0.2467 -0.6588
  880MPD2    C212904   2.678   1.784   0.451 -0.0279 -0.1949 -0.8077
  880MPD2    C312905   2.684   1.643   0.458  0.4430  0.1194  0.4983
  880MPD2    C412906   2.601   1.572   0.377  0.2387  0.6595 -0.2809
  880MPD2    C512907   2.495   1.626   0.312  0.5006 -0.3654  0.1661
  880MPD2     H12908   2.755   1.836   0.506 -0.9464 -2.9333  3.1133
  880MPD2    H112909   2.612   1.466   0.356  1.0628  1.0636 -1.9347
  880MPD2    H212910   2.397   1.796   0.251 -0.3359 -1.0340 -0.0379
  880MPD2    H312911   2.435   1.567   0.245  1.0888  0.2061 -0.8630
  880MPD2     N12912   2.792   1.574   0.529 -0.0957 -0.6410  0.3394
  880MPD2    H512913   2.861   1.625   0.583  1.9036 -1.4521 -1.4384
  880MPD2    N112914   2.577   1.981   0.353 -1.0499 -0.3367 -0.4881
  880MPD2    H712915   2.503   2.011   0.290 -0.8746 -0.4112 -0.7280
  881MPD2     C12916   2.227   2.446  17.385  0.0467  0.1728 -0.0459
  881MPD2    C112917   2.360   2.422  17.368  0.5955  1.0962  0.4089
  881MPD2    C212918   2.442   2.422  17.476  1.0853  0.6515  0.1051
  881MPD2    C312919   2.392   2.463  17.600  0.4883  0.1029 -0.4044
  881MPD2    C412920   2.268   2.525  17.606  0.1873  0.3453  0.2393
  881MPD2    C512921   2.190   2.521  17.499  0.2363 -0.3548  0.2169
  881MPD2     H12922   2.537   2.371  17.474  0.0216 -1.3096 -1.1062
  881MPD2    H112923   2.228   2.568   0.008 -1.1031 -0.3754  0.0162
  881MPD2    H212924   2.176   2.450  17.289  2.3725 -0.0368 -1.2780
  881MPD2    H312925   2.091   2.565  17.506  0.3696 -0.0048 -0.0905
  881MPD2     N12926   2.473   2.446   0.029 -1.0880  0.5307  0.2476
  881MPD2    H512927   2.436   2.482   0.116 -1.7113 -0.9090  0.5825
  881MPD2    N112928   2.401   2.340  17.258 -0.0643  0.4445  0.1165
  881MPD2    H712929   2.327   2.294  17.206  0.5554  0.3644 -0.6978
  882MPD2     C12930   1.224   3.256  14.118 -0.1487 -0.6378 -0.2165
  882MPD2    C112931   1.178   3.334  14.228  0.2630 -0.4881 -0.2379
  882MPD2    C212932   1.048   3.375  14.226 -0.1042  0.4742 -0.3485
  882MPD2    C312933   0.953   3.334  14.133  0.2720  0.2261  0.2263
  882MPD2    C412934   0.997   3.244  14.033  0.0735  0.6243 -0.1434
  882MPD2    C512935   1.134   3.213  14.028 -0.6418 -0.8837  0.0906
  882MPD2     H12936   1.019   3.431  14.314 -2.7091 -0.4096 -0.6499
  882MPD2    H112937   0.920   3.202  13.969  1.5972 -1.1984 -0.7739
  882MPD2    H212938   1.328   3.225  14.111 -0.0362 -0.5370  0.9195
  882MPD2    H312939   1.164   3.140  13.953 -2.0120 -1.8069  0.4352
  882MPD2     N12940   0.818   3.369  14.146  0.5909  0.6353 -0.5475
  882MPD2    H512941   0.757   3.347  14.068  0.1677  0.4340 -0.1638
  882MPD2    N112942   1.277   3.370  14.320 -0.9238 -0.1729 -0.6300
  882MPD2    H712943   1.374   3.346  14.302 -0.1329  4.0001 -1.9447
  883MPD2     C12944   3.158   4.168  16.562 -0.2128 -0.0879 -0.2534
  883MPD2    C112945   3.188   4.058  16.479 -0.2667  0.2119 -0.0715
  883MPD2    C212946   3.284   3.965  16.523  0.0609 -0.9445  0.4745
  883MPD2    C312947   3.347   3.977  16.646 -0.2839  0.1865  0.4483
  883MPD2    C412948   3.308   4.076  16.731 -0.5710 -0.4138  0.0632
  883MPD2    C512949   3.215   4.169  16.685  0.8248 -0.1013 -0.0718
  883MPD2     H12950   3.300   3.873  16.467 -0.8857 -1.2252  0.6674
  883MPD2    H112951   3.348   4.092  16.831 -0.5757  1.4944 -0.2485
  883MPD2    H212952   3.090   4.245  16.528  1.0587  0.4075 -1.7054
  883MPD2    H312953   3.182   4.245  16.754 -2.4799 -0.7471 -0.9491
  883MPD2     N12954   3.451   3.885  16.678 -0.0757  0.0614  0.0895
  883MPD2    H512955   3.487   3.837  16.596  1.8271 -0.9415  1.5180
  883MPD2    N112956   3.130   4.039  16.353 -0.9513  0.0049  0.2749
  883MPD2    H712957   3.182   3.972  16.299 -2.9813  0.5339 -2.3436
  884MPD2     C12958   0.475   3.990  15.165 -0.2105 -0.0308 -0.8382
  884MPD2    C112959   0.450   4.120  15.194 -0.2025  0.3002 -0.0138
  884MPD2    C212960   0.325   4.155  15.254  0.0693 -0.5190  1.6413
  884MPD2    C312961   0.229   4.063  15.290 -0.5670 -1.4152 -0.2229
  884MPD2    C412962   0.260   3.930  15.270  0.3040 -0.2282 -0.4945
  884MPD2    C512963   0.374   3.896  15.201 -0.8079  0.2101 -0.2480
  884MPD2     H12964   0.305   4.254  15.292 -1.5273  0.3781 -1.5288
  884MPD2    H112965   0.192   3.854  15.306 -0.8462  0.4014 -1.3502
  884MPD2    H212966   0.558   3.943  15.114 -0.0938 -1.0967  0.3204
  884MPD2    H312967   0.379   3.789  15.182  0.1575  0.5442 -1.9252
  884MPD2     N12968   0.106   4.101  15.345  0.0259  0.9689 -0.3565
  884MPD2    H512969   0.101   4.203  15.351  0.6036  1.0393 -1.0489
  884MPD2    N112970   0.554   4.220  15.184 -0.7159 -0.4518 -0.9908
  884MPD2    H712971   0.527   4.311  15.219  1.7446  0.2157 -0.8441
  885MPD2     C12972   3.324   0.057   0.490  0.1379  0.3730  0.1196
  885MPD2    C112973   3.187   0.023   0.474 -0.4697  0.1996 -0.2543
  885MPD2    C212974   3.143   4.720   0.345 -0.0020 -0.0869 -0.2242
  885MPD2    C312975   3.231   4.722   0.240 -0.1432  0.1234 -0.3207
  885MPD2    C412976   3.368   0.035   0.259  0.8472  0.2286 -0.8978
  885MPD2    C512977   3.412   0.067   0.385 -0.2155  0.1566  0.8764
  885MPD2     H12978   3.037   4.699   0.332  0.1402  0.3366 -2.0788
  885MPD2    H112979   3.443   0.044   0.181  3.0544  3.5223  1.5787
  885MPD2    H212980   3.367   0.071   0.588  0.9377  0.8070 -0.3011
  885MPD2    H312981   3.518   0.085   0.401 -0.1285  1.7376 -1.5305
  885MPD2     N12982   3.184   4.694   0.110  0.1510 -0.4891 -0.6791
  885MPD2    H512983   3.086   4.670   0.103 -0.2800  0.3483  2.4590
  885MPD2    N112984   3.110   4.719   0.590 -0.1675 -0.3056 -0.2174
  885MPD2    H712985   3.161   4.712   0.678  1.2827  0.5989 -0.9734
  886MPD2     C12986   4.169   2.794  15.352  0.5297  0.3861 -0.4377
  886MPD2    C112987   4.310   2.792  15.338  0.0096  0.5143 -0.4918
  886MPD2    C212988   4.367   2.900  15.280 -0.2791  0.0094  0.7340
  886MPD2    C312989   4.292   3.002  15.226 -0.0196 -0.2926  0.0746
  886MPD2    C412990   4.156   2.994  15.226  0.0466 -0.0571  0.6929
  886MPD2    C512991   4.093   2.891  15.289 -0.4360 -0.5084 -0.6337
  886MPD2     H12992   4.476   2.902  15.274 -0.2921  0.7393  0.7616
  886MPD2    H112993   4.110   3.083  15.184  0.6510 -0.0554  0.0357
  886MPD2    H212994   4.124   2.707  15.396  2.5056 -1.7245 -2.5710
  886MPD2    H312995   3.985   2.898  15.292 -0.2161  1.9682  1.6448
  886MPD2     N12996   4.348   3.113  15.161 -0.2453 -0.2190  0.5583
  886MPD2    H512997   4.294   3.165  15.093 -0.5267 -2.3073 -0.8046
  886MPD2    N112998   4.398   2.695  15.389 -0.6280  0.0188  0.7837
  886MPD2    H712999   4.490   2.704  15.346  0.1590  2.8338  3.0241
  887MPD2     C13000   0.357   2.678  15.522 -0.1381  0.3640  0.6908
  887MPD2    C113001   0.235   2.729  15.558  0.4420 -0.0418  0.4767
  887MPD2    C213002   0.231   2.862  15.594  0.7571  0.1747 -0.5777
  887MPD2    C313003   0.346   2.939  15.610 -0.3022  0.3138  0.0755
  887MPD2    C413004   0.466   2.886  15.564 -0.4137  0.1006 -0.9739
  887MPD2    C513005   0.466   2.756  15.523  0.1175 -0.6340  0.3197
  887MPD2     H13006   0.141   2.907  15.632  0.2311 -0.4300 -1.1108
  887MPD2    H113007   0.558   2.942  15.565  0.1036 -0.7807  1.9617
  887MPD2    H213008   0.376   2.577  15.488 -0.3114  0.8006 -0.7224
  887MPD2    H313009   0.566   2.727  15.491  0.3497 -0.0165  0.4663
  887MPD2     N13010   0.323   3.065  15.655 -0.1419  0.4005  0.3312
  887MPD2    H513011   0.229   3.097  15.676 -1.3966 -2.7912 -0.4869
  887MPD2    N113012   0.116   2.653  15.583  0.0086 -0.1405 -0.1459
  887MPD2    H713013   0.036   2.713  15.601 -0.5147 -1.2882  1.3449
  888MPD2     C13014   1.910   2.814  15.253  0.0368  0.8110  0.4180
  888MPD2    C113015   1.897   2.888  15.379 -0.8748 -0.2157 -0.5070
  888MPD2    C213016   1.977   2.995  15.384  0.7026  0.7293  0.2028
  888MPD2    C313017   2.064   3.041  15.286 -0.0563  0.0096  0.0712
  888MPD2    C413018   2.078   2.969  15.172  0.2350  0.8617 -0.7615
  888MPD2    C513019   2.004   2.856  15.159  0.6794 -0.1155 -0.1099
  888MPD2     H13020   1.965   3.053  15.475  1.7295 -0.6282  1.2104
  888MPD2    H113021   2.146   2.981  15.089 -0.0443 -1.8643 -1.4006
  888MPD2    H213022   1.864   2.716  15.243 -0.9970  1.0946  2.3183
  888MPD2    H313023   2.019   2.791  15.074 -1.8220  0.9095 -1.3486
  888MPD2     N13024   2.122   3.167  15.310  0.3100 -0.6665 -0.3975
  888MPD2    H513025   2.092   3.213  15.395 -0.7920 -0.9105 -0.6531
  888MPD2    N113026   1.807   2.863  15.485  0.4071 -0.5159  0.6659
  888MPD2    H713027   1.822   2.929  15.561  1.9955  0.6575 -0.6687
  889MPD2     C13028   1.907   2.372  12.774 -0.4117 -0.5038 -0.4634
  889MPD2    C113029   1.956   2.364  12.900  0.1117 -0.4416  0.1680
  889MPD2    C213030   1.952   2.486  12.966  0.6933  0.2297 -0.7124
  889MPD2    C313031   1.910   2.607  12.908 -0.0603 -0.5990  0.1474
  889MPD2    C413032   1.888   2.607  12.774  0.1757  0.0779 -0.3114
  889MPD2    C513033   1.877   2.486  12.709  0.1986 -0.0449  0.4988
  889MPD2     H13034   1.958   2.484  13.074 -2.0555  0.2220 -0.5422
  889MPD2    H113035   1.869   2.695  12.714 -1.1716  0.9478  1.4065
  889MPD2    H213036   1.909   2.281  12.714 -1.2139 -1.4464  0.9398
  889MPD2    H313037   1.859   2.484  12.602 -0.9285 -1.1377  0.7168
  889MPD2     N13038   1.901   2.731  12.985  0.6898 -0.4242  0.1491
  889MPD2    H513039   1.928   2.731  13.083 -1.4767  1.0765  0.7523
  889MPD2    N113040   1.966   2.242  12.973  0.7981 -0.0809 -0.5658
  889MPD2    H713041   2.023   2.244  13.057  1.4624  0.9991 -1.0419
  890MPD2     C13042   0.978   4.453  14.703 -0.2630  0.1966  0.3967
  890MPD2    C113043   1.060   4.468  14.821  0.0505  0.6344  0.0714
  890MPD2    C213044   1.087   4.357  14.894  0.4914  0.0536  0.0314
  890MPD2    C313045   1.030   4.231  14.853  0.1586  0.0895  0.1345
  890MPD2    C413046   0.940   4.219  14.747 -0.2461  0.1484  0.6066
  890MPD2    C513047   0.928   4.331  14.670  0.1266  0.3874 -0.5401
  890MPD2     H13048   1.149   4.363  14.983  0.4691 -0.3633  0.0742
  890MPD2    H113049   0.894   4.131  14.704 -0.9452  0.9146 -0.2292
  890MPD2    H213050   0.949   4.532  14.636 -0.0384 -0.3035 -0.2906
  890MPD2    H313051   0.858   4.321  14.588 -0.5038 -1.5204  0.2448
  890MPD2     N13052   1.053   4.120  14.940  0.6371  0.3513  0.3769
  890MPD2    H513053   1.108   4.147  15.020  2.2044  0.6901 -0.8149
  890MPD2    N113054   1.124   4.595  14.846  0.4982 -0.1426 -0.0100
  890MPD2    H713055   1.096   4.665  14.777 -1.8009 -2.5106 -1.4638
  891MPD2     C13056   3.981   2.598  16.591 -0.8653  0.3516 -0.0014
  891MPD2    C113057   3.884   2.585  16.691 -0.0799 -0.1077 -0.3214
  891MPD2    C213058   3.930   2.528  16.810  0.3511  0.8911  0.1174
  891MPD2    C313059   4.060   2.494  16.834  1.2112 -0.9791 -0.0725
  891MPD2    C413060   4.152   2.506  16.727  0.1620 -0.2233  0.4543
  891MPD2    C513061   4.110   2.561  16.609 -0.6721 -0.6614 -0.2305
  891MPD2     H13062   3.862   2.524  16.894  2.0437 -0.1989  1.4249
  891MPD2    H113063   4.256   2.475  16.729 -0.0311 -1.0226 -2.5634
  891MPD2    H213064   3.956   2.634  16.491 -0.7435 -1.6937 -0.7627
  891MPD2    H313065   4.181   2.565  16.528 -0.0064  1.1743  0.4466
  891MPD2     N13066   4.095   2.459  16.969  1.1398  0.5018  0.9500
  891MPD2    H513067   4.035   2.481  17.048 -0.6852 -0.9931 -0.0129
  891MPD2    N113068   3.757   2.650  16.674  0.0168  0.7530  0.3275
  891MPD2    H713069   3.741   2.692  16.583 -1.7809 -1.0964 -0.2087
  892MPD2     C13070   0.264   3.664  14.902 -0.3269  0.4245 -0.0538
  892MPD2    C113071   0.176   3.677  14.797 -0.3389 -0.0753  0.3419
  892MPD2    C213072   0.218   3.662  14.668  0.3549 -0.3392 -0.0590
  892MPD2    C313073   0.354   3.641  14.641  0.0634  0.6463 -0.0731
  892MPD2    C413074   0.443   3.626  14.743 -0.0083  0.5479  0.1536
  892MPD2    C513075   0.395   3.639  14.873  0.2105 -0.0641 -0.1096
  892MPD2     H13076   0.142   3.671  14.591 -0.6694  0.5364  1.0537
  892MPD2    H113077   0.544   3.589  14.729 -0.1337 -0.3086  1.5245
  892MPD2    H213078   0.252   3.688  15.007  1.1070  0.2002  0.1622
  892MPD2    H313079   0.466   3.629  14.954 -2.1391 -2.0280  1.6854
  892MPD2     N13080   0.409   3.606  14.516  0.1701 -0.0445  0.3134
  892MPD2    H513081   0.510   3.591  14.516  0.3107  0.8765 -0.7169
  892MPD2    N113082   0.042   3.709  14.826  0.1160  0.4382  0.0626
  892MPD2    H713083   4.709   3.734  14.744 -1.2247 -1.8224  0.2721
  893MPD2     C13084   1.727   1.587   1.681  0.4808 -0.3333 -0.2793
  893MPD2    C113085   1.737   1.718   1.647  0.0259  0.1575 -0.5358
  893MPD2    C213086   1.620   1.788   1.616  0.3194  0.0052 -0.0124
  893MPD2    C313087   1.491   1.734   1.618  0.1035 -0.3050  0.0779
  893MPD2    C413088   1.486   1.600   1.663 -0.0508 -0.2995  0.2023
  893MPD2    C513089   1.606   1.535   1.692  0.5474 -0.0474 -0.0958
  893MPD2     H13090   1.644   1.884   1.572 -0.6889 -0.2963 -1.1905
  893MPD2    H113091   1.393   1.547   1.679  0.3288 -0.4935  1.7478
  893MPD2    H213092   1.813   1.527   1.712 -0.4726 -2.3964 -1.6174
  893MPD2    H313093   1.601   1.434   1.729  2.4030 -0.3220 -0.5723
  893MPD2     N13094   1.381   1.816   1.579  0.4837 -0.4566 -0.1311
  893MPD2    H513095   1.405   1.909   1.547 -0.4810 -0.3746 -0.6197
  893MPD2    N113096   1.862   1.781   1.653 -0.1002  0.1329 -0.0372
  893MPD2    H713097   1.937   1.718   1.682 -0.8503 -0.9202 -0.3846
  894MPD2     C13098   4.492   4.640   1.168  0.5355  0.0525  0.3187
  894MPD2    C113099   4.464   0.006   1.277  0.9604  0.3969  0.1475
  894MPD2    C213100   4.490   0.141   1.265 -0.4101  0.0521 -0.6122
  894MPD2    C313101   4.550   0.186   1.151 -0.2242  0.3605  0.2110
  894MPD2    C413102   4.571   0.098   1.044 -0.0738  0.0096 -0.0284
  894MPD2    C513103   4.546   4.685   1.053 -0.0577  0.1918  0.0523
  894MPD2     H13104   4.465   0.213   1.342 -0.3946  0.2041 -0.7476
  894MPD2    H113105   4.609   0.128   0.948 -1.1498 -1.4475 -0.9081
  894MPD2    H213106   4.476   4.533   1.175  1.8077 -0.2227 -0.9602
  894MPD2    H313107   4.562   4.610   0.977 -1.1236 -0.2549  0.2709
  894MPD2     N13108   4.589   0.322   1.149  0.2285 -0.3308 -1.3798
  894MPD2    H513109   4.564   0.380   1.229  0.3583 -0.4145 -1.2764
  894MPD2    N113110   4.406   4.677   1.393  0.9139 -0.0038  0.6935
  894MPD2    H713111   4.377   0.025   1.461 -0.5175  0.7574 -0.7231
  895MPD2     C13112   4.141   3.062  14.107 -0.7290 -0.6978 -0.0106
  895MPD2    C113113   4.156   3.098  13.975 -0.1604 -0.2224  0.4156
  895MPD2    C213114   4.280   3.101  13.920  0.8495  0.3268 -0.5937
  895MPD2    C313115   4.395   3.071  13.994 -0.0823 -0.7466 -0.0984
  895MPD2    C413116   4.381   3.015  14.118  0.3596  0.3137 -0.1342
  895MPD2    C513117   4.256   3.019  14.178 -0.2063  0.9697  0.4573
  895MPD2     H13118   4.294   3.166  13.834  1.1864 -0.3970 -1.0838
  895MPD2    H113119   4.464   2.975  14.175 -1.1802 -2.6109  0.0776
  895MPD2    H213120   4.046   3.063  14.159  0.9314  1.6887  3.0255
  895MPD2    H313121   4.254   2.982  14.280 -1.9824 -0.2530 -0.0175
  895MPD2     N13122   4.520   3.113  13.950  0.4402 -0.3970 -0.1814
  895MPD2    H513123   4.580   3.144  14.026 -0.8181  1.8581 -0.1383
  895MPD2    N113124   4.053   3.152  13.894 -0.0303  0.3837 -0.0137
  895MPD2    H713125   4.072   3.173  13.797  1.9453 -2.5079 -0.2558
  896MPD2     C13126   0.951   1.524   1.575 -0.0262  0.2993  0.1170
  896MPD2    C113127   0.990   1.400   1.521 -0.3561  0.6842 -0.7018
  896MPD2    C213128   0.884   1.312   1.512  0.1146 -0.5417 -0.2860
  896MPD2    C313129   0.751   1.336   1.551 -0.2442  0.1858  0.2888
  896MPD2    C413130   0.720   1.457   1.617  0.0584  0.5141  0.4001
  896MPD2    C513131   0.825   1.546   1.623 -0.1891 -0.0149 -0.3030
  896MPD2     H13132   0.906   1.214   1.472 -0.8294 -1.2775  0.9844
  896MPD2    H113133   0.627   1.497   1.657 -0.7432  0.2730 -1.2457
  896MPD2    H213134   1.018   1.609   1.576  1.7983 -1.1446  0.0942
  896MPD2    H313135   0.804   1.639   1.674  1.8218 -0.3447  1.1351
  896MPD2     N13136   0.652   1.241   1.517 -0.0753 -0.4614 -0.1438
  896MPD2    H513137   0.686   1.171   1.451 -0.0659 -0.0914 -0.5332
  896MPD2    N113138   1.125   1.385   1.482  0.8440 -0.3483 -0.3454
  896MPD2    H713139   1.184   1.467   1.498 -1.6440  1.3750 -0.0559
  897MPD2     C13140   3.457   2.212  10.783  0.5127  0.3502 -0.4664
  897MPD2    C113141   3.469   2.341  10.835 -0.3724 -0.3703 -0.5501
  897MPD2    C213142   3.357   2.426  10.843  1.1034 -0.2055 -0.4250
  897MPD2    C313143   3.235   2.367  10.821  0.3767  0.1797 -0.8571
  897MPD2    C413144   3.220   2.245  10.759 -0.3677  0.3906 -0.0124
  897MPD2    C513145   3.336   2.170  10.742  0.0425  0.2280  0.2136
  897MPD2     H13146   3.360   2.522  10.894  3.2372 -0.5792  0.1660
  897MPD2    H113147   3.122   2.205  10.735  0.1509 -1.5487  1.1194
  897MPD2    H213148   3.547   2.154  10.764 -1.1982 -1.7034 -2.2797
  897MPD2    H313149   3.329   2.074  10.692 -2.7053  0.7324 -0.3917
  897MPD2     N13150   3.127   2.445  10.863 -0.0808  0.1473 -1.0980
  897MPD2    H513151   3.157   2.524  10.918 -2.1577 -0.1930  0.5240
  897MPD2    N113152   3.600   2.381  10.877  0.3415  0.3522 -0.6924
  897MPD2    H713153   3.677   2.317  10.865  0.7115  0.8724 -1.1229
  898MPD2     C13154   4.479   3.170   0.612 -0.3672  0.0115 -0.3118
  898MPD2    C113155   4.511   3.297   0.574  0.5939 -0.1670 -0.2692
  898MPD2    C213156   4.476   3.332   0.440  0.0104  0.1044 -0.1618
  898MPD2    C313157   4.400   3.246   0.361  0.6141  0.2324  0.2911
  898MPD2    C413158   4.371   3.118   0.411 -1.2962 -0.3218  0.3280
  898MPD2    C513159   4.419   3.077   0.526  0.3923  0.1147 -1.0221
  898MPD2     H13160   4.509   3.430   0.406 -0.7265  0.1641 -0.7146
  898MPD2    H113161   4.335   3.032   0.355  0.7393  0.2913 -1.9053
  898MPD2    H213162   4.506   3.134   0.711 -3.1522  4.1117  1.9705
  898MPD2    H313163   4.409   2.975   0.563  0.4132  0.7388  0.6939
  898MPD2     N13164   4.361   3.287   0.236 -0.4101  0.2702 -0.3957
  898MPD2    H513165   4.376   3.385   0.213 -1.1667  0.4332 -0.1979
  898MPD2    N113166   4.572   3.396   0.657  0.3790  0.0266  0.3083
  898MPD2    H713167   4.620   3.470   0.606  0.4777  0.3917  0.9372
  899MPD2     C13168   0.917   4.017   0.348 -0.2458 -0.1428  0.0913
  899MPD2    C113169   0.789   4.036   0.309 -0.2443 -0.1745  0.1747
  899MPD2    C213170   0.690   4.039   0.407 -0.2523  0.1129  0.4743
  899MPD2    C313171   0.713   4.026   0.540  0.9660 -0.3320  1.2383
  899MPD2    C413172   0.843   4.001   0.578  0.3127 -0.0495  0.9860
  899MPD2    C513173   0.938   3.991   0.482 -0.8875 -0.5814 -1.0852
  899MPD2     H13174   0.590   4.048   0.368 -0.3742  1.6484  1.1573
  899MPD2    H113175   0.870   3.984   0.682  2.2334 -1.6647  0.2345
  899MPD2    H213176   1.003   4.031   0.284 -0.5539  3.1970  0.4135
  899MPD2    H313177   1.042   3.987   0.512 -1.1323 -2.8117 -0.5510
  899MPD2     N13178   0.604   4.046   0.623 -0.1396 -0.5042  0.3300
  899MPD2    H513179   0.518   4.081   0.582  1.0179  0.0449 -1.6481
  899MPD2    N113180   0.745   4.067   0.175  0.3005 -0.2801 -1.1039
  899MPD2    H713181   0.647   4.093   0.167  0.1505 -0.1366  1.3005
  900MPD2     C13182   0.568   0.986  12.816 -1.1573 -0.0086 -0.3820
  900MPD2    C113183   0.555   0.884  12.721  0.1725 -0.6107  0.3042
  900MPD2    C213184   0.460   0.897  12.632  0.4252 -0.2975  0.3304
  900MPD2    C313185   0.361   0.992  12.633  1.0667  0.4062 -0.2244
  900MPD2    C413186   0.383   1.096  12.719  0.5311  0.0906  0.5506
  900MPD2    C513187   0.492   1.092  12.804 -0.5817  0.7345 -1.2670
  900MPD2     H13188   0.461   0.819  12.558  0.0054 -0.6735  0.7231
  900MPD2    H113189   0.321   1.184  12.729 -1.6347 -1.1544 -1.9616
  900MPD2    H213190   0.632   0.990  12.903 -1.4669 -1.5327 -0.0812
  900MPD2    H313191   0.505   1.179  12.867  0.0146  0.0432 -0.4474
  900MPD2     N13192   0.265   0.979  12.528  0.0749 -0.2000  0.4385
  900MPD2    H513193   0.279   0.902  12.463  0.6994 -0.7758  1.2530
  900MPD2    N113194   0.630   0.763  12.726 -0.2526 -0.7811 -0.4364
  900MPD2    H713195   0.622   0.699  12.648  1.7220 -0.7571 -0.6567
  901MPD2     C13196   0.741   4.514  13.073  0.0189 -0.6837  0.0345
  901MPD2    C113197   0.705   4.547  12.948  0.5161 -0.1446 -0.3071
  901MPD2    C213198   0.707   4.683  12.904 -0.4202 -0.1737 -0.3924
  901MPD2    C313199   0.752   0.061  12.985 -0.4759  0.3535  0.0605
  901MPD2    C413200   0.782   0.033  13.120  0.4583  0.4751 -0.2003
  901MPD2    C513201   0.776   4.626  13.157  0.0469 -1.2101  0.4936
  901MPD2     H13202   0.689   4.706  12.799 -0.3575  0.5846 -0.2378
  901MPD2    H113203   0.795   0.108  13.197  2.0181 -0.2314  0.2264
  901MPD2    H213204   0.743   4.421  13.128 -0.8269 -0.5887  0.2260
  901MPD2    H313205   0.792   4.597  13.261  0.0303 -0.6191  0.6605
  901MPD2     N13206   0.756   0.193  12.932  0.5002  0.0522 -0.1584
  901MPD2    H513207   0.732   0.199  12.833  1.5506 -0.6709 -0.4644
  901MPD2    N113208   0.687   4.431  12.863 -0.6371 -0.2423  0.5107
  901MPD2    H713209   0.695   4.346  12.918  0.9246  0.3652  1.2233
  902MPD2     C13210   3.796   3.683  13.186 -0.5558  1.1448  0.1242
  902MPD2    C113211   3.765   3.685  13.048 -0.6372 -0.0372 -0.1443
  902MPD2    C213212   3.847   3.622  12.953 -0.0488  0.9078  0.4387
  902MPD2    C313213   3.962   3.561  12.989 -0.3295  0.0799 -0.4315
  902MPD2    C413214   4.003   3.572  13.118 -0.6598  0.3832  1.0671
  902MPD2    C513215   3.924   3.636  13.211  0.3658  0.0530 -0.6189
  902MPD2     H13216   3.820   3.634  12.848  0.8342  2.1299  0.3450
  902MPD2    H113217   4.103   3.536  13.139 -0.7235  0.0454  0.7933
  902MPD2    H213218   3.738   3.714  13.272 -1.3312  2.4644 -0.8842
  902MPD2    H313219   3.961   3.647  13.312 -1.7633 -0.1212  0.1617
  902MPD2     N13220   4.059   3.511  12.902 -0.1841 -0.5313 -0.5389
  902MPD2    H513221   4.147   3.477  12.940 -0.1218 -0.3122 -0.4846
  902MPD2    N113222   3.648   3.754  13.017  0.3519 -0.4771 -0.1484
  902MPD2    H713223   3.600   3.800  13.094 -3.1211 -0.0645 -2.5596
  903MPD2     C13224   4.242   3.566  12.102 -0.3278  0.3895  0.0575
  903MPD2    C113225   4.173   3.612  12.212  0.7999  0.3582 -0.0502
  903MPD2    C213226   4.048   3.671  12.197  0.1328  0.5320  0.5633
  903MPD2    C313227   3.991   3.691  12.077  0.3334  0.0216  0.2919
  903MPD2    C413228   4.058   3.648  11.962  0.1477 -0.7510  0.3818
  903MPD2    C513229   4.182   3.588  11.981 -0.7600  0.4797  0.3020
  903MPD2     H13230   3.981   3.694  12.279 -0.4220  2.7864 -0.5234
  903MPD2    H113231   4.017   3.653  11.862  1.8899  1.3099 -0.2288
  903MPD2    H213232   4.339   3.519  12.112 -0.0243  0.8420 -0.7601
  903MPD2    H313233   4.230   3.547  11.894 -0.6443  0.8322  0.1973
  903MPD2     N13234   3.859   3.745  12.082  0.2640 -0.2324  0.1762
  903MPD2    H513235   3.825   3.775  12.173 -0.3880  1.4321 -0.6094
  903MPD2    N113236   4.208   3.584  12.349 -0.9558 -0.1995 -0.0405
  903MPD2    H713237   4.133   3.601  12.414 -0.1852 -2.4885  1.4636
  904MPD2     C13238   3.999   2.729  13.800  0.1221  0.4025 -1.4149
  904MPD2    C113239   3.966   2.605  13.847  0.1143 -0.4583 -0.4249
  904MPD2    C213240   4.043   2.552  13.949  0.9605 -0.9952 -0.1694
  904MPD2    C313241   4.161   2.612  13.995  0.8601  0.3064  0.5079
  904MPD2    C413242   4.200   2.734  13.940 -0.3456  0.0790  0.6195
  904MPD2    C513243   4.111   2.794  13.850  0.0193  0.4118 -0.3852
  904MPD2     H13244   4.006   2.461  13.995 -1.0225 -0.0674  0.0895
  904MPD2    H113245   4.283   2.795  13.974 -0.7855  1.9261 -1.6112
  904MPD2    H213246   3.939   2.780  13.725 -0.1814  0.1825 -1.3218
  904MPD2    H313247   4.121   2.893  13.808  1.0550 -1.2873 -4.1103
  904MPD2     N13248   4.249   2.542  14.080  0.0418 -0.5107 -0.0263
  904MPD2    H513249   4.216   2.455  14.119  1.5922  0.1518  2.7774
  904MPD2    N113250   3.838   2.550  13.813 -0.6392  0.2618  0.3438
  904MPD2    H713251   3.799   2.503  13.894 -0.7047  0.4920  0.4456
  905MPD2     C13252   3.791   2.892  13.216 -1.1943  0.4976  0.0408
  905MPD2    C113253   3.804   2.916  13.352  0.1486 -0.1483 -0.3081
  905MPD2    C213254   3.925   2.947  13.409 -0.0383 -0.0059 -0.5296
  905MPD2    C313255   4.045   2.933  13.336 -0.1576 -0.1412 -0.5302
  905MPD2    C413256   4.028   2.903  13.204 -0.3181  0.6006  0.3152
  905MPD2    C513257   3.906   2.895  13.143  0.0718 -0.2442  0.0139
  905MPD2     H13258   3.929   2.991  13.508 -2.4416  0.6589 -0.7287
  905MPD2    H113259   4.109   2.907  13.132 -0.3960  2.1080  0.3209
  905MPD2    H213260   3.703   2.850  13.168 -1.5985  0.5134  0.7697
  905MPD2    H313261   3.895   2.856  13.042  0.0137 -0.2694  0.0301
  905MPD2     N13262   4.176   2.945  13.391 -0.2331 -0.1688 -0.4945
  905MPD2    H513263   4.259   2.928  13.335  1.4991 -1.7898  2.5511
  905MPD2    N113264   3.687   2.890  13.432 -0.6629 -0.0392 -0.0081
  905MPD2    H713265   3.609   2.839  13.393  0.0851 -0.8784 -0.4091
  906MPD2     C13266   1.589   2.549  11.394 -0.4301  0.3093 -0.0040
  906MPD2    C113267   1.596   2.434  11.312  0.0310 -0.1712  0.0687
  906MPD2    C213268   1.568   2.313  11.380  0.8145 -0.3340  0.4274
  906MPD2    C313269   1.535   2.302  11.511 -0.4218 -0.2646 -0.0977
  906MPD2    C413270   1.537   2.420  11.589 -0.4876  0.7266  0.7177
  906MPD2    C513271   1.570   2.541  11.533 -0.5263  0.5203  0.1728
  906MPD2     H13272   1.578   2.222  11.322 -1.1109 -1.3549  1.7075
  906MPD2    H113273   1.517   2.429  11.695 -1.6499 -1.4544  0.6848
  906MPD2    H213274   1.586   2.648  11.350 -3.3098  0.3941  0.3911
  906MPD2    H313275   1.573   2.629  11.596  1.4552 -0.4311  1.3793
  906MPD2     N13276   1.514   2.181  11.578 -0.4043 -0.5392  0.4625
  906MPD2    H513277   1.515   2.179  11.680 -0.2157  0.7287  0.4835
  906MPD2    N113278   1.625   2.431  11.173 -0.5149 -0.0526 -0.0408
  906MPD2    H713279   1.604   2.346  11.122  1.9149  0.1157 -1.3460
  907MPD2     C13280   0.077   1.622  16.017 -0.4024 -0.1116  0.6533
  907MPD2    C113281   0.125   1.493  16.020  0.0985 -0.7815  0.1097
  907MPD2    C213282   0.193   1.448  16.131  0.0725  0.4371 -0.0744
  907MPD2    C313283   0.208   1.536  16.239  0.0835  0.3593  0.3495
  907MPD2    C413284   0.156   1.666  16.229  0.0071  0.2042 -0.8235
  907MPD2    C513285   0.105   1.707  16.116  0.2853  0.7149 -0.3098
  907MPD2     H13286   0.229   1.346  16.142 -0.4488  0.2972  0.3316
  907MPD2    H113287   0.164   1.733  16.314 -0.6472  0.3707 -0.8994
  907MPD2    H213288   0.030   1.668  15.931 -0.0167  1.0346  1.0538
  907MPD2    H313289   0.075   1.811  16.112 -1.8097  0.0505 -1.3334
  907MPD2     N13290   0.287   1.484  16.344  0.0806  0.8059  0.0239
  907MPD2    H513291   0.317   1.388  16.332  0.3654  1.0858 -1.5430
  907MPD2    N113292   0.079   1.403  15.921  0.9100 -1.1350  0.0829
  907MPD2    H713293   0.119   1.310  15.911 -0.6317 -1.6762 -1.2666
  908MPD2     C13294   4.345   2.477  10.359 -0.1234 -0.5097  0.2980
  908MPD2    C113295   4.277   2.367  10.407 -0.6933 -0.1498 -0.2415
  908MPD2    C213296   4.187   2.376  10.508  0.1535 -0.0972 -0.2988
  908MPD2    C313297   4.165   2.499  10.563 -0.5025 -0.5764  0.1403
  908MPD2    C413298   4.213   2.612  10.500  0.0564  0.1848 -0.2292
  908MPD2    C513299   4.310   2.603  10.397  0.2608 -0.0217  0.4782
  908MPD2     H13300   4.133   2.291  10.548  2.2499 -1.0657  0.4265
  908MPD2    H113301   4.197   2.710  10.543 -2.9717 -0.7488  0.7495
  908MPD2    H213302   4.410   2.462  10.273  1.8789 -0.1316  1.7531
  908MPD2    H313303   4.368   2.688  10.362 -0.1659 -0.7196 -1.9079
  908MPD2     N13304   4.078   2.506  10.677 -0.1100 -0.5309  0.5257
  908MPD2    H513305   4.037   2.416  10.699 -1.7467 -0.1144 -0.7691
  908MPD2    N113306   4.329   2.245  10.359  0.9033 -0.0414  0.5527
  908MPD2    H713307   4.402   2.247  10.289  0.8147 -1.4865  0.4335
  909MPD2     C13308   3.343   4.679  11.972 -0.3569 -0.6773 -1.0711
  909MPD2    C113309   3.342   0.076  11.903  0.1743 -0.0929 -0.0435
  909MPD2    C213310   3.248   0.171  11.933  0.5586  0.3669  0.7118
  909MPD2    C313311   3.147   0.141  12.025  0.1659 -0.3720 -0.2616
  909MPD2    C413312   3.146   0.019  12.096  0.2989 -0.3564  0.2998
  909MPD2    C513313   3.245   4.650  12.068 -0.5393  1.2236 -0.5433
  909MPD2     H13314   3.247   0.257  11.867 -0.3340  1.5531  2.2766
  909MPD2    H113315   3.066   4.701  12.157 -0.6531 -0.4075 -1.0061
  909MPD2    H213316   3.423   4.607  11.961  0.2514 -0.0593 -0.6871
  909MPD2    H313317   3.250   4.559  12.126  2.5991  1.0359 -1.0889
  909MPD2     N13318   3.032   0.225  12.032 -0.1903 -0.6484 -0.7020
  909MPD2    H513319   3.046   0.307  11.973 -0.3448 -0.2522 -0.1942
  909MPD2    N113320   3.441   0.111  11.805  0.0539 -0.5823 -0.2852
  909MPD2    H713321   3.449   0.206  11.772 -0.1001 -0.5296 -0.1738
  910MPD2     C13322   3.838   1.971  15.933 -0.6396 -0.6204 -0.1435
  910MPD2    C113323   3.938   1.901  15.865  0.2480  0.1011 -0.3519
  910MPD2    C213324   3.927   1.899  15.725  0.5166  0.0911  1.1225
  910MPD2    C313325   3.843   1.979  15.654  0.1476  0.7427 -0.1661
  910MPD2    C413326   3.742   2.047  15.725  0.1896  0.2192 -0.3825
  910MPD2    C513327   3.741   2.036  15.861 -0.1498 -0.8009 -0.7699
  910MPD2     H13328   3.998   1.836  15.673  1.8213  3.3589 -1.0110
  910MPD2    H113329   3.655   2.095  15.683  0.2721  1.0658  0.4049
  910MPD2    H213330   3.827   1.973  16.041 -0.2113 -0.0528 -0.1150
  910MPD2    H313331   3.647   2.073  15.901  1.1827 -0.8436  2.3734
  910MPD2     N13332   3.827   1.986  15.513  0.1455  0.0775 -0.1585
  910MPD2    H513333   3.747   2.036  15.477  1.5043  2.4082  0.0971
  910MPD2    N113334   4.038   1.820  15.931  0.1291 -0.1749  0.3035
  910MPD2    H713335   4.097   1.760  15.874  1.8595 -0.1037  2.0397
  911MPD2     C13336   2.285   3.058  16.791  0.4472 -0.1029  0.1621
  911MPD2    C113337   2.379   3.103  16.878  0.6047  0.2324  0.1083
  911MPD2    C213338   2.429   3.233  16.875 -0.0603  0.6371 -0.3421
  911MPD2    C313339   2.372   3.316  16.781 -0.6484  0.6074  0.1632
  911MPD2    C413340   2.286   3.269  16.685  0.0471 -0.9918  0.1424
  911MPD2    C513341   2.245   3.137  16.687 -0.2749  0.6160 -0.1100
  911MPD2     H13342   2.507   3.275  16.937  0.0976  0.2504 -0.2783
  911MPD2    H113343   2.236   3.331  16.611  0.8704 -0.7625 -0.2277
  911MPD2    H213344   2.234   2.963  16.777 -0.7972  0.7361 -1.0813
  911MPD2    H313345   2.163   3.106  16.624 -0.9465 -0.2592  1.1850
  911MPD2     N13346   2.393   3.455  16.779 -0.1678  0.5461 -0.6421
  911MPD2    H513347   2.339   3.498  16.704 -0.9111  0.6117 -0.0675
  911MPD2    N113348   2.425   2.996  16.961 -0.3033 -0.1625  0.2110
  911MPD2    H713349   2.390   2.902  16.944  2.5319 -1.0937 -0.4443
  912MPD2     C13350   1.790   3.540  16.643  0.1760 -0.2098 -0.0316
  912MPD2    C113351   1.882   3.522  16.741  0.6499  0.6090 -1.1171
  912MPD2    C213352   1.893   3.391  16.796  0.5786  0.9519  0.0969
  912MPD2    C313353   1.802   3.289  16.770 -0.0989 -0.0725 -0.4320
  912MPD2    C413354   1.706   3.312  16.678  0.6886  0.1973  0.1795
  912MPD2    C513355   1.703   3.437  16.618 -0.0595 -0.0484  0.1963
  912MPD2     H13356   1.977   3.374  16.863 -0.6995  2.3916  2.0585
  912MPD2    H113357   1.629   3.244  16.644  0.4678  1.6359 -2.2264
  912MPD2    H213358   1.777   3.636  16.594  2.4769 -0.8951 -1.9731
  912MPD2    H313359   1.622   3.445  16.546 -0.5716  0.2031  0.7910
  912MPD2     N13360   1.822   3.159  16.821 -0.4979 -0.1315 -0.3474
  912MPD2    H513361   1.881   3.148  16.903 -0.7734 -1.3917 -0.3246
  912MPD2    N113362   1.980   3.621  16.756  0.2854 -0.3645  0.7303
  912MPD2    H713363   1.972   3.694  16.687  0.9529 -0.8928  0.0907
  913MPD2     C13364   2.882   3.587  10.788  1.0644 -0.0930  0.2481
  913MPD2    C113365   2.828   3.688  10.872  0.1864  0.4245  0.4181
  913MPD2    C213366   2.788   3.811  10.809  0.5296  0.4353 -0.1036
  913MPD2    C313367   2.808   3.825  10.670 -0.7384 -0.1736 -1.0253
  913MPD2    C413368   2.849   3.716  10.593  0.5847  0.2195 -0.0635
  913MPD2    C513369   2.882   3.596  10.651 -0.4218 -0.2378 -0.0558
  913MPD2     H13370   2.750   3.889  10.873  0.8509  0.7117 -0.2538
  913MPD2    H113371   2.854   3.721  10.484  1.6831 -0.5176 -0.0464
  913MPD2    H213372   2.916   3.494  10.831 -0.3994 -0.5476  0.4285
  913MPD2    H313373   2.908   3.515  10.584 -0.5048 -0.0564 -0.3118
  913MPD2     N13374   2.774   3.942  10.596  0.0647  0.4058  0.8084
  913MPD2    H513375   2.788   3.938  10.495 -3.6206 -2.0984  0.3660
  913MPD2    N113376   2.813   3.656  11.010  0.8062 -0.6271  0.0349
  913MPD2    H713377   2.860   3.571  11.039  1.4346 -0.2195  0.2277
  914MPD2     C13378   0.777   4.202  11.878  0.5993 -0.4413 -0.2476
  914MPD2    C113379   0.755   4.319  11.949 -0.1723  0.5743  0.1662
  914MPD2    C213380   0.760   4.317  12.087  0.0413 -0.3002  0.4752
  914MPD2    C313381   0.774   4.200  12.161  0.3096 -1.2118  0.3091
  914MPD2    C413382   0.783   4.082  12.086 -0.2237 -0.0750  0.3473
  914MPD2    C513383   0.779   4.085  11.949  0.1841 -0.1210  0.0595
  914MPD2     H13384   0.751   4.412  12.139  0.7280  0.0235  0.0004
  914MPD2    H113385   0.785   3.984  12.130  1.1153  0.8641  2.3838
  914MPD2    H213386   0.770   4.205  11.769  0.9563  2.5635 -0.1993
  914MPD2    H313387   0.777   3.990  11.897 -0.5352 -0.2145  0.2623
  914MPD2     N13388   0.759   4.212  12.303 -0.0874  0.0598 -0.1958
  914MPD2    H513389   0.758   4.305  12.343 -0.3514  0.6936 -1.6926
  914MPD2    N113390   0.734   4.440  11.882 -0.4462 -0.4094 -0.6452
  914MPD2    H713391   0.729   4.430  11.781  0.0339 -1.7659 -0.5363
  915MPD2     C13392   2.975   4.285  15.654 -0.0196  0.2270 -0.5442
  915MPD2    C113393   2.850   4.342  15.657 -0.6753  0.9127  0.1855
  915MPD2    C213394   2.789   4.395  15.772 -0.2904 -0.8322  0.0829
  915MPD2    C313395   2.877   4.407  15.873  0.1777  0.0147 -0.2480
  915MPD2    C413396   2.994   4.342  15.880  0.1996 -0.0470  0.1189
  915MPD2    C513397   3.043   4.274  15.768  0.1428 -0.1497  0.4051
  915MPD2     H13398   2.697   4.452  15.769  0.8183  0.9533 -0.1792
  915MPD2    H113399   3.047   4.332  15.974  0.0501 -1.9680  0.0120
  915MPD2    H213400   3.019   4.242  15.565  1.8565  0.9518  0.0306
  915MPD2    H313401   3.133   4.214  15.776  0.8320  0.7404 -0.6125
  915MPD2     N13402   2.831   4.494  15.970  0.4040  0.2304 -0.4542
  915MPD2    H513403   2.736   4.527  15.957  1.0691  1.6088 -1.8487
  915MPD2    N113404   2.788   4.370  15.535  0.0303 -0.5568 -0.0007
  915MPD2    H713405   2.687   4.363  15.537  0.1326 -1.9459  0.3425
  916MPD2     C13406   1.652   2.754  16.149  0.1088 -0.1425  0.3561
  916MPD2    C113407   1.570   2.648  16.166 -0.2387 -0.6613  0.4812
  916MPD2    C213408   1.577   2.532  16.088 -0.5673 -0.2601  0.3423
  916MPD2    C313409   1.648   2.541  15.969  0.2092  0.0707  0.3503
  916MPD2    C413410   1.726   2.653  15.938  0.0478 -0.4322 -0.4203
  916MPD2    C513411   1.730   2.754  16.033 -0.0376  0.4172  0.4708
  916MPD2     H13412   1.530   2.439  16.116 -0.5691 -0.8659 -1.7241
  916MPD2    H113413   1.785   2.659  15.846 -1.0798 -2.2354 -1.2538
  916MPD2    H213414   1.647   2.836  16.219  1.6883  2.4439 -2.5598
  916MPD2    H313415   1.795   2.840  16.019 -0.3598  0.4433 -0.8817
  916MPD2     N13416   1.641   2.424  15.887 -0.1827 -0.2609 -0.2507
  916MPD2    H513417   1.589   2.349  15.931  0.2558 -1.0078 -1.0093
  916MPD2    N113418   1.491   2.663  16.290 -0.1232  0.8159  0.3602
  916MPD2    H713419   1.473   2.756  16.325 -0.1860  0.4884  1.1830
  917MPD2     C13420   1.658   4.368  10.991 -0.6370 -0.0331 -0.0793
  917MPD2    C113421   1.722   4.421  11.101  0.1434  0.3238 -0.0209
  917MPD2    C213422   1.840   4.492  11.078 -0.5237  0.5259 -0.4983
  917MPD2    C313423   1.881   4.518  10.949 -0.1761  0.3723 -0.8483
  917MPD2    C413424   1.809   4.464  10.839 -0.8056 -0.2058 -0.4240
  917MPD2    C513425   1.705   4.384  10.862 -0.7461  0.2644  0.2200
  917MPD2     H13426   1.902   4.523  11.161 -1.1089  1.0560 -0.2584
  917MPD2    H113427   1.838   4.480  10.736 -0.5521 -1.2872 -0.5235
  917MPD2    H213428   1.569   4.308  10.999 -0.5134 -0.5464 -2.6529
  917MPD2    H313429   1.644   4.343  10.781  0.4422 -0.3208 -0.3759
  917MPD2     N13430   1.995   4.602  10.923  0.2977 -0.1117 -0.2735
  917MPD2    H513431   1.998   4.653  10.836  1.2573 -1.8817 -1.2794
  917MPD2    N113432   1.677   4.393  11.235 -0.5123 -0.2721 -0.4696
  917MPD2    H713433   1.594   4.337  11.248 -0.3889 -0.3592 -0.0423
  918MPD2     C13434   1.766   0.244  12.086 -0.0227  0.2498 -0.3401
  918MPD2    C113435   1.873   0.175  12.036  0.6701 -0.4515 -0.0651
  918MPD2    C213436   1.857   0.083  11.930  0.0690 -0.3390 -0.7318
  918MPD2    C313437   1.737   0.054  11.884 -0.1716 -0.6079 -0.3034
  918MPD2    C413438   1.631   0.128  11.934  0.3025  0.1438 -0.7183
  918MPD2    C513439   1.648   0.226  12.028 -1.0071  0.2243  1.0722
  918MPD2     H13440   1.937   0.018  11.896  0.4781 -0.6852  0.9047
  918MPD2    H113441   1.527   0.117  11.905  0.1047 -0.4353  0.2397
  918MPD2    H213442   1.767   0.324  12.160 -1.7860 -1.0885  1.1273
  918MPD2    H313443   1.567   0.294  12.051 -1.7240 -0.2745  0.0140
  918MPD2     N13444   1.718   4.670  11.795 -0.0037  0.0453 -0.2296
  918MPD2    H513445   1.798   4.617  11.764 -0.5363 -0.4670 -0.7355
  918MPD2    N113446   1.999   0.206  12.079 -0.1541 -0.0237 -0.4189
  918MPD2    H713447   2.066   0.137  12.045  1.0662  0.1910  1.5346
  919MPD2     C13448   2.244   3.815  11.751 -0.2906  0.0661 -0.3102
  919MPD2    C113449   2.296   3.692  11.732  0.0475 -0.0722  0.7442
  919MPD2    C213450   2.314   3.654  11.604 -0.9179  0.3164  0.0007
  919MPD2    C313451   2.269   3.734  11.495 -0.4555 -0.4543 -0.0299
  919MPD2    C413452   2.209   3.851  11.518 -0.3080  0.1364  0.6049
  919MPD2    C513453   2.212   3.899  11.643  0.4812  0.3831 -0.8041
  919MPD2     H13454   2.381   3.570  11.586 -0.2901  1.0890 -1.2196
  919MPD2    H113455   2.166   3.911  11.439  2.2798  1.3091  0.0631
  919MPD2    H213456   2.234   3.865  11.846 -0.3876  0.0831 -0.3296
  919MPD2    H313457   2.158   3.992  11.658  2.0072  0.8720  1.6114
  919MPD2     N13458   2.291   3.703  11.358 -0.5989  0.2190  0.1009
  919MPD2    H513459   2.260   3.777  11.296 -0.6021 -1.1674 -1.5351
  919MPD2    N113460   2.320   3.616  11.848 -0.1448 -0.4668 -0.2869
  919MPD2    H713461   2.365   3.528  11.826  1.4430  0.4759 -0.8087
  920MPD2     C13462   2.274   4.126  10.485 -0.4797  0.3290  0.4062
  920MPD2    C113463   2.210   4.008  10.473 -0.6447 -0.0340  0.9370
  920MPD2    C213464   2.229   3.903  10.574 -0.5900  0.6887  0.2060
  920MPD2    C313465   2.307   3.930  10.682  0.1676 -0.9622  0.1321
  920MPD2    C413466   2.370   4.055  10.686  0.2866  0.4952  0.5101
  920MPD2    C513467   2.347   4.153  10.594 -0.6197  0.0109  0.6833
  920MPD2     H13468   2.175   3.809  10.566  2.4251 -1.0051 -0.0515
  920MPD2    H113469   2.437   4.078  10.769  1.1593 -1.4871  0.3489
  920MPD2    H213470   2.260   4.205  10.412  0.9159  0.8920  0.7341
  920MPD2    H313471   2.405   4.245  10.596 -0.1013 -0.2399 -2.2489
  920MPD2     N13472   2.322   3.826  10.776 -0.4308  0.0875  0.1253
  920MPD2    H513473   2.283   3.734  10.757  0.8266  0.4810 -4.3083
  920MPD2    N113474   2.122   3.985  10.367 -0.2051  0.3632  0.1416
  920MPD2    H713475   2.062   3.903  10.376 -1.1090  0.9990 -0.1040
  921MPD2     C13476   3.294   3.145  17.171  0.1289  0.0672 -0.0673
  921MPD2    C113477   3.251   3.037  17.090 -0.0479  0.6075 -0.5105
  921MPD2    C213478   3.131   2.967  17.107  0.8145 -0.1862  0.2458
  921MPD2    C313479   3.051   3.010  17.215  0.4723 -0.8563  0.5477
  921MPD2    C413480   3.103   3.104  17.301  0.2335 -0.1782 -0.9131
  921MPD2    C513481   3.219   3.172  17.271 -0.7122  0.1223  0.3951
  921MPD2     H13482   3.106   2.894  17.030  1.6150 -0.6871  0.4650
  921MPD2    H113483   3.053   3.132  17.393  2.0276  1.1028 -0.3149
  921MPD2    H213484   3.381   3.207  17.156  0.4248 -0.6892 -1.4831
  921MPD2    H313485   3.248   3.252  17.339 -1.5268  2.1051 -1.5871
  921MPD2     N13486   2.933   2.951  17.251  0.5704  0.2950 -0.0807
  921MPD2    H513487   2.880   2.994  17.326  0.3190 -1.5538  0.8144
  921MPD2    N113488   3.336   3.004  16.983 -0.0594  0.2262  0.1997
  921MPD2    H713489   3.436   3.023  16.984 -0.4218  2.0605  1.7434
  922MPD2     C13490   3.829   0.555  16.698 -0.0313  0.4994 -0.5662
  922MPD2    C113491   3.918   0.565  16.810  0.0144 -0.1999  0.1915
  922MPD2    C213492   3.896   0.474  16.915 -0.6278  0.0802  0.3168
  922MPD2    C313493   3.788   0.382  16.907  0.0665 -0.5894 -0.2523
  922MPD2    C413494   3.709   0.374  16.793 -1.1583  0.1696 -0.1024
  922MPD2    C513495   3.729   0.466  16.690  0.1324 -0.0598 -0.0168
  922MPD2     H13496   3.956   0.464  17.005 -1.1712 -0.4516  0.6222
  922MPD2    H113497   3.632   0.299  16.781 -1.4800  0.1604  2.0119
  922MPD2    H213498   3.832   0.630  16.619 -0.2500  0.6029 -0.4747
  922MPD2    H313499   3.680   0.449  16.595 -1.7255 -0.4551  1.0100
  922MPD2     N13500   3.765   0.295  17.024 -0.0716  0.0966  0.3514
  922MPD2    H513501   3.815   0.320  17.109 -0.4621  1.5091  0.1626
  922MPD2    N113502   4.018   0.664  16.826 -0.2552 -0.3264  0.2609
  922MPD2    H713503   4.070   0.657  16.913  3.3401  2.1766 -1.6666
  923MPD2     C13504   1.900   2.242   9.094 -0.3428  0.3301 -0.4373
  923MPD2    C113505   1.778   2.296   9.136 -0.0577  0.6019  0.5013
  923MPD2    C213506   1.742   2.267   9.267 -0.0664  0.6557  0.7246
  923MPD2    C313507   1.831   2.206   9.347 -0.5955 -1.0903 -0.2674
  923MPD2    C413508   1.954   2.155   9.303 -0.1543 -0.2063  0.5535
  923MPD2    C513509   1.988   2.182   9.173  0.0928  0.2692 -0.2034
  923MPD2     H13510   1.640   2.293   9.296 -0.5429  0.3885 -0.6926
  923MPD2    H113511   2.012   2.085   9.362 -0.9479  1.2732  3.0695
  923MPD2    H213512   1.945   2.266   8.998  0.1851 -0.2042 -0.3265
  923MPD2    H313513   2.077   2.137   9.131  0.7374 -0.1089  1.5841
  923MPD2     N13514   1.806   2.176   9.484  0.3175 -0.1498  0.1042
  923MPD2    H513515   1.875   2.122   9.534 -1.1022 -0.9351  1.2089
  923MPD2    N113516   1.695   2.376   9.045  0.3366  0.4820  0.3130
  923MPD2    H713517   1.735   2.393   8.953  1.3094 -2.6638  0.1787
  924MPD2     C13518   0.489   0.693  16.360 -0.7538  0.5226 -0.2247
  924MPD2    C113519   0.436   0.733  16.486  0.2466 -0.3024  0.2586
  924MPD2    C213520   0.457   0.862  16.520 -0.6186 -0.7068 -0.6824
  924MPD2    C313521   0.492   0.958  16.430 -0.2339  0.0977  0.7855
  924MPD2    C413522   0.542   0.920  16.307  0.5333  0.2783  0.3528
  924MPD2    C513523   0.538   0.789  16.277 -0.2934 -0.2651 -0.0507
  924MPD2     H13524   0.424   0.894  16.618  0.2992  1.0385 -0.9294
  924MPD2    H113525   0.573   0.995  16.235 -1.4641  1.1422  0.3702
  924MPD2    H213526   0.486   0.595  16.314  0.6167  0.6504 -0.5784
  924MPD2    H313527   0.567   0.759  16.177  0.7892 -0.5376  0.3452
  924MPD2     N13528   0.517   1.095  16.467 -0.7957  0.3225 -0.4854
  924MPD2    H513529   0.534   1.154  16.387 -0.4465 -0.7260 -1.1900
  924MPD2    N113530   0.383   0.640  16.577  0.0167  0.1463 -0.0825
  924MPD2    H713531   0.411   0.546  16.552 -1.9973 -0.6063  0.4415
  925MPD2     C13532   3.927   3.625  14.900  0.1137  0.4767  0.4160
  925MPD2    C113533   3.829   3.524  14.867 -0.7308 -0.3771 -0.3274
  925MPD2    C213534   3.731   3.488  14.961  0.2651  0.1705 -0.0905
  925MPD2    C313535   3.732   3.543  15.088  0.2446  0.6872 -0.3417
  925MPD2    C413536   3.812   3.651  15.116  0.2273  0.9550 -0.3690
  925MPD2    C513537   3.915   3.685  15.026  0.3354 -0.4687 -0.6161
  925MPD2     H13538   3.669   3.401  14.944  1.1493 -0.6827  1.0350
  925MPD2    H113539   3.820   3.699  15.213 -3.7503 -3.1104  1.9209
  925MPD2    H213540   4.006   3.653  14.831  1.5426 -0.7549  1.5507
  925MPD2    H313541   3.991   3.759  15.051 -0.2020  0.4222 -1.6032
  925MPD2     N13542   3.657   3.498  15.194 -0.2150  0.1682 -0.4944
  925MPD2    H513543   3.649   3.566  15.268  1.2017  1.2145 -1.3104
  925MPD2    N113544   3.832   3.461  14.739 -0.2497 -0.3397 -0.3809
  925MPD2    H713545   3.763   3.392  14.712 -0.5329  0.1054 -0.7811
  926MPD2     C13546   3.409   2.144  13.328 -0.8295  0.3148 -0.7448
  926MPD2    C113547   3.281   2.193  13.309  0.3365  0.3764  0.3777
  926MPD2    C213548   3.255   2.266  13.191 -0.0564 -0.9539  0.0121
  926MPD2    C313549   3.346   2.294  13.093 -0.5484  0.3819  0.0601
  926MPD2    C413550   3.472   2.248  13.120  0.1403  0.1283  0.5249
  926MPD2    C513551   3.503   2.181  13.231 -0.0799 -0.9422  0.1075
  926MPD2     H13552   3.153   2.300  13.178  0.2491  0.3336  0.9392
  926MPD2    H113553   3.547   2.273  13.046 -0.0810 -0.6879  0.0315
  926MPD2    H213554   3.449   2.102  13.419  0.6788  2.1728 -0.5380
  926MPD2    H313555   3.602   2.147  13.256  0.2352 -0.1106 -0.0335
  926MPD2     N13556   3.326   2.372  12.975 -0.3083  0.2275  0.1925
  926MPD2    H513557   3.407   2.399  12.921 -0.9684 -2.2683 -2.0558
  926MPD2    N113558   3.176   2.170  13.396  0.2244 -0.8279  0.4440
  926MPD2    H713559   3.089   2.218  13.374  1.7996  2.1139  0.6166
  927MPD2     C13560   1.642   4.648   0.405  0.4927  0.9709 -0.0602
  927MPD2    C113561   1.669   4.518   0.429 -0.6456  0.1616 -0.3150
  927MPD2    C213562   1.744   4.454   0.328 -0.4508 -0.3700 -0.2391
  927MPD2    C313563   1.794   4.530   0.219 -0.8133  0.1415 -0.9389
  927MPD2    C413564   1.756   4.665   0.207  0.3350  0.3939  0.3001
  927MPD2    C513565   1.678   0.001   0.298 -0.5830 -0.5289  0.6122
  927MPD2     H13566   1.769   4.349   0.334  3.7660  0.7067  1.2255
  927MPD2    H113567   1.778   4.721   0.117  1.4897  1.8374  1.4695
  927MPD2    H213568   1.583   4.701   0.479 -0.3578  1.4072 -1.0354
  927MPD2    H313569   1.627   0.096   0.288 -0.7908 -0.9090 -1.8368
  927MPD2     N13570   1.892   4.466   0.142 -0.0641  0.1738  0.3169
  927MPD2    H513571   1.922   4.373   0.170 -0.6294 -0.2307 -0.4286
  927MPD2    N113572   1.635   4.467   0.553  0.2933 -0.6204 -0.2242
  927MPD2    H713573   1.579   4.521   0.618 -0.7217  2.3218 -3.5539
  928MPD2     C13574   0.039   2.158   1.059  0.0203 -0.1279  0.0183
  928MPD2    C113575   0.118   2.263   1.096  0.3362  0.1970 -0.3020
  928MPD2    C213576   0.132   2.376   1.017 -0.0828  0.7119 -0.2828
  928MPD2    C313577   0.080   2.387   0.886  0.0443 -0.7743 -0.2238
  928MPD2    C413578   4.720   2.275   0.846 -0.1009 -0.2580 -0.2195
  928MPD2    C513579   4.701   2.162   0.932  0.7376  0.3267  0.5668
  928MPD2     H13580   0.212   2.443   1.047 -1.4725  2.7830 -1.2421
  928MPD2    H113581   4.671   2.287   0.750  0.2488 -1.5114 -0.5626
  928MPD2    H213582   0.021   2.070   1.119  1.8580 -1.3843 -1.2946
  928MPD2    H313583   4.635   2.083   0.899  0.8727  0.4658 -0.0515
  928MPD2     N13584   0.108   2.487   0.793  0.4321 -0.4022  0.3666
  928MPD2    H513585   0.075   2.475   0.698  0.3674 -0.4034  0.3891
  928MPD2    N113586   0.182   2.258   1.218 -0.3683  0.1914 -0.2541
  928MPD2    H713587   0.165   2.174   1.273 -0.7764 -0.2403 -1.0379
  929MPD2     C13588   1.271   2.072  10.559 -0.1822 -0.2003  0.1685
  929MPD2    C113589   1.145   2.012  10.574 -0.0897 -0.4699  0.9050
  929MPD2    C213590   1.066   1.998  10.455  0.4505  0.5385  0.3733
  929MPD2    C313591   1.114   2.037  10.335 -0.3330 -0.7797 -0.1881
  929MPD2    C413592   1.236   2.095  10.316 -0.1149  0.2876  0.0849
  929MPD2    C513593   1.313   2.102  10.427 -0.4375  0.5350 -0.2698
  929MPD2     H13594   0.982   1.929  10.453 -0.1663  1.3008  0.0706
  929MPD2    H113595   1.277   2.124  10.220  1.0705  0.0628  0.5232
  929MPD2    H213596   1.342   2.087  10.639  0.1708  2.5490 -0.6640
  929MPD2    H313597   1.414   2.141  10.420 -0.6652  1.4664  1.6520
  929MPD2     N13598   1.032   2.038  10.221  0.4286  0.2097 -0.0768
  929MPD2    H513599   1.069   2.083  10.138 -1.5624  1.2325 -0.4128
  929MPD2    N113600   1.115   1.969  10.704  0.0776  0.0923  0.8650
  929MPD2    H713601   1.179   2.000  10.777  2.1406 -0.0520 -0.8650
  930MPD2     C13602   2.037   0.395  14.251 -0.2048  0.6842  0.3071
  930MPD2    C113603   2.071   0.377  14.114  0.0799  0.1279 -0.0142
  930MPD2    C213604   2.018   0.271  14.041 -0.2908  0.6498 -0.1440
  930MPD2    C313605   1.918   0.188  14.096 -0.0970 -0.3823  0.1540
  930MPD2    C413606   1.896   0.200  14.231 -0.2609 -0.2085 -0.7226
  930MPD2    C513607   1.945   0.308  14.305  0.2041 -0.0313 -0.5484
  930MPD2     H13608   2.052   0.253  13.940 -0.7356  1.5018 -0.4499
  930MPD2    H113609   1.827   0.134  14.284  0.6003 -1.9990 -1.8501
  930MPD2    H213610   2.074   0.472  14.319  0.1149 -0.0949  1.0130
  930MPD2    H313611   1.927   0.319  14.411 -0.9755  1.4726 -0.9177
  930MPD2     N13612   1.848   0.089  14.025 -0.1885 -0.1796  0.1032
  930MPD2    H513613   1.817   0.011  14.082 -0.2496  0.2301  0.6338
  930MPD2    N113614   2.172   0.467  14.066 -0.4198 -0.1013  0.9319
  930MPD2    H713615   2.210   0.529  14.137  0.5834  0.2222  0.1099
  931MPD2     C13616   1.853   3.767   0.807  0.2612 -0.5370 -0.2388
  931MPD2    C113617   1.804   3.847   0.909 -0.3299  0.0503  0.4377
  931MPD2    C213618   1.805   3.787   1.034 -0.8717  0.4719 -0.6140
  931MPD2    C313619   1.860   3.658   1.057 -0.4912  0.5188 -0.2170
  931MPD2    C413620   1.901   3.589   0.946  0.3461 -0.4408 -0.7284
  931MPD2    C513621   1.892   3.641   0.819  0.7697  0.6246 -0.4172
  931MPD2     H13622   1.811   3.851   1.121 -2.4786 -0.4470  0.1702
  931MPD2    H113623   1.950   3.494   0.964 -1.9144 -1.3728  0.4866
  931MPD2    H213624   1.854   3.804   0.705  2.2033  1.5020  0.5092
  931MPD2    H313625   1.949   3.587   0.744 -0.8678 -2.1015  0.3110
  931MPD2     N13626   1.873   3.593   1.183 -0.1327  0.3502 -0.0872
  931MPD2    H513627   1.933   3.511   1.185  0.6779  0.9229 -1.1116
  931MPD2    N113628   1.766   3.980   0.889  0.1654  0.5452 -0.0303
  931MPD2    H713629   1.770   4.023   0.797  1.1081 -0.0600 -0.2714
  932MPD2     C13630   0.098   3.143  11.581 -0.5164 -0.9920 -0.3290
  932MPD2    C113631   4.702   3.133  11.509 -0.3717  0.4301 -0.1010
  932MPD2    C213632   4.609   3.035  11.547 -0.5749  0.2448  0.8155
  932MPD2    C313633   4.630   2.949  11.656  0.3993  1.0668 -0.1995
  932MPD2    C413634   0.033   2.952  11.718 -0.0410 -0.2529  0.2121
  932MPD2    C513635   0.117   3.056  11.684  0.6642  0.0736  0.0601
  932MPD2     H13636   4.512   3.038  11.500 -0.5884  2.1167  0.9398
  932MPD2    H113637   0.065   2.899  11.806 -1.3457 -0.7165  0.4083
  932MPD2    H213638   0.177   3.210  11.552  0.2098 -0.9107  1.8539
  932MPD2    H313639   0.205   3.067  11.747  0.2885 -0.1226  0.6139
  932MPD2     N13640   4.539   2.853  11.703  0.1655  0.2077  0.1072
  932MPD2    H513641   4.564   2.782  11.771 -0.0369  0.7785  0.7753
  932MPD2    N113642   4.671   3.228  11.405  0.5731  0.2330 -0.7324
  932MPD2    H713643   4.580   3.218  11.362 -0.4984  2.0489  1.1013
  933MPD2     C13644   4.497   2.108   1.691  0.3981 -0.3992  0.2985
  933MPD2    C113645   4.589   2.193   1.748  0.0739  0.8855  0.6307
  933MPD2    C213646   4.554   2.272   1.850  0.6559  0.4201  0.5084
  933MPD2    C313647   4.427   2.283   1.898 -0.0623  0.2739  0.8101
  933MPD2    C413648   4.335   2.194   1.842 -0.0625 -0.3010  0.4815
  933MPD2    C513649   4.370   2.099   1.745  0.3004  0.0546  0.0111
  933MPD2     H13650   4.627   2.342   1.888  0.0355  1.3475 -0.0127
  933MPD2    H113651   4.230   2.200   1.866 -0.6816  1.7725 -2.6159
  933MPD2    H213652   4.527   2.029   1.624 -2.5766 -1.0295 -0.2821
  933MPD2    H313653   4.302   2.026   1.702  0.2886 -0.1814  0.4260
  933MPD2     N13654   4.408   2.380   1.998  0.2480 -0.5204  0.1004
  933MPD2    H513655   4.478   2.453   2.008  1.3088 -1.3629 -1.2588
  933MPD2    N113656   4.715   2.193   1.683 -0.1759  0.1521  0.7130
  933MPD2    H713657   0.008   2.128   1.606 -0.0015 -0.5129  1.3068
  934MPD2     C13658   1.082   1.297   1.886 -0.2202 -0.4404 -0.5267
  934MPD2    C113659   1.158   1.188   1.879 -0.6755  0.0460 -0.2525
  934MPD2    C213660   1.092   1.069   1.854 -0.6630 -0.3436  0.0402
  934MPD2    C313661   0.958   1.060   1.860 -0.3652 -0.3348  0.3897
  934MPD2    C413662   0.884   1.174   1.872  0.6072  0.3295 -0.1160
  934MPD2    C513663   0.949   1.289   1.883  0.6463 -0.1223 -0.1021
  934MPD2     H13664   1.154   0.981   1.842 -0.6923 -0.1697 -1.4514
  934MPD2    H113665   0.776   1.172   1.876  0.7452  0.0450  3.3340
  934MPD2    H213666   1.126   1.395   1.899  0.3546 -0.7961  0.2392
  934MPD2    H313667   0.892   1.378   1.908  2.4843  0.3811  2.2726
  934MPD2     N13668   0.896   0.935   1.842 -0.3572  0.8352  0.0046
  934MPD2    H513669   0.796   0.939   1.857 -0.2664  1.2587  0.5152
  934MPD2    N113670   1.301   1.194   1.893  0.0385 -0.0641 -0.0365
  934MPD2    H713671   1.361   1.111   1.892 -1.1924 -0.9737  1.3401
  935MPD2     C13672   1.265   0.005   1.887 -0.3003  0.7541 -0.1046
  935MPD2    C113673   1.191   0.012   1.775 -0.0099  0.3429 -0.0366
  935MPD2    C213674   1.109   0.117   1.766 -0.3546 -0.0632 -0.1452
  935MPD2    C313675   1.096   0.219   1.857  0.4355  0.0555  0.4576
  935MPD2    C413676   1.183   0.220   1.960 -0.6714  0.4404 -1.1969
  935MPD2    C513677   1.268   0.114   1.973  0.1397  0.4731 -0.0447
  935MPD2     H13678   1.049   0.119   1.676  1.6150 -0.7493 -1.4575
  935MPD2    H113679   1.188   0.293   2.040 -2.5737  0.7542 -1.3651
  935MPD2    H213680   1.316   4.634   1.910  1.5982  1.8960  0.2083
  935MPD2    H313681   1.340   0.116   2.054  0.0185 -0.5455  0.0881
  935MPD2     N13682   1.009   0.330   1.847  0.2639 -0.4384  0.1919
  935MPD2    H513683   1.019   0.408   1.911  0.9043 -0.6243  0.3161
  935MPD2    N113684   1.191   4.644   1.667  0.0748  0.0071 -0.0950
  935MPD2    H713685   1.136   4.661   1.583  2.3444  0.1287 -1.5450
  936MPD2     C13686   0.209   2.655  12.632  0.3101 -0.0663  0.0675
  936MPD2    C113687   0.271   2.575  12.727 -0.3139  0.5974 -0.1158
  936MPD2    C213688   0.351   2.625  12.828  0.1381 -0.7197 -0.1255
  936MPD2    C313689   0.387   2.759  12.825 -0.7231  0.9378 -0.2328
  936MPD2    C413690   0.326   2.834  12.732 -0.1443 -0.2516 -0.0452
  936MPD2    C513691   0.243   2.790  12.634  0.4236 -0.2451 -0.3527
  936MPD2     H13692   0.389   2.546  12.892 -0.5636  0.0970  1.2914
  936MPD2    H113693   0.346   2.940  12.729  1.0474 -0.5254 -1.9551
  936MPD2    H213694   0.135   2.616  12.563  0.4017  1.6239 -0.9986
  936MPD2    H313695   0.200   2.862  12.565 -0.4939 -0.6086 -0.1555
  936MPD2     N13696   0.493   2.818  12.898  0.0018 -0.3470 -0.2648
  936MPD2    H513697   0.530   2.908  12.871 -0.6152  0.6311  2.1427
  936MPD2    N113698   0.249   2.433  12.732 -0.0887 -0.1147  0.0139
  936MPD2    H713699   0.282   2.381  12.813 -0.0487 -0.0654  0.0294
  937MPD2     C13700   2.658   2.991  11.966  0.3320 -0.3368  0.3096
  937MPD2    C113701   2.649   3.118  11.912  0.0130  0.0011  0.4196
  937MPD2    C213702   2.747   3.162  11.835  0.4789 -1.0192 -0.1464
  937MPD2    C313703   2.843   3.076  11.795  0.5548  0.1785 -0.2094
  937MPD2    C413704   2.860   2.952  11.856 -0.4728 -0.0705 -0.4790
  937MPD2    C513705   2.765   2.905  11.946 -0.4254 -0.1180  0.6380
  937MPD2     H13706   2.742   3.263  11.797 -3.2116 -1.5795 -1.1461
  937MPD2    H113707   2.939   2.886  11.821 -0.4545 -1.4340  2.1487
  937MPD2    H213708   2.566   2.948  12.004  0.5737  0.9176  2.3328
  937MPD2    H313709   2.745   2.805  11.983 -1.2036 -0.2351 -0.1223
  937MPD2     N13710   2.943   3.130  11.711  0.1820 -0.2985  0.2039
  937MPD2    H513711   2.921   3.223  11.677 -0.6999  0.5200  2.9947
  937MPD2    N113712   2.564   3.219  11.968  0.0703 -0.0811 -0.5563
  937MPD2    H713713   2.582   3.313  11.936  0.5198 -0.0410 -0.1881
  938MPD2     C13714   0.021   4.517   0.731  0.6005  0.0188 -0.1775
  938MPD2    C113715   0.070   4.625   0.805  0.8694 -0.9107  0.4759
  938MPD2    C213716   0.114   4.602   0.937  0.3988 -0.7983 -0.1180
  938MPD2    C313717   0.094   4.481   1.003  0.5380  0.4177 -0.0982
  938MPD2    C413718   0.044   4.373   0.926  0.6054  0.4160  0.6507
  938MPD2    C513719   0.012   4.398   0.796 -0.1895  0.7284  0.1388
  938MPD2     H13720   0.150   4.685   0.996 -1.7384 -0.5346  0.8171
  938MPD2    H113721   0.019   4.276   0.967  1.4280 -0.2203 -0.3843
  938MPD2    H213722   0.008   4.525   0.624  1.0951  0.1385 -0.2310
  938MPD2    H313723   4.694   4.313   0.743  0.5344  1.2578 -1.2470
  938MPD2     N13724   0.114   4.456   1.145  0.0070  0.2210 -0.2042
  938MPD2    H513725   0.099   4.360   1.174  2.3532 -0.7773 -2.3624
  938MPD2    N113726   0.094   0.031   0.754 -0.0429  0.0631  0.2664
  938MPD2    H713727   0.145   0.097   0.813 -1.3408  2.1228 -0.9065
  939MPD2     C13728   1.163   0.971   1.168 -0.3758 -0.4268  0.0323
  939MPD2    C113729   1.135   1.087   1.110 -0.2644  0.1157 -0.5650
  939MPD2    C213730   1.226   1.143   1.019 -0.2551  0.6728  0.0349
  939MPD2    C313731   1.355   1.094   0.999  0.2040  0.2528  0.2032
  939MPD2    C413732   1.379   0.968   1.058  0.4286  0.2674  0.5781
  939MPD2    C513733   1.283   0.909   1.132  0.2408  0.5445 -0.0190
  939MPD2     H13734   1.201   1.236   0.969 -1.7265  0.5930  0.5921
  939MPD2    H113735   1.475   0.918   1.053  1.6440  2.4504  2.3105
  939MPD2    H213736   1.097   0.913   1.233 -1.8739 -1.1894 -2.1740
  939MPD2    H313737   1.297   0.806   1.162  4.4519  0.7418 -1.2462
  939MPD2     N13738   1.445   1.162   0.912  0.4547  0.0894 -0.0817
  939MPD2    H513739   1.419   1.252   0.874 -1.8907  1.0782  3.8778
  939MPD2    N113740   1.006   1.145   1.139  0.0890  0.5451  0.0517
  939MPD2    H713741   0.940   1.090   1.194  0.5955 -1.5897 -1.4528
  940MPD2     C13742   1.020   1.983  13.365 -0.2805  0.1300 -0.0953
  940MPD2    C113743   0.976   1.855  13.383  0.2243 -0.4829  0.1950
  940MPD2    C213744   1.027   1.750  13.308  0.3597  0.0139  0.0052
  940MPD2    C313745   1.121   1.779  13.209 -0.8903 -1.0834  0.3505
  940MPD2    C413746   1.158   1.905  13.191 -0.5823 -1.2137 -0.1823
  940MPD2    C513747   1.112   2.005  13.268  0.1363  0.0139 -0.5841
  940MPD2     H13748   0.987   1.650  13.317 -0.2239  0.3475  1.0889
  940MPD2    H113749   1.234   1.928  13.117 -0.9640  1.4469  0.2667
  940MPD2    H213750   0.974   2.065  13.419 -0.0353 -0.0335  0.3570
  940MPD2    H313751   1.152   2.104  13.248 -0.4686  0.6748  1.4822
  940MPD2     N13752   1.165   1.684  13.117 -0.1112  0.0643  0.2005
  940MPD2    H513753   1.231   1.718  13.048  1.2321 -1.8820  0.5205
  940MPD2    N113754   0.882   1.816  13.481  0.2811 -0.4061  0.6566
  940MPD2    H713755   0.865   1.718  13.502 -0.4061 -0.7606 -1.6214
  941MPD2     C13756   0.333   0.182   9.321 -0.1821 -0.0109 -0.4379
  941MPD2    C113757   0.351   0.158   9.455  0.0596 -0.0334  0.2509
  941MPD2    C213758   0.325   0.026   9.493  0.0461  0.2010  0.3247
  941MPD2    C313759   0.274   4.647   9.407 -0.5682 -0.7203  0.0743
  941MPD2    C413760   0.252   4.680   9.274  0.5510 -0.5006 -0.7479
  941MPD2    C513761   0.277   0.084   9.234 -0.0126 -0.2889  0.5315
  941MPD2     H13762   0.335   4.717   9.597  0.8369  0.7417  0.4065
  941MPD2    H113763   0.195   4.616   9.208 -0.4613 -0.2322 -0.1318
  941MPD2    H213764   0.375   0.271   9.276  0.3338 -0.5382 -0.9915
  941MPD2    H313765   0.250   0.117   9.134 -2.0127  1.9346  1.7872
  941MPD2     N13766   0.240   4.515   9.455 -0.2654 -0.5728  0.1987
  941MPD2    H513767   0.175   4.465   9.395  1.1055 -0.8654 -1.0317
  941MPD2    N113768   0.415   0.245   9.544 -0.2512  0.2968 -0.3441
  941MPD2    H713769   0.425   0.217   9.641 -0.0358  1.0505 -0.1474
  942MPD2     C13770   1.211   2.369   8.816  0.1931 -0.5325 -0.1226
  942MPD2    C113771   1.300   2.278   8.761 -0.2523 -0.2584 -0.3478
  942MPD2    C213772   1.369   2.188   8.841  0.4568 -0.7670  0.2024
  942MPD2    C313773   1.357   2.194   8.980  0.3748  0.0281 -0.2554
  942MPD2    C413774   1.261   2.277   9.034  0.6874  0.1218  0.7255
  942MPD2    C513775   1.192   2.361   8.956  0.4609  0.2745  0.6274
  942MPD2     H13776   1.428   2.108   8.797  0.9038 -0.1629 -0.2999
  942MPD2    H113777   1.239   2.279   9.140  1.0069 -2.4187  0.8380
  942MPD2    H213778   1.162   2.443   8.754  1.1812 -0.5198 -0.8873
  942MPD2    H313779   1.128   2.435   9.001 -0.5765 -1.8952  2.6936
  942MPD2     N13780   1.422   2.112   9.079  0.2508  0.4517 -0.1346
  942MPD2    H513781   1.382   2.120   9.172 -0.8096  1.8617 -0.7045
  942MPD2    N113782   1.331   2.262   8.622 -0.0560  0.5104  0.3202
  942MPD2    H713783   1.392   2.186   8.596  0.0859 -0.2874  2.9148
  943MPD2     C13784   2.861   0.222   9.717 -0.1788 -0.0413 -0.6462
  943MPD2    C113785   2.971   0.301   9.711 -0.2032  0.1303 -0.1513
  943MPD2    C213786   2.963   0.416   9.635 -0.3791  0.0325 -0.4473
  943MPD2    C313787   2.850   0.455   9.565 -0.7226  0.2560  0.2933
  943MPD2    C413788   2.743   0.373   9.578  0.1751 -0.0700  0.0388
  943MPD2    C513789   2.750   0.259   9.655 -0.0622  0.1857  0.4052
  943MPD2     H13790   3.057   0.467   9.614 -0.1639  0.1666  0.8551
  943MPD2    H113791   2.646   0.397   9.537 -0.6783  0.3660  2.3426
  943MPD2    H213792   2.848   0.143   9.790 -0.7858  1.2367  0.6180
  943MPD2    H313793   2.660   0.205   9.683 -0.0752 -0.1441 -0.2568
  943MPD2     N13794   2.835   0.574   9.498 -0.4064 -0.4873  0.3785
  943MPD2    H513795   2.747   0.587   9.449 -0.4761  0.9497  0.9026
  943MPD2    N113796   3.082   0.262   9.797 -0.3328  0.1080  0.2058
  943MPD2    H713797   3.079   0.170   9.839  1.4123  0.4514  1.0819
  944MPD2     C13798   3.345   3.955  11.469 -0.7487  0.0919 -0.5414
  944MPD2    C113799   3.307   4.040  11.373 -0.3008  0.2147  0.1590
  944MPD2    C213800   3.266   4.164  11.415 -0.2628  0.1165 -0.0593
  944MPD2    C313801   3.269   4.200  11.546  0.4101  0.2050 -0.2003
  944MPD2    C413802   3.321   4.116  11.638 -0.1984 -0.3906  0.5359
  944MPD2    C513803   3.346   3.985  11.603 -0.3525  0.1979 -0.1503
  944MPD2     H13804   3.233   4.234  11.340 -2.7669  2.7532  3.5294
  944MPD2    H113805   3.323   4.138  11.744  0.3908  0.8416  0.2668
  944MPD2    H213806   3.376   3.860  11.427  0.4339  1.1497 -2.0722
  944MPD2    H313807   3.395   3.923  11.678  0.5475  1.8177  0.5878
  944MPD2     N13808   3.233   4.332  11.571  0.4308  0.2784 -0.0291
  944MPD2    H513809   3.224   4.389  11.488 -2.5188 -0.5944 -0.3111
  944MPD2    N113810   3.301   4.005  11.234 -0.3039 -0.1138 -0.1866
  944MPD2    H713811   3.324   3.907  11.220 -0.4073 -0.3077  0.9989
    1TCq1    O113812   0.515   0.918  15.442  0.3023 -0.1634 -0.1072
    1TCq1    C113813   0.452   0.966  15.330  0.3721  0.3106 -0.2609
    1TCq1    O213814   0.358   1.043  15.321  0.2103  0.1267 -0.2427
    1TCq1    C213815   0.546   0.947  15.219 -0.3121 -0.1272 -0.6316
    1TCq1    C313816   0.503   0.933  15.089 -0.3455  0.6814 -0.1957
    1TCq1    C413817   0.599   0.950  14.989  0.5596 -0.4096 -0.2199
    1TCq1    C513818   0.732   0.972  15.014  0.8025  0.3162  0.2348
    1TCq1    C613819   0.764   0.996  15.146  0.4451 -0.4359 -0.4432
    1TCq1    C713820   0.671   0.990  15.246  0.2874 -0.4393  0.8069
    1TCq1    C813821   0.875   1.078  15.177 -0.5867 -0.1361  0.3809
    1TCq1    O413822   0.903   1.094  15.295 -0.2350 -0.3988  0.3456
    1TCq1    C913823   0.556   0.945  14.856  0.5066 -0.0308  0.2116
    1TCq1    O513824   0.431   0.945  14.831 -0.3971 -0.1455  0.3271
    1TCq1    O613825   0.644   0.957  14.766  0.0994 -0.3694 -0.1582
    1TCq1    H113826   0.581   0.855  15.407 -0.0325 -1.6694  2.0232
    1TCq1    H213827   0.400   0.908  15.069  0.3259 -0.3751 -2.3009
    1TCq1    H313828   0.795   0.996  14.928  1.9188  0.8000  1.1880
    1TCq1    H413829   0.703   1.019  15.345 -0.5496  0.2319  0.8696
    2MPD2     C13830   1.214   1.448  15.061 -0.4466  1.2768 -0.1979
    2MPD2    C113831   1.148   1.413  14.946 -0.6609  0.1514  0.0380
    2MPD2    C213832   1.050   1.316  14.956  0.0575 -0.2279 -0.1711
    2MPD2    C313833   1.028   1.241  15.067 -0.0981  0.7952 -0.6263
    2MPD2    C413834   1.112   1.267  15.175  0.5343 -0.4037 -0.3554
    2MPD2    C513835   1.195   1.375  15.171  0.0390 -0.4519 -0.4282
    2MPD2     H13836   0.980   1.307  14.873 -0.0682 -1.1805  0.0406
    2MPD2    H113837   1.119   1.205  15.264  0.4321  0.3699  0.1882
    2MPD2    H213838   1.291   1.523  15.050  0.1432  0.3304 -2.5012
    2MPD2    H313839   1.249   1.396  15.262 -0.4794  3.2215 -0.9380
    2MPD2     N13840   0.924   1.147  15.066 -0.1432 -0.8517 -0.6630
    2MPD2    H513841   0.876   1.130  14.979  1.9678 -0.6887 -1.8422
    2MPD2    N113842   1.166   1.482  14.823  0.3486 -0.4290  0.5754
    2MPD2    H713843   1.239   1.552  14.823  0.0719 -0.1374  0.2126
    3TMC2    C113844   1.155   1.558  14.591  0.1060  0.4106 -0.2021
    3TMC2    C213845   1.202   1.684  14.626  0.1538  0.5875 -0.2312
    3TMC2    C313846   1.263   1.754  14.523 -0.1707 -0.2123 -0.2601
    3TMC2    C413847   1.138   1.518  14.461 -0.6923 -0.9179 -0.2884
    3TMC2    C513848   1.189   1.604  14.367 -0.7254  0.0447 -1.0395
    3TMC2    C613849   1.258   1.717  14.393  0.2173  0.2326  0.1690
    3TMC2     C13850   1.113   1.462  14.695 -0.1340  0.0755  0.2829
    3TMC2     O13851   1.036   1.376  14.653 -0.6148 -0.0955 -0.4528
    3TMC2     H13852   1.200   1.725  14.727  0.8747 -1.6169  0.6715
    3TMC2    H113853   1.114   1.416  14.432 -1.4961 -0.4269 -1.3455
    3TMC2    H213854   1.291   1.790  14.321  2.8540 -1.9525 -0.8400
    3TMC2    C713855   1.146   1.578  14.226 -0.0234 -0.2828  0.5009
    3TMC2    C813856   1.351   1.865  14.557 -0.1568 -0.7603 -0.2730
    3TMC2    O113857   1.138   1.458  14.192  0.7682 -0.0291 -0.5673
    3TMC2    O213858   1.368   1.955  14.478  0.0323 -0.5614  0.4953
    3TMC2    O513859   1.437   1.833  14.656 -0.6117 -0.1494  0.2128
    3TMC2    H513860   1.420   1.743  14.692  0.4940 -0.6514 -0.5314
    4MPD2     C13861   0.359   2.446  13.368 -0.2662 -0.1293 -0.1063
    4MPD2    C113862   0.381   2.317  13.398 -0.1426  0.1072 -0.2134
    4MPD2    C213863   0.505   2.279  13.439 -0.2480  0.6619 -0.1057
    4MPD2    C313864   0.607   2.369  13.456 -0.3182 -0.0305  0.7462
    4MPD2    C413865   0.586   2.498  13.427 -0.0901 -0.1255  0.1049
    4MPD2    C513866   0.460   2.531  13.383  0.0537 -0.5349 -0.3471
    4MPD2     H13867   0.526   2.174  13.459  1.3197  0.6092 -2.0185
    4MPD2    H113868   0.657   2.577  13.445 -0.9439  0.0292  2.7548
    4MPD2    H213869   0.259   2.480  13.343 -0.6261 -0.6070  0.6823
    4MPD2    H313870   0.449   2.639  13.377 -1.7279 -0.8888 -3.4063
    4MPD2     N13871   0.739   2.320  13.490  0.4468  0.5943 -0.0552
    4MPD2    H513872   0.749   2.219  13.500 -2.3361  0.1781 -1.5459
    4MPD2    N113873   0.266   2.228  13.386 -0.4888  0.0530  0.4744
    4MPD2    H713874   0.180   2.277  13.364 -1.1681 -1.0324  0.7174
    5TCq2    C113875   0.855   2.388  13.488 -0.4924  0.0749 -0.1067
    5TCq2    O213876   0.879   2.510  13.474  0.0875  0.3780  0.1052
    5TCq2    C213877   0.969   2.312  13.544 -0.3934 -0.3590 -0.8382
    5TCq2    C313878   1.092   2.333  13.483  0.6113  0.3804  0.2510
    5TCq2    C413879   1.200   2.258  13.514  0.0653 -0.4078  0.3031
    5TCq2    C513880   1.189   2.181  13.628 -0.3356 -0.6424  1.0603
    5TCq2    C613881   1.064   2.167  13.685 -0.3860 -0.8495  0.6433
    5TCq2    C713882   0.953   2.240  13.653  0.8539 -0.0442 -0.0944
    5TCq2    C813883   1.046   2.057  13.780 -0.2013 -0.7292  0.1454
    5TCq2    O413884   0.961   2.061  13.865  0.1293  0.3547 -0.0402
    5TCq2    C913885   1.323   2.268  13.452  0.2955 -1.0090 -0.8087
    5TCq2    O513886   1.405   2.171  13.470  0.1349  0.0130 -0.0904
    5TCq2    O613887   1.359   2.378  13.412  0.1679 -0.2096 -0.0244
    5TCq2    H213888   1.095   2.394  13.393 -1.0625 -0.9514 -0.7130
    5TCq2    H313889   1.279   2.138  13.669 -0.8819 -1.1098  1.7773
    5TCq2    H413890   0.854   2.222  13.693  1.2232  1.8174  1.6569
    6MPD1     C13891   4.689   3.582  12.566  0.7548  0.5440  0.2650
    6MPD1    C113892   4.601   3.586  12.670  0.0226  0.0777  0.4617
    6MPD1    C213893   4.585   3.468  12.746  0.1871 -0.0927 -0.7242
    6MPD1    C313894   4.657   3.356  12.718  0.0120 -0.6664 -0.2807
    6MPD1    C413895   0.023   3.354  12.606  0.6101  0.2445  0.6477
    6MPD1    C513896   0.036   3.472  12.530 -0.2069 -0.1234 -0.5366
    6MPD1     H13897   4.517   3.469  12.830 -0.9283  1.2775 -1.6469
    6MPD1    H113898   0.081   3.267  12.578  1.3591 -0.5032  4.4536
    6MPD1    H213899   4.709   3.674  12.514 -0.4790  0.1376 -0.9134
    6MPD1    H313900   0.101   3.477  12.443 -1.5719 -0.3409 -1.5674
    6MPD1     N13901   4.659   3.234  12.790  0.3735  0.0784  0.1971
    6MPD1    H513902   4.718   3.160  12.755 -1.0262 -0.0749 -1.8180
    6MPD1    N113903   4.552   3.708  12.720  0.4195 -0.2012  0.5070
    6MPD1    H613904   4.544   3.783  12.652  3.4956  0.4303  0.8334
    6MPD1    H713905   4.468   3.700  12.777  0.5910 -0.1914  0.7637
    7MPD2     C13906   4.316   2.667  13.278  0.2865  0.1047 -0.2261
    7MPD2    C113907   4.449   2.646  13.294  0.0411 -1.0033  0.5729
    7MPD2    C213908   4.502   2.523  13.337  0.3021 -0.0390 -0.1755
    7MPD2    C313909   4.416   2.421  13.369  0.0741 -0.2895 -0.1038
    7MPD2    C413910   4.279   2.444  13.351  0.5230 -0.1502  0.9009
    7MPD2    C513911   4.235   2.562  13.315 -0.5987 -0.2679  0.0957
    7MPD2     H13912   4.609   2.517  13.347  0.3461  2.0966  0.5002
    7MPD2    H113913   4.202   2.369  13.366  0.5163 -0.1541  0.8483
    7MPD2    H213914   4.272   2.756  13.236  0.7636  0.7331  0.5956
    7MPD2    H313915   4.128   2.580  13.308 -0.4952 -0.2537 -1.3276
    7MPD2     N13916   4.468   2.291  13.411  0.1934  0.2649  0.0300
    7MPD2    H513917   4.397   2.221  13.431  0.0684 -0.0224 -1.4548
    7MPD2    N113918   4.534   2.740  13.263 -0.0685  0.8064  0.5899
    7MPD2    H713919   4.631   2.709  13.268 -0.4630 -0.8753 -2.8504
    8TMC3    C113920   4.641   2.132  13.424 -0.3266  0.3727  0.0832
    8TMC3    C213921   0.046   2.118  13.473  0.1661  0.2017 -0.0188
    8TMC3    C313922   0.133   2.054  13.395 -0.4141 -0.3735  0.7457
    8TMC3    C413923   4.596   2.075  13.308  0.2244  0.9698 -0.3105
    8TMC3    C513924   4.694   2.034  13.221  0.1053 -0.4912 -0.3331
    8TMC3    C613925   0.101   2.017  13.265  0.6295 -0.3992 -0.2263
    8TMC3     C13926   4.599   2.267  13.433  0.1500  0.4742 -0.2204
    8TMC3     O13927   4.690   2.348  13.461 -0.5010  0.2708 -0.1455
    8TMC3     H13928   0.073   2.173  13.563 -1.5694 -0.6944  1.0576
    8TMC3    H113929   4.492   2.088  13.281 -0.2142  1.3145  1.5527
    8TMC3    H213930   0.184   1.990  13.202 -0.6260 -0.3846 -1.8870
    8TMC3    C713931   4.700   2.125  13.113 -0.0580 -0.1117  0.0236
    8TMC3    C813932   0.269   2.094  13.387  0.0469 -0.2641 -0.1551
    8TMC3    O113933   0.093   2.167  13.095 -0.1915  0.8299  0.4480
    8TMC3    O213934   0.363   2.019  13.406  0.6047 -0.5282  0.6245
    9TMC3    C113935   4.631   3.070  12.979 -0.4795 -0.2474 -1.3106
    9TMC3    C213936   4.694   2.978  12.903  0.2301 -0.4643  0.1472
    9TMC3    C313937   0.014   2.861  12.963  0.4648  0.3269  0.0858
    9TMC3    C413938   4.589   3.046  13.105 -0.2448  0.4281  0.2603
    9TMC3    C513939   4.634   2.934  13.169  0.8377  0.1109  0.2241
    9TMC3    C613940   4.715   2.846  13.098  0.2227  0.2804  0.2702
    9TMC3     C13941   4.603   3.211  12.915  0.3769 -0.3926  0.4695
    9TMC3     O13942   4.525   3.280  12.982 -0.4956 -0.3936  0.0053
    9TMC3     H13943   4.708   2.992  12.796 -0.1595  3.2858  0.6018
    9TMC3    H113944   4.530   3.118  13.161  1.0478  1.5084  0.2333
    9TMC3    H213945   0.043   2.766  13.151 -2.2178 -1.5317 -0.1881
    9TMC3    C713946   4.511   2.870  13.220 -0.1508  0.0979 -0.5033
    9TMC3    C813947   4.685   2.743  12.888  0.2775  0.8074  0.1954
    9TMC3    O113948   4.416   2.941  13.235  0.1484  0.2157  0.3354
    9TMC3    O213949   4.615   2.771  12.791 -0.2297  0.0127  0.5055
   10MPD2     C13950   4.451   2.290  12.906 -0.8405  0.0282  0.5262
   10MPD2    C113951   4.563   2.280  12.982  0.4256  0.1609 -0.1683
   10MPD2    C213952   4.638   2.394  12.993  0.0029 -0.3147 -0.4873
   10MPD2    C313953   4.612   2.512  12.927 -0.1818 -0.1549  1.1336
   10MPD2    C413954   4.505   2.508  12.841  0.2412 -0.3272 -0.4669
   10MPD2    C513955   4.425   2.398  12.827 -0.6405  0.1327  0.1458
   10MPD2     H13956   4.715   2.387  13.070 -0.3318 -2.0254 -0.3178
   10MPD2    H113957   4.483   2.600  12.789  2.0392  0.0942 -0.4757
   10MPD2    H213958   4.377   2.211  12.904 -0.8443  0.1097 -2.0583
   10MPD2    H313959   4.335   2.400  12.766 -0.5655  0.1318  0.0351
   10MPD2     N13960   4.700   2.622  12.953 -0.0896 -0.3644  0.0985
   10MPD2    H513961   0.050   2.613  13.024 -0.7654  1.2791  1.0045
   10MPD2    N113962   4.581   2.166  13.060 -0.3118 -0.1560 -0.1804
   10MPD2    H713963   4.495   2.113  13.065  0.7272 -1.5617  2.8900
   11MPD2     C13964   1.208   1.601  13.943  0.2779 -0.9100  0.1272
   11MPD2    C113965   1.156   1.700  14.013 -0.3610 -0.2115  0.5749
   11MPD2    C213966   1.120   1.818  13.944 -0.2601  0.1866  0.5582
   11MPD2    C313967   1.141   1.823  13.805 -0.3709 -0.6465  0.3968
   11MPD2    C413968   1.212   1.719  13.738  0.1026 -0.2723 -0.2646
   11MPD2    C513969   1.229   1.604  13.806 -0.8414 -0.4942 -0.3904
   11MPD2     H13970   1.082   1.902  14.001  1.7542 -0.2852  2.5846
   11MPD2    H113971   1.223   1.710  13.631 -0.6197  0.3219 -0.3851
   11MPD2    H213972   1.252   1.517  13.995  1.3548 -1.5850 -1.8689
   11MPD2    H313973   1.256   1.513  13.753 -0.2776  0.1560 -1.2285
   11MPD2     N13974   1.118   1.948  13.737 -0.0744 -0.1109 -0.3758
   11MPD2    H513975   1.170   1.955  13.650  3.6742  1.9571  2.0480
   11MPD2    N113976   1.151   1.695  14.151  0.1230 -0.2949 -1.0010
   11MPD2    H713977   1.105   1.778  14.189 -2.1922 -1.9399 -0.1985
    1MPD1     C13978   2.570   3.789  17.275 -0.4677  0.7032 -0.5994
    1MPD1    C113979   2.656   3.720  17.361 -0.0206  0.1276  0.2143
    1MPD1    C213980   2.780   3.685  17.317 -0.2205  0.0334  0.0927
    1MPD1    C313981   2.825   3.722  17.186 -0.3428 -0.0887  0.5241
    1MPD1    C413982   2.734   3.787  17.105 -0.9084 -0.2080  0.1498
    1MPD1    C513983   2.607   3.820  17.150  0.4118  0.4437  0.8111
    1MPD1     H13984   2.849   3.635  17.384 -0.1336  3.9682  2.9843
    1MPD1    H113985   2.763   3.815  17.005  0.4201  1.5525  1.0339
    1MPD1    H213986   2.464   3.807  17.293 -0.5419  0.1456 -0.4741
    1MPD1    H313987   2.543   3.882  17.088  1.8555  1.1624  0.0475
    1MPD1     N13988   2.948   3.684  17.120 -0.0960  0.0239  0.3953
    1MPD1    H513989   2.947   3.710  17.022  0.1634 -0.6055  0.2220
    1MPD1    N113990   2.606   3.666  17.476  0.5826 -0.0055  0.3003
    1MPD1    H613991   2.668   3.662  17.557  0.0406 -1.7184  0.6260
    1MPD1    H713992   2.521   3.713  17.507  0.6296 -0.3099  0.8889
    2MPD1     C13993   3.779   3.336  17.503 -0.3490 -0.7011  0.6964
    2MPD1    C113994   3.742   3.467  17.523 -0.2923 -0.6523 -0.4395
    2MPD1    C213995   3.657   3.523  17.428 -0.5690  0.7245 -0.0562
    2MPD1    C313996   3.607   3.454  17.317  0.0270 -0.1945 -0.5322
    2MPD1    C413997   3.631   3.319  17.313  0.5880 -0.2246 -0.1440
    2MPD1    C513998   3.723   3.264  17.400  0.3597 -0.1188 -0.1708
    2MPD1     H13999   3.624   3.624  17.449 -0.2985  1.0423 -1.1788
    2MPD1    H114000   3.594   3.249  17.239 -0.3768 -0.7535  0.8333
    2MPD1    H214001   3.834   3.280  17.577 -1.5769 -1.4921  1.0038
    2MPD1    H314002   3.755   3.161  17.387  1.0336  0.1001 -0.2791
    2MPD1     N14003   3.516   3.511  17.227  0.2782 -0.4605  0.6019
    2MPD1    H514004   3.481   3.602  17.251  1.6620  1.0652 -3.1558
    2MPD1    N114005   3.792   3.524  17.636  0.6171 -0.2526 -0.7082
    2MPD1    H614006   3.859   3.473   0.004 -0.8968 -0.9625  0.4212
    2MPD1    H714007   3.827   3.617  17.614  1.7047 -0.5881 -0.3990
    3TMC3    C114008   3.382   3.534  17.042  0.0082  0.1689  1.2109
    3TMC3    C214009   3.367   3.527  16.902  0.9352 -0.1608  0.2398
    3TMC3    C314010   3.237   3.550  16.859  0.1083 -0.2067  0.4560
    3TMC3    C414011   3.276   3.553  17.127  0.5476 -0.2005 -0.2197
    3TMC3    C514012   3.153   3.570  17.072  0.8946  0.2978 -0.3270
    3TMC3    C614013   3.128   3.569  16.937 -0.8404  0.6939  0.1055
    3TMC3     C14014   3.499   3.468  17.094  0.4588  0.5003  0.7816
    3TMC3     O14015   3.562   3.392  17.022 -0.2136 -0.3902 -0.1943
    3TMC3     H14016   3.451   3.518  16.835  0.8192 -1.2898  0.2590
    3TMC3    H114017   3.294   3.569  17.232 -0.0604  1.7515 -0.4026
    3TMC3    H214018   3.027   3.569  16.898  0.0704  0.1612 -2.3056
    3TMC3    C714019   3.046   3.603  17.168 -0.0130 -0.3975 -0.3672
    3TMC3    C814020   3.221   3.546  16.712 -0.2790 -1.0032 -0.8577
    3TMC3    O114021   3.056   3.567  17.284  0.3766  0.0125  0.4252
    3TMC3    O214022   3.318   3.580  16.643 -0.5844 -0.0008 -0.4589
    4MPD1     C14023   3.042   3.316  16.300  0.3541 -0.1572 -0.2823
    4MPD1    C114024   3.031   3.232  16.408  0.3265 -0.3646 -0.4758
    4MPD1    C214025   3.049   3.279  16.533  0.5718  0.0216  0.0377
    4MPD1    C314026   3.099   3.412  16.552 -0.0134  0.4552 -0.7032
    4MPD1    C414027   3.128   3.488  16.441 -0.2377  0.2974  0.0558
    4MPD1    C514028   3.092   3.437  16.321  0.5270 -0.3184  0.2784
    4MPD1     H14029   3.023   3.222  16.622  0.3790 -0.7596 -0.5168
    4MPD1    H114030   3.183   3.582  16.445 -0.4863  0.4968 -1.4014
    4MPD1    H214031   3.012   3.284  16.201  2.4641 -0.7714 -0.7390
    4MPD1    H314032   3.108   3.493  16.229  2.0195  0.3623  0.9415
    4MPD1     N14033   3.128   3.448  16.685 -0.6803  0.0042 -0.1051
    4MPD1    H514034   3.096   3.386  16.758  2.3383  1.6231  2.5949
    4MPD1    N114035   2.979   3.108  16.387  0.3690  0.1710  1.1613
    4MPD1    H614036   3.004   3.037  16.455 -0.1267 -1.6476 -0.5443
    4MPD1    H714037   3.009   3.078  16.294 -0.5712 -0.1052  0.9516
    1TCq1    O114038   3.811   3.559   9.495 -0.0220  0.1885 -0.0652
    1TCq1    C114039   3.780   3.668   9.568  0.0832  0.3002  0.1461
    1TCq1    O214040   3.701   3.753   9.532 -0.2616  0.3706 -0.4402
    1TCq1    C214041   3.907   3.729   9.611  0.0157 -0.5299 -0.1489
    1TCq1    C314042   4.026   3.699   9.545 -0.5849  0.7559 -0.5157
    1TCq1    C414043   4.132   3.766   9.565  0.2401  0.1951 -0.6391
    1TCq1    C514044   4.123   3.881   9.640  0.0826 -0.2693 -0.5741
    1TCq1    C614045   4.009   3.908   9.704  0.3242  0.2238 -0.0126
    1TCq1    C714046   3.896   3.827   9.699 -0.0235  0.5009  0.1175
    1TCq1    C814047   4.000   4.027   9.782  0.8513 -0.4560  0.2380
    1TCq1    O414048   3.918   4.024   9.872 -0.0489  0.0690 -0.6181
    1TCq1    C914049   4.233   3.752   9.468  0.6125  0.0923 -0.1329
    1TCq1    O514050   4.319   3.844   9.472 -0.2524 -0.6678 -0.2412
    1TCq1    O614051   4.262   3.638   9.426 -0.0980 -0.3529 -0.9546
    1TCq1    H114052   3.892   3.530   9.542 -0.8893 -0.3959  1.0739
    1TCq1    H214053   4.026   3.635   9.457 -1.0123 -0.3140  0.2531
    1TCq1    H314054   4.207   3.949   9.636  0.3784 -0.7850 -3.1097
    1TCq1    H414055   3.801   3.858   9.742 -0.8799  0.9681 -2.1430
    2MPD1     C14056   3.990   4.543   9.777 -0.7719 -0.6837  0.0545
    2MPD1    C114057   4.064   4.496   9.666 -0.2400  0.2386 -0.6055
    2MPD1    C214058   4.088   4.356   9.660 -0.2673  0.3206  0.0790
    2MPD1    C314059   4.031   4.270   9.745  0.0650  0.4639 -0.6072
    2MPD1    C414060   3.955   4.311   9.857  0.0662 -0.5710  0.5721
    2MPD1    C514061   3.941   4.450   9.868  0.4593 -0.1830  0.4521
    2MPD1     H14062   4.152   4.322   9.579  0.3228 -1.1845  1.1839
    2MPD1    H114063   3.897   4.242   9.916 -1.9779  0.5809 -0.0953
    2MPD1    H214064   3.985   4.648   9.805  1.9958  0.0759 -2.3287
    2MPD1    H314065   3.887   4.485   9.956  0.7607  0.0085  0.5641
    2MPD1     N14066   4.057   4.132   9.717 -0.1466 -0.3182  0.0917
    2MPD1    H514067   4.101   4.106   9.629 -0.5895 -2.1646  0.4269
    2MPD1    N114068   4.119   4.594   9.574  0.1521  0.1170 -0.0563
    2MPD1    H614069   4.154   4.558   9.485  0.3100  1.3540 -0.5038
    2MPD1    H714070   4.176   4.674   9.601 -1.5766  1.5178 -0.5049
    1TCq1    O114071   1.350   0.685   0.184 -0.0095 -0.2636  0.2211
    1TCq1    C114072   1.454   0.622   0.127  0.0766  0.5634 -0.8135
    1TCq1    O214073   1.440   0.542   0.038 -0.2536 -0.0879  0.3206
    1TCq1    C214074   1.560   0.601   0.231 -0.2026  0.2242 -0.4294
    1TCq1    C314075   1.657   0.512   0.202 -0.6744 -0.2135 -0.3559
    1TCq1    C414076   1.738   0.461   0.299  0.7221 -0.2982 -0.2461
    1TCq1    C514077   1.693   0.471   0.428 -0.3715  0.1023  0.2419
    1TCq1    C614078   1.594   0.563   0.460  0.4939 -0.1207  0.1144
    1TCq1    C714079   1.541   0.638   0.358 -0.4862 -0.0130  0.1578
    1TCq1    C814080   1.532   0.564   0.597  0.2798 -0.6357  0.1870
    1TCq1    O414081   1.442   0.647   0.609 -0.5387  0.3380  0.6518
    1TCq1    C914082   1.821   0.349   0.268 -0.1931 -1.3556  0.1619
    1TCq1    O514083   1.869   0.331   0.149 -0.0406  0.1985 -0.7621
    1TCq1    O614084   1.872   0.294   0.367  0.2257 -1.3896  0.4788
    1TCq1    H114085   1.370   0.749   0.255 -0.6110 -1.8877  1.8730
    1TCq1    H214086   1.661   0.460   0.107 -0.3864  1.9182 -1.4933
    1TCq1    H314087   1.751   0.427   0.508 -0.1472 -0.4213 -0.2122
    1TCq1    H414088   1.465   0.709   0.386 -0.1720  0.2023  0.4730
    2MPD1     C14089   1.472   0.315   1.040  0.1706 -0.3178 -0.5101
    2MPD1    C114090   1.525   0.229   0.945  0.4178 -0.1367 -0.5115
    2MPD1    C214091   1.554   0.279   0.823 -0.1736  0.7633  0.2186
    2MPD1    C314092   1.520   0.410   0.792 -0.1642  0.2177  0.3677
    2MPD1    C414093   1.453   0.490   0.879 -0.7780  0.2233  0.4007
    2MPD1    C514094   1.430   0.433   0.997 -0.2935  0.3520  0.3431
    2MPD1     H14095   1.594   0.207   0.753  1.3568  2.3088 -0.4651
    2MPD1    H114096   1.440   0.597   0.866  0.2851  0.2694 -0.2564
    2MPD1    H214097   1.469   0.287   1.144 -0.0039  1.6947  0.0155
    2MPD1    H314098   1.397   0.500   1.076 -0.4608  1.9397 -1.0643
    2MPD1     N14099   1.561   0.451   0.662 -0.3020  0.1757 -0.7952
    2MPD1    H514100   1.620   0.389   0.608 -0.7786 -1.6847  0.8473
    2MPD1    N114101   1.577   0.101   0.978 -0.9531  0.6364  0.1156
    2MPD1    H614102   1.539   0.057   1.061 -1.5718  0.3517 -0.3209
    2MPD1    H714103   1.572   0.033   0.902  1.4651 -0.7303  1.1717
    1MPD1     C14104   1.045   2.475  12.419  0.2351 -0.5154  0.3204
    1MPD1    C114105   1.079   2.554  12.523 -0.1813 -1.1681  0.5198
    1MPD1    C214106   1.212   2.588  12.536  0.2588  0.4083 -0.3612
    1MPD1    C314107   1.295   2.566  12.428 -0.6696 -0.6932 -1.2028
    1MPD1    C414108   1.247   2.519  12.314 -0.5709  0.4007 -0.2804
    1MPD1    C514109   1.128   2.465  12.308 -0.2539 -0.0963 -0.2163
    1MPD1     H14110   1.249   2.635  12.626 -0.1611 -0.4396  0.2617
    1MPD1    H114111   1.307   2.497  12.226 -2.4103  0.9013 -1.6626
    1MPD1    H214112   0.950   2.426  12.406 -1.9399  3.5255  0.8008
    1MPD1    H314113   1.090   2.415  12.219 -0.6134  0.7866 -0.5585
    1MPD1     N14114   1.427   2.608  12.439  0.2157  0.1976  0.2200
    1MPD1    H514115   1.451   2.659  12.524 -1.1134  1.0570  0.0911
    1MPD1    N114116   0.992   2.565  12.634  0.1580  0.1129 -0.1117
    1MPD1    H614117   0.893   2.578  12.611 -0.0231 -0.7805  0.1396
    1MPD1    H714118   1.025   2.634  12.701  0.7488 -0.7777  0.5059
    2MPD1     C14119   0.816   3.281  11.540 -0.4117  0.4908  0.0309
    2MPD1    C114120   0.793   3.235  11.413 -1.1387 -0.7400 -0.4362
    2MPD1    C214121   0.892   3.168  11.333  0.7269  0.6149 -0.0914
    2MPD1    C314122   1.009   3.145  11.393  0.6060  0.2880 -0.1710
    2MPD1    C414123   1.036   3.199  11.518  0.6110  0.6153 -0.4443
    2MPD1    C514124   0.941   3.277  11.585  0.0773  0.7497  0.5459
    2MPD1     H14125   0.865   3.146  11.230  0.3947  1.3678 -0.1688
    2MPD1    H114126   1.123   3.172  11.577 -0.5386 -0.4527  0.7639
    2MPD1    H214127   0.734   3.333  11.588 -2.7005 -0.7367 -2.5476
    2MPD1    H314128   0.959   3.342  11.670  0.0168 -0.3473  1.3838
    2MPD1     N14129   1.114   3.068  11.331 -0.2876  0.2673  0.1928
    2MPD1    H514130   1.203   3.068  11.381 -0.4835 -0.4363  0.5424
    2MPD1    N114131   0.674   3.273  11.353 -0.0507  0.6881 -0.1708
    2MPD1    H614132   0.658   3.209  11.274  0.9037  0.2273  0.0166
    2MPD1    H714133   0.590   3.272  11.411  0.7717  0.5114  1.0094
    3MPD1     C14134   1.132   2.408  10.583 -0.4222  0.4506 -0.0256
    3MPD1    C114135   1.037   2.481  10.643 -0.1413 -0.7200  0.5931
    3MPD1    C214136   1.072   2.553  10.760  0.2947  0.7248 -0.1072
    3MPD1    C314137   1.206   2.573  10.792  0.2990  0.3228  0.2287
    3MPD1    C414138   1.302   2.500  10.730  0.0677  0.3522 -0.2462
    3MPD1    C514139   1.256   2.408  10.639  0.5420 -0.1848  0.2270
    3MPD1     H14140   0.992   2.600  10.815  0.8627 -1.8358  2.9064
    3MPD1    H114141   1.407   2.498  10.755 -0.2595 -0.2349  1.0380
    3MPD1    H214142   1.114   2.336  10.504 -1.7954  0.9561 -0.1836
    3MPD1    H314143   1.336   2.345  10.602  1.4164  1.9419 -1.5349
    3MPD1     N14144   1.242   2.671  10.890  0.6547 -0.2715  0.2148
    3MPD1    H514145   1.163   2.710  10.940  1.5105  1.5891  0.1179
    3MPD1    N114146   0.901   2.457  10.612  0.9970 -0.4587 -0.6140
    3MPD1    H614147   0.846   2.539  10.637 -1.3987 -1.9629 -0.9565
    3MPD1    H714148   0.882   2.428  10.516  0.5010 -1.7277 -0.1343
    4MPD2     C14149   1.666   3.274  12.349 -0.1585  0.8885 -0.3159
    4MPD2    C114150   1.769   3.180  12.327 -0.6891 -0.6961 -0.7266
    4MPD2    C214151   1.860   3.207  12.227 -0.0293  0.1883  0.2181
    4MPD2    C314152   1.852   3.322  12.151 -0.8532  0.0857 -0.1623
    4MPD2    C414153   1.757   3.421  12.179  0.2211  0.2834 -0.0499
    4MPD2    C514154   1.671   3.394  12.279 -0.0545 -0.1471  0.1980
    4MPD2     H14155   1.940   3.139  12.199 -0.6229  0.3686 -1.9395
    4MPD2    H114156   1.758   3.516  12.125 -0.5564 -0.1896 -0.8974
    4MPD2    H214157   1.587   3.253  12.421  0.9286 -1.1500  0.2934
    4MPD2    H314158   1.590   3.464  12.299  0.2319  0.0423  0.6873
    4MPD2     N14159   1.947   3.336  12.042 -0.1443 -0.1560 -0.1412
    4MPD2    H514160   2.023   3.269  12.037 -0.2921 -0.4953  1.9230
    4MPD2    N114161   1.774   3.056  12.385  0.8676  1.0740 -0.8456
    4MPD2    H714162   1.854   3.001  12.356  1.4394  0.7653  1.2511
    5TMC3    C114163   1.714   2.866  12.501  0.3325 -0.7708 -0.6290
    5TMC3    C214164   1.610   2.790  12.462  0.0226 -0.1947 -0.2263
    5TMC3    C314165   1.638   2.679  12.386  0.5064 -0.9732 -0.4804
    5TMC3    C414166   1.837   2.831  12.464  0.1556  0.2792 -0.1243
    5TMC3    C514167   1.861   2.721  12.377  0.0616 -0.0270  0.0323
    5TMC3    C614168   1.759   2.648  12.340 -0.0423  0.3837 -0.4762
    5TMC3     C14169   1.694   3.004  12.480  0.5307 -0.1664  0.1224
    5TMC3     O14170   1.600   3.052  12.542  0.5238  0.2777  0.2882
    5TMC3     H14171   1.513   2.837  12.466  0.2596  0.2708  0.0278
    5TMC3    H114172   1.926   2.871  12.511  0.0507  0.6684 -0.2538
    5TMC3    H214173   1.761   2.576  12.258  0.5449  0.7293 -0.7729
    5TMC3    C714174   1.954   2.761  12.273  0.4315  0.3937 -0.6024
    5TMC3    C814175   1.528   2.593  12.348  0.2237 -0.2048 -0.6432
    5TMC3    O114176   1.981   2.881  12.281  0.4690 -0.0134  0.1464
    5TMC3    O214177   1.551   2.523  12.247  0.1737  0.0185 -0.4930
    6TMC3    C114178   1.236   2.937  11.180  0.1547  0.0778  0.5298
    6TMC3    C214179   1.243   2.859  11.066 -0.4848 -0.0991 -0.1780
    6TMC3    C314180   1.363   2.814  11.020 -0.2766 -0.5347 -0.5148
    6TMC3    C414181   1.346   2.969  11.251 -0.9738 -0.0001  0.1999
    6TMC3    C514182   1.465   2.926  11.201 -0.4190  0.0356  0.4713
    6TMC3    C614183   1.473   2.841  11.092  0.1230 -0.7053 -0.3542
    6TMC3     C14184   1.108   2.991  11.215  0.4512 -0.7696 -0.7622
    6TMC3     O14185   1.011   2.977  11.137  0.0029 -0.2458 -0.2225
    6TMC3     H14186   1.158   2.864  10.999 -0.4975 -0.1970 -0.1684
    6TMC3    H114187   1.352   3.053  11.319 -0.7322 -0.1451  0.3582
    6TMC3    H214188   1.565   2.791  11.067 -1.3238 -2.9256 -1.2529
    6TMC3    C714189   1.585   3.003  11.237 -0.6417 -0.5038  0.1204
    6TMC3    C814190   1.369   2.712  10.921 -0.0142  0.2655  0.2669
    6TMC3    O114191   1.572   3.098  11.310  0.0465  0.9414 -0.3289
    6TMC3    O214192   1.480   2.699  10.869  0.2315 -0.3164 -0.0775
    7MPD2     C14193   2.195   2.720  11.837  0.1753  0.7308 -0.6141
    7MPD2    C114194   2.144   2.832  11.896  0.2213  0.1835 -0.8136
    7MPD2    C214195   2.070   2.819  12.010  0.5297  0.2333 -0.4245
    7MPD2    C314196   2.043   2.692  12.052 -0.3623 -0.0598  0.4344
    7MPD2    C414197   2.069   2.583  11.977 -0.1006 -0.0992 -0.0151
    7MPD2    C514198   2.151   2.598  11.871  0.0452 -0.7553  0.1760
    7MPD2     H14199   2.025   2.907  12.055  0.5697 -0.2121  0.4794
    7MPD2    H114200   2.037   2.484  12.008  0.6667 -0.0452  0.9485
    7MPD2    H214201   2.240   2.734  11.739 -2.6641 -0.1131 -2.0319
    7MPD2    H314202   2.177   2.510  11.812 -0.9453 -1.2368  0.4510
    7MPD2     N14203   1.969   2.671  12.170  0.0381 -0.3289 -0.1812
    7MPD2    H514204   1.932   2.578  12.188 -1.1278 -0.2074 -2.0047
    7MPD2    N114205   2.175   2.956  11.831 -0.1364  0.2987 -0.2015
    7MPD2    H714206   2.207   2.965  11.735  0.1898  0.0980 -0.1123
    8TMC3    C114207   2.165   3.194  11.809 -0.4928 -0.3014  0.5381
    8TMC3    C214208   2.104   3.179  11.683 -0.1170 -0.0432  0.2248
    8TMC3    C314209   2.031   3.289  11.635 -0.7266  0.7578  0.3030
    8TMC3    C414210   2.140   3.303  11.880  0.2139  0.2589  0.0004
    8TMC3    C514211   2.049   3.394  11.841  0.6873 -0.6879 -0.4420
    8TMC3    C614212   2.002   3.397  11.709 -0.0916  0.5902 -0.3319
    8TMC3     C14213   2.154   3.073  11.892 -0.1852  0.6655  0.6143
    8TMC3     O14214   2.127   3.098  12.009 -0.5738  0.0620  0.1766
    8TMC3     H14215   2.119   3.092  11.620  3.2361  0.0333  0.9094
    8TMC3    H114216   2.189   3.319  11.975 -0.0903  1.0093  0.0303
    8TMC3    H214217   1.934   3.471  11.669 -2.0535 -0.6796  0.5987
    8TMC3    C714218   1.950   3.429  11.943 -0.1039 -0.7283  0.5752
    8TMC3    C814219   1.966   3.273  11.510  0.7464  0.1702  0.0081
    8TMC3    O114220   1.863   3.507  11.912  0.4156  0.3971  0.6094
    8TMC3    O214221   1.858   3.333  11.496 -0.1592  0.1815  0.4366
    9MPD2     C14222   2.092   3.037  11.271  0.3746 -0.3721 -0.1505
    9MPD2    C114223   1.996   3.118  11.328  0.7606  0.3809  0.0629
    9MPD2    C214224   1.861   3.089  11.314 -0.2386  0.5009  0.0839
    9MPD2    C314225   1.830   2.974  11.238  0.6428  0.2243  0.5303
    9MPD2    C414226   1.924   2.886  11.200  0.2795  0.1646  0.1132
    9MPD2    C514227   2.054   2.919  11.215 -0.2953  0.0565  0.2753
    9MPD2     H14228   1.788   3.157  11.357  0.5633  1.6993 -0.4356
    9MPD2    H114229   1.905   2.799  11.139  0.6388  0.0296  0.1957
    9MPD2    H214230   2.199   3.051  11.285  0.3159  0.4655 -0.5696
    9MPD2    H314231   2.135   2.856  11.178 -1.4855 -0.5422 -1.3261
    9MPD2     N14232   1.702   2.936  11.203 -0.3169 -0.5163 -0.5550
    9MPD2    H514233   1.692   2.847  11.155  1.9280 -0.6800 -0.7307
    9MPD2    N114234   2.042   3.209  11.419  0.1214 -0.8321 -0.1020
    9MPD2    H714235   2.141   3.208  11.440 -0.0860  2.1698  1.0155
    1MPD1     C14236   2.349   1.382  16.649  0.2978  0.1866  0.5981
    1MPD1    C114237   2.441   1.445  16.725 -0.3401 -0.0059 -0.1194
    1MPD1    C214238   2.504   1.561  16.674  0.1597 -0.1335  0.2786
    1MPD1    C314239   2.434   1.625  16.570 -0.7237  0.1950 -1.4581
    1MPD1    C414240   2.346   1.551  16.496 -0.1843 -0.2147 -0.4006
    1MPD1    C514241   2.316   1.425  16.532 -0.1026  0.2066  0.2365
    1MPD1     H14242   2.580   1.607  16.736 -0.4886  0.4920  0.6172
    1MPD1    H114243   2.308   1.598  16.406 -0.3781 -1.9321 -1.2127
    1MPD1    H214244   2.332   1.279  16.679  0.4479  0.1911  0.6990
    1MPD1    H314245   2.244   1.368  16.474  1.0388 -0.9812  0.0064
    1MPD1     N14246   2.460   1.756  16.535 -0.5303 -0.1212 -0.3767
    1MPD1    H514247   2.408   1.796  16.458  0.0442 -1.2082 -1.3208
    1MPD1    N114248   2.493   1.369  16.827  0.5089 -0.7564 -0.0793
    1MPD1    H614249   2.543   1.431  16.891 -0.9604  0.0629  0.2816
    1MPD1    H714250   2.422   1.317  16.879 -1.2490  1.4918 -0.2349
    2MPD1     C14251   2.802   1.785  15.743 -0.3014  0.0332 -0.5157
    2MPD1    C114252   2.731   1.704  15.831  0.2738 -0.1274 -0.4670
    2MPD1    C214253   2.711   1.739  15.966  0.2728 -0.2601 -0.7289
    2MPD1    C314254   2.753   1.861  16.010  0.5714 -0.9099 -0.6508
    2MPD1    C414255   2.815   1.943  15.912 -0.0039  0.5300  0.1648
    2MPD1    C514256   2.851   1.902  15.787  0.9793  0.6970 -0.8001
    2MPD1     H14257   2.685   1.670  16.046 -0.2378  0.9256  0.1392
    2MPD1    H114258   2.839   2.043  15.947 -1.5588  0.2615  2.0344
    2MPD1    H214259   2.806   1.761  15.637 -2.1021  1.2063 -0.8605
    2MPD1    H314260   2.900   1.964  15.713 -0.8083  1.5200 -1.3135
    2MPD1     N14261   2.716   1.902  16.135 -0.5007 -0.1196 -0.3667
    2MPD1    H514262   2.672   1.836  16.198  1.6147  0.0934  1.3345
    2MPD1    N114263   2.676   1.588  15.783 -0.7551  0.0622  0.3074
    2MPD1    H614264   2.639   1.515  15.844 -0.5822 -1.5534 -1.5352
    2MPD1    H714265   2.742   1.550  15.716  0.6520  2.7248  0.1772
    3TCq2    C114266   2.733   2.030  16.194  0.1451 -1.0082  0.0387
    3TCq2    O214267   2.782   2.133  16.144 -0.2987  0.2100  0.2909
    3TCq2    C214268   2.691   2.041  16.333 -0.3149 -0.0857  0.7182
    3TCq2    C314269   2.686   2.161  16.393  0.8315 -0.1127  0.2463
    3TCq2    C414270   2.645   2.176  16.525  0.6000  1.5824 -0.0756
    3TCq2    C514271   2.592   2.071  16.595 -0.2140  0.4330 -0.1426
    3TCq2    C614272   2.578   1.959  16.524  0.5143 -0.2873  0.2064
    3TCq2    C714273   2.632   1.936  16.395 -0.2580  0.2913 -0.2655
    3TCq2    C814274   2.558   1.835  16.597 -0.0774  0.0467  0.2767
    3TCq2    O414275   2.616   1.825  16.709  0.1779 -0.0890  0.0139
    3TCq2    C914276   2.648   2.307  16.578  0.6934 -0.1899  0.2898
    3TCq2    O514277   2.694   2.397  16.505  0.0964  0.1193  1.0483
    3TCq2    O614278   2.578   2.332  16.678 -0.1419  0.2115  0.2952
    3TCq2    H214279   2.715   2.254  16.347  0.3133 -0.2057 -0.2770
    3TCq2    H314280   2.574   2.083  16.701 -1.3957  0.8973 -0.3938
    3TCq2    H414281   2.623   1.834  16.358 -1.1794  1.2428 -2.6766
    1TCq1    O114282   0.447   0.205  13.125 -0.1122 -0.2056 -0.2188
    1TCq1    C114283   0.491   0.330  13.085  0.3732  0.7123  0.1119
    1TCq1    O214284   0.456   0.384  12.983 -0.3900  0.0155  0.1630
    1TCq1    C214285   0.534   0.405  13.203  0.4694  0.4858 -0.3369
    1TCq1    C314286   0.571   0.342  13.321 -0.3218 -0.0740  0.1338
    1TCq1    C414287   0.550   0.397  13.445  0.3008 -0.0813 -0.5143
    1TCq1    C514288   0.502   0.524  13.453  0.3271  0.4472  0.0655
    1TCq1    C614289   0.459   0.589  13.334 -0.6694 -0.1730 -0.3330
    1TCq1    C714290   0.478   0.527  13.206 -0.1167  0.0793  0.2004
    1TCq1    C814291   0.391   0.716  13.335 -0.0414 -0.1296 -0.4213
    1TCq1    O414292   0.352   0.753  13.223  0.7675  0.0517 -0.0790
    1TCq1    C914293   0.614   0.329  13.549 -0.3328  0.1290  0.4465
    1TCq1    O514294   0.632   0.393  13.654 -0.1201  0.2028 -0.1683
    1TCq1    O614295   0.616   0.204  13.551 -0.0624 -0.1901 -0.0705
    1TCq1    H114296   0.467   0.173  13.215 -1.6500  0.3609  0.3185
    1TCq1    H214297   0.633   0.257  13.295 -0.4665 -0.0849 -0.1786
    1TCq1    H314298   0.489   0.561  13.554 -2.3271 -2.7652  0.9367
    1TCq1    H414299   0.437   0.562  13.112  2.5578 -0.1743 -1.0593
    2MPD2     C14300   0.230   0.950  13.411 -0.1912  0.0655  0.6881
    2MPD2    C114301   0.311   0.883  13.495 -0.3510 -0.2355 -0.0941
    2MPD2    C214302   0.324   0.922  13.626  0.5550 -0.6623 -0.5989
    2MPD2    C314303   0.247   1.023  13.676  0.2414 -0.0718  1.5258
    2MPD2    C414304   0.183   1.109  13.581  0.3710 -0.3650  0.3129
    2MPD2    C514305   0.166   1.061  13.453  0.2332 -0.6978  0.0232
    2MPD2     H14306   0.396   0.868  13.687  1.1822 -0.2008 -0.9306
    2MPD2    H114307   0.129   1.199  13.607  0.2066 -0.0193 -1.1952
    2MPD2    H214308   0.214   0.926  13.306  0.7213 -0.2843  0.6300
    2MPD2    H314309   0.108   1.114  13.378 -0.7029  0.6280  1.6805
    2MPD2     N14310   0.255   1.059  13.806  0.0623  0.2094 -0.2241
    2MPD2    H514311   0.313   0.996  13.859 -0.3284  1.7757  2.0400
    2MPD2    N114312   0.381   0.774  13.458 -0.3850  0.0191  0.1356
    2MPD2    H714313   0.450   0.745  13.527  0.0206  2.7696  0.8720
    3TCq1    O114314   0.077   1.354  14.404  0.3154 -0.6896  1.0719
    3TCq1    C114315   0.024   1.332  14.280 -0.0536 -1.0661 -0.6169
    3TCq1    O214316   4.656   1.393  14.218  0.0144 -0.2132 -0.0458
    3TCq1    C214317   0.101   1.233  14.215  0.0273 -0.3235 -0.0174
    3TCq1    C314318   0.175   1.142  14.286  0.0128  0.5645 -0.0900
    3TCq1    C414319   0.263   1.063  14.224 -0.6142  0.5314 -0.1002
    3TCq1    C514320   0.281   1.075  14.088 -0.6604 -0.1528  0.6083
    3TCq1    C614321   0.207   1.164  14.013 -1.0150  0.1148  0.0712
    3TCq1    C714322   0.105   1.244  14.077  0.6130 -0.8079 -1.0239
    3TCq1    C814323   0.180   1.151  13.871  0.7464  0.3696 -0.4038
    3TCq1    O414324   0.093   1.229  13.828  0.1759  0.2771  0.0217
    3TCq1    C914325   0.314   0.949  14.296 -0.7175  0.4333  0.5416
    3TCq1    O514326   0.300   0.953  14.423 -0.0146  1.0149 -0.0030
    3TCq1    O614327   0.384   0.874  14.224  0.4569 -0.3268  0.2272
    3TCq1    H114328   0.167   1.321  14.427  1.1035  0.0459 -0.9591
    3TCq1    H214329   0.160   1.126  14.393  1.8977 -3.2299 -0.4101
    3TCq1    H314330   0.369   1.028  14.045  0.1900  2.1534 -0.1848
    3TCq1    H414331   0.059   1.327  14.025 -1.5215 -0.9443  0.6860
    1MPD2     C14332   4.506   2.071  14.817  0.0780  0.5821 -0.0869
    1MPD2    C114333   4.392   1.995  14.826 -0.4932 -1.7081 -0.2806
    1MPD2    C214334   4.370   1.919  14.935  0.8536  0.0131 -0.2433
    1MPD2    C314335   4.465   1.911  15.040  0.2860 -0.6516 -0.3305
    1MPD2    C414336   4.585   1.976  15.022  0.3492  0.6682 -0.1044
    1MPD2    C514337   4.603   2.062  14.916  0.3051  0.2819 -0.1417
    1MPD2     H14338   4.276   1.866  14.945  0.6529  0.5892  0.9983
    1MPD2    H114339   4.670   1.965  15.089  0.7264  0.3716 -0.6322
    1MPD2    H214340   4.526   2.143  14.739 -1.2870 -0.0548 -1.0374
    1MPD2    H314341   4.698   2.114  14.910 -1.4659  3.4701 -0.6921
    1MPD2     N14342   4.444   1.819  15.146 -0.1826 -0.1326  0.3089
    1MPD2    H514343   4.365   1.758  15.131  0.8833 -1.9018  2.0158
    1MPD2    N114344   4.295   2.011  14.720 -0.2486  0.0939 -0.0428
    1MPD2    H714345   4.300   2.091  14.658  0.9501 -1.0345 -1.4184
    2TMC3    C114346   4.073   1.997  14.641 -0.1570  0.2170  0.2857
    2TMC3    C214347   3.972   1.911  14.656  0.2297  0.4544 -0.5113
    2TMC3    C314348   3.847   1.951  14.675 -0.9937 -0.3351 -0.3793
    2TMC3    C414349   4.055   2.133  14.642 -0.5555  0.2311  0.7805
    2TMC3    C514350   3.929   2.183  14.667  0.8434  0.4055  0.4004
    2TMC3    C614351   3.823   2.090  14.680  0.3298 -0.1873 -0.5343
    2TMC3     C14352   4.185   1.931  14.705 -0.3066  0.4576  0.3537
    2TMC3     O14353   4.166   1.825  14.757 -0.1155  0.0660 -0.0890
    2TMC3     H14354   3.988   1.808  14.627  0.4173 -0.7015  3.7642
    2TMC3    H114355   4.145   2.192  14.641 -0.7462  0.5354  1.2325
    2TMC3    H214356   3.726   2.128  14.711  1.2062  0.8023  0.9703
    2TMC3    C714357   3.901   2.326  14.682 -0.6737 -0.1935 -0.8291
    2TMC3    C814358   3.778   1.873  14.775  0.2303  0.1284  0.6478
    2TMC3    O114359   3.786   2.367  14.650  0.1129 -0.4436 -0.8180
    2TMC3    O214360   3.662   1.898  14.809 -0.0797 -0.0325 -0.0693
    3TCq1    O114361   0.186   2.995  14.753 -0.5977  0.2269 -0.1136
    3TCq1    C114362   0.066   3.053  14.766  0.5485 -0.6801  0.4141
    3TCq1    O214363   0.021   3.145  14.694  0.1620 -0.3487  0.0581
    3TCq1    C214364   4.700   2.981  14.854 -0.6562 -0.5195 -0.0412
    3TCq1    C314365   0.027   2.928  14.973  0.0751 -0.9052 -0.2713
    3TCq1    C414366   4.660   2.848  15.046  0.1237 -0.6062  0.3627
    3TCq1    C514367   4.534   2.825  15.006 -0.6186 -0.7459 -0.0272
    3TCq1    C614368   4.486   2.892  14.895  0.2535 -0.6661 -0.2992
    3TCq1    C714369   4.564   2.974  14.822  0.2427 -0.0156  0.4593
    3TCq1    C814370   4.341   2.896  14.863 -0.2906 -0.1101  0.3813
    3TCq1    O414371   4.304   2.996  14.802 -0.4226 -0.0590  0.0263
    3TCq1    C914372   4.700   2.797  15.183 -0.1554 -0.7474  0.4379
    3TCq1    O514373   4.641   2.699  15.230  0.6289  0.1135  0.1123
    3TCq1    O614374   0.087   2.842  15.231 -0.6626  0.3724  0.1729
    3TCq1    H114375   0.197   2.924  14.820 -1.0982 -0.6523 -0.9470
    3TCq1    H214376   0.128   2.943  15.010 -0.5253 -1.0876  1.4448
    3TCq1    H314377   4.471   2.763  15.068  0.5814 -1.5097  0.4313
    3TCq1    H414378   4.537   3.019  14.728  1.1444  0.0183  0.2154
    4MPD2     C14379   4.086   2.817  14.780 -0.0767 -0.6059 -0.0446
    4MPD2    C114380   4.178   2.725  14.823 -0.2847 -0.3090 -0.0668
    4MPD2    C214381   4.148   2.594  14.804  0.2676 -0.7324  0.3870
    4MPD2    C314382   4.028   2.546  14.746  0.1111 -0.1317  0.3900
    4MPD2    C414383   3.936   2.643  14.711 -0.1713  0.4083  0.3048
    4MPD2    C514384   3.971   2.774  14.715 -0.8977  0.3844  0.7005
    4MPD2     H14385   4.217   2.516  14.834  0.2349 -1.0662 -0.3909
    4MPD2    H114386   3.841   2.608  14.673  0.3925  2.0657 -2.6503
    4MPD2    H214387   4.096   2.924  14.777  0.1922 -0.6116  0.7202
    4MPD2    H314388   3.902   2.849  14.676 -0.8567 -0.1091 -0.3087
    4MPD2     N14389   4.008   2.399  14.735 -0.1226  0.2819 -0.4503
    4MPD2    H514390   4.088   2.342  14.760 -0.4874  0.8214  2.0005
    4MPD2    N114391   4.299   2.767  14.877  0.3810  0.1578  0.2355
    4MPD2    H714392   4.355   2.702  14.931  0.7185 -1.6471 -2.3205
    5TMC2    C114393   4.271   1.581  15.321  0.3508  0.0302 -0.1268
    5TMC2    C214394   4.227   1.639  15.440 -0.2551 -0.1242 -0.5424
    5TMC2    C314395   4.292   1.744  15.510 -0.0360  0.7092  0.2466
    5TMC2    C414396   4.397   1.619  15.289 -0.0760  0.1622 -0.1041
    5TMC2    C514397   4.459   1.729  15.351  0.6760 -0.1475  0.2504
    5TMC2    C614398   4.411   1.781  15.469  0.2155 -0.3478 -0.9351
    5TMC2     C14399   4.182   1.590  15.209  0.1839  0.2732  0.2409
    5TMC2     O14400   4.229   1.642  15.107 -0.1903  0.4134  0.5335
    5TMC2     H14401   4.124   1.622  15.471 -0.7740 -0.9598 -2.6837
    5TMC2    H114402   4.440   1.572  15.202  0.2824  0.4722 -0.0986
    5TMC2    H214403   4.467   1.858  15.519 -0.7142  0.8242 -1.7131
    5TMC2    C714404   4.523   1.817  15.256  0.5712  0.3823  0.3698
    5TMC2    C814405   4.259   1.766  15.650  0.8213  0.4226 -0.1410
    5TMC2    O114406   4.607   1.897  15.295  0.1784 -0.5948 -0.0761
    5TMC2    O214407   4.176   1.701  15.707  0.7721 -0.6223 -0.5228
    5TMC2    O514408   4.290   1.895  15.684  0.0284 -0.4324 -0.7331
    5TMC2    H514409   4.317   1.948  15.606  2.9001 -1.5740 -0.5117
    6MPD2     C14410   3.718   1.702  15.025 -0.0023 -0.3432  0.2567
    6MPD2    C114411   3.843   1.746  14.985 -0.1555  0.0079 -0.4544
    6MPD2    C214412   3.956   1.710  15.066 -0.6274  0.3062 -0.1402
    6MPD2    C314413   3.945   1.625  15.166  0.2134  0.0300  0.7413
    6MPD2    C414414   3.823   1.601  15.219  0.1299  0.4206  0.2392
    6MPD2    C514415   3.708   1.630  15.150 -0.1893 -0.1942  0.3235
    6MPD2     H14416   4.048   1.755  15.028  0.8630 -3.1046 -0.5687
    6MPD2    H114417   3.824   1.526  15.298  1.0057 -0.7430 -0.8841
    6MPD2    H214418   3.630   1.711  14.963 -1.9240  1.5313  3.3073
    6MPD2    H314419   3.618   1.598  15.202 -1.2951 -0.5423 -1.8296
    6MPD2     N14420   4.049   1.574  15.242  0.0609 -0.3943  0.1962
    6MPD2    H514421   4.025   1.529  15.330 -0.2432  1.8294  1.2418
    6MPD2    N114422   3.869   1.807  14.855  0.7385  0.3000  0.3678
    6MPD2    H714423   3.968   1.821  14.839 -0.0229  3.2923 -1.7158
  945NH4     N114424   0.586   0.802   0.413 -0.8696  0.6288  0.1900
  945NH4     H214425   0.538   0.890   0.384 -1.2594  0.3588  0.0103
  945NH4     H314426   0.612   0.836   0.507 -1.0389 -0.4832  0.6412
  945NH4     H414427   0.660   0.781   0.343  0.5195 -1.9588  2.4623
  945NH4     H514428   0.526   0.717   0.414 -3.1700  2.2600  0.0478
  946SOD     NA14429   1.609   3.955   1.303  0.5364 -0.0782  0.4924
  947SOD     NA14430   1.587   2.215  13.566 -0.4535 -0.0699  0.5613
  948SOD     NA14431   2.808   1.792  10.891 -0.2357 -0.1476  0.3651
  949SOD     NA14432   3.816   3.156  11.962  0.4960  0.3201  0.2571
  950SOD     NA14433   4.508   2.755  17.645  0.3909  0.4155 -0.6612
  951SOD     NA14434   3.437   1.047   9.677  0.5969  0.4218 -0.2925
  952SOD     NA14435   0.432   0.942  14.588  0.2510 -0.5428  0.0348
  953SOD     NA14436   1.309   2.107  12.277  0.2949  0.0750  0.5447
  954SOD     NA14437   0.778   0.975  13.631 -0.0107  0.2198 -0.1479
  955SOD     NA14438   3.398   0.845  12.676 -0.0223 -0.0105 -0.1863
  956SOD     NA14439   0.246   0.823  14.852 -0.3527  0.0197 -0.2400
  957SOD     NA14440   1.471   4.305   9.116 -0.1183  0.1705 -1.2224
  958SOD     NA14441   2.537   2.532  16.608 -0.2308  0.7682 -0.4795
  959SOD     NA14442   2.544   3.379  14.615 -0.0518  0.5767  0.0687
  960SOD     NA14443   1.055   2.360  12.720  0.5156  0.0069  0.1677
  961SOD     NA14444   0.748   1.607  15.489 -0.2797 -0.5022  0.5789
  962SOD     NA14445   2.917   1.108  11.294  0.1260 -0.1510  0.8718
  963SOD     NA14446   4.180   2.242   1.310  0.3327 -0.4401  0.6345
  964SOD     NA14447   2.449   1.316   1.304  0.1889  0.0237 -0.0007
  965SOD     NA14448   3.481   1.055  14.569  0.7555  0.0977 -0.3945
  966SOD     NA14449   2.294   0.213  11.381  0.1265 -0.6729 -0.3318
  967SOD     NA14450   4.466   3.770  17.177 -0.2513 -0.1153 -0.4901
  968SOD     NA14451   1.651   4.160   1.607 -0.3557 -0.4909  0.0189
  969SOD     NA14452   1.291   4.506   2.328 -0.3782  0.7484  0.1026
  970SOD     NA14453   0.060   0.582  12.056 -0.0598 -0.0447 -0.8907
  971SOD     NA14454   0.772   4.634  12.464  0.3634 -0.1045 -0.3886
  972SOD     NA14455   0.303   2.196  15.252 -0.2223  0.4535 -0.1047
  973SOD     NA14456   2.099   4.637  14.456 -0.4860  0.0269 -0.1944
  974SOD     NA14457   3.701   1.099   1.006  0.1200  0.7227  0.1104
  975SOD     NA14458   1.672   1.467   0.198 -0.0304  0.4112 -0.1826
  976SOD     NA14459   2.504   4.704  14.204 -0.0728 -0.4643 -0.0730
  977SOD     NA14460   3.743   3.830  11.195 -0.2434 -0.3401 -0.8257
  978SOD     NA14461   4.584   1.338  11.391  0.4297  0.2583 -0.3103
  979SOD     NA14462   3.053   3.670   6.034 -0.0735  0.0775 -0.4229
  980SOD     NA14463   0.317   1.126  14.809 -0.2571  0.0776 -0.9743
  981SOD     NA14464   2.824   0.813   1.605 -0.2986  0.2723 -0.2187
  982SOD     NA14465   3.776   3.208   3.990 -0.5950  0.1347  0.3134
  983SOD     NA14466   0.620   2.095   0.315  0.0372 -0.1595  0.3232
  984SOD     NA14467   4.558   0.608   9.408  0.0523  0.0435  0.0547
  985SOD     NA14468   1.452   3.712   3.441 -0.2349  0.0446  0.4135
  986SOD     NA14469   3.328   1.304  15.456  0.2903  0.0550 -0.8582
  987SOD     NA14470   2.970   3.575  15.787  0.1645 -0.0764  0.0027
  988SOD     NA14471   3.330   1.054   9.141  0.4368  0.0789 -0.5227
  989SOD     NA14472   4.498   0.730  11.977  0.2761  0.8822 -0.2560
  990SOD     NA14473   2.510   2.006  12.491  0.5503 -0.4093  0.1209
  991SOD     NA14474   2.299   0.321   0.148 -0.1447  0.1282 -0.1580
  992SOD     NA14475   2.058   2.078   7.559 -0.3539 -0.0242 -0.3562
  993SOD     NA14476   1.463   1.852  14.921  0.0711 -0.0730 -0.0528
  994SOD     NA14477   0.563   0.218  13.771 -0.1610 -0.1777  0.4267
  995SOD     NA14478   4.376   4.505   3.700 -0.5079 -0.1617 -0.2374
  996SOD     NA14479   0.182   0.760  13.071 -0.3481  0.0273 -0.4673
  997SOD     NA14480   4.406   4.446  10.628 -0.1548 -0.3332  0.3904
  998SOD     NA14481   1.990   3.380   2.845 -0.3822  0.3848  0.1325
  999SOD     NA14482   4.603   0.064  10.494 -0.3525 -0.0376  0.1712
 1000SOD     NA14483   3.568   0.288  10.475  0.2028 -0.4053 -0.1837
 1001SOD     NA14484   0.917   3.528  14.529 -0.1997  0.3536  0.0818
 1002SOD     NA14485   0.335   0.703   3.313  0.1353  0.0377 -0.1218
 1003SOD     NA14486   0.544   4.284  10.250 -0.5068 -0.2331  0.2226
 1004SOD     NA14487   0.557   2.609  15.815  0.3144 -0.0367  0.1918
 1005SOD     NA14488   3.371   1.990   9.376 -0.0520  0.1801  0.2419
 1006SOD     NA14489   0.348   0.314  12.048  0.6985  0.3487 -0.2375
 1007SOD     NA14490   4.541   1.812   9.082 -0.1621 -0.2316  0.8061
 1008SOD     NA14491   2.269   1.468   1.871  0.0195 -0.0648 -0.1379
 1009SOD     NA14492   1.529   1.713  10.983 -0.6740 -0.0266 -0.0519
 1010SOD     NA14493   4.711   2.889   9.060  0.2075  0.0058 -0.0740
 1011SOL     OW14494   1.827   0.522   3.080 -0.0864  0.0809 -0.0155
 1011SOL    HW114495   1.823   0.604   3.129  0.5160  0.2513 -0.2478
 1011SOL    HW214496   1.909   0.538   3.033  0.1593  0.0772  0.4124
 1012SOL     OW14497   4.702   2.315   9.689  0.1717  0.7623 -0.0472
 1012SOL    HW114498   0.032   2.386   9.727  0.2824  0.5627  0.1741
 1012SOL    HW214499   4.617   2.358   9.680 -1.2743 -2.1991 -0.5636
 1013SOL     OW14500   3.252   0.648   8.837 -0.4553 -0.1304 -0.5430
 1013SOL    HW114501   3.262   0.558   8.868 -0.1537 -0.7464 -2.4787
 1013SOL    HW214502   3.161   0.671   8.856  0.4818  2.4070  0.9487
 1014SOL     OW14503   3.801   0.968   4.682  0.2870  0.1524  0.6434
 1014SOL    HW114504   3.797   1.064   4.682 -0.8791  0.0919 -1.4144
 1014SOL    HW214505   3.868   0.950   4.748  0.3047  1.2805  0.9478
 1015SOL     OW14506   2.638   1.106   2.861 -0.0196 -0.2145  0.4354
 1015SOL    HW114507   2.725   1.080   2.833 -0.0082 -0.5862  0.8258
 1015SOL    HW214508   2.600   1.136   2.778 -2.0096  0.7426  1.6780
 1016SOL     OW14509   0.255   1.503   3.222 -0.3967 -0.9108 -0.0736
 1016SOL    HW114510   0.262   1.540   3.134 -1.2949  1.6104  0.9204
 1016SOL    HW214511   0.248   1.408   3.213  2.0477 -1.0234 -0.6962
 1017SOL     OW14512   2.908   1.387  14.503 -0.1665 -0.1767  0.3150
 1017SOL    HW114513   2.865   1.472  14.511 -1.1561 -0.6111 -0.3076
 1017SOL    HW214514   2.917   1.387  14.407  2.2896  0.6324  0.5445
 1018SOL     OW14515   0.754   1.970   2.215 -0.1515  0.5772  0.2088
 1018SOL    HW114516   0.698   2.048   2.226  0.1208  0.6890  0.7736
 1018SOL    HW214517   0.696   1.910   2.168  0.0726 -0.1250  0.8310
 1019SOL     OW14518   1.875   3.512   4.687  0.0956  0.0640  0.4004
 1019SOL    HW114519   1.814   3.450   4.726  0.3279 -0.8511 -0.6679
 1019SOL    HW214520   1.951   3.471   4.727 -0.0281  0.9585  1.5491
 1020SOL     OW14521   4.097   3.330   7.963 -0.2890 -0.1067 -0.1387
 1020SOL    HW114522   4.127   3.286   7.884  0.5997 -0.9497  0.6764
 1020SOL    HW214523   4.123   3.422   7.953  2.6929 -0.9178  0.3551
 1021SOL     OW14524   0.207   1.904  14.930  0.1855 -0.2415  0.1630
 1021SOL    HW114525   0.202   1.828  14.872  1.9972 -0.1304 -0.1302
 1021SOL    HW214526   0.153   1.875  15.003  1.8097 -1.8604  0.7162
 1022SOL     OW14527   0.580   3.774   7.818 -0.0507 -0.1869 -0.3232
 1022SOL    HW114528   0.533   3.769   7.902  0.3043  0.1888 -0.1032
 1022SOL    HW214529   0.666   3.782   7.860 -0.9868  0.4460  1.4752
 1023SOL     OW14530   4.064   0.748  15.574  0.2887 -0.4956 -0.0516
 1023SOL    HW114531   4.084   0.657  15.554 -0.7663 -1.1436  1.8850
 1023SOL    HW214532   4.151   0.787  15.575  0.3950 -0.7426  0.0407
 1024SOL     OW14533   1.090   4.378   3.758 -0.1029 -0.0225 -0.0273
 1024SOL    HW114534   1.173   4.354   3.799 -0.5150 -0.3247  0.6126
 1024SOL    HW214535   1.107   4.463   3.715  0.7205  0.4335  1.2139
 1025SOL     OW14536   2.399   3.124   8.516 -0.2637  0.3267 -0.5335
 1025SOL    HW114537   2.492   3.144   8.516  0.2890 -2.2712 -0.2827
 1025SOL    HW214538   2.374   3.180   8.589 -0.8576 -1.1406  0.3876
 1026SOL     OW14539   1.150   1.758   0.588  0.0428 -0.1895  0.1071
 1026SOL    HW114540   1.142   1.682   0.645 -4.1292  0.0612 -0.1463
 1026SOL    HW214541   1.202   1.725   0.515 -0.6255 -1.5399  0.2474
 1027SOL     OW14542   4.641   2.875   0.752 -0.1133  0.3042 -0.3475
 1027SOL    HW114543   4.684   2.952   0.790  1.9920 -1.0429 -0.0244
 1027SOL    HW214544   4.569   2.855   0.812 -0.8018 -0.9173 -1.5800
 1028SOL     OW14545   0.391   2.879   1.000 -0.1270  0.5163 -0.4539
 1028SOL    HW114546   0.421   2.912   1.085 -0.4206 -1.4852  0.4123
 1028SOL    HW214547   0.355   2.793   1.019  0.2835  0.4808  0.1424
 1029SOL     OW14548   1.061   2.954  14.214  0.2634 -0.7698 -0.2836
 1029SOL    HW114549   1.020   3.030  14.173  1.4000  0.1078  0.1993
 1029SOL    HW214550   0.991   2.891  14.200  1.1902 -1.2851 -2.6374
 1030SOL     OW14551   3.947   1.336  13.390  0.1021 -0.1812  0.1427
 1030SOL    HW114552   3.932   1.430  13.404 -1.6955 -0.6352  1.2956
 1030SOL    HW214553   4.002   1.339  13.312 -2.9688  0.3166 -1.9952
 1031SOL     OW14554   0.789   2.389   3.296 -0.0374  0.0898  0.2229
 1031SOL    HW114555   0.739   2.411   3.375  1.6364 -2.9626  2.1894
 1031SOL    HW214556   0.855   2.328   3.330  1.0086  0.9191 -0.2998
 1032SOL     OW14557   1.079   3.202   7.209  0.1110 -0.0484 -0.5709
 1032SOL    HW114558   1.023   3.130   7.240 -0.2238  0.6986  0.5682
 1032SOL    HW214559   1.123   3.170   7.130  2.9144 -2.3928  1.9193
 1033SOL     OW14560   2.028   4.384   6.582  0.3358  0.3094 -0.2715
 1033SOL    HW114561   1.973   4.446   6.534 -1.2719 -1.4242 -0.6749
 1033SOL    HW214562   2.047   4.426   6.666 -1.4986  0.0680  0.2748
 1034SOL     OW14563   3.863   0.021  15.975  0.0885  0.0721 -0.1168
 1034SOL    HW114564   3.893   0.101  15.931 -2.4321  1.0043 -0.0995
 1034SOL    HW214565   3.944   4.714  16.017  0.5381 -0.0952 -1.0827
 1035SOL     OW14566   3.081   1.267   5.132  0.4797 -0.2852 -0.3716
 1035SOL    HW114567   3.099   1.297   5.043 -0.1857 -1.3517 -0.8615
 1035SOL    HW214568   3.052   1.350   5.170  0.2746 -1.3894  1.8716
 1036SOL     OW14569   1.387   4.523   8.120 -0.7000 -0.2960  0.5357
 1036SOL    HW114570   1.433   4.465   8.180 -0.2816  0.7775  1.2661
 1036SOL    HW214571   1.366   4.461   8.051  0.0364  1.2163 -1.0647
 1037SOL     OW14572   0.031   2.381   4.373 -0.4786  0.5056  0.5948
 1037SOL    HW114573   4.686   2.347   4.314 -0.1503 -1.5165  1.3884
 1037SOL    HW214574   0.033   2.471   4.339 -0.0311  0.6127  0.9018
 1038SOL     OW14575   2.242   0.265   3.947  0.6313 -0.3339 -0.2270
 1038SOL    HW114576   2.152   0.269   3.979  0.9421 -0.0991  0.6446
 1038SOL    HW214577   2.240   0.272   3.852 -0.8783  0.4052 -0.1441
 1039SOL     OW14578   2.262   0.360   2.887  0.1281 -0.2613  0.6879
 1039SOL    HW114579   2.224   0.312   2.961 -0.4522 -1.1776 -0.1946
 1039SOL    HW214580   2.328   0.422   2.916 -0.1557  1.2664 -1.9103
 1040SOL     OW14581   3.061   3.107  15.802  0.2266 -0.0588 -0.5478
 1040SOL    HW114582   3.156   3.114  15.808  0.1726  1.2874 -1.2491
 1040SOL    HW214583   3.052   3.033  15.743 -2.7832  0.8895 -1.2856
 1041SOL     OW14584   0.778   0.512  16.354 -0.4744  0.8283 -0.2955
 1041SOL    HW114585   0.788   0.420  16.378 -1.0541  0.4351 -1.5339
 1041SOL    HW214586   0.781   0.554  16.440 -1.3430 -2.1685  1.1834
 1042SOL     OW14587   2.129   3.957   7.811 -0.1036 -0.1908  0.5150
 1042SOL    HW114588   2.161   3.966   7.721 -1.5494  1.9947  0.2177
 1042SOL    HW214589   2.038   3.986   7.799 -0.7905 -2.4441  0.2043
 1043SOL     OW14590   0.394   0.161   7.108  0.0171  0.1118 -0.5802
 1043SOL    HW114591   0.462   0.144   7.044 -0.4724 -0.6012 -0.9092
 1043SOL    HW214592   0.441   0.204   7.180 -0.8638 -0.3717  0.2948
 1044SOL     OW14593   3.605   3.031  17.061 -0.0895  0.3058  0.7347
 1044SOL    HW114594   3.664   3.004  17.131 -0.2068  0.4854  0.9020
 1044SOL    HW214595   3.660   3.084  17.003 -0.8515  0.7277  0.3983
 1045SOL     OW14596   0.965   3.364   6.675  0.5319 -0.1213  0.1843
 1045SOL    HW114597   0.969   3.270   6.657 -2.0145  0.0368 -1.1417
 1045SOL    HW214598   1.039   3.378   6.734  2.3421  0.3361 -2.1914
 1046SOL     OW14599   2.465   3.959   4.012 -0.3395  0.2336 -0.1343
 1046SOL    HW114600   2.461   3.999   4.099 -1.1568 -0.2660  0.0602
 1046SOL    HW214601   2.526   4.021   3.971 -1.4426  1.2014 -0.2923
 1047SOL     OW14602   0.438   2.666   6.695 -0.9259  0.3341 -0.4007
 1047SOL    HW114603   0.439   2.760   6.675  0.0428  0.5797  0.7810
 1047SOL    HW214604   0.416   2.634   6.608  0.2123  3.6711 -1.9460
 1048SOL     OW14605   1.359   2.054  12.015 -0.4975 -0.3693 -0.7440
 1048SOL    HW114606   1.367   2.130  11.958  1.2171  0.6699  0.8705
 1048SOL    HW214607   1.287   2.006  11.974 -1.2695 -0.0781  0.2578
 1049SOL     OW14608   3.089   1.488   2.479 -0.7352  0.1256  0.2679
 1049SOL    HW114609   3.124   1.560   2.531 -2.7136  0.9300  0.4983
 1049SOL    HW214610   3.091   1.530   2.392 -3.4912 -2.6653 -1.1480
 1050SOL     OW14611   0.359   3.241   9.050 -0.3337  0.4844 -0.2761
 1050SOL    HW114612   0.384   3.305   9.116  0.0069  1.2345 -1.1360
 1050SOL    HW214613   0.313   3.172   9.099  0.9252 -0.2901 -0.1677
 1051SOL     OW14614   2.808   0.126  13.881 -0.1250 -0.1346 -0.2504
 1051SOL    HW114615   2.852   0.048  13.915  1.3502  1.0831  0.5956
 1051SOL    HW214616   2.804   0.191  13.952  0.6695  0.3661 -0.6625
 1052SOL     OW14617   1.609   3.591   9.225  0.1599  0.2193  0.6059
 1052SOL    HW114618   1.558   3.607   9.145 -1.8526  2.3552  2.2994
 1052SOL    HW214619   1.578   3.502   9.241  0.3232 -0.3820 -2.3858
 1053SOL     OW14620   3.321   3.139   6.214 -0.1314 -0.0204 -0.4772
 1053SOL    HW114621   3.379   3.163   6.286  0.7958  1.6711 -1.7874
 1053SOL    HW214622   3.322   3.210   6.150  0.4863  0.6967  0.3383
 1054SOL     OW14623   3.769   2.033   7.412  0.3061  0.1703  0.5004
 1054SOL    HW114624   3.777   1.941   7.437 -0.5826 -0.1231 -0.2990
 1054SOL    HW214625   3.753   2.084   7.491  0.0414  0.8343  0.0137
 1055SOL     OW14626   0.617   4.717   5.731  0.1216  0.2073 -0.6790
 1055SOL    HW114627   0.703   0.029   5.755  0.0179 -0.3545  0.4699
 1055SOL    HW214628   0.589   0.040   5.651 -0.0816  0.1687 -0.6283
 1056SOL     OW14629   3.124   2.042  11.622  0.2480  0.2738  0.1895
 1056SOL    HW114630   3.202   2.002  11.583 -0.7626 -3.2579  1.7169
 1056SOL    HW214631   3.166   2.123  11.649 -0.6339  0.7486  0.1221
 1057SOL     OW14632   2.037   1.577   3.634 -0.1921 -0.0212  0.1594
 1057SOL    HW114633   1.958   1.531   3.606  0.6383 -0.3259 -1.6802
 1057SOL    HW214634   2.102   1.507   3.629 -1.2072 -0.7609 -2.3635
 1058SOL     OW14635   3.375   2.615   9.669 -0.7134  0.4127  0.5126
 1058SOL    HW114636   3.452   2.578   9.713 -0.3389 -0.1963 -0.6663
 1058SOL    HW214637   3.409   2.704   9.663 -1.1076  0.5822  0.8249
 1059SOL     OW14638   2.784   1.515  13.214 -0.4522  0.4088 -0.3636
 1059SOL    HW114639   2.769   1.518  13.308 -0.9767 -1.9341 -0.3802
 1059SOL    HW214640   2.832   1.432  13.211  0.4687  0.9307 -0.2599
 1060SOL     OW14641   2.575   2.939   6.245  0.0453 -0.2193  0.7304
 1060SOL    HW114642   2.650   2.944   6.304 -0.3864  0.6208  1.2120
 1060SOL    HW214643   2.630   2.921   6.169 -0.9158  0.8944 -0.2184
 1061SOL     OW14644   3.781   1.965  11.007  0.1493  0.5187  0.2346
 1061SOL    HW114645   3.742   1.911  10.939 -1.3802 -0.4876  1.8922
 1061SOL    HW214646   3.866   1.923  11.024  0.6051  0.5620 -1.9337
 1062SOL     OW14647   0.182   2.798   7.778  0.1271  0.0041  0.0211
 1062SOL    HW114648   0.117   2.849   7.730  0.1979 -0.9147 -1.0582
 1062SOL    HW214649   0.220   2.852   7.847  1.8148 -1.1615 -0.0073
 1063SOL     OW14650   3.030   1.595  14.328  0.0819  0.0887  0.9323
 1063SOL    HW114651   3.112   1.636  14.355  0.5304 -0.4759  0.4220
 1063SOL    HW214652   2.967   1.640  14.384  1.0426 -0.3210  2.3532
 1064SOL     OW14653   0.425   3.364  17.635 -0.0408 -0.5096  0.2684
 1064SOL    HW114654   0.459   3.371   0.035 -0.3563  3.0067  0.1259
 1064SOL    HW214655   0.393   3.274  17.639 -0.7963 -0.2956 -1.0934
 1065SOL     OW14656   1.178   4.287   6.284  0.4210 -0.5616 -0.4222
 1065SOL    HW114657   1.125   4.256   6.358  0.5013  0.1849 -0.0610
 1065SOL    HW214658   1.165   4.380   6.299  2.2071 -0.3665 -0.0220
 1066SOL     OW14659   0.053   1.156   6.072  0.3346 -0.3447 -0.1144
 1066SOL    HW114660   0.142   1.187   6.051  0.8393 -1.7360 -0.0055
 1066SOL    HW214661   4.717   1.223   6.036  0.4286  0.5150  1.3371
 1067SOL     OW14662   1.291   2.456  14.892  0.0626  0.4379 -0.0108
 1067SOL    HW114663   1.216   2.437  14.949  1.8430 -4.1473  0.8294
 1067SOL    HW214664   1.296   2.387  14.826 -2.4923 -0.9526  1.2496
 1068SOL     OW14665   0.337   0.194   8.915  0.2254 -0.3404 -0.3475
 1068SOL    HW114666   0.412   0.172   8.860  0.3272  1.6733 -1.0066
 1068SOL    HW214667   0.320   0.280   8.877 -0.1603 -0.9987 -1.6846
 1069SOL     OW14668   0.922   0.537   7.103 -0.3959 -0.5596  0.1243
 1069SOL    HW114669   0.854   0.563   7.164  0.0099  1.9754 -0.5107
 1069SOL    HW214670   0.946   0.614   7.051 -1.9866 -0.3365 -0.2853
 1070SOL     OW14671   0.420   4.653   9.971  0.2247  0.5787 -0.0840
 1070SOL    HW114672   0.410   4.565  10.007  3.2133  0.6507  0.8840
 1070SOL    HW214673   0.497   4.644   9.915 -0.4069  1.9214 -1.1685
 1071SOL     OW14674   0.856   1.381   4.336 -0.9812 -0.5375  0.2515
 1071SOL    HW114675   0.786   1.420   4.284  0.1103 -1.3433 -1.8673
 1071SOL    HW214676   0.835   1.379   4.429 -1.3495 -1.4984  0.1495
 1072SOL     OW14677   4.167   1.002   8.829  0.6033 -0.3378 -0.4845
 1072SOL    HW114678   4.242   0.958   8.868 -0.3432 -1.6080 -0.0918
 1072SOL    HW214679   4.094   0.958   8.872 -0.3043  3.2176  1.6423
 1073SOL     OW14680   1.183   4.279   5.980  0.3739 -0.0832 -0.0436
 1073SOL    HW114681   1.194   4.282   6.076 -2.8846 -0.3847  0.3218
 1073SOL    HW214682   1.254   4.337   5.952  0.0923 -0.3944 -1.3714
 1074SOL     OW14683   3.070   3.621   5.811  0.7253 -0.6199  0.5240
 1074SOL    HW114684   3.047   3.532   5.782  0.2108  0.4252 -2.2914
 1074SOL    HW214685   3.125   3.656   5.741 -0.2186  1.9888  1.1081
 1075SOL     OW14686   4.379   0.226   7.743  0.6492  0.2386  0.1644
 1075SOL    HW114687   4.453   0.240   7.684  0.4304  0.1909 -0.1224
 1075SOL    HW214688   4.325   0.303   7.727  0.5196  0.0370 -0.3785
 1076SOL     OW14689   3.428   4.374   3.721  0.2874  0.1054  0.0883
 1076SOL    HW114690   3.439   4.281   3.741 -0.6342 -0.1626 -0.6467
 1076SOL    HW214691   3.516   4.410   3.714  1.0462 -2.0661 -1.5387
 1077SOL     OW14692   1.407   3.106   5.074 -0.1648 -0.1597  0.2581
 1077SOL    HW114693   1.428   3.165   5.002 -1.1198  1.1434  1.0498
 1077SOL    HW214694   1.331   3.076   5.026  0.3526 -0.3933 -0.4107
 1078SOL     OW14695   0.528   3.612   6.141  0.2051 -0.0710  1.0700
 1078SOL    HW114696   0.574   3.662   6.208  0.0582 -1.3368  2.0992
 1078SOL    HW214697   0.563   3.525   6.160 -0.6739 -0.5462  0.5269
 1079SOL     OW14698   1.870   2.341   5.874  0.5840 -0.8874 -0.3853
 1079SOL    HW114699   1.792   2.362   5.823 -1.8881  1.3292  4.3076
 1079SOL    HW214700   1.921   2.416   5.845 -2.2063  1.0349 -0.3109
 1080SOL     OW14701   0.326   1.401   0.981 -0.0176 -0.1190 -0.4672
 1080SOL    HW114702   0.419   1.410   0.961 -0.5229  0.4817 -2.6079
 1080SOL    HW214703   0.339   1.328   1.042  0.0923  0.4110  0.1333
 1081SOL     OW14704   1.488   4.365   7.696 -0.7926 -0.5920 -0.5068
 1081SOL    HW114705   1.512   4.284   7.652 -0.2231 -0.7962  0.1762
 1081SOL    HW214706   1.411   4.402   7.652 -0.6748  1.0221  0.6348
 1082SOL     OW14707   0.612   0.956   1.891  0.2920 -0.5099  0.1518
 1082SOL    HW114708   0.549   1.028   1.900 -2.0805 -2.1390 -3.5112
 1082SOL    HW214709   0.579   0.891   1.954 -1.3187  2.5226  2.4289
 1083SOL     OW14710   0.353   0.729   3.830 -0.5149  0.4414  0.1860
 1083SOL    HW114711   0.338   0.814   3.871  1.9574  0.2139  1.5756
 1083SOL    HW214712   0.283   0.683   3.877  0.5934 -1.7527 -0.3293
 1084SOL     OW14713   1.001   3.646   0.256 -0.2465 -0.0534  0.0882
 1084SOL    HW114714   1.058   3.589   0.204 -0.2447 -2.0716  2.3144
 1084SOL    HW214715   1.066   3.697   0.304 -1.8188  1.8205  0.2303
 1085SOL     OW14716   0.100   0.104   2.302  0.2183  0.2630 -0.1949
 1085SOL    HW114717   0.011   0.083   2.330  0.4499 -0.5420 -0.0794
 1085SOL    HW214718   0.100   0.092   2.207 -1.2816 -2.4272  0.1434
 1086SOL     OW14719   0.416   0.927   6.999 -0.4117  0.4563 -0.2575
 1086SOL    HW114720   0.387   0.884   7.080 -0.3002  0.2779 -0.3128
 1086SOL    HW214721   0.338   0.965   6.960 -1.9913 -1.2881  1.1616
 1087SOL     OW14722   1.032   0.839  12.037 -0.2354 -0.1318  0.0982
 1087SOL    HW114723   1.127   0.855  12.037 -0.3050  0.2798 -2.2198
 1087SOL    HW214724   1.003   0.925  12.069 -1.3064  0.3314 -2.0775
 1088SOL     OW14725   4.214   0.436  13.222 -0.1756 -0.4366  0.1786
 1088SOL    HW114726   4.301   0.464  13.250  0.4389 -0.5478 -1.5885
 1088SOL    HW214727   4.170   0.434  13.307 -1.2125 -1.2258 -0.3746
 1089SOL     OW14728   2.816   1.050   8.061 -0.0135  0.2331  0.7180
 1089SOL    HW114729   2.904   1.016   8.076  0.1293 -0.6113 -2.1105
 1089SOL    HW214730   2.829   1.107   7.985 -3.3904  2.0366  1.4881
 1090SOL     OW14731   2.241   4.227  12.245  0.2014  0.7161 -0.0661
 1090SOL    HW114732   2.151   4.223  12.276 -0.2243 -1.3162 -1.5838
 1090SOL    HW214733   2.242   4.174  12.166  1.4622 -1.3641  1.3623
 1091SOL     OW14734   1.661   3.102   4.729  0.1481  0.4587 -0.0331
 1091SOL    HW114735   1.719   3.037   4.769 -0.1561  0.0152 -0.3073
 1091SOL    HW214736   1.587   3.041   4.729  1.5724 -1.2709  0.6594
 1092SOL     OW14737   0.716   2.365   4.187 -0.2163 -0.0758 -0.2017
 1092SOL    HW114738   0.784   2.395   4.128 -0.1121  0.3156  0.1136
 1092SOL    HW214739   0.767   2.358   4.268 -1.7870 -0.9659  0.7054
 1093SOL     OW14740   3.981   1.415  15.460  0.3196 -0.4030 -0.5689
 1093SOL    HW114741   3.968   1.322  15.441 -1.2592 -0.8098  2.6129
 1093SOL    HW214742   3.937   1.422  15.544  0.0130  0.4515 -0.8038
 1094SOL     OW14743   1.714   1.251   8.068  0.0888  0.1169  0.1947
 1094SOL    HW114744   1.648   1.196   8.111 -1.3149  2.1119  0.6017
 1094SOL    HW214745   1.677   1.258   7.980  0.7120 -0.2552 -0.0949
 1095SOL     OW14746   3.514   4.295   9.111 -0.0118 -0.4987 -0.1430
 1095SOL    HW114747   3.554   4.219   9.154 -1.3050 -1.1697 -0.1206
 1095SOL    HW214748   3.500   4.353   9.186 -2.3913  0.1865 -1.0965
 1096SOL     OW14749   4.541   1.486   7.841  0.1050 -0.0522 -0.0969
 1096SOL    HW114750   4.562   1.413   7.899  2.1887 -1.0726 -2.1210
 1096SOL    HW214751   4.614   1.546   7.855 -0.6327  0.9982 -0.7296
 1097SOL     OW14752   0.230   1.837  17.566  0.0980  0.2907 -0.5501
 1097SOL    HW114753   0.197   1.764  17.619 -0.5391  0.9323 -0.0750
 1097SOL    HW214754   0.317   1.805  17.543  0.0440 -1.5535  1.7836
 1098SOL     OW14755   4.553   2.178   6.182 -0.3272  0.3329  0.0649
 1098SOL    HW114756   4.610   2.111   6.220 -0.5971 -0.3984 -0.8080
 1098SOL    HW214757   4.474   2.150   6.230  0.1683 -1.9450 -0.4264
 1099SOL     OW14758   1.044   4.147   1.481  0.0540  0.4597 -0.3466
 1099SOL    HW114759   1.121   4.100   1.512  0.5546  1.4996 -0.0109
 1099SOL    HW214760   1.058   4.152   1.386  1.4359 -2.5160 -0.2904
 1100SOL     OW14761   2.230   0.803   9.046  0.0484  0.0359  0.3409
 1100SOL    HW114762   2.138   0.779   9.062  0.2282  0.3502  1.8175
 1100SOL    HW214763   2.213   0.895   9.025  1.9929 -0.0193 -1.4043
 1101SOL     OW14764   1.435   3.214   3.325 -0.4174  0.6695 -0.2749
 1101SOL    HW114765   1.389   3.276   3.381  0.9449  0.7617  0.7357
 1101SOL    HW214766   1.362   3.184   3.270  0.4768  0.8044 -1.5255
 1102SOL     OW14767   3.664   4.008   2.699 -0.7126  0.5184  0.5497
 1102SOL    HW114768   3.604   3.967   2.636  1.0023 -1.0377 -0.0705
 1102SOL    HW214769   3.651   4.101   2.685 -4.0907  0.1093  1.0461
 1103SOL     OW14770   4.166   0.153   4.406 -0.3831 -0.6138 -0.8161
 1103SOL    HW114771   4.128   0.081   4.356  1.5345 -1.1163 -1.5257
 1103SOL    HW214772   4.256   0.129   4.424 -0.8104 -1.7556 -0.1991
 1104SOL     OW14773   3.956   4.579   8.484 -0.3761 -0.1587  0.1571
 1104SOL    HW114774   3.907   4.569   8.566  0.7444 -1.6506  0.6424
 1104SOL    HW214775   3.894   4.628   8.429 -0.8531 -1.9272 -0.8747
 1105SOL     OW14776   2.937   4.223   2.535 -0.1962  0.0237  0.4877
 1105SOL    HW114777   2.958   4.221   2.629 -0.2758  1.3648  0.5338
 1105SOL    HW214778   2.958   4.315   2.522  1.0160 -0.0400  1.8914
 1106SOL     OW14779   4.164   1.379   6.482  0.6898  0.1419 -0.0276
 1106SOL    HW114780   4.136   1.469   6.497 -0.9628 -0.5732  1.1503
 1106SOL    HW214781   4.241   1.384   6.539  0.1264 -0.1007  0.7613
 1107SOL     OW14782   0.977   4.586   2.541 -0.5539  0.2121  0.4727
 1107SOL    HW114783   1.026   4.612   2.463  0.2116 -0.2007  0.8157
 1107SOL    HW214784   0.921   4.664   2.539  0.9628  1.2901  0.5370
 1108SOL     OW14785   2.667   1.539   4.139 -0.0277  0.3618  0.4607
 1108SOL    HW114786   2.598   1.476   4.119 -0.0492  0.4721  0.1762
 1108SOL    HW214787   2.714   1.549   4.056 -0.1937 -1.1043  0.1878
 1109SOL     OW14788   2.448   2.696   5.066  0.1586 -0.2078  0.5152
 1109SOL    HW114789   2.353   2.689   5.066  0.1536 -0.3048 -1.1198
 1109SOL    HW214790   2.453   2.782   5.108  0.6239 -0.2268  0.5024
 1110SOL     OW14791   3.204   0.900   9.021  0.1387  0.0318 -0.8176
 1110SOL    HW114792   3.114   0.868   9.018  0.5546 -0.9630 -2.4290
 1110SOL    HW214793   3.259   0.822   9.032  0.1166  0.1336  0.0304
 1111SOL     OW14794   1.084   0.622   9.355  0.0246  0.6128  0.2886
 1111SOL    HW114795   1.053   0.700   9.309  1.0277  1.2810  0.7632
 1111SOL    HW214796   1.059   0.555   9.290  3.9750  1.0671 -1.6485
 1112SOL     OW14797   2.078   2.512   6.793 -0.6306  0.3184 -0.0178
 1112SOL    HW114798   2.039   2.598   6.806 -1.3319 -0.3331  2.0770
 1112SOL    HW214799   2.023   2.451   6.843 -1.6416  1.6521  0.4785
 1113SOL     OW14800   2.852   1.814   6.569 -0.1991  0.1009  0.3943
 1113SOL    HW114801   2.805   1.821   6.485  0.4822 -1.1596 -0.0785
 1113SOL    HW214802   2.920   1.752   6.545  1.7712  2.5003 -0.1943
 1114SOL     OW14803   0.977   0.120   8.958  0.0726  0.0730  0.3087
 1114SOL    HW114804   1.003   0.143   8.868 -1.0153 -0.7954 -0.2223
 1114SOL    HW214805   0.998   0.201   9.006  1.4253 -0.2513  0.2648
 1115SOL     OW14806   3.637   3.123  12.130  0.8019 -0.0383  0.1052
 1115SOL    HW114807   3.550   3.151  12.161  1.1752  1.7456 -0.4902
 1115SOL    HW214808   3.680   3.103  12.213  2.4511 -0.3899 -0.8479
 1116SOL     OW14809   1.687   2.477   7.037 -0.1906 -0.2302 -0.0286
 1116SOL    HW114810   1.593   2.487   7.045  0.0994 -0.6436  3.8689
 1116SOL    HW214811   1.703   2.551   6.978 -2.7604  0.1639 -0.2105
 1117SOL     OW14812   2.687   0.666   6.862  0.2307  0.0430 -0.1563
 1117SOL    HW114813   2.734   0.628   6.936  0.8009 -2.6842 -1.9079
 1117SOL    HW214814   2.606   0.618   6.878 -0.6112  1.7958  0.8487
 1118SOL     OW14815   3.664   4.704  16.727 -0.1645 -0.0559  0.6378
 1118SOL    HW114816   3.637   0.018  16.811 -3.5293  0.8827 -0.8354
 1118SOL    HW214817   3.593   0.021  16.674  2.2851  0.2938 -2.3871
 1119SOL     OW14818   2.788   2.974   4.113  0.2205 -0.9192  0.5087
 1119SOL    HW114819   2.730   2.920   4.059 -0.7780  0.1855  0.4694
 1119SOL    HW214820   2.743   2.961   4.197 -0.7049  0.2240  0.1917
 1120SOL     OW14821   0.423   0.838   8.046  0.4027 -0.3581  0.3768
 1120SOL    HW114822   0.407   0.932   8.062  0.3067 -0.3875  0.4550
 1120SOL    HW214823   0.362   0.823   7.975 -0.7399  0.2448  1.2311
 1121SOL     OW14824   0.188   4.325   3.513  0.2599  0.3111  0.3805
 1121SOL    HW114825   0.111   4.270   3.528  0.2196 -0.1039 -1.3810
 1121SOL    HW214826   0.139   4.386   3.458 -1.8450  0.6220  2.6155
 1122SOL     OW14827   1.178   3.021   7.492 -0.0911  0.0090 -0.1561
 1122SOL    HW114828   1.139   2.980   7.568 -1.1610  1.6480  0.1898
 1122SOL    HW214829   1.114   3.001   7.423 -0.2814 -2.8456  0.8851
 1123SOL     OW14830   0.371   0.564  15.436 -0.5034 -0.1443 -0.1755
 1123SOL    HW114831   0.380   0.591  15.345 -2.2703  1.6409  0.1588
 1123SOL    HW214832   0.285   0.523  15.439  0.5560 -2.3893 -1.1755
 1124SOL     OW14833   1.263   1.172   7.930 -0.1531 -0.2954 -0.0109
 1124SOL    HW114834   1.205   1.202   8.000 -0.1440 -1.7978  0.6431
 1124SOL    HW214835   1.194   1.117   7.893 -1.7170  0.5127  1.7195
 1125SOL     OW14836   1.210   1.672   0.872 -0.1798  0.4250 -0.1376
 1125SOL    HW114837   1.219   1.761   0.906 -0.7626  1.4889 -2.8243
 1125SOL    HW214838   1.233   1.627   0.954 -0.2975 -1.2467 -1.0290
 1126SOL     OW14839   0.739   2.196   8.963  0.4494  0.3502 -0.0361
 1126SOL    HW114840   0.720   2.263   8.897  0.7814  0.5031  0.0205
 1126SOL    HW214841   0.742   2.254   9.039 -2.3128  1.5307 -0.8132
 1127SOL     OW14842   2.968   1.260   6.283  0.0104  0.0806  0.1284
 1127SOL    HW114843   2.924   1.177   6.302  0.2059  0.1287  0.8145
 1127SOL    HW214844   3.051   1.254   6.331  0.8883  0.7774 -1.3127
 1128SOL     OW14845   2.183   3.965   2.927 -0.3277  0.3653  0.4201
 1128SOL    HW114846   2.132   4.004   2.856 -1.8726  0.1976  1.4418
 1128SOL    HW214847   2.236   3.894   2.890 -2.4435 -0.5149 -0.9595
 1129SOL     OW14848   4.455   0.179   4.709 -0.1614 -0.1454 -0.1915
 1129SOL    HW114849   4.381   0.205   4.763  0.6207 -0.2320  0.9060
 1129SOL    HW214850   4.515   0.245   4.744 -0.6586 -0.4796  1.2921
 1130SOL     OW14851   3.135   1.757   7.015 -0.0168 -0.2285 -0.2885
 1130SOL    HW114852   3.086   1.713   6.945  1.1607  1.1865 -2.0073
 1130SOL    HW214853   3.174   1.681   7.058 -1.4656  0.7106  2.6851
 1131SOL     OW14854   3.330   1.122   4.997 -0.6056 -0.3744 -0.0597
 1131SOL    HW114855   3.393   1.190   4.974  0.8981 -0.5134  3.7560
 1131SOL    HW214856   3.251   1.177   4.997 -0.5483 -0.2916  0.1202
 1132SOL     OW14857   2.316   4.634  11.710  0.0798 -0.0118  0.2932
 1132SOL    HW114858   2.404   4.609  11.738 -0.0632  0.0031  0.7568
 1132SOL    HW214859   2.320   4.650  11.616  0.7516  2.7699  0.7891
 1133SOL     OW14860   4.239   0.446   8.452 -0.7463 -0.0040 -0.3963
 1133SOL    HW114861   4.216   0.498   8.529 -0.4894 -2.7643  1.5406
 1133SOL    HW214862   4.290   0.370   8.481 -1.4097 -0.4392 -0.3556
 1134SOL     OW14863   3.349   2.763   3.912 -0.0116  0.0068  0.2255
 1134SOL    HW114864   3.288   2.834   3.894 -1.9351 -1.9596 -1.0040
 1134SOL    HW214865   3.324   2.711   3.836  2.6842 -0.3815 -0.4095
 1135SOL     OW14866   4.148   2.692   9.762  0.0420 -0.3033  0.9685
 1135SOL    HW114867   4.231   2.723   9.799  1.2947  0.0256 -2.1521
 1135SOL    HW214868   4.087   2.761   9.788  0.0201 -0.4106  1.1971
 1136SOL     OW14869   2.899   1.078   5.149 -0.0999 -0.2679 -0.3343
 1136SOL    HW114870   2.953   1.157   5.143  0.7432 -0.9737 -1.9824
 1136SOL    HW214871   2.855   1.090   5.065  0.5090 -2.2805 -0.9450
 1137SOL     OW14872   3.889   0.448   4.623  0.0815  0.4146 -0.1001
 1137SOL    HW114873   3.968   0.407   4.589  0.0739 -0.3537  0.8153
 1137SOL    HW214874   3.874   0.524   4.566  2.7300  1.9857  1.3102
 1138SOL     OW14875   0.730   1.769  10.461 -0.0531  0.5920  0.2995
 1138SOL    HW114876   0.795   1.791  10.527  1.1181 -2.3640  0.1580
 1138SOL    HW214877   0.783   1.790  10.384 -0.9772  2.4638  0.1855
 1139SOL     OW14878   3.094   1.543   7.656 -0.2336  0.2255  0.0558
 1139SOL    HW114879   3.047   1.461   7.648 -0.9193  0.4318  2.1059
 1139SOL    HW214880   3.184   1.509   7.654 -1.0440 -1.8303 -0.5423
 1140SOL     OW14881   4.245   2.473   5.069  0.3838  0.1189  0.2336
 1140SOL    HW114882   4.160   2.470   5.112  0.5923  0.5193  0.6616
 1140SOL    HW214883   4.230   2.447   4.978  1.8402  0.7764 -0.1990
 1141SOL     OW14884   2.298   0.640   8.552  0.0189 -0.2725  0.1150
 1141SOL    HW114885   2.368   0.609   8.610  0.7225  0.2073 -0.4722
 1141SOL    HW214886   2.345   0.689   8.484 -0.5484 -1.7984 -1.3722
 1142SOL     OW14887   3.686   4.012  11.727 -0.1707 -0.6882 -0.1343
 1142SOL    HW114888   3.761   3.988  11.781 -0.9620 -0.1011  1.2132
 1142SOL    HW214889   3.688   3.951  11.653 -0.4820  0.4253 -1.0651
 1143SOL     OW14890   4.530   3.087  12.037  0.4110 -0.5039 -0.1440
 1143SOL    HW114891   4.596   3.026  12.070  0.9853  0.2201  0.0260
 1143SOL    HW214892   4.569   3.122  11.958 -0.5252  1.4988  0.2910
 1144SOL     OW14893   1.302   0.479  11.557  0.4206 -0.1371 -0.7356
 1144SOL    HW114894   1.352   0.559  11.541  1.0810 -0.3289  0.4063
 1144SOL    HW214895   1.218   0.500  11.598  1.0965 -0.0511  0.5838
 1145SOL     OW14896   2.303   4.311   2.882 -0.4424 -0.4885 -0.2956
 1145SOL    HW114897   2.231   4.305   2.945  1.2153  2.2133  1.8762
 1145SOL    HW214898   2.328   4.221   2.865 -0.6788 -0.5056 -0.5581
 1146SOL     OW14899   1.344   0.720   5.589  0.1680 -0.8830 -0.5906
 1146SOL    HW114900   1.423   0.666   5.596  0.5622 -0.4163 -1.3606
 1146SOL    HW214901   1.354   0.750   5.499 -3.1895 -0.9446 -0.9775
 1147SOL     OW14902   1.139   3.710   3.721 -0.1652  0.1033 -0.1967
 1147SOL    HW114903   1.147   3.781   3.785 -0.0995 -1.0413  1.0572
 1147SOL    HW214904   1.053   3.728   3.685  0.0526 -0.6294 -1.0810
 1148SOL     OW14905   3.050   2.286  10.096  0.2022  0.3851  0.0632
 1148SOL    HW114906   3.030   2.199  10.060 -0.8144  0.8630 -0.5277
 1148SOL    HW214907   2.980   2.287  10.161 -1.1266 -0.2150 -1.3683
 1149SOL     OW14908   2.676   2.001   3.953 -0.7275 -0.5254  0.1392
 1149SOL    HW114909   2.601   1.947   3.977 -0.1640 -0.8531  1.1468
 1149SOL    HW214910   2.665   1.982   3.860  0.1970 -2.2713  0.3747
 1150SOL     OW14911   4.718   1.983   5.452 -0.3722  0.0627 -0.3128
 1150SOL    HW114912   0.047   2.059   5.478 -2.1208  0.7360  1.0517
 1150SOL    HW214913   0.012   1.994   5.358 -0.5063 -1.3448 -0.5081
 1151SOL     OW14914   2.673   3.644   1.180 -0.1039  0.1199 -0.5772
 1151SOL    HW114915   2.712   3.557   1.178  0.0974  0.1840  0.8329
 1151SOL    HW214916   2.591   3.626   1.227  0.4248  0.7674  0.6037
 1152SOL     OW14917   0.046   2.651   4.312  0.3283  0.0111  0.4119
 1152SOL    HW114918   4.706   2.716   4.279  0.5642 -1.0267 -2.0847
 1152SOL    HW214919   0.044   2.675   4.404 -2.4979  0.9790  0.1062
 1153SOL     OW14920   2.751   2.233   8.601  0.3757 -0.6048 -0.3069
 1153SOL    HW114921   2.706   2.299   8.654  0.3758 -1.3155  0.5817
 1153SOL    HW214922   2.823   2.214   8.660 -0.0029 -0.6359  0.1469
 1154SOL     OW14923   3.610   4.516   4.234  0.1290 -0.7117  0.2302
 1154SOL    HW114924   3.556   4.471   4.298 -2.4158  2.2858  0.2044
 1154SOL    HW214925   3.578   4.469   4.157  1.4913 -1.6245  0.2320
 1155SOL     OW14926   4.169   1.402   8.480  0.3746 -0.3440  0.2074
 1155SOL    HW114927   4.139   1.324   8.432 -0.3863  0.1474 -0.1039
 1155SOL    HW214928   4.150   1.379   8.571 -0.8198  1.1915  0.3462
 1156SOL     OW14929   0.216   1.422  12.617  0.3787 -0.1585 -0.4128
 1156SOL    HW114930   0.177   1.488  12.559  0.7765  0.4694  0.0336
 1156SOL    HW214931   0.176   1.339  12.592 -0.3442 -0.0509  0.3726
 1157SOL     OW14932   3.521   4.087   8.679 -0.3122 -0.3670 -0.1110
 1157SOL    HW114933   3.493   4.013   8.733 -0.8402  0.5746  0.9166
 1157SOL    HW214934   3.457   4.080   8.608 -0.1500  0.4206 -0.3325
 1158SOL     OW14935   4.368   0.286  12.882 -0.5551  0.9047 -0.2544
 1158SOL    HW114936   4.375   0.297  12.787 -3.0128  1.1522 -0.4087
 1158SOL    HW214937   4.308   0.359  12.898  1.1849  1.8234  2.1700
 1159SOL     OW14938   0.971   4.227   7.960 -0.1012 -0.1658  0.5334
 1159SOL    HW114939   1.035   4.185   8.018  0.5461 -0.4224 -0.3648
 1159SOL    HW214940   0.897   4.227   8.020 -1.3360 -0.7000 -1.0068
 1160SOL     OW14941   4.440   4.305   0.614  0.3118 -0.3351 -0.0854
 1160SOL    HW114942   4.464   4.304   0.522  2.9047 -1.6036  0.6034
 1160SOL    HW214943   4.441   4.398   0.640  0.8734 -0.6687  1.1054
 1161SOL     OW14944   3.165   4.520   4.868 -0.1374  1.1418  0.0607
 1161SOL    HW114945   3.096   4.454   4.871  0.1629  0.7920 -0.6814
 1161SOL    HW214946   3.105   4.588   4.899 -0.9522  0.5670 -0.2623
 1162SOL     OW14947   4.564   1.059   6.895  0.7063  0.3985 -0.2045
 1162SOL    HW114948   4.483   1.083   6.850  1.0918  3.5532  0.7884
 1162SOL    HW214949   4.533   0.982   6.942  0.4580  1.2181  0.9927
 1163SOL     OW14950   1.319   1.546   9.356 -0.4024 -0.4265 -0.5000
 1163SOL    HW114951   1.326   1.456   9.322 -0.2506 -0.5457 -0.1609
 1163SOL    HW214952   1.386   1.549   9.425 -0.2437  0.0587 -0.6752
 1164SOL     OW14953   2.878   4.584   8.857  0.0913 -0.2317  0.0191
 1164SOL    HW114954   2.808   4.577   8.921 -0.5995 -0.5115 -0.7623
 1164SOL    HW214955   2.828   4.632   8.790 -0.1489 -0.3826  0.0905
 1165SOL     OW14956   3.687   0.454   2.866 -0.4753  0.2275  0.0969
 1165SOL    HW114957   3.714   0.413   2.948 -1.9555  0.4515  0.6952
 1165SOL    HW214958   3.593   0.440   2.875 -0.8264  1.8633 -0.9746
 1166SOL     OW14959   1.763   2.387  10.204 -0.4295 -0.0276  0.2298
 1166SOL    HW114960   1.751   2.438  10.124  2.5185 -0.2342 -0.3708
 1166SOL    HW214961   1.688   2.329  10.215  1.5116 -2.5795  0.1478
 1167SOL     OW14962   4.434   0.134   4.442 -0.3894 -0.1646  0.5621
 1167SOL    HW114963   4.465   0.210   4.392  0.8930 -0.7092  0.5353
 1167SOL    HW214964   4.445   0.165   4.532  2.7573  1.4355 -0.3825
 1168SOL     OW14965   2.728   1.845   0.020  0.3084  0.3538  0.0302
 1168SOL    HW114966   2.646   1.797   0.035  0.4546 -0.2953 -1.2268
 1168SOL    HW214967   2.721   1.884  17.623 -3.4084 -1.2559 -0.4083
 1169SOL     OW14968   1.727   0.332  11.027  0.3314  0.4738 -0.1612
 1169SOL    HW114969   1.652   0.363  11.078 -0.2531  0.5290 -1.0580
 1169SOL    HW214970   1.764   0.259  11.075  1.1261  0.2674 -1.0874
 1170SOL     OW14971   2.979   1.444   1.992 -0.1962 -0.3177  0.2433
 1170SOL    HW114972   3.007   1.456   1.901 -0.0144 -1.2440  0.1801
 1170SOL    HW214973   2.984   1.535   2.023 -0.6833 -1.2011  2.8896
 1171SOL     OW14974   3.333   3.003   6.527  0.0261  0.7519 -0.9703
 1171SOL    HW114975   3.241   2.980   6.518  0.7807 -2.2798 -0.8684
 1171SOL    HW214976   3.359   2.962   6.445 -2.6070  0.1304 -1.4974
 1172SOL     OW14977   0.861   1.523   5.928  0.0555 -0.1330  0.4620
 1172SOL    HW114978   0.919   1.543   6.001  2.5414 -1.9857 -0.9965
 1172SOL    HW214979   0.909   1.447   5.895 -0.9458  0.0160 -1.3250
 1173SOL     OW14980   0.543   2.280   6.187 -0.8244  0.1997 -0.3488
 1173SOL    HW114981   0.586   2.265   6.103  0.9641  0.3989  0.5350
 1173SOL    HW214982   0.599   2.235   6.250  0.3616  0.0687 -1.5166
 1174SOL     OW14983   4.112   2.615   1.818  0.2351  0.3121 -0.1237
 1174SOL    HW114984   4.174   2.552   1.781  0.0700 -0.6423  1.2116
 1174SOL    HW214985   4.033   2.584   1.774 -0.1536 -0.1243  0.8657
 1175SOL     OW14986   3.815   2.376   4.153  0.4437 -0.0808 -0.3016
 1175SOL    HW114987   3.769   2.456   4.130 -1.5069 -0.5741  1.8968
 1175SOL    HW214988   3.812   2.320   4.075 -4.6391 -0.0782 -0.0897
 1176SOL     OW14989   3.984   4.295   4.865  0.5024 -0.1536  0.0674
 1176SOL    HW114990   3.942   4.354   4.803  0.0845 -0.9256 -0.3980
 1176SOL    HW214991   3.921   4.300   4.937  0.4459  1.7026 -0.1157
 1177SOL     OW14992   3.565   1.391   3.928 -0.0100  0.3013 -0.2631
 1177SOL    HW114993   3.629   1.328   3.961  0.5385  0.0560 -1.7992
 1177SOL    HW214994   3.514   1.335   3.869 -0.6626 -1.2948  1.8048
 1178SOL     OW14995   2.119   3.207   7.833 -0.6483  0.6506  0.2312
 1178SOL    HW114996   2.084   3.132   7.880 -0.0921 -1.2248 -2.3460
 1178SOL    HW214997   2.110   3.176   7.743 -0.8586 -0.6643  0.7105
 1179SOL     OW14998   3.036   2.398   6.657  0.0856 -0.1423  0.0279
 1179SOL    HW114999   3.123   2.418   6.691  0.6572  0.1982 -1.6150
 1179SOL    HW215000   2.980   2.420   6.731 -0.1076  1.0214 -0.4709
 1180SOL     OW15001   0.655   4.391  11.562  0.0004 -0.0047  0.3154
 1180SOL    HW115002   0.729   4.431  11.517  0.0193 -2.0047 -1.4208
 1180SOL    HW215003   0.598   4.466  11.547  0.7351  0.8368  1.7498
 1181SOL     OW15004   0.071   1.335  10.994 -0.2555 -0.2239 -0.2083
 1181SOL    HW115005   0.093   1.324  10.901  0.7376  0.1286 -0.0124
 1181SOL    HW215006   0.079   1.248  11.031  1.7115 -0.0814 -0.2793
 1182SOL     OW15007   2.849   2.365   8.969  0.0601  0.1109 -0.3234
 1182SOL    HW115008   2.918   2.428   8.951 -0.2781  0.8503  0.9372
 1182SOL    HW215009   2.865   2.302   8.899 -1.2723  0.5677 -1.0410
 1183SOL     OW15010   3.275   2.830   8.487  0.2237 -0.1307 -0.9646
 1183SOL    HW115011   3.280   2.902   8.550 -0.5398 -0.0930 -0.9437
 1183SOL    HW215012   3.216   2.867   8.421 -1.7043  1.5228  1.7093
 1184SOL     OW15013   3.379   4.023   8.143  0.1463  0.2319 -0.5462
 1184SOL    HW115014   3.286   4.040   8.152 -0.2838 -2.1129 -0.4641
 1184SOL    HW215015   3.409   4.066   8.223 -3.9069  0.2447  0.9666
 1185SOL     OW15016   1.384   0.170   2.841  0.2684  0.6418 -0.2936
 1185SOL    HW115017   1.469   0.196   2.807  0.5002  0.6073  0.2544
 1185SOL    HW215018   1.367   0.248   2.894  1.1247 -0.5784  1.7716
 1186SOL     OW15019   3.618   1.808   2.356 -0.6536  0.7615  0.5756
 1186SOL    HW115020   3.592   1.882   2.411 -2.1505  0.0039  0.8929
 1186SOL    HW215021   3.565   1.833   2.281  0.7158  2.4273  0.1531
 1187SOL     OW15022   4.524   2.811   3.074 -0.1891 -0.0283  0.0035
 1187SOL    HW115023   4.492   2.821   2.984  0.0865 -0.9679 -0.1999
 1187SOL    HW215024   4.445   2.842   3.119  0.2379  1.5006 -0.3075
 1188SOL     OW15025   4.424   0.780   2.025  0.0116 -0.3200  0.2884
 1188SOL    HW115026   4.447   0.700   1.976 -0.0747  0.8467 -1.6805
 1188SOL    HW215027   4.436   0.753   2.116  1.9910 -2.0138 -0.4531
 1189SOL     OW15028   1.245   1.690   1.918  0.3921 -0.1496  0.1511
 1189SOL    HW115029   1.270   1.598   1.925 -0.7601 -0.2567  2.9618
 1189SOL    HW215030   1.321   1.727   1.875  0.7709  0.1427  1.0714
 1190SOL     OW15031   2.084   0.614   3.994  0.3118  0.2123  0.3812
 1190SOL    HW115032   2.167   0.613   4.043 -0.2140  1.2929  1.2816
 1190SOL    HW215033   2.111   0.664   3.917  0.8923 -2.7880 -1.3526
 1191SOL     OW15034   0.229   0.730   2.320 -0.7368 -0.0555  0.6002
 1191SOL    HW115035   0.323   0.746   2.321 -0.8765  0.8038 -0.9208
 1191SOL    HW215036   0.225   0.642   2.285  1.9995  0.5684 -1.2443
 1192SOL     OW15037   3.506   0.574   6.218 -0.1209  0.2338 -0.0973
 1192SOL    HW115038   3.491   0.534   6.304 -0.3596  0.3763 -0.0707
 1192SOL    HW215039   3.494   0.501   6.158 -1.5737 -0.3055  0.8298
 1193SOL     OW15040   1.614   2.356  13.333  0.3683 -0.1607  0.2416
 1193SOL    HW115041   1.616   2.409  13.253  0.8297 -1.0345 -0.3146
 1193SOL    HW215042   1.524   2.372  13.360  0.6394 -0.4887  1.3486
 1194SOL     OW15043   0.082   1.305  11.398  0.8969  0.4461  0.4859
 1194SOL    HW115044   0.099   1.213  11.416  1.2884  0.7784  1.7955
 1194SOL    HW215045   0.173   1.332  11.383  1.0931  0.2323  1.3270
 1195SOL     OW15046   3.785   4.230   5.054  0.3473 -0.0909 -0.2669
 1195SOL    HW115047   3.716   4.199   4.996  0.6443 -0.5877 -0.3515
 1195SOL    HW215048   3.777   4.173   5.131  2.2309 -0.6769 -0.5053
 1196SOL     OW15049   2.488   4.677  13.982  0.5870  0.2069  0.6991
 1196SOL    HW115050   2.418   4.693  13.919 -0.1415 -2.5957  0.8049
 1196SOL    HW215051   2.565   4.677  13.924  0.0002 -1.9634 -0.0543
 1197SOL     OW15052   1.903   1.035   5.038  0.0615  0.2348  0.1438
 1197SOL    HW115053   1.972   1.098   5.059  0.8308  0.5057 -3.0818
 1197SOL    HW215054   1.953   0.955   5.052  0.6925  0.7748  0.9869
 1198SOL     OW15055   3.928   3.828  10.345 -0.3192 -0.5281 -0.5992
 1198SOL    HW115056   3.912   3.900  10.406 -0.5255 -1.3535  0.3176
 1198SOL    HW215057   3.933   3.758  10.410 -0.0481  0.0743  0.0322
 1199SOL     OW15058   1.827   4.568   6.784  0.2539 -0.1020  0.6924
 1199SOL    HW115059   1.840   4.654   6.823  3.5914 -0.5925  0.6561
 1199SOL    HW215060   1.907   4.521   6.808 -0.0836 -0.5326  0.9768
 1200SOL     OW15061   2.104   2.738   8.379 -0.3182 -0.4406 -0.5497
 1200SOL    HW115062   2.038   2.737   8.309 -0.0504 -0.5656 -0.8001
 1200SOL    HW215063   2.069   2.675   8.443  1.5753 -1.8830 -0.9400
 1201SOL     OW15064   4.167   2.599   7.077 -0.4054 -0.1253  0.2672
 1201SOL    HW115065   4.152   2.611   7.171  1.2686 -1.0133  0.6564
 1201SOL    HW215066   4.147   2.505   7.069 -1.7417  0.2115 -0.2621
 1202SOL     OW15067   1.383   4.699  13.889 -0.0014  0.5862 -0.1958
 1202SOL    HW115068   1.382   4.655  13.974  1.2090 -0.6488 -0.8034
 1202SOL    HW215069   1.447   0.048  13.888  0.9596 -0.2768 -0.7224
 1203SOL     OW15070   1.882   2.635   2.074 -0.7510 -0.1315 -0.0955
 1203SOL    HW115071   1.811   2.572   2.060  0.2394 -1.6210  1.6313
 1203SOL    HW215072   1.929   2.585   2.141 -1.0025 -0.2891 -0.0343
 1204SOL     OW15073   0.360   2.412  15.183  0.0095  0.4801 -0.2675
 1204SOL    HW115074   0.353   2.500  15.147 -0.1753  1.0594  1.1602
 1204SOL    HW215075   0.452   2.402  15.208 -0.3020  1.1964  1.1753
 1205SOL     OW15076   2.654   4.192   2.576  1.1145 -0.3491 -0.2268
 1205SOL    HW115077   2.632   4.099   2.582 -3.0960  0.5946 -0.9869
 1205SOL    HW215078   2.749   4.190   2.575  1.1169 -0.2000 -0.3162
 1206SOL     OW15079   3.512   0.199  12.245 -0.1332  0.1291 -0.1409
 1206SOL    HW115080   3.502   0.182  12.339  0.7291  1.3053  0.1635
 1206SOL    HW215081   3.434   0.248  12.222 -0.7452 -0.4749  0.6146
 1207SOL     OW15082   3.356   3.158  10.934 -0.0723  0.1778  0.4786
 1207SOL    HW115083   3.427   3.095  10.947 -0.6192 -0.3603  0.8785
 1207SOL    HW215084   3.396   3.245  10.942  0.6002 -0.3807  3.2094
 1208SOL     OW15085   3.417   4.599   2.352  0.0820  0.0419  0.4117
 1208SOL    HW115086   3.460   4.530   2.403  0.3812  0.0820  0.2128
 1208SOL    HW215087   3.340   4.554   2.319  0.7813 -0.2741 -0.8200
 1209SOL     OW15088   0.832   0.840   6.170  0.0229  0.6369 -0.4222
 1209SOL    HW115089   0.908   0.783   6.179  0.6764  1.4968 -0.4374
 1209SOL    HW215090   0.806   0.793   6.091  1.9511 -0.8099 -0.1861
 1210SOL     OW15091   4.033   1.540   0.876  0.5152  0.2976 -0.0559
 1210SOL    HW115092   4.010   1.454   0.911  2.1478  0.0758  0.4867
 1210SOL    HW215093   3.982   1.539   0.795 -0.4612  0.7188  0.5461
 1211SOL     OW15094   2.742   4.674   8.622  0.2444 -0.0317  0.4018
 1211SOL    HW115095   2.660   4.718   8.648  0.2263  0.4684 -0.4832
 1211SOL    HW215096   2.784   0.027   8.578  0.4437 -0.5707 -0.3152
 1212SOL     OW15097   1.492   2.501   6.348  0.6542  0.7608 -0.0202
 1212SOL    HW115098   1.466   2.462   6.264  0.9407  0.0658  0.2220
 1212SOL    HW215099   1.576   2.462   6.372  1.1610  2.1026  0.4220
 1213SOL     OW15100   1.597   1.861   0.116  0.2388 -0.0143 -0.3579
 1213SOL    HW115101   1.611   1.857   0.210  0.0228  0.9944 -0.2803
 1213SOL    HW215102   1.584   1.767   0.101  0.6998  0.1184 -1.5728
 1214SOL     OW15103   0.055   0.693   4.986  0.0106  0.1964  1.2157
 1214SOL    HW115104   0.027   0.774   4.943  0.1981  0.2845  1.2601
 1214SOL    HW215105   4.711   0.632   4.952  0.4451 -0.3134  1.2917
 1215SOL     OW15106   2.438   4.222   1.519 -0.3335  0.1542  0.4242
 1215SOL    HW115107   2.360   4.184   1.560 -1.2813  0.8753 -0.7044
 1215SOL    HW215108   2.450   4.158   1.449  0.7010  1.6017 -0.7311
 1216SOL     OW15109   3.457   3.148   7.322 -0.4337 -0.0659  0.0597
 1216SOL    HW115110   3.450   3.242   7.339 -1.3589  0.1523 -1.4821
 1216SOL    HW215111   3.434   3.151   7.229  0.4598 -2.2791 -0.2460
 1217SOL     OW15112   1.260   4.679   6.584  0.4754 -0.1262 -0.3930
 1217SOL    HW115113   1.350   4.666   6.554  0.2382 -3.0992  0.1664
 1217SOL    HW215114   1.252   4.596   6.630 -1.2083  1.4347  2.1472
 1218SOL     OW15115   2.029   3.717   5.543  1.2106  0.3610 -0.6115
 1218SOL    HW115116   2.051   3.706   5.451 -0.1044 -0.6799 -0.8125
 1218SOL    HW215117   1.935   3.702   5.553  0.9231  0.7711 -2.7651
 1219SOL     OW15118   1.378   2.774   7.359  0.0678 -0.0588 -0.2851
 1219SOL    HW115119   1.449   2.834   7.334 -0.4616  0.5507 -0.3086
 1219SOL    HW215120   1.343   2.770   7.270 -1.3322  2.3346  0.1582
 1220SOL     OW15121   2.389   2.094   2.537 -0.2409 -0.1770 -0.1373
 1220SOL    HW115122   2.462   2.155   2.526 -0.3977  0.1688  0.7057
 1220SOL    HW215123   2.347   2.133   2.614 -0.1113  2.8321 -1.5859
 1221SOL     OW15124   2.111   4.394   9.635  0.5338  0.0194  0.8551
 1221SOL    HW115125   2.172   4.427   9.700 -0.2798 -0.7552  2.0094
 1221SOL    HW215126   2.068   4.319   9.677 -1.4085 -0.6161 -2.2668
 1222SOL     OW15127   3.154   1.375  14.655 -0.9510  0.8121 -0.3518
 1222SOL    HW115128   3.128   1.423  14.733 -2.4178  0.6237 -0.7398
 1222SOL    HW215129   3.068   1.354  14.621 -0.4348 -1.6053 -0.1379
 1223SOL     OW15130   3.535   1.953   3.387  0.0167  0.0833 -0.8757
 1223SOL    HW115131   3.516   1.860   3.383  0.3587  0.0222 -1.1456
 1223SOL    HW215132   3.621   1.939   3.427  0.3175  1.3567 -1.0727
 1224SOL     OW15133   1.922   2.808   9.427  0.0978  0.0851 -0.3102
 1224SOL    HW115134   1.843   2.773   9.470  1.3905 -0.9485  1.2312
 1224SOL    HW215135   1.978   2.733   9.447 -5.0799 -3.5296  0.7175
 1225SOL     OW15136   2.097   2.519   5.541  0.0845 -0.1104  0.1413
 1225SOL    HW115137   2.148   2.508   5.460 -0.3601  2.3814 -0.4816
 1225SOL    HW215138   2.168   2.502   5.603  1.6708  0.8253 -1.4188
 1226SOL     OW15139   2.109   2.842   5.646 -0.4319 -0.7727  0.0557
 1226SOL    HW115140   2.114   2.798   5.731 -2.8239 -0.1804  0.4889
 1226SOL    HW215141   2.202   2.852   5.627 -0.7877 -0.5613 -1.5730
 1227SOL     OW15142   2.362   2.230  10.914 -0.2884  0.1565 -0.3898
 1227SOL    HW115143   2.325   2.192  10.994 -0.9288 -0.0723 -0.7951
 1227SOL    HW215144   2.426   2.290  10.954 -0.1874 -1.0338  1.2644
 1228SOL     OW15145   3.696   0.589   2.398 -0.3790  0.2349  0.1364
 1228SOL    HW115146   3.688   0.618   2.307 -0.2981 -1.6895 -0.4859
 1228SOL    HW215147   3.619   0.637   2.430 -0.3633 -0.7388  1.6082
 1229SOL     OW15148   4.551   3.714   4.865 -0.3336 -0.4038 -0.0793
 1229SOL    HW115149   4.610   3.640   4.848  0.2275  0.0622 -0.1619
 1229SOL    HW215150   4.565   3.770   4.788 -0.4868 -0.7515 -0.3616
 1230SOL     OW15151   0.442   2.587   1.067 -0.1979 -0.2078  0.2728
 1230SOL    HW115152   0.511   2.619   1.125 -0.7047  0.4237  0.5304
 1230SOL    HW215153   0.397   2.527   1.126 -3.4573  1.0849 -0.8867
 1231SOL     OW15154   3.130   2.481   8.657  0.2967 -0.2168  0.0323
 1231SOL    HW115155   3.043   2.521   8.661  0.1014 -0.3523 -2.5664
 1231SOL    HW215156   3.177   2.525   8.586  0.0166  0.0883  0.0346
 1232SOL     OW15157   3.726   3.332   9.166 -0.0539  0.3683  0.0482
 1232SOL    HW115158   3.646   3.382   9.187 -1.0900  0.0956 -3.3096
 1232SOL    HW215159   3.714   3.261   9.229 -1.2508  0.6917  0.2007
 1233SOL     OW15160   3.557   0.225   8.630 -0.2447  0.1679 -0.3109
 1233SOL    HW115161   3.574   0.274   8.711  1.0317  1.1783 -1.1961
 1233SOL    HW215162   3.513   0.149   8.669  0.5735  0.1128  0.5014
 1234SOL     OW15163   0.056   3.345   8.303 -0.5364  0.0693 -0.0788
 1234SOL    HW115164   0.019   3.265   8.265 -2.8300  0.6387  0.9699
 1234SOL    HW215165   4.707   3.358   8.366  0.1990 -1.7207  1.1308
 1235SOL     OW15166   0.348   3.966   7.482 -0.1805  0.8097  0.1033
 1235SOL    HW115167   0.434   3.997   7.509  0.6857 -0.8176 -0.7708
 1235SOL    HW215168   0.346   3.889   7.538 -1.3708 -0.0209 -1.0901
 1236SOL     OW15169   2.358   3.197   9.348  0.0646  0.1296 -0.1346
 1236SOL    HW115170   2.359   3.221   9.255  1.0729  0.2549 -0.0856
 1236SOL    HW215171   2.358   3.101   9.342  1.1236 -0.1484  3.9850
 1237SOL     OW15172   2.769   0.634   6.617 -0.3070 -0.3714  0.8046
 1237SOL    HW115173   2.731   0.640   6.705 -1.5408  0.0804  0.2330
 1237SOL    HW215174   2.855   0.598   6.641  0.8667  2.4659  0.7745
 1238SOL     OW15175   0.500   3.053   3.135 -0.3498  0.2730 -0.1029
 1238SOL    HW115176   0.503   3.146   3.114 -0.2670 -0.0863 -1.6726
 1238SOL    HW215177   0.588   3.020   3.117 -1.2000 -2.2304  0.3352
 1239SOL     OW15178   0.058   1.054  11.095  0.0086  0.6649 -0.2418
 1239SOL    HW115179   0.143   1.029  11.133  0.5302 -0.3673 -2.0600
 1239SOL    HW215180   0.031   0.969  11.060 -2.3855  0.4820  2.0172
 1240SOL     OW15181   2.492   3.393  11.720 -0.5180 -0.0862  0.2140
 1240SOL    HW115182   2.470   3.309  11.679  0.2763  0.7990 -2.0310
 1240SOL    HW215183   2.562   3.427  11.663  0.0511 -0.9304  0.4073
 1241SOL     OW15184   0.340   3.264  17.101 -0.2004 -0.0288 -0.1878
 1241SOL    HW115185   0.389   3.273  17.018  1.2585  1.6259  0.8555
 1241SOL    HW215186   0.409   3.212  17.142 -1.2583  0.1777  1.8168
 1242SOL     OW15187   0.330   1.966   6.102  0.1386  0.2489 -0.2427
 1242SOL    HW115188   0.381   1.919   6.036 -1.0706 -1.1857 -0.1622
 1242SOL    HW215189   0.292   2.036   6.047 -1.4901  0.2206  0.8427
 1243SOL     OW15190   3.973   0.384   9.173  0.5097 -0.2043  0.2193
 1243SOL    HW115191   3.903   0.420   9.119 -0.3293  1.6945  2.5412
 1243SOL    HW215192   3.950   0.429   9.254 -4.0305 -0.4565 -0.9157
 1244SOL     OW15193   0.506   1.819   1.581 -0.4304  0.6992  0.5246
 1244SOL    HW115194   0.470   1.731   1.569  0.1802  0.0507  3.2829
 1244SOL    HW215195   0.529   1.833   1.489  2.8380  1.7121  1.4885
 1245SOL     OW15196   2.928   0.676  11.053 -0.0029  0.6319  0.8443
 1245SOL    HW115197   3.022   0.684  11.037 -0.2621 -0.0405 -1.0637
 1245SOL    HW215198   2.898   0.628  10.976 -1.1602 -0.5457  2.0338
 1246SOL     OW15199   2.031   4.437   1.799 -0.4936  0.0391  0.1193
 1246SOL    HW115200   1.994   4.471   1.718  0.2673  1.4283  0.3587
 1246SOL    HW215201   2.006   4.503   1.864  0.1783  0.0822  0.3266
 1247SOL     OW15202   0.562   0.889   6.239 -0.0730 -0.0644  0.1030
 1247SOL    HW115203   0.655   0.904   6.224  0.1047 -0.9676  0.3359
 1247SOL    HW215204   0.531   0.935   6.161  1.7011  0.5433 -0.2431
 1248SOL     OW15205   3.226   0.177   1.307 -0.1127 -0.2824  0.6496
 1248SOL    HW115206   3.274   0.100   1.275  0.6189  0.6070 -0.3881
 1248SOL    HW215207   3.196   0.216   1.225  1.1828 -3.5803 -1.4180
 1249SOL     OW15208   0.579   3.288   2.796 -0.4518  0.0732 -0.2405
 1249SOL    HW115209   0.616   3.204   2.770  1.9677  0.6210  1.4124
 1249SOL    HW215210   0.618   3.345   2.729  1.3525 -0.8147  0.0478
 1250SOL     OW15211   3.662   2.245   4.918  0.6067 -0.2107  0.0910
 1250SOL    HW115212   3.703   2.236   5.004  1.9096  1.3990 -0.3568
 1250SOL    HW215213   3.615   2.328   4.924 -1.8090 -1.5435 -0.4557
 1251SOL     OW15214   1.505   0.708   6.151  0.1640 -0.7909  0.0839
 1251SOL    HW115215   1.444   0.714   6.225  1.3812 -0.1000  1.0249
 1251SOL    HW215216   1.529   0.796   6.124  0.0729 -0.3522  1.4428
 1252SOL     OW15217   3.792   0.488   5.927  0.8834  0.2183 -0.3910
 1252SOL    HW115218   3.819   0.539   5.850  1.3290  1.6338  0.7225
 1252SOL    HW215219   3.703   0.516   5.943  1.4276  0.4326  2.1952
 1253SOL     OW15220   2.739   1.767   4.272  0.4445 -0.4240  0.4487
 1253SOL    HW115221   2.798   1.730   4.338  1.9647 -1.0157 -1.2350
 1253SOL    HW215222   2.704   1.690   4.228  2.4862 -0.9123 -0.3394
 1254SOL     OW15223   4.574   3.093  17.036 -0.7212 -0.4425 -0.6997
 1254SOL    HW115224   4.637   3.124  17.100  0.1704  0.8824 -2.2416
 1254SOL    HW215225   4.506   3.154  17.064  0.5612  0.1416  1.0731
 1255SOL     OW15226   2.399   2.867   5.630 -0.1915  0.1135 -0.4222
 1255SOL    HW115227   2.482   2.894   5.592  0.0456 -1.0430 -0.7129
 1255SOL    HW215228   2.347   2.947   5.640  0.6167  0.9735 -3.1736
 1256SOL     OW15229   3.649   2.616   4.274  0.3733  0.0182  0.5846
 1256SOL    HW115230   3.569   2.661   4.249  1.6169  1.0829 -1.4770
 1256SOL    HW215231   3.626   2.527   4.301 -0.2733  0.4435  1.4308
 1257SOL     OW15232   2.917   2.255   7.604 -0.2489 -0.2805  0.2613
 1257SOL    HW115233   2.832   2.293   7.629 -0.9941 -2.2217  0.6751
 1257SOL    HW215234   2.943   2.231   7.693  0.0683 -1.3192 -0.1086
 1258SOL     OW15235   0.447   3.011  12.429 -0.3268 -0.1922 -0.3154
 1258SOL    HW115236   0.432   2.977  12.341  0.9117  2.0785 -1.3938
 1258SOL    HW215237   0.471   3.103  12.416  0.5299 -0.2693  0.7124
 1259SOL     OW15238   2.829   2.115   6.812 -0.7016  0.3231 -0.0609
 1259SOL    HW115239   2.899   2.050   6.803  0.0871  1.0059  1.0022
 1259SOL    HW215240   2.792   2.086   6.896  2.8419  2.6968  2.2959
 1260SOL     OW15241   2.189   2.079   5.028  0.6937  0.0271  0.7050
 1260SOL    HW115242   2.177   1.993   5.069 -1.6538 -0.0209 -0.0879
 1260SOL    HW215243   2.186   2.049   4.938 -2.3766 -1.8151  1.3968
 1261SOL     OW15244   0.647   4.078  14.806  0.3344  0.2776 -0.3818
 1261SOL    HW115245   0.560   4.109  14.831 -0.4924 -1.7898 -0.6953
 1261SOL    HW215246   0.691   4.089  14.890 -0.0640 -0.1822 -0.1132
 1262SOL     OW15247   0.396   0.094   7.890 -0.8685 -0.7628  0.1035
 1262SOL    HW115248   0.345   0.013   7.898 -1.0323 -0.8037 -1.5000
 1262SOL    HW215249   0.472   0.052   7.850 -0.2292  1.0480 -0.5825
 1263SOL     OW15250   0.747   0.467   3.452 -0.3081  0.4433  0.1162
 1263SOL    HW115251   0.800   0.518   3.513 -0.2976 -0.4502  0.8465
 1263SOL    HW215252   0.661   0.478   3.493 -0.1297  3.0366 -0.2187
 1264SOL     OW15253   1.106   0.963   2.748 -0.5552 -0.0943 -0.0456
 1264SOL    HW115254   1.116   0.870   2.729 -0.4938 -0.3128  1.0842
 1264SOL    HW215255   1.157   0.997   2.674 -0.6698 -0.9290 -0.5013
 1265SOL     OW15256   0.570   1.382   2.360  0.2040 -0.3856 -0.1917
 1265SOL    HW115257   0.560   1.410   2.451 -0.3478 -0.6837 -0.1575
 1265SOL    HW215258   0.664   1.377   2.347  0.6220  0.4470  2.3918
 1266SOL     OW15259   4.465   0.423   7.519  0.0748  0.4401 -0.1368
 1266SOL    HW115260   4.403   0.403   7.449  1.3684 -2.5108 -0.4538
 1266SOL    HW215261   4.528   0.473   7.467 -2.0812  1.3486 -1.8638
 1267SOL     OW15262   4.054   2.254   4.978  0.0606  0.0098 -0.0118
 1267SOL    HW115263   4.127   2.192   4.981 -0.5722 -0.6754  0.8458
 1267SOL    HW215264   4.016   2.217   5.057 -0.6668  1.0040  0.1072
 1268SOL     OW15265   1.256   0.634   7.047 -0.0122  0.0176 -0.3960
 1268SOL    HW115266   1.250   0.699   6.977  1.6723  2.8716  2.1231
 1268SOL    HW215267   1.259   0.549   7.003  0.9190 -0.5873  0.8363
 1269SOL     OW15268   1.842   1.848   5.561  0.1913  0.5264 -0.2582
 1269SOL    HW115269   1.935   1.848   5.585 -0.7460  2.2811  3.3574
 1269SOL    HW215270   1.853   1.857   5.467 -2.0256  0.3424 -0.5423
 1270SOL     OW15271   4.525   1.957   1.341  0.1308  0.6540 -0.0453
 1270SOL    HW115272   4.539   1.928   1.250  1.4278  1.3720 -0.0707
 1270SOL    HW215273   4.605   1.920   1.379 -0.2085 -1.8317 -1.7235
 1271SOL     OW15274   3.411   4.058   3.489  0.4508  0.3653 -0.1565
 1271SOL    HW115275   3.391   4.064   3.396  0.0735 -1.8722 -0.2294
 1271SOL    HW215276   3.323   4.038   3.520  0.4310  0.2251 -0.3020
 1272SOL     OW15277   1.749   3.700   5.553 -0.1317  0.1294  0.2488
 1272SOL    HW115278   1.737   3.751   5.633  0.3015 -0.5446  0.7495
 1272SOL    HW215279   1.661   3.671   5.533 -1.0475  1.3407  2.4714
 1273SOL     OW15280   2.196   1.215   5.373 -0.4681 -0.0487 -0.3416
 1273SOL    HW115281   2.151   1.160   5.437 -0.3265  0.7579  0.4461
 1273SOL    HW215282   2.153   1.203   5.288 -1.5813 -0.4703  0.2853
 1274SOL     OW15283   3.455   3.541  16.387  0.4573 -0.1878  0.5597
 1274SOL    HW115284   3.374   3.498  16.415 -1.1949  3.4261  1.2964
 1274SOL    HW215285   3.522   3.495  16.436 -1.4126 -2.3633  1.0722
 1275SOL     OW15286   2.286   0.599  12.225 -0.4052  0.1564 -0.6605
 1275SOL    HW115287   2.224   0.622  12.294  0.5312  0.5538  0.0528
 1275SOL    HW215288   2.340   0.678  12.224 -0.4910  0.2044 -1.3382
 1276SOL     OW15289   1.895   0.772   8.509 -0.6623  0.1488 -0.6754
 1276SOL    HW115290   1.942   0.690   8.494  1.5704  0.6953  3.3106
 1276SOL    HW215291   1.959   0.818   8.563 -1.8090  1.9921 -0.8679
 1277SOL     OW15292   4.717   3.902  17.498  0.4886 -0.1211 -0.1353
 1277SOL    HW115293   0.077   3.868  17.460  0.3123 -0.0310 -0.5873
 1277SOL    HW215294   0.034   3.960  17.564 -0.4844  1.5986 -1.0851
 1278SOL     OW15295   1.829   0.213   8.849 -0.0515  0.0568  0.5591
 1278SOL    HW115296   1.848   0.134   8.901 -0.4752 -1.1609 -1.1629
 1278SOL    HW215297   1.777   0.261   8.913 -1.1740 -1.3844  0.7308
 1279SOL     OW15298   1.616   0.023   6.028 -0.2245 -0.1441  0.1220
 1279SOL    HW115299   1.551   0.054   6.091  0.4243 -1.4329  1.4275
 1279SOL    HW215300   1.621   0.098   5.968  0.4470 -1.4230 -1.4354
 1280SOL     OW15301   1.254   3.979   2.502  0.1452  0.7823 -0.3590
 1280SOL    HW115302   1.332   4.006   2.453  1.5340 -0.0048  1.3840
 1280SOL    HW215303   1.242   4.051   2.563  0.6371  2.1984 -1.9448
 1281SOL     OW15304   3.155   4.620  14.011  0.3273  0.4152  0.3557
 1281SOL    HW115305   3.094   4.613  13.938 -0.3327 -0.2843  0.9682
 1281SOL    HW215306   3.220   4.687  13.990  1.2439 -0.8729 -0.8803
 1282SOL     OW15307   2.654   2.073   0.792  0.2680  0.3097  0.1524
 1282SOL    HW115308   2.559   2.061   0.799  0.0767  0.3376 -2.4535
 1282SOL    HW215309   2.664   2.070   0.697 -0.2841  2.1796  0.0429
 1283SOL     OW15310   2.288   1.371   4.309  1.1043  0.1739  0.4066
 1283SOL    HW115311   2.346   1.447   4.321  0.7362  0.6897 -1.0585
 1283SOL    HW215312   2.297   1.318   4.388  2.2089 -1.0366 -0.5299
 1284SOL     OW15313   0.183   1.252   6.563 -0.1661 -0.2166  0.6266
 1284SOL    HW115314   0.119   1.216   6.502 -0.2297  0.0407  0.5451
 1284SOL    HW215315   0.136   1.237   6.646 -1.8967  2.0716  0.0640
 1285SOL     OW15316   1.763   3.824  15.296  0.2992 -0.0859 -0.0354
 1285SOL    HW115317   1.800   3.745  15.258  1.7601  0.2978  0.5776
 1285SOL    HW215318   1.690   3.846  15.238 -0.3480 -0.2114  0.7322
 1286SOL     OW15319   1.104   3.805   9.083 -0.1558  0.1768  0.1572
 1286SOL    HW115320   1.168   3.808   9.155 -0.6006  0.2712  0.5459
 1286SOL    HW215321   1.151   3.756   9.015 -0.8646  0.4468 -0.5198
 1287SOL     OW15322   0.053   3.579  17.493  0.1844  0.4254  0.0540
 1287SOL    HW115323   0.059   3.638  17.568 -0.3822 -0.7253  1.0049
 1287SOL    HW215324   0.144   3.572  17.465  0.4435  1.7913  0.5401
 1288SOL     OW15325   2.213   1.511   7.679  0.2663 -0.1046  0.3946
 1288SOL    HW115326   2.204   1.603   7.704 -2.7960  0.1875 -1.7866
 1288SOL    HW215327   2.126   1.471   7.681  0.1723  0.1231  0.8470
 1289SOL     OW15328   3.937   3.692   9.089 -0.1279 -0.3225  0.3611
 1289SOL    HW115329   3.900   3.764   9.141  0.9217 -2.2638  3.7881
 1289SOL    HW215330   3.997   3.652   9.152 -1.4165  2.0233  3.0952
 1290SOL     OW15331   3.985   2.162   7.322 -0.1451 -0.1493 -1.0880
 1290SOL    HW115332   3.953   2.250   7.341  3.2464  0.5573  1.4758
 1290SOL    HW215333   3.915   2.103   7.352  0.2805 -0.3437 -0.4802
 1291SOL     OW15334   0.730   0.135  16.606 -0.8058 -0.1440  0.4265
 1291SOL    HW115335   0.639   0.133  16.577 -0.1827  1.9463 -1.6540
 1291SOL    HW215336   0.738   0.072  16.678  3.1928  0.3415  0.4076
 1292SOL     OW15337   3.528   2.676  11.334  0.4686 -0.2559  0.1897
 1292SOL    HW115338   3.449   2.674  11.388  0.4283  1.6405  0.1910
 1292SOL    HW215339   3.602   2.669  11.394  0.6835  1.1564  0.0832
 1293SOL     OW15340   2.898   2.929   8.330 -0.2056 -0.0786  0.8671
 1293SOL    HW115341   2.949   2.986   8.388 -0.3035  0.5307  0.3523
 1293SOL    HW215342   2.900   2.979   8.249 -2.5700  1.4193  1.7283
 1294SOL     OW15343   0.783   3.195   7.507 -0.5136  0.1578 -0.1805
 1294SOL    HW115344   0.783   3.128   7.439 -0.1497 -0.7935  0.7567
 1294SOL    HW215345   0.846   3.165   7.572 -0.9079  0.6029  0.4100
 1295SOL     OW15346   2.675   1.239  14.910 -0.0504  0.2324  0.0581
 1295SOL    HW115347   2.637   1.288  14.837  0.9265  0.5393 -0.2467
 1295SOL    HW215348   2.704   1.302  14.975 -0.1708 -0.1664  0.5000
 1296SOL     OW15349   1.472   3.129   7.804 -0.4499  0.0491 -0.0896
 1296SOL    HW115350   1.531   3.057   7.826  0.1332  0.6718  0.3925
 1296SOL    HW215351   1.437   3.142   7.892  1.4838  1.0629  0.5439
 1297SOL     OW15352   3.665   0.564  12.579 -0.3467 -0.5488 -0.2248
 1297SOL    HW115353   3.578   0.528  12.600 -0.0213 -0.4697  1.2625
 1297SOL    HW215354   3.661   0.560  12.484 -2.3246  2.4858 -0.2502
 1298SOL     OW15355   2.483   4.027   0.588 -0.4028  0.2297  0.4354
 1298SOL    HW115356   2.513   4.013   0.498  0.8574  1.4703  0.6572
 1298SOL    HW215357   2.389   4.019   0.575 -0.5261  1.4577  0.5924
 1299SOL     OW15358   3.385   3.780  10.562  0.0706  0.0983 -0.1816
 1299SOL    HW115359   3.421   3.703  10.605 -0.0355  0.1370 -0.0254
 1299SOL    HW215360   3.384   3.750  10.471  1.2962  0.1731 -0.2274
 1300SOL     OW15361   4.393   0.900   9.190 -0.6141  0.0939 -0.2036
 1300SOL    HW115362   4.405   0.871   9.281  0.1094 -0.0179 -0.3306
 1300SOL    HW215363   4.326   0.839   9.158 -0.0604 -0.5393 -0.1637
 1301SOL     OW15364   0.947   4.091   2.285  0.7100 -0.5219  0.0224
 1301SOL    HW115365   0.924   4.166   2.340  0.4473 -1.3406  1.0334
 1301SOL    HW215366   0.957   4.142   2.205  0.6338  0.5461  0.6808
 1302SOL     OW15367   4.613   3.780   6.067  0.1165 -0.9083 -0.5300
 1302SOL    HW115368   4.543   3.806   6.127 -0.5350  0.5311 -1.9384
 1302SOL    HW215369   4.642   3.698   6.107 -0.8114 -2.7974 -3.7786
 1303SOL     OW15370   2.561   1.341   3.115 -0.0444  0.0059 -0.1333
 1303SOL    HW115371   2.647   1.339   3.072 -0.7485 -2.6835 -1.4054
 1303SOL    HW215372   2.507   1.404   3.068 -0.1764  0.3247  0.4402
 1304SOL     OW15373   4.520   0.441   1.688  0.1949 -0.0860  0.1630
 1304SOL    HW115374   4.432   0.455   1.724  0.8373  0.3245  1.5396
 1304SOL    HW215375   4.548   0.530   1.708  2.2021 -0.2903 -1.7535
 1305SOL     OW15376   2.201   2.262   7.535  0.1348  0.0082 -0.2598
 1305SOL    HW115377   2.193   2.348   7.578 -0.1598 -0.0271 -0.2431
 1305SOL    HW215378   2.294   2.262   7.512  0.1037  0.8776 -0.4083
 1306SOL     OW15379   4.062   3.060   4.701 -0.4189  0.0568  0.0953
 1306SOL    HW115380   4.149   3.040   4.736  1.3225  1.6640 -3.2980
 1306SOL    HW215381   4.036   3.133   4.757 -2.0698 -1.4312  1.2680
 1307SOL     OW15382   2.327   2.009   2.233  0.4258  0.0098  0.0296
 1307SOL    HW115383   2.346   2.094   2.272 -0.3605  0.3249 -0.2642
 1307SOL    HW215384   2.277   1.976   2.307 -0.2803  0.4798 -0.2371
 1308SOL     OW15385   0.712   0.392   5.368  0.3789 -0.2699  0.1251
 1308SOL    HW115386   0.673   0.468   5.325 -0.8329 -1.6311 -1.1896
 1308SOL    HW215387   0.661   0.340   5.305 -0.3787  1.2178 -0.4677
 1309SOL     OW15388   1.409   3.684   2.813 -0.0250  0.0965  0.1848
 1309SOL    HW115389   1.452   3.601   2.792 -0.9405  0.1744 -2.0777
 1309SOL    HW215390   1.317   3.666   2.793  0.5849 -0.7393 -1.9227
 1310SOL     OW15391   1.545   2.227  16.289 -0.6830 -0.0831  0.2806
 1310SOL    HW115392   1.635   2.255  16.275 -1.2127  0.1910 -2.6832
 1310SOL    HW215393   1.501   2.308  16.314 -0.4687  0.1131  0.0116
 1311SOL     OW15394   1.416   1.425   8.011 -0.2560 -0.2687 -0.6308
 1311SOL    HW115395   1.445   1.403   7.923 -1.9725 -0.4963 -1.1353
 1311SOL    HW215396   1.444   1.345   8.055  0.4261  0.7631  0.8038
 1312SOL     OW15397   2.028   4.438   4.687 -0.3619 -0.5583  0.0023
 1312SOL    HW115398   1.949   4.400   4.726 -2.9599  3.2165 -1.5140
 1312SOL    HW215399   1.993   4.528   4.692 -0.6060 -0.6403 -0.2231
 1313SOL     OW15400   3.575   4.353   6.674 -0.2054 -0.3066 -0.6713
 1313SOL    HW115401   3.663   4.363   6.638 -0.0339 -0.0020 -0.1576
 1313SOL    HW215402   3.560   4.444   6.698 -1.3783 -0.4648 -0.7761
 1314SOL     OW15403   1.787   0.531   4.616 -0.0610  0.2058 -0.3368
 1314SOL    HW115404   1.801   0.560   4.706  1.6524  0.3693 -0.6705
 1314SOL    HW215405   1.726   0.595   4.579 -1.3138 -1.4905 -1.2319
 1315SOL     OW15406   2.597   1.465  12.086  0.3548  0.5977  0.4078
 1315SOL    HW115407   2.594   1.404  12.160 -1.8443 -0.2273 -0.3686
 1315SOL    HW215408   2.604   1.548  12.132  2.9101  0.3125  0.5527
 1316SOL     OW15409   2.291   3.900   7.254  0.2312 -0.0906 -0.0821
 1316SOL    HW115410   2.351   3.833   7.221 -0.4879 -0.8997  0.2663
 1316SOL    HW215411   2.201   3.868   7.247 -0.0751  1.0256 -1.2527
 1317SOL     OW15412   0.559   0.820   3.675  0.0018  0.0538 -0.1378
 1317SOL    HW115413   0.500   0.806   3.749 -1.0977  2.0689 -0.6544
 1317SOL    HW215414   0.627   0.855   3.733 -0.9972 -1.5649  1.9991
 1318SOL     OW15415   3.309   4.235   4.778 -0.2919  0.4072 -0.5815
 1318SOL    HW115416   3.254   4.262   4.705 -1.9310 -0.6383  0.2785
 1318SOL    HW215417   3.249   4.261   4.848 -2.6076  1.2862 -2.9121
 1319SOL     OW15418   0.610   3.640   1.818 -0.0589 -0.2444 -0.1798
 1319SOL    HW115419   0.549   3.568   1.832 -0.7695  0.5328  0.7472
 1319SOL    HW215420   0.691   3.604   1.853  1.5461  1.4754 -2.1262
 1320SOL     OW15421   4.022   4.232   3.621 -0.0665 -0.3128  0.1940
 1320SOL    HW115422   4.100   4.263   3.668 -1.0498 -0.3779  1.8572
 1320SOL    HW215423   3.985   4.171   3.684 -1.5106  2.7187  2.2489
 1321SOL     OW15424   0.935   1.514  13.543 -0.2284 -0.0779 -0.1647
 1321SOL    HW115425   0.980   1.465  13.475 -0.7579 -1.7943  0.7182
 1321SOL    HW215426   0.966   1.467  13.620 -2.1708 -0.5402  0.3577
 1322SOL     OW15427   1.334   0.319  15.791 -0.4116 -0.0226 -0.5248
 1322SOL    HW115428   1.265   0.381  15.766 -0.2763  0.2650 -0.1920
 1322SOL    HW215429   1.290   0.239  15.765  0.0718 -0.5057  0.1522
 1323SOL     OW15430   1.859   2.604  15.016 -0.0244  0.1052  0.0292
 1323SOL    HW115431   1.829   2.647  14.936  0.4671 -1.2094 -0.8598
 1323SOL    HW215432   1.822   2.664  15.081  0.4464 -0.3038  0.6805
 1324SOL     OW15433   2.295   1.445   7.433 -0.2926 -0.2246 -0.3220
 1324SOL    HW115434   2.363   1.512   7.423 -0.3038 -0.2274 -0.4194
 1324SOL    HW215435   2.256   1.461   7.519 -1.6665 -1.6898 -0.6729
 1325SOL     OW15436   2.568   0.425   8.573 -0.2021  0.2535 -0.5886
 1325SOL    HW115437   2.589   0.467   8.490  0.3066  0.6635 -0.2605
 1325SOL    HW215438   2.512   0.351   8.552 -1.6134  0.7771  1.2612
 1326SOL     OW15439   1.734   4.521   3.097 -0.3723  0.0695 -0.0221
 1326SOL    HW115440   1.828   4.510   3.079 -0.0294  2.8401  0.0515
 1326SOL    HW215441   1.728   4.615   3.111 -2.2252 -0.1486  0.5713
 1327SOL     OW15442   0.006   3.608  15.295 -0.1343 -0.2862 -0.5615
 1327SOL    HW115443   4.702   3.691  15.335 -2.0445 -0.5515 -1.2918
 1327SOL    HW215444   0.037   3.638  15.210  0.8647 -1.6641 -0.6828
 1328SOL     OW15445   1.014   1.927  12.851 -0.3964  0.3869 -0.4082
 1328SOL    HW115446   1.101   1.967  12.856 -0.3593  0.5283 -2.0600
 1328SOL    HW215447   0.974   1.979  12.781 -0.3221  0.2724 -0.5365
 1329SOL     OW15448   1.567   1.070   5.282 -0.9650 -0.4500  0.1100
 1329SOL    HW115449   1.622   0.992   5.279  1.3090  1.1730 -0.4160
 1329SOL    HW215450   1.543   1.081   5.190  3.0801  0.1186 -0.8943
 1330SOL     OW15451   3.930   3.797   5.403 -0.5655  0.3836  0.1059
 1330SOL    HW115452   3.862   3.786   5.469  1.2387  0.0461  1.9114
 1330SOL    HW215453   3.899   3.880   5.366  0.3634  1.6865  2.2440
 1331SOL     OW15454   1.904   0.235   6.489 -0.1447 -0.4253 -0.7164
 1331SOL    HW115455   1.967   0.301   6.520  1.5872 -1.0190 -2.9433
 1331SOL    HW215456   1.869   0.277   6.410 -1.0589  1.0056  0.4546
 1332SOL     OW15457   2.910   4.159   4.573 -0.2316  0.5491  0.2105
 1332SOL    HW115458   2.854   4.209   4.514  2.3839  2.6200 -0.5000
 1332SOL    HW215459   2.974   4.226   4.596 -0.7978  1.2002 -0.1082
 1333SOL     OW15460   4.107   2.057   1.218  0.2270 -0.1170  0.4214
 1333SOL    HW115461   4.049   2.019   1.152 -0.6897  0.1859  1.0545
 1333SOL    HW215462   4.126   1.987   1.280  0.5943  0.4410  0.9301
 1334SOL     OW15463   2.557   2.769  13.708 -0.4436  0.2732  0.2274
 1334SOL    HW115464   2.462   2.757  13.704 -0.3195 -1.1167  1.2593
 1334SOL    HW215465   2.570   2.816  13.625  0.9471  1.0421  0.8934
 1335SOL     OW15466   1.280   4.295  13.169  0.1691  0.1716  0.0648
 1335SOL    HW115467   1.326   4.367  13.212  0.5860 -0.9270  1.4782
 1335SOL    HW215468   1.252   4.332  13.085  1.9782 -0.8737 -0.9971
 1336SOL     OW15469   1.636   2.871   3.021  0.1707  0.2524 -0.4400
 1336SOL    HW115470   1.595   2.836   3.100  0.6088  0.7960  0.0316
 1336SOL    HW215471   1.558   2.916   2.989 -1.0178 -1.0485  0.6305
 1337SOL     OW15472   4.230   0.368   2.031  0.4403  0.5639  0.5675
 1337SOL    HW115473   4.140   0.374   1.998  0.2522  0.3495  1.0547
 1337SOL    HW215474   4.277   0.411   1.960 -1.0214  1.3482  0.0600
 1338SOL     OW15475   1.856   3.225   2.932 -0.3754  0.0699 -0.0013
 1338SOL    HW115476   1.884   3.177   3.010 -1.3799 -1.7598 -0.7721
 1338SOL    HW215477   1.805   3.153   2.894 -0.7982 -0.6531  1.9757
 1339SOL     OW15478   3.699   0.678   5.138 -0.1605 -0.0816  0.2599
 1339SOL    HW115479   3.708   0.711   5.048 -1.6202 -1.2926 -0.3324
 1339SOL    HW215480   3.607   0.690   5.162 -0.4623  0.0422 -0.9468
 1340SOL     OW15481   0.325   2.030  14.426 -0.3258 -0.2613 -0.6096
 1340SOL    HW115482   0.299   2.042  14.517 -0.8587  2.5161 -1.1368
 1340SOL    HW215483   0.416   2.009  14.447  0.1104  2.7444  0.5029
 1341SOL     OW15484   3.594   0.485   1.790  0.3937 -0.3565  0.3991
 1341SOL    HW115485   3.544   0.522   1.717  1.2942 -3.3211 -1.7722
 1341SOL    HW215486   3.554   0.398   1.789  0.3422 -0.3407  1.0165
 1342SOL     OW15487   2.988   1.950   7.727 -0.1926 -0.0978 -0.3227
 1342SOL    HW115488   3.028   1.910   7.804 -1.0636 -0.4658 -0.0506
 1342SOL    HW215489   3.059   1.946   7.663  0.1628 -0.1970  0.0864
 1343SOL     OW15490   3.547   1.982   8.779 -0.6732 -1.1670 -0.2307
 1343SOL    HW115491   3.636   2.018   8.778 -1.0068 -0.3125  0.3902
 1343SOL    HW215492   3.506   2.064   8.808  2.8881  1.3618 -2.4018
 1344SOL     OW15493   4.583   2.143   0.119  0.1709  0.3537 -0.2485
 1344SOL    HW115494   4.514   2.145   0.053  0.5877  1.5128 -0.6358
 1344SOL    HW215495   4.638   2.087   0.064  1.1668  0.6313  0.4684
 1345SOL     OW15496   4.611   4.346   5.192 -0.1740 -0.3833 -0.3462
 1345SOL    HW115497   4.567   4.261   5.197 -1.9219  0.5821  0.4047
 1345SOL    HW215498   4.545   4.403   5.231  2.4401  0.6394  2.5466
 1346SOL     OW15499   0.029   0.729  12.899 -0.0238 -0.3767  0.1058
 1346SOL    HW115500   4.720   0.676  12.826 -2.9540  1.2743  0.1668
 1346SOL    HW215501   4.699   0.684  12.966 -0.3866 -1.6910 -1.0455
 1347SOL     OW15502   1.957   1.849   0.926 -0.3349 -1.0419 -0.5928
 1347SOL    HW115503   1.960   1.780   0.859  1.0438 -3.3179  1.7876
 1347SOL    HW215504   2.048   1.871   0.945 -0.2397 -1.1821 -0.8859
 1348SOL     OW15505   0.736   2.438   7.252 -0.0118  0.2869  0.1192
 1348SOL    HW115506   0.771   2.377   7.186 -0.9809 -1.5718  1.3081
 1348SOL    HW215507   0.717   2.369   7.315 -1.3856  1.1810  0.6717
 1349SOL     OW15508   0.768   4.591   9.971 -0.2037  0.0021  0.1940
 1349SOL    HW115509   0.856   4.599   9.934 -0.3024 -1.3767 -0.3212
 1349SOL    HW215510   0.721   4.594   9.888 -0.0284  0.0180  0.0962
 1350SOL     OW15511   4.505   3.869  12.463 -0.0970 -0.1001 -0.2294
 1350SOL    HW115512   4.494   3.828  12.377 -2.8579 -0.5930  0.3657
 1350SOL    HW215513   4.588   3.917  12.455  0.1190 -0.7301 -1.9339
 1351SOL     OW15514   0.769   1.400  16.086  0.4672  0.2583 -0.3411
 1351SOL    HW115515   0.708   1.442  16.025  1.2618  0.2119 -1.1663
 1351SOL    HW215516   0.857   1.424  16.059  0.7556 -0.5097 -0.0848
 1352SOL     OW15517   4.446   1.633   7.642 -0.0964 -0.1080  0.0483
 1352SOL    HW115518   4.468   1.566   7.707  0.1188  1.1350  1.2679
 1352SOL    HW215519   4.454   1.580   7.563 -3.6413  0.2959 -0.5702
 1353SOL     OW15520   4.247   1.395   9.660 -0.0415 -0.1750 -0.1706
 1353SOL    HW115521   4.304   1.318   9.658 -1.7513 -1.3881 -1.6511
 1353SOL    HW215522   4.198   1.382   9.741  1.7420 -0.6218  0.8522
 1354SOL     OW15523   2.989   4.236   2.228  0.0624  0.8379 -0.5393
 1354SOL    HW115524   2.952   4.300   2.168 -1.7999  0.7658  0.5314
 1354SOL    HW215525   2.910   4.211   2.277 -0.2745  0.4370 -1.2728
 1355SOL     OW15526   4.117   4.185   3.329  0.3518  0.2208 -0.0922
 1355SOL    HW115527   4.129   4.269   3.284 -0.4525 -0.2805 -1.2540
 1355SOL    HW215528   4.087   4.208   3.417 -2.0687  1.6859 -1.3046
 1356SOL     OW15529   3.658   4.328  12.747  0.1367  0.2756 -0.1141
 1356SOL    HW115530   3.689   4.296  12.662  0.3119 -0.3474  0.1904
 1356SOL    HW215531   3.596   4.389  12.707  0.4358  1.0964  0.6740
 1357SOL     OW15532   0.550   3.920   6.238 -0.8091  0.3282  0.1352
 1357SOL    HW115533   0.501   3.941   6.317 -0.8241  0.4502  0.0939
 1357SOL    HW215534   0.482   3.946   6.175 -0.9914 -0.1236  0.1450
 1358SOL     OW15535   3.930   0.799   8.549  0.0725 -0.4864  0.2794
 1358SOL    HW115536   3.997   0.803   8.617  2.1250 -1.4633 -1.6787
 1358SOL    HW215537   3.908   0.891   8.539 -2.4951 -1.1784 -0.3560
 1359SOL     OW15538   4.112   1.544   0.195  0.4315  0.1305  0.5458
 1359SOL    HW115539   4.128   1.637   0.175  0.7544  0.0465  0.4173
 1359SOL    HW215540   4.069   1.560   0.279  0.1903 -0.4320  0.5244
 1360SOL     OW15541   1.233   0.240   9.310 -0.0921 -0.2889 -0.5266
 1360SOL    HW115542   1.164   0.180   9.282  0.3313 -0.2874 -1.5687
 1360SOL    HW215543   1.228   0.237   9.406 -2.6068  2.1974 -0.5874
 1361SOL     OW15544   0.004   1.872   8.191 -0.5661  0.1070 -0.2782
 1361SOL    HW115545   4.647   1.864   8.137  0.2278 -0.9125 -1.2930
 1361SOL    HW215546   0.022   1.966   8.195  2.2834 -0.5116  1.6100
 1362SOL     OW15547   4.444   3.981   5.417 -0.6999 -0.2831  0.1450
 1362SOL    HW115548   4.365   3.981   5.471  0.8387  0.4575  2.4248
 1362SOL    HW215549   4.483   3.902   5.456 -2.0118 -0.7267  0.5788
 1363SOL     OW15550   1.243   3.418  11.471 -0.3014  0.0223  0.2367
 1363SOL    HW115551   1.153   3.436  11.497 -1.2121  0.3913 -3.1527
 1363SOL    HW215552   1.296   3.458  11.540 -0.3635  2.2511 -0.9749
 1364SOL     OW15553   1.019   0.160  10.229  0.1462  0.2698 -0.5400
 1364SOL    HW115554   0.999   0.206  10.310 -0.6530  1.4720 -1.4297
 1364SOL    HW215555   0.957   0.203  10.170 -0.6803 -1.2949 -0.7975
 1365SOL     OW15556   2.443   4.480  11.301 -0.2813  0.1367  0.8218
 1365SOL    HW115557   2.388   4.424  11.247 -0.4950  1.2535 -0.1168
 1365SOL    HW215558   2.517   4.419  11.309  0.8528  1.0331 -2.8926
 1366SOL     OW15559   1.480   4.123   6.595  0.0447 -0.1282  0.1738
 1366SOL    HW115560   1.445   4.206   6.627  0.6739  0.2750 -0.1794
 1366SOL    HW215561   1.405   4.065   6.608 -1.9324  2.8699  2.1547
 1367SOL     OW15562   2.717   2.245  12.134 -0.2611  0.2667 -0.1957
 1367SOL    HW115563   2.766   2.328  12.134 -1.3507  0.9319 -1.9170
 1367SOL    HW215564   2.631   2.278  12.106 -1.0116 -0.6565  1.0222
 1368SOL     OW15565   1.944   3.849  16.474  0.1992 -0.1573  0.8289
 1368SOL    HW115566   1.920   3.941  16.478  3.2578  0.6808  0.3844
 1368SOL    HW215567   1.900   3.830  16.391  1.1682  2.2346 -0.2191
 1369SOL     OW15568   3.873   2.047   0.653  0.0751  0.7972  0.5057
 1369SOL    HW115569   3.813   2.112   0.690 -0.9516  0.2214 -0.1458
 1369SOL    HW215570   3.825   2.015   0.576 -3.8774  0.1786  3.2623
 1370SOL     OW15571   2.010   3.671  10.280 -0.4124 -0.1786  0.1662
 1370SOL    HW115572   1.978   3.699  10.366  0.2439 -2.3480  1.1179
 1370SOL    HW215573   2.084   3.622  10.315  0.2102 -0.1273 -1.0931
 1371SOL     OW15574   4.600   1.407   5.105 -0.8507  0.0762 -0.0797
 1371SOL    HW115575   4.564   1.496   5.104 -0.9084  0.0718  1.2909
 1371SOL    HW215576   4.604   1.407   5.201  2.4220  2.0092 -0.1961
 1372SOL     OW15577   1.619   0.709   2.340  0.0215 -0.0742 -0.3076
 1372SOL    HW115578   1.612   0.615   2.361 -3.8052  0.0741 -0.8583
 1372SOL    HW215579   1.535   0.735   2.302 -0.8760 -3.4169 -0.6493
 1373SOL     OW15580   3.585   1.010  12.920 -0.0027  0.0800 -0.8212
 1373SOL    HW115581   3.588   1.103  12.942  0.3502  0.3473 -1.9999
 1373SOL    HW215582   3.491   0.995  12.909 -0.1963  0.7256 -0.0760
 1374SOL     OW15583   4.239   2.893   7.118  0.3298  0.0773  0.3169
 1374SOL    HW115584   4.242   2.799   7.100  1.5027  0.3629 -1.0016
 1374SOL    HW215585   4.145   2.913   7.123  0.0147 -1.1514 -0.8354
 1375SOL     OW15586   3.518   2.905   7.436 -0.6238  0.2862  0.0427
 1375SOL    HW115587   3.503   2.996   7.412 -0.0923  0.1156 -0.9424
 1375SOL    HW215588   3.490   2.868   7.352  1.7396 -1.4378  0.0303
 1376SOL     OW15589   0.010   2.303   3.307  0.3092  0.2447  0.2379
 1376SOL    HW115590   4.655   2.323   3.254 -1.5451  0.0262  2.8452
 1376SOL    HW215591   4.701   2.297   3.397 -1.0448 -0.3659 -0.2689
 1377SOL     OW15592   2.204   1.961   0.412  0.0991 -0.3547 -0.1667
 1377SOL    HW115593   2.273   1.984   0.350  1.1764 -0.4513  0.9975
 1377SOL    HW215594   2.215   2.026   0.481 -5.2648  0.6293 -0.2009
 1378SOL     OW15595   3.110   2.692   5.894 -0.4471 -0.0537 -0.3736
 1378SOL    HW115596   3.082   2.782   5.877  1.5760  0.8585  1.0928
 1378SOL    HW215597   3.037   2.644   5.854 -1.1882  0.7744 -0.0244
 1379SOL     OW15598   0.182   4.055   4.533  0.1419 -0.2739  0.3293
 1379SOL    HW115599   0.181   4.070   4.628  0.5884  2.8502 -0.1555
 1379SOL    HW215600   0.135   4.133   4.505  0.1983 -0.1231  0.6524
 1380SOL     OW15601   1.315   2.251   4.713 -0.3983  0.2819 -0.0729
 1380SOL    HW115602   1.301   2.204   4.795  1.8068 -0.6250 -0.2055
 1380SOL    HW215603   1.245   2.204   4.668 -0.5459  0.0528  0.3970
 1381SOL     OW15604   1.020   0.614   6.147  0.1153  0.1878  0.3032
 1381SOL    HW115605   1.057   0.657   6.070 -1.7224 -2.3343 -1.9582
 1381SOL    HW215606   0.988   0.533   6.108 -0.1866  2.0533 -3.2956
 1382SOL     OW15607   3.052   0.546   8.624  0.2633 -0.2079 -0.0238
 1382SOL    HW115608   2.964   0.524   8.653 -0.9794  3.1423 -1.3427
 1382SOL    HW215609   3.096   0.461   8.629  2.1868  0.8404  1.2111
 1383SOL     OW15610   2.526   4.022   6.762 -0.2063 -0.1858 -0.1902
 1383SOL    HW115611   2.455   4.077   6.730 -0.8114 -0.5023  0.6056
 1383SOL    HW215612   2.505   4.027   6.855  1.1979 -0.9465  0.1618
 1384SOL     OW15613   0.233   0.476   9.097 -0.2183 -0.2078  0.4166
 1384SOL    HW115614   0.230   0.522   9.181 -0.4429  2.5401 -1.0984
 1384SOL    HW215615   0.290   0.534   9.046  0.4912 -0.5161  0.8504
 1385SOL     OW15616   4.450   1.868   7.761  0.1500  0.7666 -0.3704
 1385SOL    HW115617   4.437   1.780   7.725  0.1697  1.2022 -1.4376
 1385SOL    HW215618   4.542   1.869   7.787 -0.8956 -5.0395  3.6550
 1386SOL     OW15619   0.140   3.992  12.217 -0.4302 -0.1719 -0.0177
 1386SOL    HW115620   0.226   4.031  12.229 -0.7752  0.7716 -0.5828
 1386SOL    HW215621   0.158   3.898  12.218 -0.1649 -0.1294 -0.4552
 1387SOL     OW15622   1.782   1.660  16.376 -0.1513 -0.2256  0.5547
 1387SOL    HW115623   1.779   1.667  16.281  0.3200  2.4910  0.7299
 1387SOL    HW215624   1.692   1.679  16.405 -0.3723 -1.5779  0.7608
 1388SOL     OW15625   0.954   2.060   1.718 -0.1758  0.4907  0.2416
 1388SOL    HW115626   0.981   1.977   1.758 -1.7115 -0.4205 -0.6563
 1388SOL    HW215627   0.868   2.061   1.760 -0.5034  0.0517 -0.4255
 1389SOL     OW15628   4.620   4.530  12.736 -0.3656  0.4682 -0.5145
 1389SOL    HW115629   4.583   4.443  12.742 -1.5227  0.8981 -1.5325
 1389SOL    HW215630   4.664   4.525  12.652  1.6360  0.1591  0.5531
 1390SOL     OW15631   0.366   0.352   6.817  0.2774 -0.1200 -0.0858
 1390SOL    HW115632   0.450   0.391   6.841 -0.2576  1.2779 -0.4782
 1390SOL    HW215633   0.378   0.268   6.861 -2.7191 -0.2688  0.4624
 1391SOL     OW15634   0.463   2.981   1.928 -0.4704  0.3153 -0.0243
 1391SOL    HW115635   0.510   2.978   2.012  0.5494 -0.9645 -0.6525
 1391SOL    HW215636   0.473   3.074   1.908  0.6258  0.4443  1.1018
 1392SOL     OW15637   0.919   0.324   6.927 -0.1654 -0.2421 -0.1360
 1392SOL    HW115638   0.958   0.375   6.856 -2.2882  1.9258  0.2638
 1392SOL    HW215639   0.942   0.382   7.001  0.8530 -1.9714  0.9043
 1393SOL     OW15640   4.150   0.229   5.017 -0.5587 -0.1260 -0.5638
 1393SOL    HW115641   4.073   0.172   5.026  1.4975 -3.0290 -1.4482
 1393SOL    HW215642   4.107   0.295   4.962  0.4308  0.7675 -0.2822
 1394SOL     OW15643   4.560   1.368   3.139  0.4559  0.4015  0.0460
 1394SOL    HW115644   4.611   1.441   3.105  0.9423  0.0897  0.1059
 1394SOL    HW215645   4.624   1.299   3.119  1.0808  0.9300  0.2451
 1395SOL     OW15646   3.876   0.199   2.699  0.7264  0.0646  0.0707
 1395SOL    HW115647   3.925   0.149   2.634 -2.6271 -0.8602 -1.7825
 1395SOL    HW215648   3.829   0.263   2.644  0.9505  0.2537  0.1011
 1396SOL     OW15649   2.038   3.101   4.867 -0.7038  0.2066 -0.5961
 1396SOL    HW115650   1.953   3.108   4.911 -1.0251  1.8452 -1.4756
 1396SOL    HW215651   2.080   3.025   4.908  1.5608  0.9526 -1.5591
 1397SOL     OW15652   4.605   3.761   5.529 -0.3478  0.0919  0.8375
 1397SOL    HW115653   4.571   3.672   5.530 -0.0040 -0.0669 -1.6644
 1397SOL    HW215654   4.620   3.790   5.620  1.6619 -0.3707  0.6551
 1398SOL     OW15655   1.058   1.599   6.158 -0.5607  0.6421  0.0894
 1398SOL    HW115656   1.143   1.556   6.154 -1.3271 -1.0808  2.0816
 1398SOL    HW215657   1.086   1.682   6.196  0.7186  0.7686 -1.1269
 1399SOL     OW15658   1.166   3.504   7.662 -0.3556 -0.3557 -0.1640
 1399SOL    HW115659   1.109   3.567   7.617 -0.6356 -0.7738 -0.3868
 1399SOL    HW215660   1.144   3.430   7.607 -3.0556  0.4953 -0.2330
 1400SOL     OW15661   2.335   2.925   7.347 -0.6207  0.0386 -0.0333
 1400SOL    HW115662   2.393   2.980   7.296 -2.1338  1.7645  0.1168
 1400SOL    HW215663   2.333   2.841   7.301  2.8037  0.1011 -0.3129
 1401SOL     OW15664   4.308   0.083   9.578 -0.4102  0.0280 -0.9348
 1401SOL    HW115665   4.323   0.169   9.539  0.1888 -0.2426 -1.2976
 1401SOL    HW215666   4.317   0.028   9.500  0.8411  1.1313 -1.5595
 1402SOL     OW15667   1.465   3.077   3.990  0.3530 -0.5819  0.6324
 1402SOL    HW115668   1.544   3.059   3.939  0.7106  0.5944  0.7655
 1402SOL    HW215669   1.405   3.121   3.930 -0.4378 -0.7379  1.3160
 1403SOL     OW15670   4.658   1.397   5.948  0.0448 -0.7796 -0.8527
 1403SOL    HW115671   4.588   1.450   5.911 -0.1472 -0.2771  0.2506
 1403SOL    HW215672   4.713   1.373   5.873  0.6444  0.1305 -0.7019
 1404SOL     OW15673   4.704   1.713   3.173 -0.2577  0.6634  0.6310
 1404SOL    HW115674   0.033   1.667   3.105 -1.0034  0.4258  0.2358
 1404SOL    HW215675   4.625   1.734   3.123  1.6425 -0.0852 -2.7456
 1405SOL     OW15676   2.864   1.193   1.884  0.3413  0.2148 -0.1484
 1405SOL    HW115677   2.854   1.098   1.889 -1.8561  0.3716 -1.9197
 1405SOL    HW215678   2.959   1.208   1.881  0.9443 -3.3872  0.5378
 1406SOL     OW15679   2.037   0.066   9.574 -0.4152 -0.1466  0.1308
 1406SOL    HW115680   2.103   0.128   9.608 -0.0762 -0.9494  0.9262
 1406SOL    HW215681   2.017   0.026   9.659 -1.1726  0.4115  0.2094
 1407SOL     OW15682   2.751   1.972   1.469  0.4099  0.2643 -0.4135
 1407SOL    HW115683   2.763   1.879   1.452  0.9603  0.4858 -1.2162
 1407SOL    HW215684   2.736   2.000   1.379 -3.2151  1.2430  0.5168
 1408SOL     OW15685   2.336   1.698   1.394 -0.0929  0.1877  0.0664
 1408SOL    HW115686   2.362   1.633   1.328  1.9389 -1.4433  2.4760
 1408SOL    HW215687   2.261   1.742   1.355 -0.4470 -0.5567 -0.1013
 1409SOL     OW15688   2.001   2.497   2.314  0.0275  0.1860  0.0945
 1409SOL    HW115689   2.045   2.491   2.398 -1.2363  1.0877  0.8161
 1409SOL    HW215690   1.909   2.483   2.333  0.3895 -1.6502  0.4361
 1410SOL     OW15691   1.459   3.425  16.889 -0.2487  0.3461  0.6374
 1410SOL    HW115692   1.451   3.393  16.799  0.3429 -0.2060  0.7803
 1410SOL    HW215693   1.415   3.509  16.878 -1.0815 -0.0533  0.9536
 1411SOL     OW15694   2.518   0.752   1.972 -0.2332 -0.4777  0.0568
 1411SOL    HW115695   2.528   0.659   1.996  0.7002 -0.9179 -2.0020
 1411SOL    HW215696   2.464   0.783   2.044 -0.4415 -0.5702 -0.0581
 1412SOL     OW15697   3.204   0.647  11.013 -0.5978 -0.3973  0.1362
 1412SOL    HW115698   3.230   0.616  10.927  0.0727 -0.8457  0.4992
 1412SOL    HW215699   3.268   0.607  11.072  0.3995  1.0550  0.0167
 1413SOL     OW15700   2.148   1.701   4.205 -0.3897  0.2863  0.2117
 1413SOL    HW115701   2.101   1.632   4.251 -1.7638  0.7477 -0.5061
 1413SOL    HW215702   2.096   1.707   4.125  2.0394  1.2744 -1.2891
 1414SOL     OW15703   3.921   0.726   9.130  0.4595 -0.2544 -0.0740
 1414SOL    HW115704   3.851   0.667   9.104  0.2938  0.6147 -1.5823
 1414SOL    HW215705   3.891   0.773   9.209  0.4164  0.8613 -0.7525
 1415SOL     OW15706   0.043   0.486  11.613 -0.4730 -0.2270 -0.1517
 1415SOL    HW115707   4.718   0.569  11.621  3.4620  1.6155  4.1125
 1415SOL    HW215708   0.124   0.505  11.661 -1.5461 -1.0607  2.0157
 1416SOL     OW15709   4.317   3.103   9.566  0.1521  0.0749  0.2761
 1416SOL    HW115710   4.304   3.015   9.531  0.1443  0.2186 -0.0800
 1416SOL    HW215711   4.247   3.156   9.526  1.6591  0.1375 -2.2848
 1417SOL     OW15712   1.467   0.014   6.875 -0.1330  0.7928  0.0810
 1417SOL    HW115713   1.536   0.068   6.836  1.6255 -1.3813  0.1660
 1417SOL    HW215714   1.500   4.648   6.856 -0.7787  0.2633  1.4676
 1418SOL     OW15715   3.972   0.535   8.418  0.1372  0.3101  0.6761
 1418SOL    HW115716   4.064   0.508   8.411  0.0812  0.6687 -1.3602
 1418SOL    HW215717   3.978   0.608   8.480  0.8366 -0.1811  1.1892
 1419SOL     OW15718   1.138   3.523   8.635  0.3421  0.2196  0.0894
 1419SOL    HW115719   1.178   3.446   8.595  1.7494 -0.3422  2.5566
 1419SOL    HW215720   1.051   3.514   8.597 -0.4192  0.3146  1.8268
 1420SOL     OW15721   3.094   4.412   3.464  0.1848 -0.0098 -0.0339
 1420SOL    HW115722   3.045   4.332   3.444  1.8444 -0.9654 -0.2946
 1420SOL    HW215723   3.075   4.453   3.380 -2.9442  1.1329  1.2254
 1421SOL     OW15724   2.644   4.411  16.710 -0.0035  0.5390 -0.3187
 1421SOL    HW115725   2.687   4.344  16.657 -1.3091 -1.1315  0.7444
 1421SOL    HW215726   2.603   4.370  16.786  1.3404  1.7570  1.0782
 1422SOL     OW15727   0.271   3.101   7.723  0.5593 -0.3651  0.2675
 1422SOL    HW115728   0.177   3.090   7.712  0.4758  1.6482 -1.0644
 1422SOL    HW215729   0.318   3.114   7.641 -1.0903  1.2485 -0.4165
 1423SOL     OW15730   3.745   3.378   7.912  0.4975  0.0827 -0.0071
 1423SOL    HW115731   3.767   3.328   7.833  0.6948 -0.9020  0.6751
 1423SOL    HW215732   3.696   3.453   7.879 -1.0651 -2.0659 -2.5274
 1424SOL     OW15733   0.471   0.444   3.545 -0.3441 -0.0238  0.2451
 1424SOL    HW115734   0.449   0.352   3.537 -0.1516  0.2688 -3.4316
 1424SOL    HW215735   0.404   0.490   3.495  1.5935  0.8820 -1.5020
 1425SOL     OW15736   3.810   1.460   5.496  0.1863  0.0796  0.0284
 1425SOL    HW115737   3.795   1.519   5.570  0.2030  0.9796 -0.6796
 1425SOL    HW215738   3.895   1.421   5.515  0.9175  1.6102 -0.0729
 1426SOL     OW15739   3.455   1.954  11.184 -0.2687  0.1410  0.1936
 1426SOL    HW115740   3.421   2.031  11.138 -1.8026 -1.2492 -0.9858
 1426SOL    HW215741   3.471   1.996  11.269  1.3560  1.7924 -0.9138
 1427SOL     OW15742   2.104   3.015  15.979 -0.1840  0.6049  0.1786
 1427SOL    HW115743   2.169   3.068  15.932 -0.6119  1.4831  0.5769
 1427SOL    HW215744   2.031   3.074  15.996 -2.9609 -2.7853 -0.1406
 1428SOL     OW15745   1.923   2.085  15.301 -0.4157  0.4853  0.6810
 1428SOL    HW115746   1.841   2.116  15.338 -0.2863 -0.3425  1.6585
 1428SOL    HW215747   1.961   2.158  15.251 -2.4034  1.7205  0.9895
 1429SOL     OW15748   3.047   0.960  12.543 -0.1578  0.2524 -0.3000
 1429SOL    HW115749   3.092   0.944  12.459  0.3069 -0.4883  0.0909
 1429SOL    HW215750   3.110   0.923  12.605 -0.0705 -1.1654 -1.2306
 1430SOL     OW15751   0.467   0.142  10.124 -0.5547  0.5030 -0.0806
 1430SOL    HW115752   0.428   0.059  10.099  1.2551 -0.0526 -1.0291
 1430SOL    HW215753   0.412   0.209  10.084 -1.6446 -0.8347 -0.7934
 1431SOL     OW15754   2.623   4.388   7.708 -0.1049 -0.3597 -0.0266
 1431SOL    HW115755   2.548   4.414   7.762  0.7636 -3.0566  2.4604
 1431SOL    HW215756   2.577   4.343   7.636 -0.0996  0.0154 -0.2633
 1432SOL     OW15757   0.925   2.706   2.543 -0.4161 -0.3184  0.4904
 1432SOL    HW115758   0.956   2.793   2.568 -3.0827  0.4153  1.2779
 1432SOL    HW215759   0.919   2.715   2.448 -1.3450  0.0775  0.5895
 1433SOL     OW15760   0.125   3.811   2.824 -0.2635 -0.3190 -0.2681
 1433SOL    HW115761   0.048   3.756   2.808  2.1013 -3.7194 -0.0357
 1433SOL    HW215762   0.086   3.891   2.859 -0.4356 -0.5115 -0.0234
 1434SOL     OW15763   2.197   4.278   8.610  0.2064  0.4373  0.8126
 1434SOL    HW115764   2.197   4.199   8.664  0.8045  0.8755  1.4688
 1434SOL    HW215765   2.104   4.296   8.594  0.3167 -1.1715 -1.5659
 1435SOL     OW15766   2.212   4.691   4.889  0.4284  0.7539  0.3383
 1435SOL    HW115767   2.125   0.004   4.908  0.3442  1.0306 -0.5507
 1435SOL    HW215768   2.262   0.049   4.903  0.0074  1.5309 -2.5237
 1436SOL     OW15769   2.755   3.162   3.332 -0.5518  0.4807 -0.3536
 1436SOL    HW115770   2.784   3.142   3.243 -1.6944 -1.5025 -0.2741
 1436SOL    HW215771   2.821   3.230   3.347 -0.4622  0.2668  0.2155
 1437SOL     OW15772   0.855   4.446   3.288 -0.4660 -0.2749  0.2353
 1437SOL    HW115773   0.842   4.444   3.382 -0.9201  1.9475  0.2245
 1437SOL    HW215774   0.764   4.435   3.260 -0.6789  1.3999  0.2541
 1438SOL     OW15775   4.439   1.504   8.581  0.4421  0.5009 -0.2371
 1438SOL    HW115776   4.485   1.465   8.507 -0.4645  0.6195 -0.8700
 1438SOL    HW215777   4.349   1.478   8.562  0.3240  0.6704  0.0847
 1439SOL     OW15778   4.079   0.674  17.143 -0.5336 -0.3030 -0.6753
 1439SOL    HW115779   4.132   0.682  17.223  0.9386 -2.5811 -1.4059
 1439SOL    HW215780   4.002   0.722  17.173 -0.2581 -0.4545  0.2888
 1440SOL     OW15781   1.040   0.518   8.096  0.0091  0.4219 -0.4728
 1440SOL    HW115782   1.059   0.479   8.011  1.2444 -1.8060  0.8081
 1440SOL    HW215783   0.996   0.600   8.075  0.4026  1.4499  2.7455
 1441SOL     OW15784   1.635   2.893   6.259 -0.1766  0.6866  0.1328
 1441SOL    HW115785   1.568   2.942   6.212  0.2479  1.7883  0.6918
 1441SOL    HW215786   1.577   2.840   6.314 -0.4514  1.0427  0.1804
 1442SOL     OW15787   2.407   1.606   4.286 -0.3145 -0.6344 -0.2527
 1442SOL    HW115788   2.319   1.644   4.283  0.3969  0.8994 -1.6109
 1442SOL    HW215789   2.471   1.671   4.257 -0.5682 -0.9535 -1.5020
 1443SOL     OW15790   4.224   1.682  11.385 -0.9302 -0.6046  0.4735
 1443SOL    HW115791   4.221   1.596  11.342  2.7300 -0.2844 -0.3829
 1443SOL    HW215792   4.131   1.699  11.400 -1.4004  0.1561 -3.3644
 1444SOL     OW15793   0.746   3.623   2.470  0.4006 -0.5483 -0.0785
 1444SOL    HW115794   0.801   3.616   2.392 -2.1661 -2.5150 -1.7567
 1444SOL    HW215795   0.754   3.713   2.501  0.6384 -0.3942 -0.5832
 1445SOL     OW15796   2.810   2.057   1.996 -0.2186  0.1044 -0.7645
 1445SOL    HW115797   2.771   2.015   2.073  3.5608 -3.7163 -0.9564
 1445SOL    HW215798   2.778   2.148   1.997 -1.4642 -0.3488  1.6802
 1446SOL     OW15799   3.594   3.506   8.829 -0.0630  0.2904  0.1149
 1446SOL    HW115800   3.538   3.540   8.898 -1.5622 -1.4976 -0.2233
 1446SOL    HW215801   3.674   3.556   8.848  1.5670 -1.9086 -0.9031
 1447SOL     OW15802   3.715   3.416   5.926 -0.5165  0.5069 -0.1561
 1447SOL    HW115803   3.741   3.426   5.835  2.4578  0.4549  0.7114
 1447SOL    HW215804   3.797   3.416   5.974 -0.7832 -1.0866  0.3148
 1448SOL     OW15805   0.712   0.716  10.436  0.0070 -0.1956 -0.3763
 1448SOL    HW115806   0.620   0.691  10.423 -0.7156  1.4451  1.4645
 1448SOL    HW215807   0.694   0.788  10.496 -1.0559 -0.5110 -0.3023
 1449SOL     OW15808   0.539   4.316   6.046 -0.0392  0.5460  0.1695
 1449SOL    HW115809   0.525   4.342   5.955 -0.1100  0.3497  0.1240
 1449SOL    HW215810   0.576   4.228   6.043 -1.6602 -0.1215 -0.3848
 1450SOL     OW15811   0.890   0.499  13.636 -0.5194  0.7258 -0.2871
 1450SOL    HW115812   0.897   0.473  13.544  1.2694  1.3518 -0.3221
 1450SOL    HW215813   0.810   0.448  13.652  0.5786 -0.4074  1.5563
 1451SOL     OW15814   4.267   2.684   6.834 -0.2083 -0.1595 -0.1090
 1451SOL    HW115815   4.334   2.624   6.867 -0.6352 -0.4333  0.2520
 1451SOL    HW215816   4.188   2.663   6.883 -0.2975 -1.2640 -0.7303
 1452SOL     OW15817   2.194   3.536   8.601  0.2418  0.2806 -0.2649
 1452SOL    HW115818   2.105   3.521   8.633  1.1364  0.1999  2.1616
 1452SOL    HW215819   2.249   3.488   8.663 -0.1968 -2.0922 -1.7182
 1453SOL     OW15820   2.368   4.502  13.267  0.0133  0.2171  0.0098
 1453SOL    HW115821   2.379   4.578  13.323  0.8873 -1.1254  1.6721
 1453SOL    HW215822   2.419   4.439  13.317 -1.0174 -0.3182  0.3843
 1454SOL     OW15823   3.493   2.101  14.737 -0.0515  0.4619  0.3597
 1454SOL    HW115824   3.546   2.022  14.749  0.4450  1.0057  1.7366
 1454SOL    HW215825   3.517   2.144  14.818  2.7448  0.1570 -0.2898
 1455SOL     OW15826   1.897   2.844   8.588  0.7948  0.1243 -0.8437
 1455SOL    HW115827   1.903   2.748   8.588 -0.4139  0.0498  1.7673
 1455SOL    HW215828   1.971   2.878   8.639 -0.4947  1.9763 -0.2114
 1456SOL     OW15829   1.891   1.464   0.088  0.0057 -0.4007  0.4032
 1456SOL    HW115830   1.947   1.471   0.166  1.9527 -2.0006 -0.8541
 1456SOL    HW215831   1.937   1.518   0.023  3.4262 -2.2754  1.2377
 1457SOL     OW15832   0.659   2.574  12.395 -0.2183  0.2879 -0.3285
 1457SOL    HW115833   0.670   2.479  12.385 -0.4968  0.1913  0.2900
 1457SOL    HW215834   0.569   2.580  12.363  0.1186  0.5639 -1.2356
 1458SOL     OW15835   0.575   0.831   7.803  0.3279 -0.2215 -0.0636
 1458SOL    HW115836   0.601   0.743   7.831  3.1121 -0.0355 -2.1262
 1458SOL    HW215837   0.550   0.862   7.891 -1.6699  2.2734 -1.5092
 1459SOL     OW15838   0.926   3.978  13.366  0.3572  0.1069  0.2817
 1459SOL    HW115839   0.832   3.989  13.379  0.0504  0.1030 -1.9950
 1459SOL    HW215840   0.948   4.056  13.316  0.8336 -0.4210 -0.3425
 1460SOL     OW15841   1.951   3.319   8.413  0.0257 -0.1621 -0.5520
 1460SOL    HW115842   2.043   3.346   8.409 -0.2981  1.0695  0.5239
 1460SOL    HW215843   1.954   3.250   8.480  1.6173  0.0012 -0.4437
 1461SOL     OW15844   2.840   0.256   2.516 -0.1533  0.0704 -0.1247
 1461SOL    HW115845   2.914   0.196   2.528  0.5852  1.0418  0.2337
 1461SOL    HW215846   2.840   0.294   2.604 -1.6313  0.1037 -0.1371
 1462SOL     OW15847   2.761   3.328   8.278 -0.3607  0.2414  0.4179
 1462SOL    HW115848   2.821   3.351   8.348  0.6712 -2.1588  0.3315
 1462SOL    HW215849   2.726   3.414   8.255 -1.0117 -0.4008 -1.0087
 1463SOL     OW15850   2.323   2.217  12.811  0.5422 -0.0252 -0.2555
 1463SOL    HW115851   2.359   2.162  12.741 -0.6569  1.6510 -2.1814
 1463SOL    HW215852   2.235   2.243  12.785  0.3073  0.1543  0.7256
 1464SOL     OW15853   1.192   2.208   1.772  0.1469  0.1261 -0.1764
 1464SOL    HW115854   1.233   2.213   1.685 -2.4879  0.3222 -1.4135
 1464SOL    HW215855   1.104   2.174   1.757  0.1876  0.1019 -0.3607
 1465SOL     OW15856   0.361   1.460  12.998 -0.5045 -0.4585  0.3487
 1465SOL    HW115857   0.452   1.487  13.008 -0.3375 -0.3529 -1.4730
 1465SOL    HW215858   0.334   1.471  12.907 -2.7738  0.9602  1.1682
 1466SOL     OW15859   3.439   2.328   3.367 -0.0069  0.0727  0.0838
 1466SOL    HW115860   3.367   2.358   3.423  0.4307  1.3981 -0.0737
 1466SOL    HW215861   3.520   2.360   3.406  0.2435 -1.5234  0.8698
 1467SOL     OW15862   0.716   2.225   7.425 -0.2065 -0.2736  0.5536
 1467SOL    HW115863   0.753   2.253   7.509  1.2129 -0.6897  0.0766
 1467SOL    HW215864   0.793   2.182   7.387 -0.7502 -0.4997 -0.2887
 1468SOL     OW15865   2.480   3.446   1.791  0.7163  0.0251 -0.2196
 1468SOL    HW115866   2.514   3.499   1.719 -1.8747 -0.4637 -1.8147
 1468SOL    HW215867   2.392   3.483   1.802  1.0469  1.1176 -1.1957
 1469SOL     OW15868   1.016   1.325   5.824  0.0067 -0.3150  0.1278
 1469SOL    HW115869   1.071   1.249   5.803 -0.3131 -0.5586  0.1834
 1469SOL    HW215870   1.046   1.372   5.746  1.9931  0.6167  1.4374
 1470SOL     OW15871   3.728   3.193   8.769 -0.2717 -0.4419  0.1788
 1470SOL    HW115872   3.678   3.251   8.827  0.6023  3.2497 -2.7062
 1470SOL    HW215873   3.755   3.256   8.702  0.1877 -0.6995  0.1265
 1471SOL     OW15874   0.257   0.960   1.005  0.3310 -0.0451 -0.0162
 1471SOL    HW115875   0.304   1.028   1.053  0.8554  0.2099 -0.8982
 1471SOL    HW215876   0.211   1.010   0.938  0.1934  0.0761  0.1679
 1472SOL     OW15877   1.878   1.638   6.610  0.1654  0.4461 -0.2072
 1472SOL    HW115878   1.830   1.652   6.692  0.7664  0.4564  0.1459
 1472SOL    HW215879   1.958   1.613   6.657  0.3661  3.5693  1.1057
 1473SOL     OW15880   1.704   3.745   1.808  0.5442 -0.4046 -1.0191
 1473SOL    HW115881   1.612   3.769   1.804  0.1773 -1.4808  0.9206
 1473SOL    HW215882   1.744   3.826   1.775 -2.6493  1.3368 -0.5837
 1474SOL     OW15883   1.856   2.330  11.971  0.0436  0.6399  0.1492
 1474SOL    HW115884   1.855   2.339  11.876  0.7151  0.9803  0.1700
 1474SOL    HW215885   1.950   2.311  11.979  0.1733  0.7320 -1.1633
 1475SOL     OW15886   4.534   2.373   3.111  0.1401  0.0206 -0.0383
 1475SOL    HW115887   4.496   2.378   3.023 -2.8694  1.4869  1.3052
 1475SOL    HW215888   4.612   2.427   3.097  0.8672 -0.7642  0.9940
 1476SOL     OW15889   4.273   1.528   9.014 -0.1024  0.8126 -0.3637
 1476SOL    HW115890   4.326   1.504   9.090 -2.5626  0.6678  1.3161
 1476SOL    HW215891   4.185   1.543   9.051 -0.8770  1.3595 -2.4563
 1477SOL     OW15892   2.388   0.018   2.166  0.0307 -0.5971 -0.0738
 1477SOL    HW115893   2.302   0.031   2.206 -0.5325 -1.0524 -1.1234
 1477SOL    HW215894   2.414   4.654   2.201 -1.3700 -0.3069  1.6412
 1478SOL     OW15895   2.323   1.154   7.813 -0.8811 -0.5057  0.0707
 1478SOL    HW115896   2.256   1.169   7.747  0.5895  1.9608 -0.8357
 1478SOL    HW215897   2.274   1.181   7.891 -2.1904  0.5072 -1.1186
 1479SOL     OW15898   0.259   2.681  16.338  0.8461  0.2258 -0.2733
 1479SOL    HW115899   0.299   2.646  16.417  1.3291 -1.3971 -1.2221
 1479SOL    HW215900   0.242   2.608  16.277  2.2647  2.6766 -3.6004
 1480SOL     OW15901   0.046   1.146   9.844  0.2204  0.6424 -0.5256
 1480SOL    HW115902   0.092   1.191   9.774  0.3184  0.0912 -0.8175
 1480SOL    HW215903   0.109   1.163   9.914 -0.6468 -0.7255  0.5984
 1481SOL     OW15904   1.404   2.471   5.658 -0.0514  0.4766  0.0796
 1481SOL    HW115905   1.460   2.448   5.584 -0.2951 -1.0605  0.3827
 1481SOL    HW215906   1.435   2.409   5.725 -0.3880 -0.9391 -1.0861
 1482SOL     OW15907   3.523   2.471   1.072  0.4379 -0.1109  0.2080
 1482SOL    HW115908   3.466   2.422   1.012  0.7893  0.9142 -0.9463
 1482SOL    HW215909   3.526   2.555   1.026  2.6300 -1.0083 -1.3003
 1483SOL     OW15910   2.817   1.892   8.103  0.8964  0.5614 -0.1907
 1483SOL    HW115911   2.889   1.868   8.162  0.8860  1.5876  0.2490
 1483SOL    HW215912   2.858   1.882   8.017  0.1943 -0.4423 -0.4065
 1484SOL     OW15913   4.478   3.871   1.896  0.4909  0.3987  0.4114
 1484SOL    HW115914   4.556   3.916   1.863  1.2303 -1.9377 -1.0303
 1484SOL    HW215915   4.501   3.871   1.989 -2.5347  1.4273  1.1453
 1485SOL     OW15916   2.524   0.303   2.467  0.0685  0.0844 -0.2216
 1485SOL    HW115917   2.444   0.314   2.415  2.2092 -0.3068 -3.6324
 1485SOL    HW215918   2.559   0.233   2.413  1.4318  1.0679 -0.6121
 1486SOL     OW15919   3.630   3.092   5.346  0.1885 -0.2586 -0.3542
 1486SOL    HW115920   3.601   3.129   5.429  0.8468 -0.4849 -0.0232
 1486SOL    HW215921   3.650   3.175   5.303  0.4805  0.5936  1.4393
 1487SOL     OW15922   4.280   3.494   8.796  0.0343  0.4398 -0.2053
 1487SOL    HW115923   4.219   3.552   8.752 -0.5443 -1.6235 -2.0924
 1487SOL    HW215924   4.227   3.456   8.866  0.0771 -0.2921 -0.5720
 1488SOL     OW15925   3.146   4.547   9.194 -0.2000  0.0077  0.0043
 1488SOL    HW115926   3.052   4.543   9.210  0.0938  0.6167  2.0128
 1488SOL    HW215927   3.149   4.495   9.114 -0.7840 -1.5007  0.9723
 1489SOL     OW15928   2.983   2.069   3.009 -0.0013  0.5934 -0.4503
 1489SOL    HW115929   2.905   2.043   2.959  0.2887 -0.7019 -0.2038
 1489SOL    HW215930   3.050   2.066   2.942 -0.9076 -2.9113 -1.1771
 1490SOL     OW15931   2.940   3.672   2.486 -0.2608 -0.4128 -0.3646
 1490SOL    HW115932   2.986   3.755   2.471  0.9819 -1.2248 -1.0032
 1490SOL    HW215933   3.013   3.613   2.468  2.7344  2.6711  1.5666
 1491SOL     OW15934   1.689   3.813   5.803  0.1719  0.1249  0.3072
 1491SOL    HW115935   1.685   3.905   5.827  0.9054  0.8661 -2.4667
 1491SOL    HW215936   1.610   3.774   5.842  0.2293  1.5241  1.8397
 1492SOL     OW15937   3.284   3.503   4.450  0.6183  0.1230  0.4488
 1492SOL    HW115938   3.215   3.529   4.512  1.9765 -0.9083  2.3928
 1492SOL    HW215939   3.219   3.465   4.391  0.9467  1.1030 -0.5407
 1493SOL     OW15940   0.179   0.400  16.508 -0.1765  0.4060 -0.0861
 1493SOL    HW115941   0.264   0.388  16.466  0.3636 -0.4645  1.2680
 1493SOL    HW215942   0.182   0.340  16.582 -1.1419  0.5318  0.0560
 1494SOL     OW15943   2.201   0.083   3.403 -0.2986 -0.2524 -0.3031
 1494SOL    HW115944   2.295   0.103   3.403 -0.4487  0.4945  2.1685
 1494SOL    HW215945   2.201   0.010   3.466  3.8569 -0.2889 -0.3240
 1495SOL     OW15946   3.807   2.940   9.050 -0.1941  0.1073  0.4166
 1495SOL    HW115947   3.854   3.013   9.009  1.9610 -0.2765  2.2346
 1495SOL    HW215948   3.727   2.936   8.997  0.6956 -1.1089 -0.8296
 1496SOL     OW15949   0.377   3.241   3.390  0.4160  0.4762 -0.5013
 1496SOL    HW115950   0.468   3.261   3.413  0.1287  1.6617 -0.3722
 1496SOL    HW215951   0.387   3.241   3.295 -0.3637 -4.1660 -0.5820
 1497SOL     OW15952   2.491   0.052   3.349 -0.1456  0.4345  0.7235
 1497SOL    HW115953   2.536   0.136   3.336  1.0635  0.0363  2.3366
 1497SOL    HW215954   2.567   4.716   3.352 -0.2256  0.4103  2.2307
 1498SOL     OW15955   3.575   4.685   5.786 -0.0823 -0.1523 -0.3812
 1498SOL    HW115956   3.503   4.626   5.764  0.0496 -1.0934  1.6888
 1498SOL    HW215957   3.655   4.639   5.760  0.0042  0.0389 -0.4534
 1499SOL     OW15958   0.347   3.140   4.072  0.3668  1.0682 -0.4743
 1499SOL    HW115959   0.295   3.122   3.994 -1.2574  3.3523  0.0681
 1499SOL    HW215960   0.275   3.118   4.131  0.5150 -2.8657 -1.7810
 1500SOL     OW15961   0.235   3.060   9.202 -0.0333  0.1885 -0.1546
 1500SOL    HW115962   0.249   2.972   9.166  0.5055  0.9414 -1.8351
 1500SOL    HW215963   0.175   3.054   9.275 -1.1405 -1.5865 -1.2118
 1501SOL     OW15964   0.054   0.879   4.413 -0.4404  0.4066 -0.3971
 1501SOL    HW115965   0.109   0.938   4.464  0.1327 -0.5923  0.1505
 1501SOL    HW215966   4.706   0.848   4.471 -0.1555 -1.1480 -0.8899
 1502SOL     OW15967   3.069   3.258  16.908  0.1307  0.2740 -0.5382
 1502SOL    HW115968   3.026   3.244  16.992  1.0797  0.9036  0.0502
 1502SOL    HW215969   3.106   3.171  16.890  1.1318  0.6651 -0.3880
 1503SOL     OW15970   2.982   3.817   4.284  0.0626  0.1283 -0.2258
 1503SOL    HW115971   2.911   3.833   4.221 -0.4207 -1.4775 -0.0952
 1503SOL    HW215972   2.925   3.752   4.326  1.1398 -0.2901  0.5739
 1504SOL     OW15973   2.870   2.371   9.651  0.1695 -0.2585 -0.3412
 1504SOL    HW115974   2.814   2.296   9.634  1.1225 -1.2049  0.7118
 1504SOL    HW215975   2.877   2.374   9.746  2.7355 -1.9009 -0.4782
 1505SOL     OW15976   1.902   2.566   5.721  0.0841  0.1984 -0.2455
 1505SOL    HW115977   1.966   2.540   5.655  1.8161  1.1810  1.0515
 1505SOL    HW215978   1.886   2.658   5.698  1.4843  0.3629 -0.5664
 1506SOL     OW15979   1.366   4.326   7.938 -0.2412  0.1339  0.1705
 1506SOL    HW115980   1.430   4.343   7.870  1.9404 -0.8647  1.9706
 1506SOL    HW215981   1.282   4.326   7.891 -0.9696  0.0098  1.4601
 1507SOL     OW15982   4.463   0.645   2.262 -0.8646 -0.0554 -0.3095
 1507SOL    HW115983   4.529   0.591   2.305 -1.1790  0.2542  0.5636
 1507SOL    HW215984   4.389   0.586   2.278 -0.9526  0.2501  0.3994
 1508SOL     OW15985   3.072   1.784   4.897 -0.5983  0.7320 -0.9963
 1508SOL    HW115986   3.041   1.696   4.876 -1.3694  0.0605  2.8561
 1508SOL    HW215987   3.028   1.795   4.982  1.1644  1.7997 -0.2156
 1509SOL     OW15988   3.087   0.341   6.512  0.4862 -0.8528 -0.2040
 1509SOL    HW115989   3.028   0.380   6.448  1.2315 -1.7597 -1.4612
 1509SOL    HW215990   3.076   0.250   6.483  1.0688  0.1882 -3.6601
 1510SOL     OW15991   0.813   2.126  14.070 -0.6675 -0.1744  0.4975
 1510SOL    HW115992   0.847   2.207  14.031 -1.0760  0.5206  1.5743
 1510SOL    HW215993   0.838   2.061  14.004 -0.1997  1.2092 -0.6846
 1511SOL     OW15994   0.911   0.384  13.375 -0.1490 -0.1214  0.2596
 1511SOL    HW115995   0.994   0.346  13.348 -0.7370 -1.9101  0.9605
 1511SOL    HW215996   0.852   0.364  13.302  2.5801  0.4368 -2.0876
 1512SOL     OW15997   4.002   2.558   9.559  0.4244  0.5945 -0.3360
 1512SOL    HW115998   4.038   2.609   9.632  1.1735  0.3841 -0.5578
 1512SOL    HW215999   3.920   2.602   9.535 -0.3437 -1.3584 -1.3482
 1513SOL     OW16000   3.829   1.239  12.457  0.1112 -0.4929  0.4030
 1513SOL    HW116001   3.882   1.301  12.507 -1.1291 -0.4030  1.6281
 1513SOL    HW216002   3.882   1.161  12.445  1.2343 -0.0191  2.4026
 1514SOL     OW16003   0.268   4.618   8.201  0.1015  0.3799 -0.1976
 1514SOL    HW116004   0.189   4.564   8.209  1.4143 -1.9715 -2.8362
 1514SOL    HW216005   0.263   4.635   8.107 -1.9455  1.1461  0.0674
 1515SOL     OW16006   4.638   3.795  10.818  0.1715 -0.2893 -0.1827
 1515SOL    HW116007   4.606   3.863  10.758  0.7124  2.6787  2.9365
 1515SOL    HW216008   4.619   3.834  10.903  2.4744 -0.6729  0.4908
 1516SOL     OW16009   3.393   0.374   4.845  0.4412  0.0951  0.5524
 1516SOL    HW116010   3.468   0.405   4.794  0.2530 -1.8536 -0.8903
 1516SOL    HW216011   3.325   0.360   4.779  0.6036  1.8845  0.0032
 1517SOL     OW16012   4.283   0.952   1.028 -0.8939 -0.0545 -0.3772
 1517SOL    HW116013   4.242   0.866   1.038  0.4191 -0.6711 -0.3230
 1517SOL    HW216014   4.372   0.925   1.007 -0.9270 -0.0206 -0.5609
 1518SOL     OW16015   3.755   2.155   9.876  0.7694 -0.0670 -0.4656
 1518SOL    HW116016   3.725   2.244   9.891  0.4070  0.1794 -2.5605
 1518SOL    HW216017   3.834   2.164   9.823  1.3391  0.1496  0.4235
 1519SOL     OW16018   2.286   4.373   7.296 -0.1586 -0.0731 -0.2010
 1519SOL    HW116019   2.344   4.341   7.227 -1.1890 -2.9929  0.2808
 1519SOL    HW216020   2.336   4.346   7.373  0.2082 -0.8227 -0.7060
 1520SOL     OW16021   1.569   3.774   4.192 -0.1022 -0.1518 -0.2449
 1520SOL    HW116022   1.656   3.814   4.197  0.3063 -0.7214 -2.9896
 1520SOL    HW216023   1.595   3.688   4.159  0.5314 -0.3221  0.6982
 1521SOL     OW16024   2.143   2.775   7.802 -0.4987  0.1987 -0.2158
 1521SOL    HW116025   2.058   2.736   7.782 -0.6545 -0.1620  1.1758
 1521SOL    HW216026   2.125   2.839   7.871 -0.8781 -2.1789  1.8687
 1522SOL     OW16027   4.172   3.629   4.753  0.0113  0.1311 -0.0613
 1522SOL    HW116028   4.089   3.667   4.781 -0.9680 -1.8350 -0.3261
 1522SOL    HW216029   4.208   3.589   4.832 -1.2780  0.2732  0.5962
 1523SOL     OW16030   1.444   0.747   8.790  0.1120  0.0016  0.6828
 1523SOL    HW116031   1.482   0.680   8.847  3.7324  1.9466  0.5751
 1523SOL    HW216032   1.499   0.744   8.712 -0.0934  1.7950  0.4626
 1524SOL     OW16033   1.305   0.678  13.961 -0.1865 -0.8275  0.2364
 1524SOL    HW116034   1.382   0.713  14.008 -0.6801  0.6224 -0.0186
 1524SOL    HW216035   1.233   0.689  14.023 -0.0681 -0.2409  0.2691
 1525SOL     OW16036   1.515   3.302   2.479  0.5237 -0.0660 -0.5604
 1525SOL    HW116037   1.582   3.259   2.425 -0.1861 -1.4829 -0.3138
 1525SOL    HW216038   1.480   3.374   2.426  0.7395 -0.1799 -0.8568
 1526SOL     OW16039   0.261   2.109   2.834 -0.1525  0.1476  0.1497
 1526SOL    HW116040   0.353   2.135   2.838  0.0066 -0.7932  2.7506
 1526SOL    HW216041   0.258   2.015   2.852 -1.7968  0.2085  0.1607
 1527SOL     OW16042   0.137   1.542  13.247  0.3903 -0.2644 -0.0074
 1527SOL    HW116043   0.197   1.513  13.315 -0.2490 -0.8113  0.3304
 1527SOL    HW216044   0.078   1.467  13.247 -1.2006  0.9595  2.4985
 1528SOL     OW16045   2.614   1.187  16.657 -0.3124  0.1197  0.1954
 1528SOL    HW116046   2.568   1.258  16.702  1.1828  1.6062 -0.6335
 1528SOL    HW216047   2.600   1.107  16.708 -1.6115 -0.7694 -1.5389
 1529SOL     OW16048   4.172   0.003  12.049  0.1185  0.4270 -0.4828
 1529SOL    HW116049   4.190   0.078  12.105 -0.2084 -0.3005  0.5891
 1529SOL    HW216050   4.174   0.049  11.965  0.8336  0.5921 -0.3765
 1530SOL     OW16051   4.081   4.662   2.652 -0.2409 -0.4253 -0.2162
 1530SOL    HW116052   4.121   4.656   2.566 -0.4121  0.8030 -0.3887
 1530SOL    HW216053   4.005   4.604   2.644  0.4629 -1.4377  0.4869
 1531SOL     OW16054   2.624   3.733   9.356  0.3603 -0.2731  0.2221
 1531SOL    HW116055   2.592   3.775   9.276  0.2394  1.0297  0.9426
 1531SOL    HW216056   2.583   3.792   9.420 -0.1249  0.2171 -0.5356
 1532SOL     OW16057   0.393   4.398   8.587  0.1239  0.5950 -0.5647
 1532SOL    HW116058   0.436   4.455   8.523  1.4180 -0.1398 -0.3522
 1532SOL    HW216059   0.428   4.325   8.537 -0.7692 -1.8139  2.2993
 1533SOL     OW16060   3.102   4.592   6.207 -0.5367  0.6719  0.3862
 1533SOL    HW116061   3.176   4.556   6.257 -1.0163 -2.6504 -1.2903
 1533SOL    HW216062   3.058   4.515   6.171 -0.0668  1.0020 -0.9225
 1534SOL     OW16063   0.891   2.580   3.119 -0.1703 -0.0038  0.3356
 1534SOL    HW116064   0.878   2.659   3.171  2.3140  0.4791  0.2350
 1534SOL    HW216065   0.850   2.515   3.176  1.6618 -1.3145  0.1566
 1535SOL     OW16066   1.477   2.025  13.245 -0.0540 -0.2328 -0.5791
 1535SOL    HW116067   1.455   2.081  13.319  2.0284  1.2620 -1.1008
 1535SOL    HW216068   1.468   2.087  13.172  0.8185 -0.3721 -0.8019
 1536SOL     OW16069   4.119   0.622   4.272 -0.0770  0.4013  0.0129
 1536SOL    HW116070   4.066   0.700   4.254  0.4001  0.7294  0.0300
 1536SOL    HW216071   4.181   0.655   4.337  1.3904 -1.2430 -0.5498
 1537SOL     OW16072   2.221   4.035  16.385 -0.6462 -0.4670 -0.3894
 1537SOL    HW116073   2.250   3.992  16.305 -1.6705 -0.4941 -0.7367
 1537SOL    HW216074   2.131   4.062  16.368 -0.1917  0.5432 -1.1340
 1538SOL     OW16075   1.516   3.595  13.737 -0.4393 -0.3777  0.5034
 1538SOL    HW116076   1.507   3.685  13.705 -2.6522 -1.2395 -1.3258
 1538SOL    HW216077   1.453   3.535  13.696  0.7019 -1.5428  0.4276
 1539SOL     OW16078   2.745   1.978   2.415 -0.3866 -0.4804  0.2560
 1539SOL    HW116079   2.814   2.014   2.359  1.1367 -2.2788  0.9837
 1539SOL    HW216080   2.746   2.055   2.472  1.9214 -1.0878  1.0755
 1540SOL     OW16081   4.277   1.053   7.603 -0.4321  0.0339 -0.1693
 1540SOL    HW116082   4.335   1.005   7.662  2.6833  2.9709 -0.8775
 1540SOL    HW216083   4.197   1.000   7.609  0.7728 -1.5967  1.4539
 1541SOL     OW16084   1.946   1.353   8.521  0.5273 -0.0247  0.5666
 1541SOL    HW116085   1.971   1.268   8.556 -0.8334 -0.3698  0.7164
 1541SOL    HW216086   1.921   1.325   8.433  0.0092 -1.6216  1.2306
 1542SOL     OW16087   2.500   1.290  17.444 -0.2693  0.1552  0.2726
 1542SOL    HW116088   2.460   1.372  17.416  2.1781  2.0366  2.2864
 1542SOL    HW216089   2.475   1.232  17.372  1.8250 -1.1322  0.5806
 1543SOL     OW16090   2.880   0.179   4.022  0.1865  0.3135 -0.1533
 1543SOL    HW116091   2.805   0.127   3.993 -1.1073  1.4426  1.2189
 1543SOL    HW216092   2.915   0.128   4.095  1.2012 -0.2351 -1.0027
 1544SOL     OW16093   1.498   1.550   3.393 -0.0702 -0.5239 -0.0805
 1544SOL    HW116094   1.546   1.468   3.377 -0.7106 -1.7744  4.4581
 1544SOL    HW216095   1.520   1.603   3.316 -1.6176  0.4051  0.1264
 1545SOL     OW16096   3.553   2.358  10.154 -0.2234 -0.2849 -0.8562
 1545SOL    HW116097   3.470   2.405  10.151 -0.5536 -0.8059  0.0332
 1545SOL    HW216098   3.532   2.275  10.198  0.0939  1.7147  3.0208
 1546SOL     OW16099   3.424   0.076   3.007 -0.2493 -0.0063  0.1180
 1546SOL    HW116100   3.486   0.034   2.948  1.2685  2.2186  0.1392
 1546SOL    HW216101   3.462   0.047   3.090  0.2662  0.6745  0.1194
 1547SOL     OW16102   0.672   2.754   8.021  0.4226  0.1553  0.1023
 1547SOL    HW116103   0.756   2.743   7.976 -0.6439  1.0081 -2.1371
 1547SOL    HW216104   0.623   2.698   7.961 -0.9687  1.0884  0.3853
 1548SOL     OW16105   1.016   0.486   6.725 -0.7437  0.2766  0.1916
 1548SOL    HW116106   0.974   0.565   6.759  0.7626  0.6834  1.1126
 1548SOL    HW216107   1.109   0.510   6.734 -0.6195 -0.3862  0.6729
 1549SOL     OW16108   3.857   1.524  12.920 -0.4105  0.1945  0.6352
 1549SOL    HW116109   3.882   1.445  12.871 -0.4900  0.7121 -0.2364
 1549SOL    HW216110   3.870   1.582  12.845  0.3964 -1.9232 -0.8824
 1550SOL     OW16111   3.376   1.052  12.589 -0.1840 -0.6582  0.4370
 1550SOL    HW116112   3.304   1.095  12.542  2.2459  1.2419 -1.5590
 1550SOL    HW216113   3.443   1.119  12.581 -0.2186 -0.5243  1.2484
 1551SOL     OW16114   2.768   2.038   1.198 -0.5164 -0.5461 -0.1322
 1551SOL    HW116115   2.852   2.023   1.155  0.2793  0.2874  1.1282
 1551SOL    HW216116   2.722   2.105   1.148  2.2869  0.2193 -1.6411
 1552SOL     OW16117   0.757   3.212   4.555  0.0354  0.3868 -0.2912
 1552SOL    HW116118   0.786   3.135   4.508  0.4201 -0.6450  1.6202
 1552SOL    HW216119   0.802   3.282   4.508  1.2154 -0.9563 -1.1190
 1553SOL     OW16120   3.183   0.020  12.548  0.2577  0.6253 -0.8819
 1553SOL    HW116121   3.243   4.720  12.477  1.0819 -1.2624  0.4104
 1553SOL    HW216122   3.246   0.034  12.619 -0.8996  2.0062 -0.1241
 1554SOL     OW16123   4.301   2.112   7.138 -0.3870 -0.2915  0.0500
 1554SOL    HW116124   4.297   2.177   7.069 -1.0710 -0.6313 -0.2362
 1554SOL    HW216125   4.375   2.152   7.183  0.7737 -1.8316 -0.4901
 1555SOL     OW16126   1.861   4.310  14.049 -0.1926  0.1232 -0.0677
 1555SOL    HW116127   1.954   4.297  14.069 -0.0454  0.1859 -0.6842
 1555SOL    HW216128   1.852   4.241  13.984 -1.0264 -1.1036  1.3746
 1556SOL     OW16129   2.719   4.543   1.891 -0.3000 -0.0961 -0.1986
 1556SOL    HW116130   2.626   4.546   1.916 -0.0950  1.5655  0.3063
 1556SOL    HW216131   2.716   4.555   1.796  1.1937  0.8190 -0.1250
 1557SOL     OW16132   3.008   0.466   1.276 -0.1744  0.1154  0.0820
 1557SOL    HW116133   2.946   0.405   1.314 -0.9289  1.1727  0.5554
 1557SOL    HW216134   3.046   0.497   1.358 -0.9598  1.2332  0.0233
 1558SOL     OW16135   3.944   0.191   7.786 -0.3769  0.0910  0.9328
 1558SOL    HW116136   3.965   0.278   7.752  1.1504 -0.1978  1.1174
 1558SOL    HW216137   3.922   0.226   7.873 -0.0347 -0.3003  1.1825
 1559SOL     OW16138   4.020   3.022   2.543  0.4170 -0.2321 -0.2331
 1559SOL    HW116139   4.008   3.070   2.625 -0.8044  1.4647 -1.4191
 1559SOL    HW216140   3.939   3.045   2.499  0.6698  1.1787  0.0642
 1560SOL     OW16141   0.032   0.256   5.982 -0.4390 -0.5328 -0.1283
 1560SOL    HW116142   0.058   0.348   5.974 -3.8735  0.2579 -2.0296
 1560SOL    HW216143   4.714   0.256   6.069 -1.1201  0.1145 -0.4441
 1561SOL     OW16144   4.619   2.690  10.031  0.0996 -0.0846 -0.2563
 1561SOL    HW116145   4.599   2.742   9.953 -3.1616 -2.3293 -0.9023
 1561SOL    HW216146   4.582   2.749  10.097  1.1269 -0.5584  0.7406
 1562SOL     OW16147   2.657   3.191   9.190 -0.0131  0.7445 -1.0703
 1562SOL    HW116148   2.609   3.235   9.260  1.5721  1.9881 -0.7557
 1562SOL    HW216149   2.714   3.137   9.245  0.5911  0.6472 -1.7856
 1563SOL     OW16150   1.416   1.574  16.760 -0.3075  0.1384  0.4109
 1563SOL    HW116151   1.331   1.615  16.775 -0.9548 -1.4750  1.1248
 1563SOL    HW216152   1.394   1.482  16.771 -3.4216  0.5790 -1.9340
 1564SOL     OW16153   0.003   3.540   6.189  0.6937  0.0625  0.1707
 1564SOL    HW116154   0.011   3.519   6.282 -0.4521  0.3424  0.3274
 1564SOL    HW216155   4.679   3.463   6.156 -1.3073  1.3590 -0.0602
 1565SOL     OW16156   4.306   0.557   7.105  0.1107 -0.2866 -0.9216
 1565SOL    HW116157   4.266   0.625   7.159 -1.3171 -3.8258  2.4379
 1565SOL    HW216158   4.236   0.532   7.045  0.3288 -1.1063 -0.8243
 1566SOL     OW16159   2.890   2.272   0.027  0.9691 -0.3398 -0.3138
 1566SOL    HW116160   2.864   2.363   0.043  1.0828 -0.2059 -0.8708
 1566SOL    HW216161   2.811   2.231  17.681 -0.5944  1.4915  1.0381
 1567SOL     OW16162   3.421   0.442  12.590  0.2151 -0.2410  0.4487
 1567SOL    HW116163   3.433   0.349  12.567 -1.3718 -0.4913  0.6436
 1567SOL    HW216164   3.354   0.433  12.657 -0.9261  1.5971 -0.4785
 1568SOL     OW16165   4.085   0.863   7.591  0.3916 -0.3501 -0.1621
 1568SOL    HW116166   3.995   0.874   7.562 -0.1089 -0.4420  1.3303
 1568SOL    HW216167   4.086   0.767   7.594  0.9610 -0.4134 -2.7229
 1569SOL     OW16168   2.488   3.274   9.805 -0.0295 -0.5604  0.4589
 1569SOL    HW116169   2.567   3.317   9.838  0.4321 -0.8375 -0.3109
 1569SOL    HW216170   2.526   3.194   9.770 -1.0341 -0.3568 -1.0911
 1570SOL     OW16171   3.761   4.459  15.955 -0.3045 -0.1480 -0.4748
 1570SOL    HW116172   3.669   4.458  15.981 -0.2724 -0.8189 -0.4060
 1570SOL    HW216173   3.775   4.554  15.947  0.2445 -0.2064 -0.2371
 1571SOL     OW16174   2.757   3.913   9.950  0.0440 -0.0742 -0.2510
 1571SOL    HW116175   2.830   3.950   9.901  0.9752 -0.4461  0.8584
 1571SOL    HW216176   2.727   3.993   9.994  0.9575 -0.9195  1.9157
 1572SOL     OW16177   4.318   1.294   1.765  0.9691 -0.2702  0.0724
 1572SOL    HW116178   4.374   1.348   1.821  1.9577  1.2766 -2.4015
 1572SOL    HW216179   4.237   1.309   1.813  1.0118 -0.9999  0.3610
 1573SOL     OW16180   4.337   0.278  10.375 -0.3435  0.2604 -0.0720
 1573SOL    HW116181   4.344   0.198  10.428 -0.6176  0.0382 -0.3676
 1573SOL    HW216182   4.406   0.272  10.310 -0.5548  0.8964 -0.3474
 1574SOL     OW16183   4.600   0.930   6.239 -0.2785 -0.0218 -0.7422
 1574SOL    HW116184   4.506   0.946   6.231 -0.1188  0.5420 -1.4804
 1574SOL    HW216185   4.632   1.012   6.275  0.0453 -0.9137  1.0530
 1575SOL     OW16186   0.903   3.807  16.683 -0.3379  0.0177  0.5846
 1575SOL    HW116187   0.892   3.902  16.677 -1.4691 -0.1206  0.4635
 1575SOL    HW216188   0.997   3.795  16.700 -0.3066  0.9935  1.0846
 1576SOL     OW16189   4.129   0.196   1.665 -0.8678 -0.1434 -0.5722
 1576SOL    HW116190   4.216   0.216   1.630  0.2998 -2.5056  0.9974
 1576SOL    HW216191   4.104   0.271   1.719 -1.3307 -1.5739  1.1932
 1577SOL     OW16192   1.637   1.955   2.590 -0.4615 -0.4761  0.1813
 1577SOL    HW116193   1.678   1.907   2.518 -0.2727 -1.0893  0.6921
 1577SOL    HW216194   1.547   1.961   2.560 -1.1016  1.2452  2.4597
 1578SOL     OW16195   0.949   0.487   5.449  0.4268  0.4753 -0.4349
 1578SOL    HW116196   0.871   0.434   5.430 -1.1087  2.8354 -0.6230
 1578SOL    HW216197   1.012   0.454   5.385  0.3227  1.5371 -1.0970
 1579SOL     OW16198   1.511   3.962   2.752  0.3605 -0.0191  0.1552
 1579SOL    HW116199   1.473   3.875   2.745  0.6316 -0.3021  2.0204
 1579SOL    HW216200   1.538   3.956   2.661  0.1752 -0.4512  0.1320
 1580SOL     OW16201   3.546   3.013   1.962 -0.2776 -0.0349 -0.2610
 1580SOL    HW116202   3.530   3.006   1.868 -0.6990 -0.8838 -0.1241
 1580SOL    HW216203   3.497   3.092   1.984 -0.3448  0.0047 -0.5557
 1581SOL     OW16204   1.419   2.197  13.044 -0.1787  0.1222 -0.0304
 1581SOL    HW116205   1.487   2.254  13.011 -2.0932  3.0426  1.1009
 1581SOL    HW216206   1.352   2.261  13.066  0.3160  1.2515 -1.8175
 1582SOL     OW16207   1.771   1.188   9.235 -0.4631  0.2596 -0.0340
 1582SOL    HW116208   1.844   1.132   9.263 -0.0779 -1.0769 -3.7102
 1582SOL    HW216209   1.721   1.120   9.190 -1.1288  1.0995 -0.5544
 1583SOL     OW16210   3.702   0.664  14.606  0.1526  0.3583  0.5385
 1583SOL    HW116211   3.722   0.576  14.574  1.4203  1.0326 -0.5096
 1583SOL    HW216212   3.762   0.667  14.681  0.8117  0.4190  0.0077
 1584SOL     OW16213   0.108   2.869   6.684  0.4558  0.0698 -0.3798
 1584SOL    HW116214   0.105   2.787   6.635 -1.3790  0.5385 -1.0295
 1584SOL    HW216215   0.119   2.849   6.777 -0.9752  1.7363  0.1429
 1585SOL     OW16216   1.203   1.932  12.391 -0.0210  0.3967 -0.5287
 1585SOL    HW116217   1.205   1.850  12.441 -0.5493  0.2273 -0.7846
 1585SOL    HW216218   1.113   1.956  12.411  0.0106 -0.5735  0.7845
 1586SOL     OW16219   3.057   1.569  10.687 -0.1357 -0.7755 -0.3381
 1586SOL    HW116220   3.047   1.554  10.593  2.3020  0.7534 -0.8449
 1586SOL    HW216221   2.967   1.595  10.705  0.1684 -0.8199  1.2275
 1587SOL     OW16222   1.953   3.140  17.109  0.4863 -0.0347 -0.2969
 1587SOL    HW116223   1.994   3.222  17.138 -3.6899  2.3092 -1.0432
 1587SOL    HW216224   1.881   3.136  17.171 -0.9007  1.5483 -1.8049
 1588SOL     OW16225   1.685   1.451  12.311  0.5248  0.3821 -0.1547
 1588SOL    HW116226   1.718   1.510  12.379 -1.7348 -0.0160  1.2638
 1588SOL    HW216227   1.739   1.375  12.336 -1.4830 -0.4846  1.4779
 1589SOL     OW16228   4.701   2.587   0.288 -0.0934  0.3377 -0.3233
 1589SOL    HW116229   4.668   2.637   0.363  1.9533  0.3974  0.5514
 1589SOL    HW216230   0.039   2.524   0.328 -0.2965  1.1308  1.2335
 1590SOL     OW16231   0.004   2.518   2.506 -0.3249  0.1643 -0.3414
 1590SOL    HW116232   0.026   2.437   2.552  1.5153  0.7707 -0.1803
 1590SOL    HW216233   4.646   2.541   2.554 -0.4120  0.1395 -0.4717
 1591SOL     OW16234   3.070   1.384   3.870 -0.3814  0.2647 -1.0875
 1591SOL    HW116235   3.012   1.364   3.943 -0.4303  1.6608 -0.7365
 1591SOL    HW216236   3.099   1.475   3.880  0.4122  0.2344 -2.9673
 1592SOL     OW16237   2.173   1.241  14.214 -0.2434 -0.3428 -0.6760
 1592SOL    HW116238   2.225   1.292  14.151 -0.3278 -0.8401 -1.1536
 1592SOL    HW216239   2.161   1.303  14.286 -0.0727 -1.1636  0.0557
 1593SOL     OW16240   0.990   3.699  14.670 -0.0440 -0.1946 -0.3438
 1593SOL    HW116241   1.048   3.738  14.604  0.6166 -1.9712 -0.8009
 1593SOL    HW216242   0.979   3.767  14.737 -1.4876  0.2241 -1.0103
 1594SOL     OW16243   1.060   0.048   9.217 -0.6555  0.0038 -0.1895
 1594SOL    HW116244   1.027   4.684   9.245 -0.6689  0.3037  0.6922
 1594SOL    HW216245   1.043   0.041   9.123  2.0902  0.3258 -0.6996
 1595SOL     OW16246   4.002   1.405   7.945  0.4678 -0.0895  0.6158
 1595SOL    HW116247   4.088   1.364   7.930  0.9057  0.8610  0.5360
 1595SOL    HW216248   3.996   1.471   7.876  0.2188  0.8112  1.5010
 1596SOL     OW16249   0.099   1.009  11.686  0.3605  0.1011 -0.0622
 1596SOL    HW116250   0.102   1.096  11.725 -1.7251 -1.3177  3.2899
 1596SOL    HW216251   0.089   0.965  11.770 -1.4077  0.1375 -0.2539
 1597SOL     OW16252   3.374   3.330  16.045  0.4438  0.1812 -0.3406
 1597SOL    HW116253   3.311   3.263  16.071  0.9451  0.4576  1.5811
 1597SOL    HW216254   3.441   3.269  16.014  0.1450 -0.6296  0.6087
 1598SOL     OW16255   4.665   4.114   5.504  0.0056 -0.1018  0.0915
 1598SOL    HW116256   4.624   4.198   5.522 -2.5388 -1.2237 -0.5351
 1598SOL    HW216257   4.588   4.068   5.472 -0.8666  0.8509  0.8310
 1599SOL     OW16258   3.818   4.522  13.877 -0.2917  0.0790 -0.0363
 1599SOL    HW116259   3.783   4.437  13.848 -1.1076 -0.2711  1.9525
 1599SOL    HW216260   3.912   4.506  13.887  0.4748  3.0188 -2.5512
 1600SOL     OW16261   2.570   3.231   6.349  0.1881 -0.5064 -0.3849
 1600SOL    HW116262   2.497   3.240   6.410  1.4067  0.7344  0.8916
 1600SOL    HW216263   2.581   3.138   6.331  1.1615 -0.2200 -1.2597
 1601SOL     OW16264   3.987   2.287   7.900 -0.5706 -0.3372  0.0305
 1601SOL    HW116265   3.920   2.318   7.960  0.2857  0.4104  0.6001
 1601SOL    HW216266   3.993   2.195   7.926  2.0552  0.1354  1.1202
 1602SOL     OW16267   2.257   3.582  10.443  0.3755 -0.5228  0.4289
 1602SOL    HW116268   2.290   3.498  10.410 -0.5246 -0.2930 -1.0786
 1602SOL    HW216269   2.335   3.632  10.466 -0.6307  1.2673 -0.1194
 1603SOL     OW16270   1.441   0.816   4.832  0.5500 -0.4716 -0.2613
 1603SOL    HW116271   1.514   0.867   4.796  1.1148 -0.1288  1.4004
 1603SOL    HW216272   1.363   0.846   4.785 -0.2704  0.5178  1.7274
 1604SOL     OW16273   1.872   3.177   0.812  0.6741 -0.4639 -0.3067
 1604SOL    HW116274   1.806   3.121   0.771 -0.0007 -0.5481  0.9045
 1604SOL    HW216275   1.880   3.240   0.741  1.7477  1.6545  1.6923
 1605SOL     OW16276   4.621   2.625   1.197 -1.0007  0.6024 -0.0886
 1605SOL    HW116277   4.591   2.667   1.278  0.0188  1.6468 -0.2562
 1605SOL    HW216278   4.659   2.696   1.146 -0.4373  0.0606 -0.4228
 1606SOL     OW16279   2.213   1.612   0.509 -0.3583  0.4595  0.2684
 1606SOL    HW116280   2.257   1.697   0.508  0.3073  0.0931 -1.7701
 1606SOL    HW216281   2.289   1.563   0.540 -0.6280 -1.1447 -1.5978
 1607SOL     OW16282   2.689   3.284   5.486 -0.7907 -0.2739  0.0591
 1607SOL    HW116283   2.609   3.242   5.455 -1.0842 -0.0469  0.5184
 1607SOL    HW216284   2.667   3.376   5.474 -3.2405 -0.9199 -0.3553
 1608SOL     OW16285   3.051   0.205  12.717  0.4119 -0.0205  0.2213
 1608SOL    HW116286   2.969   0.243  12.685 -0.3760 -2.5230 -0.6823
 1608SOL    HW216287   3.093   0.180  12.635  2.6072  0.5853  1.1545
 1609SOL     OW16288   0.617   1.421   9.511  0.2332  0.1147  0.2649
 1609SOL    HW116289   0.643   1.435   9.420 -0.2702  0.0885  0.1114
 1609SOL    HW216290   0.694   1.443   9.562 -0.7034  4.6946 -0.2971
 1610SOL     OW16291   2.220   1.763   6.994  0.3193  0.5844  0.0501
 1610SOL    HW116292   2.296   1.745   7.049 -0.2473  3.9255  1.8899
 1610SOL    HW216293   2.199   1.673   6.968  1.4313  0.1882  0.5460
 1611SOL     OW16294   4.156   1.511   9.401  0.3550  0.1542 -0.3303
 1611SOL    HW116295   4.177   1.553   9.485  1.0457  1.4359 -1.1373
 1611SOL    HW216296   4.129   1.586   9.346 -2.0671  0.6639  1.5384
 1612SOL     OW16297   1.213   2.061   4.917  0.0339  0.1541 -0.3658
 1612SOL    HW116298   1.272   2.005   4.968  0.0477 -0.5569 -1.1581
 1612SOL    HW216299   1.155   1.987   4.896 -0.2612  0.1849  0.3609
 1613SOL     OW16300   2.421   1.431   0.614  0.3829 -0.2042  0.2252
 1613SOL    HW116301   2.511   1.463   0.614  0.7729 -1.2880 -0.4435
 1613SOL    HW216302   2.429   1.350   0.664  1.0821 -0.4849 -0.3397
 1614SOL     OW16303   0.166   4.687   8.942  0.5487  0.2042  0.1301
 1614SOL    HW116304   0.209   0.044   8.908  3.4780 -0.4972  2.2070
 1614SOL    HW216305   0.238   4.631   8.970 -0.0674  0.1436  1.5781
 1615SOL     OW16306   0.249   2.298  10.349 -0.0181 -0.1019 -0.0925
 1615SOL    HW116307   0.190   2.225  10.330 -0.4832 -0.2516  1.9811
 1615SOL    HW216308   0.188   2.372  10.347 -0.1700 -0.2602 -2.0060
 1616SOL     OW16309   4.367   2.224  16.708 -0.1914  0.3454  0.3541
 1616SOL    HW116310   4.313   2.242  16.785  1.2581 -1.3244  1.7389
 1616SOL    HW216311   4.295   2.191  16.654 -0.8818 -0.0246  1.5030
 1617SOL     OW16312   4.471   3.734   3.174 -0.4726  0.4469 -0.0542
 1617SOL    HW116313   4.560   3.759   3.199 -0.0226 -2.5945  1.3767
 1617SOL    HW216314   4.433   3.822   3.172 -1.3117  0.0755 -0.3725
 1618SOL     OW16315   1.778   2.638  10.563  0.5352  0.5680 -0.1289
 1618SOL    HW116316   1.686   2.628  10.588  0.4617 -2.1731 -1.4555
 1618SOL    HW216317   1.808   2.714  10.614 -1.0382 -0.6940  2.6417
 1619SOL     OW16318   2.341   1.017   7.135 -0.5482 -0.2170 -0.2541
 1619SOL    HW116319   2.392   1.085   7.180 -1.6441 -0.8258  1.8598
 1619SOL    HW216320   2.381   1.028   7.048 -1.9841 -0.4889 -0.9370
 1620SOL     OW16321   4.648   4.350   4.825 -0.0076  0.1013 -0.2054
 1620SOL    HW116322   4.594   4.427   4.806  2.0638  1.7659  0.7033
 1620SOL    HW216323   4.713   4.385   4.887  1.5589 -2.1242 -0.6049
 1621SOL     OW16324   0.765   4.137   8.644  0.3012  0.0305 -0.1126
 1621SOL    HW116325   0.776   4.177   8.730  0.3910 -0.7407  0.2316
 1621SOL    HW216326   0.798   4.048   8.658  0.5823  0.0526 -0.6382
 1622SOL     OW16327   3.826   2.565   4.935 -0.0455  0.7020  0.4896
 1622SOL    HW116328   3.886   2.540   4.865  0.8361 -0.4518  1.6540
 1622SOL    HW216329   3.778   2.639   4.898 -0.3475  0.4632  0.4141
 1623SOL     OW16330   1.275   0.524   2.213  0.2313 -0.1226  0.1066
 1623SOL    HW116331   1.315   0.438   2.227  1.1579  0.2545 -0.2264
 1623SOL    HW216332   1.221   0.516   2.292 -1.3140 -1.3249 -1.0639
 1624SOL     OW16333   3.591   1.718  11.136 -0.4148  0.0741  0.1750
 1624SOL    HW116334   3.528   1.789  11.150 -1.1497 -0.7866  1.2223
 1624SOL    HW216335   3.603   1.721  11.041 -0.3106  0.5972  0.2065
 1625SOL     OW16336   3.143   1.595   8.994  0.1333 -0.0677  0.2908
 1625SOL    HW116337   3.227   1.557   9.019 -0.3793 -0.8395  0.8312
 1625SOL    HW216338   3.088   1.583   9.071 -0.5749  3.3650  0.3057
 1626SOL     OW16339   0.411   3.007  16.356 -0.5417 -0.1510  0.4386
 1626SOL    HW116340   0.367   2.924  16.373 -1.5590  0.5385  1.1191
 1626SOL    HW216341   0.372   3.029  16.271  0.2779  2.6714  0.7634
 1627SOL     OW16342   3.493   0.809   3.694  0.2701 -0.2721  0.3228
 1627SOL    HW116343   3.483   0.744   3.625  0.5395 -0.3009  0.3128
 1627SOL    HW216344   3.577   0.843   3.664 -0.5604  0.2841 -1.3434
 1628SOL     OW16345   0.752   4.293   7.744 -0.1042  0.4752 -0.7844
 1628SOL    HW116346   0.757   4.209   7.789  1.3556  0.6170 -0.6679
 1628SOL    HW216347   0.817   4.289   7.673 -0.5827  0.1216 -1.2052
 1629SOL     OW16348   0.434   4.247  14.873 -0.3708 -0.2647  0.0550
 1629SOL    HW116349   0.406   4.300  14.948 -0.1236 -0.3246  0.1915
 1629SOL    HW216350   0.360   4.187  14.876 -0.3285 -0.3031  0.3711
 1630SOL     OW16351   0.676   0.885   4.522  0.1231  0.0338 -0.1707
 1630SOL    HW116352   0.733   0.809   4.506 -0.6097 -0.4758 -0.3334
 1630SOL    HW216353   0.753   0.934   4.551 -0.7853  1.7823 -0.7465
 1631SOL     OW16354   0.057   2.796   4.979 -0.2526 -0.0821 -0.1063
 1631SOL    HW116355   0.012   2.871   4.939  0.3073  0.1610 -0.2819
 1631SOL    HW216356   0.076   2.832   5.065  0.9313 -0.1851 -0.3238
 1632SOL     OW16357   2.021   1.762   6.414  0.0120  0.4004  0.5586
 1632SOL    HW116358   2.114   1.741   6.417  0.1290  0.4899 -2.1439
 1632SOL    HW216359   1.976   1.683   6.444  0.7390 -0.3339 -0.2871
 1633SOL     OW16360   1.976   4.687   7.150  0.3189 -0.4509 -0.6516
 1633SOL    HW116361   2.016   0.040   7.194  0.5074  0.1771 -1.9128
 1633SOL    HW216362   2.047   4.657   7.095  1.2580 -0.8550  0.7747
 1634SOL     OW16363   1.704   3.731   2.088  0.3133  0.2003  0.0071
 1634SOL    HW116364   1.650   3.808   2.109  1.0750  0.8418 -0.3810
 1634SOL    HW216365   1.716   3.739   1.993 -1.8524  1.6020 -0.1604
 1635SOL     OW16366   0.785   3.723   6.585 -0.4045 -0.3191 -0.0661
 1635SOL    HW116367   0.723   3.795   6.599 -0.1383 -0.2512  0.7353
 1635SOL    HW216368   0.748   3.669   6.655  1.1435 -1.0809  0.1735
 1636SOL     OW16369   3.988   4.030   5.728 -0.0671 -0.1023 -0.1008
 1636SOL    HW116370   3.981   4.062   5.817 -1.6273  1.6705 -0.8670
 1636SOL    HW216371   3.995   3.935   5.737 -1.5991 -0.2754 -0.7577
 1637SOL     OW16372   3.988   3.801   4.889 -0.0410 -0.6076 -0.3642
 1637SOL    HW116373   3.979   3.859   4.814  1.8784  1.8013  1.2534
 1637SOL    HW216374   3.920   3.740   4.861  0.0310 -1.1231  0.5943
 1638SOL     OW16375   3.334   2.311   8.609 -0.0748 -0.3831 -0.5371
 1638SOL    HW116376   3.253   2.346   8.645 -1.0037 -2.6286 -0.4553
 1638SOL    HW216377   3.331   2.352   8.523  1.1105 -0.2315 -0.5092
 1639SOL     OW16378   2.690   0.545  16.055  0.6294 -0.2169 -0.1850
 1639SOL    HW116379   2.706   0.621  16.000 -3.1991  0.9457  0.2973
 1639SOL    HW216380   2.768   0.550  16.111 -0.3635  0.1584  1.1542
 1640SOL     OW16381   2.362   0.220  13.187 -0.5077 -0.5902  0.4294
 1640SOL    HW116382   2.307   0.239  13.112  1.5457  1.7944 -0.4623
 1640SOL    HW216383   2.439   0.271  13.160 -1.5794  0.3673 -0.7436
 1641SOL     OW16384   1.684   0.687  13.787 -0.5251  0.3244  0.1458
 1641SOL    HW116385   1.655   0.643  13.866 -1.6068  0.5382 -0.1291
 1641SOL    HW216386   1.761   0.636  13.763  0.5248  1.8644  0.2063
 1642SOL     OW16387   0.485   4.675   2.885  0.6279 -0.5122 -0.1907
 1642SOL    HW116388   0.482   0.016   2.813  0.8243  1.8775  1.8897
 1642SOL    HW216389   0.458   0.013   2.955  1.8586 -0.6424  0.3864
 1643SOL     OW16390   3.760   0.154   7.217  0.0063  0.4897  0.0051
 1643SOL    HW116391   3.787   0.064   7.201 -0.3920  0.8733 -2.7012
 1643SOL    HW216392   3.720   0.175   7.133  0.3351  1.3937  0.0741
 1644SOL     OW16393   0.548   4.283   6.310 -0.3384 -0.4957 -0.6208
 1644SOL    HW116394   0.552   4.285   6.214  0.6885  0.0014 -0.5698
 1644SOL    HW216395   0.532   4.375   6.329  3.8704  0.1906 -0.4574
 1645SOL     OW16396   0.448   2.683  10.327  0.3689 -0.1617  0.2088
 1645SOL    HW116397   0.408   2.686  10.414  1.5511  1.3446  0.7118
 1645SOL    HW216398   0.539   2.686  10.354  0.6238 -0.8819 -0.5701
 1646SOL     OW16399   3.266   3.530   3.026 -0.3794 -0.5329  0.3708
 1646SOL    HW116400   3.173   3.509   3.034 -0.9408  1.7971 -0.1265
 1646SOL    HW216401   3.276   3.535   2.931  1.2723 -0.4052  0.5573
 1647SOL     OW16402   0.217   0.884   5.703  0.3312  0.0159  0.0757
 1647SOL    HW116403   0.205   0.879   5.798  1.9803 -1.5256  0.1931
 1647SOL    HW216404   0.145   0.826   5.679 -1.9021  3.3055 -1.1746
 1648SOL     OW16405   2.959   3.992  15.615 -0.0356 -1.1222 -0.0030
 1648SOL    HW116406   2.919   3.963  15.532 -4.6405  1.9916  1.0922
 1648SOL    HW216407   3.049   4.006  15.587  0.5769 -0.7001  2.1766
 1649SOL     OW16408   4.002   0.335   1.900 -0.1675  0.7770 -0.7928
 1649SOL    HW116409   3.945   0.397   1.854  0.0360  1.7829  0.3032
 1649SOL    HW216410   3.935   0.267   1.903  0.2494  0.4980  2.0564
 1650SOL     OW16411   0.892   2.707   6.825  0.4808 -0.5150  0.0278
 1650SOL    HW116412   0.818   2.657   6.794 -0.3560 -0.3491  1.7589
 1650SOL    HW216413   0.954   2.665   6.765  0.0719  0.3344 -0.9885
 1651SOL     OW16414   1.095   3.426   2.148 -0.2006  0.4147  0.1380
 1651SOL    HW116415   1.075   3.382   2.230 -0.9475 -0.0465 -0.2918
 1651SOL    HW216416   1.067   3.359   2.086 -0.0196  0.5137 -0.0495
 1652SOL     OW16417   2.837   4.102   7.113  0.2718  0.2657  1.0875
 1652SOL    HW116418   2.744   4.082   7.115  0.3610 -0.2351  0.5170
 1652SOL    HW216419   2.850   4.196   7.103  0.2685  0.0559 -1.0620
 1653SOL     OW16420   3.769   2.952   4.568  0.4963  0.4167 -0.4655
 1653SOL    HW116421   3.742   2.939   4.659 -1.2410 -2.7175 -1.4184
 1653SOL    HW216422   3.861   2.975   4.576  0.4083  0.2354  0.9459
 1654SOL     OW16423   2.683   4.532   1.604 -0.4001 -0.5826  0.5907
 1654SOL    HW116424   2.717   4.443   1.592  0.0334 -0.5577  1.6063
 1654SOL    HW216425   2.627   4.534   1.526  1.4858 -0.2193 -0.7694
 1655SOL     OW16426   1.735   3.065   1.576 -0.5046  0.4159  0.2356
 1655SOL    HW116427   1.766   3.061   1.486 -0.6846 -0.1280  0.1964
 1655SOL    HW216428   1.730   2.972   1.599 -1.4426  0.3697 -0.1699
 1656SOL     OW16429   3.279   1.578  10.832  0.1482 -0.1562 -0.3822
 1656SOL    HW116430   3.319   1.651  10.784  1.7163  0.4250  1.7904
 1656SOL    HW216431   3.224   1.549  10.760 -1.0969  2.0156 -0.3078
 1657SOL     OW16432   2.460   0.953   7.400 -0.5802 -0.5218 -0.3663
 1657SOL    HW116433   2.437   1.045   7.385 -0.2474 -0.7442 -2.2586
 1657SOL    HW216434   2.472   0.962   7.494  1.0974 -0.0836 -0.6304
 1658SOL     OW16435   1.897   4.058   8.371 -0.6284  0.1117  0.5681
 1658SOL    HW116436   1.948   3.985   8.337  0.4821  0.9839  0.3728
 1658SOL    HW216437   1.848   4.011   8.439  1.5387  0.4210  2.3607
 1659SOL     OW16438   3.023   3.191   9.481  0.6369  0.4071  0.0025
 1659SOL    HW116439   3.111   3.174   9.515  1.8072 -0.8156 -3.6589
 1659SOL    HW216440   3.005   3.273   9.528 -1.1656  0.4028 -0.6825
 1660SOL     OW16441   1.748   3.952   8.558  0.0443  0.3189  0.3941
 1660SOL    HW116442   1.652   3.946   8.555  0.0335  0.0317  1.2608
 1660SOL    HW216443   1.764   4.004   8.637 -0.1187  1.2627 -0.2067
 1661SOL     OW16444   3.065   1.352   5.805 -0.2226 -0.0011 -0.7934
 1661SOL    HW116445   3.107   1.305   5.733  0.8361  0.3737 -0.4236
 1661SOL    HW216446   3.082   1.443   5.782 -1.4000  0.9679  2.0959
 1662SOL     OW16447   0.816   2.913  14.033  0.0715 -0.0951  0.1461
 1662SOL    HW116448   0.874   2.912  13.956  1.9817 -2.1269  1.6301
 1662SOL    HW216449   0.734   2.877  13.999 -0.2484  1.1341 -0.3972
 1663SOL     OW16450   0.868   0.226   3.478  0.1525 -0.0891 -0.1430
 1663SOL    HW116451   0.838   0.316   3.488 -0.2241 -0.2902  0.5275
 1663SOL    HW216452   0.793   0.188   3.523 -0.1295  0.3232 -0.2658
 1664SOL     OW16453   3.401   3.331  10.443  0.6817 -0.9510 -0.0906
 1664SOL    HW116454   3.464   3.312  10.512  0.5539  1.7391  0.8003
 1664SOL    HW216455   3.419   3.253  10.391 -1.2377 -1.3539 -0.1688
 1665SOL     OW16456   1.994   0.178  17.664 -0.4467 -0.0398 -0.2202
 1665SOL    HW116457   1.979   0.239   0.047 -1.5256  0.2521 -0.6923
 1665SOL    HW216458   2.031   0.099   0.013  2.8400  1.1006 -1.0130
 1666SOL     OW16459   4.605   3.090   9.945 -0.0171 -0.5012 -0.0036
 1666SOL    HW116460   4.664   3.163   9.925 -0.2021 -1.0005 -2.3576
 1666SOL    HW216461   4.608   3.043   9.862 -3.2706 -0.0028 -0.3668
 1667SOL     OW16462   1.757   3.806   5.073 -0.2977 -0.3008 -0.1151
 1667SOL    HW116463   1.666   3.830   5.091  0.0273  0.8331  0.0177
 1667SOL    HW216464   1.763   3.717   5.109  0.7383 -0.2881 -0.2374
 1668SOL     OW16465   3.146   2.644   6.345 -0.2642 -0.9266 -0.3514
 1668SOL    HW116466   3.062   2.611   6.376 -0.4798 -1.3295 -1.3788
 1668SOL    HW216467   3.198   2.563   6.350  0.2333 -0.4530  2.1952
 1669SOL     OW16468   3.557   2.976   0.078  0.2507  0.0411  0.1913
 1669SOL    HW116469   3.590   3.065   0.093  2.1951 -0.8225  0.9755
 1669SOL    HW216470   3.478   2.992   0.131  0.8165 -2.7032  1.8852
 1670SOL     OW16471   1.771   0.947   7.649  0.1924  0.0165 -0.3899
 1670SOL    HW116472   1.826   1.025   7.649  0.0891  0.0906 -0.4702
 1670SOL    HW216473   1.731   0.957   7.562 -1.1464 -2.7526 -0.0949
 1671SOL     OW16474   1.617   1.673  15.216  0.4728  0.1323 -0.0450
 1671SOL    HW116475   1.586   1.666  15.125  1.3960  1.3938 -0.4503
 1671SOL    HW216476   1.697   1.619  15.212 -0.9598 -1.9287 -0.9906
 1672SOL     OW16477   3.793   3.468   1.511 -0.0954  0.2748 -0.2644
 1672SOL    HW116478   3.797   3.403   1.582 -0.9430  0.1698 -0.3146
 1672SOL    HW216479   3.830   3.414   1.441  1.9082  0.5119  0.6146
 1673SOL     OW16480   3.263   1.701   8.738  0.6366  0.2820  0.1021
 1673SOL    HW116481   3.260   1.784   8.785 -2.1387  0.9038 -1.2047
 1673SOL    HW216482   3.294   1.639   8.804  2.0460 -1.1684 -1.9131
 1674SOL     OW16483   3.524   0.216   1.812  0.1357  0.3595 -0.2010
 1674SOL    HW116484   3.465   0.227   1.886 -0.4667 -1.6811 -0.3703
 1674SOL    HW216485   3.474   0.170   1.745 -1.5617  0.8275  0.7546
 1675SOL     OW16486   1.165   2.079   6.488  0.0224 -0.0663 -0.1817
 1675SOL    HW116487   1.227   2.035   6.430  0.8390  1.5240 -0.5170
 1675SOL    HW216488   1.222   2.139   6.536  0.9442 -0.5903 -0.6213
 1676SOL     OW16489   4.082   3.393   0.546  0.1433  0.6488  0.0340
 1676SOL    HW116490   4.094   3.320   0.607  2.6838 -0.7313 -2.1428
 1676SOL    HW216491   3.997   3.430   0.573  0.1372  0.0546  0.8274
 1677SOL     OW16492   0.637   3.555   5.832 -0.5080 -0.5612  0.0527
 1677SOL    HW116493   0.570   3.487   5.824  0.1686 -0.9800 -1.9529
 1677SOL    HW216494   0.579   3.631   5.837 -0.7794 -0.8744  1.6258
 1678SOL     OW16495   3.756   1.954  16.714  0.3716 -0.3941  0.1505
 1678SOL    HW116496   3.767   1.959  16.619 -0.9657  1.5588  0.0870
 1678SOL    HW216497   3.834   2.003  16.739  1.3886 -1.5894 -0.6831
 1679SOL     OW16498   1.543   2.056  16.989  0.2229 -0.1855  0.1702
 1679SOL    HW116499   1.500   2.032  16.907 -0.4181 -0.1269  0.4939
 1679SOL    HW216500   1.569   1.974  17.031 -3.0603 -2.2161 -1.8103
 1680SOL     OW16501   4.593   3.338   3.429  0.1991 -0.4033  0.5417
 1680SOL    HW116502   4.501   3.325   3.410  0.1047  2.9221 -1.1952
 1680SOL    HW216503   4.614   3.255   3.472  0.9356 -1.4584 -1.8594
 1681SOL     OW16504   2.926   1.297   5.440 -0.2612 -0.3930 -0.3751
 1681SOL    HW116505   2.849   1.289   5.496  1.1997 -0.5373  1.5834
 1681SOL    HW216506   2.926   1.202   5.424  0.6194 -0.2275 -1.3343
 1682SOL     OW16507   0.438   4.312   8.871 -0.4422 -0.4451  0.2309
 1682SOL    HW116508   0.412   4.352   8.788  1.2100 -0.3103 -0.2220
 1682SOL    HW216509   0.413   4.380   8.933 -1.4525  0.6412 -1.3723
 1683SOL     OW16510   0.239   3.553   8.309 -0.2252  0.2258  0.7499
 1683SOL    HW116511   0.191   3.470   8.312 -0.9397  0.6019 -0.4862
 1683SOL    HW216512   0.220   3.581   8.220  0.9076  2.5850  1.2359
 1684SOL     OW16513   1.194   0.844   7.890  0.0277 -0.3542  0.6076
 1684SOL    HW116514   1.178   0.897   7.812  3.2285 -1.6680 -0.9603
 1684SOL    HW216515   1.174   0.763   7.844 -1.2110 -0.4669  1.3541
 1685SOL     OW16516   1.364   1.891   4.596  0.2361  0.5495  0.3942
 1685SOL    HW116517   1.434   1.955   4.607  1.8370 -1.1659  0.2848
 1685SOL    HW216518   1.367   1.835   4.673 -1.4337 -0.3594 -0.1940
 1686SOL     OW16519   1.544   1.474   8.489  0.5581 -0.0109 -0.1395
 1686SOL    HW116520   1.508   1.395   8.448  0.0747 -0.8797  1.9405
 1686SOL    HW216521   1.471   1.507   8.542  1.0543 -0.9638  1.1591
 1687SOL     OW16522   4.066   0.025   4.758  0.0814  0.0103  0.7217
 1687SOL    HW116523   4.083   0.030   4.853 -0.6567 -0.5548  0.8798
 1687SOL    HW216524   4.108   4.664   4.733  0.3179  0.3623 -0.0385
 1688SOL     OW16525   3.373   2.707   5.053  0.4786  0.0935 -0.8108
 1688SOL    HW116526   3.282   2.722   5.079  0.7110  3.3269 -1.9240
 1688SOL    HW216527   3.368   2.612   5.061  1.7173 -0.0396 -1.6454
 1689SOL     OW16528   1.086   0.909   1.565 -0.4915 -0.0802  0.0280
 1689SOL    HW116529   1.151   0.905   1.635 -0.6831 -0.4691  0.1815
 1689SOL    HW216530   1.100   1.001   1.541 -2.6111  1.0632  3.1698
 1690SOL     OW16531   2.886   0.268   2.014  0.2246  0.3156 -0.5261
 1690SOL    HW116532   2.852   0.284   2.102  2.2839 -1.1494  0.5033
 1690SOL    HW216533   2.955   0.206   2.036 -0.3280 -0.3168 -0.5613
 1691SOL     OW16534   3.724   1.274   5.070 -0.3113  0.2748 -0.3166
 1691SOL    HW116535   3.693   1.328   5.142  1.2738  0.1277  0.4712
 1691SOL    HW216536   3.646   1.273   5.014 -1.0694 -1.7997  0.7567
 1692SOL     OW16537   3.456   2.068   4.113  0.3745 -0.2305 -0.1533
 1692SOL    HW116538   3.503   2.147   4.088 -3.1625  1.4287 -1.5834
 1692SOL    HW216539   3.444   2.080   4.207 -1.7854 -1.5279 -0.2615
 1693SOL     OW16540   0.823   0.359  10.163  0.2159  0.4924 -0.0434
 1693SOL    HW116541   0.744   0.381  10.212 -0.7331 -1.8257 -0.5251
 1693SOL    HW216542   0.831   0.435  10.106 -2.7086  0.9921  0.2194
 1694SOL     OW16543   4.673   4.562   4.018  0.1331  0.0016 -0.4206
 1694SOL    HW116544   4.669   4.583   4.111 -0.7279 -1.1944 -0.1969
 1694SOL    HW216545   0.004   4.482   4.024  1.2232  0.6939 -0.7178
 1695SOL     OW16546   2.584   3.122  13.154 -0.7439  0.1033  0.5952
 1695SOL    HW116547   2.623   3.036  13.140  0.2147  0.8190 -1.1823
 1695SOL    HW216548   2.562   3.100  13.244  0.3904 -0.5770  0.7032
 1696SOL     OW16549   1.129   1.871   7.335  0.2962 -0.2485  0.7947
 1696SOL    HW116550   1.045   1.863   7.381  0.9647  0.4265  2.1047
 1696SOL    HW216551   1.118   1.815   7.258 -1.5790 -0.2556  1.0635
 1697SOL     OW16552   1.271   3.144   3.677  0.0251 -0.2164 -0.0017
 1697SOL    HW116553   1.316   3.066   3.643  0.1348  0.2700 -0.9783
 1697SOL    HW216554   1.282   3.199   3.599 -0.0524 -2.0117 -1.2808
 1698SOL     OW16555   4.051   1.310   6.800 -0.5643  0.1864  0.1818
 1698SOL    HW116556   4.066   1.402   6.775  1.4162 -0.9699 -2.9282
 1698SOL    HW216557   4.088   1.296   6.886  0.1234  2.6545  0.2802
 1699SOL     OW16558   1.502   2.427   4.616  0.3738 -0.1793 -0.1427
 1699SOL    HW116559   1.555   2.450   4.693  1.2115  1.6370 -1.2807
 1699SOL    HW216560   1.451   2.354   4.651 -1.3090  0.9847 -0.1786
 1700SOL     OW16561   1.555   4.704   9.434 -0.5195  0.4715  0.2199
 1700SOL    HW116562   1.537   4.648   9.509  0.6088  1.0472  0.9303
 1700SOL    HW216563   1.651   4.712   9.434 -0.4126 -0.9419 -2.1241
 1701SOL     OW16564   3.678   1.400  13.092 -0.5718  0.2560 -0.0117
 1701SOL    HW116565   3.740   1.443  13.033 -0.9822 -0.0855 -0.6950
 1701SOL    HW216566   3.698   1.447  13.172 -1.3858  2.3460 -1.0497
 1702SOL     OW16567   2.034   1.168   4.383  0.0032 -0.0624  0.2568
 1702SOL    HW116568   2.045   1.155   4.478  3.2751  1.1987  0.0378
 1702SOL    HW216569   1.940   1.160   4.365  0.1138  0.9978 -0.7522
 1703SOL     OW16570   1.083   2.360   3.106  0.6119  0.5180  0.0083
 1703SOL    HW116571   1.073   2.396   3.018  2.4451 -1.4290 -1.0042
 1703SOL    HW216572   0.996   2.346   3.144  1.3038  2.4877  2.3682
 1704SOL     OW16573   4.669   2.612   4.826 -0.2586 -0.6359 -0.1383
 1704SOL    HW116574   4.692   2.672   4.897 -0.1400 -0.1631 -0.5742
 1704SOL    HW216575   4.573   2.611   4.828 -0.2118 -4.0743  0.8026
 1705SOL     OW16576   2.331   0.109   4.164 -0.3592 -0.0790 -1.0208
 1705SOL    HW116577   2.322   0.185   4.221 -1.3471 -0.6921 -0.3408
 1705SOL    HW216578   2.295   0.133   4.079 -0.6031  1.2602 -0.5338
 1706SOL     OW16579   1.627   3.331   7.816 -0.0227 -0.5797  0.5130
 1706SOL    HW116580   1.549   3.387   7.810  1.0980  1.1033  1.7315
 1706SOL    HW216581   1.593   3.249   7.779  0.7702 -0.9739  0.6732
 1707SOL     OW16582   4.516   1.109  14.276 -0.5059 -0.3610  0.2006
 1707SOL    HW116583   4.518   1.057  14.196 -0.7087 -2.1930  1.3915
 1707SOL    HW216584   4.468   1.050  14.335 -1.6753 -0.5695 -0.9660
 1708SOL     OW16585   2.377   3.575   5.344 -0.3820 -0.5101 -0.1865
 1708SOL    HW116586   2.297   3.524   5.354 -0.5891  0.6069  3.9489
 1708SOL    HW216587   2.389   3.600   5.436 -0.8661 -1.9764  0.2855
 1709SOL     OW16588   0.084   3.823   8.223 -0.3684  0.1614 -0.1125
 1709SOL    HW116589   0.029   3.768   8.279  0.6876 -1.8584 -1.0566
 1709SOL    HW216590   0.027   3.834   8.147 -1.5581  0.1569  0.7749
 1710SOL     OW16591   4.389   3.933  17.021 -0.1885  0.0804 -0.0394
 1710SOL    HW116592   4.396   3.954  16.928 -2.4115  1.5695  0.1284
 1710SOL    HW216593   4.294   3.930  17.033 -0.4210 -1.4606 -2.3838
 1711SOL     OW16594   2.595   2.341  15.199 -0.0774 -0.1677  0.3180
 1711SOL    HW116595   2.627   2.423  15.161  1.1313 -1.1139 -0.6978
 1711SOL    HW216596   2.500   2.342  15.185  0.0317  2.0330 -0.3139
 1712SOL     OW16597   0.154   2.965   5.179  0.6347  0.7187 -0.3353
 1712SOL    HW116598   0.146   3.060   5.187 -1.3064  0.5641 -0.5375
 1712SOL    HW216599   0.111   2.957   5.264  2.0701 -3.7628  0.0149
 1713SOL     OW16600   2.840   4.422   0.397  0.1364 -0.1963 -0.4309
 1713SOL    HW116601   2.907   4.414   0.329 -2.5069  0.6743 -3.1241
 1713SOL    HW216602   2.890   4.433   0.479 -0.9435  1.4535  0.0060
 1714SOL     OW16603   2.322   1.075   1.526  0.2223  0.2446 -0.3800
 1714SOL    HW116604   2.315   0.981   1.511 -0.5548  0.4333 -1.1760
 1714SOL    HW216605   2.405   1.078   1.573  0.2515  1.9690 -0.5247
 1715SOL     OW16606   1.666   2.220   3.131  0.2842  0.4175 -0.0517
 1715SOL    HW116607   1.604   2.154   3.101 -0.8603  0.6760  1.7394
 1715SOL    HW216608   1.735   2.184   3.076  2.2624  0.2923  2.5159
 1716SOL     OW16609   0.740   4.332  13.358  0.6194 -0.0615  0.0844
 1716SOL    HW116610   0.680   4.261  13.335 -0.0747  0.7758 -0.6894
 1716SOL    HW216611   0.818   4.299  13.313 -0.1721 -0.7614 -0.7769
 1717SOL     OW16612   3.858   3.931  12.359  0.2124 -0.1077  0.8103
 1717SOL    HW116613   3.797   3.894  12.423 -0.4426  0.2016  0.3679
 1717SOL    HW216614   3.807   4.008  12.335 -0.3458 -0.3059  1.3570
 1718SOL     OW16615   4.650   0.244   6.569 -0.0813 -0.0071 -0.3931
 1718SOL    HW116616   4.708   0.306   6.525  0.7344  1.2806  2.5253
 1718SOL    HW216617   4.709   0.173   6.593 -0.0222  0.2345  0.1832
 1719SOL     OW16618   2.863   3.601   1.903 -0.8157 -0.2754  0.1311
 1719SOL    HW116619   2.872   3.643   1.818 -2.0231  0.4138  0.3566
 1719SOL    HW216620   2.938   3.638   1.951 -0.2136  1.8807 -2.5249
 1720SOL     OW16621   0.083   1.719   5.355  0.2287  0.4274  0.5621
 1720SOL    HW116622   0.041   1.725   5.441 -1.6634  0.0053 -0.3345
 1720SOL    HW216623   0.112   1.629   5.367  2.1971  0.9148 -0.4816
 1721SOL     OW16624   3.104   2.466   7.604  0.2633  0.8154  0.7044
 1721SOL    HW116625   3.070   2.487   7.517 -0.9639 -0.8407  0.7695
 1721SOL    HW216626   3.065   2.379   7.618 -1.2734  1.3020 -0.5072
 1722SOL     OW16627   0.978   2.776  16.156  0.3069  0.1193 -0.3295
 1722SOL    HW116628   0.900   2.721  16.169 -1.2350  1.7938 -2.4750
 1722SOL    HW216629   1.044   2.709  16.138 -1.2942 -1.5641  0.0343
 1723SOL     OW16630   3.222   3.918  14.057  0.1734 -0.0474  0.1301
 1723SOL    HW116631   3.217   3.967  13.975  0.2069 -2.6124 -1.3739
 1723SOL    HW216632   3.139   3.872  14.061  0.3755 -0.2380  2.5063
 1724SOL     OW16633   2.674   0.214  14.881 -0.1675  0.2053  0.0926
 1724SOL    HW116634   2.642   0.126  14.862 -2.9836  1.4802 -1.1105
 1724SOL    HW216635   2.729   0.222  14.803  1.2963  1.0989  1.2136
 1725SOL     OW16636   0.482   3.848   3.916 -0.0757 -0.0247 -0.3434
 1725SOL    HW116637   0.563   3.799   3.922  0.1028 -0.0359 -2.9456
 1725SOL    HW216638   0.513   3.930   3.877 -1.7441  0.1370 -1.3451
 1726SOL     OW16639   0.205   3.863   3.866 -0.3371 -0.6463 -0.1677
 1726SOL    HW116640   0.159   3.780   3.852  1.9561 -1.9637  0.1921
 1726SOL    HW216641   0.296   3.839   3.849 -0.7163 -1.6860 -0.7138
 1727SOL     OW16642   3.402   2.714   4.182  0.1953  0.2962 -0.0089
 1727SOL    HW116643   3.358   2.728   4.098 -2.5426 -4.3303  0.6286
 1727SOL    HW216644   3.393   2.802   4.219 -1.2197 -0.6123  1.8059
 1728SOL     OW16645   2.797   4.410   0.844  0.3215  0.4084  0.2823
 1728SOL    HW116646   2.889   4.387   0.857  0.3550 -0.1000 -0.8328
 1728SOL    HW216647   2.751   4.359   0.910  0.9892 -1.6501 -0.8306
 1729SOL     OW16648   1.393   2.051   8.106 -0.2340 -0.1006 -0.5258
 1729SOL    HW116649   1.318   2.044   8.165  1.5478 -1.0151  1.6042
 1729SOL    HW216650   1.445   1.979   8.142  1.1204  1.1966  0.0576
 1730SOL     OW16651   2.426   1.737  17.413  0.0602 -0.5963  0.4360
 1730SOL    HW116652   2.388   1.822  17.433  0.4654 -0.5124  0.8501
 1730SOL    HW216653   2.476   1.759  17.334 -2.4045 -1.1058 -1.2595
 1731SOL     OW16654   1.414   4.451   3.058 -0.4593 -0.4606  0.2116
 1731SOL    HW116655   1.488   4.510   3.068  0.2218 -1.3563  0.4813
 1731SOL    HW216656   1.359   4.499   2.996  0.6239  2.0912  1.2522
 1732SOL     OW16657   4.658   0.702   9.586 -0.5469 -0.3759 -0.4734
 1732SOL    HW116658   4.670   0.663   9.672  0.1602  1.7969  0.3966
 1732SOL    HW216659   0.009   0.763   9.591 -0.9710  0.0757  0.1982
 1733SOL     OW16660   0.078   2.214  15.266  0.0254  0.2506  0.5340
 1733SOL    HW116661   0.002   2.161  15.242 -0.7545  0.4936  2.4013
 1733SOL    HW216662   0.058   2.307  15.263 -4.0384 -0.5583  1.8199
 1734SOL     OW16663   2.760   2.919   4.536 -0.0224  0.3420  0.0064
 1734SOL    HW116664   2.815   2.845   4.561  0.7889  0.4814 -1.3715
 1734SOL    HW216665   2.716   2.897   4.454 -0.2620  2.0141 -0.3214
 1735SOL     OW16666   1.182   2.244   4.068 -0.4401 -0.0445 -0.5878
 1735SOL    HW116667   1.188   2.154   4.035  1.3273 -0.3695  0.6413
 1735SOL    HW216668   1.217   2.225   4.155 -1.6342 -1.6694 -0.4625
 1736SOL     OW16669   0.578   0.358  10.305 -0.5896 -0.2847 -0.4378
 1736SOL    HW116670   0.512   0.427  10.307  0.3252  0.5903  0.0019
 1736SOL    HW216671   0.550   0.302  10.233 -1.6098  2.1901 -1.9343
 1737SOL     OW16672   1.884   2.092   2.268  0.0445  0.3067  0.4196
 1737SOL    HW116673   1.952   2.087   2.200 -0.5850 -1.4418 -0.0777
 1737SOL    HW216674   1.834   2.165   2.230  1.2423  1.3564  0.8419
 1738SOL     OW16675   1.304   2.820   3.955  0.6993 -0.4734  0.1097
 1738SOL    HW116676   1.359   2.873   4.013  0.9031 -0.9438  0.3493
 1738SOL    HW216677   1.219   2.851   3.984  1.1507  1.7284 -0.8895
 1739SOL     OW16678   0.605   4.106   3.814  0.1856 -0.1173  0.5158
 1739SOL    HW116679   0.601   4.099   3.909  0.0303  0.9845  0.5874
 1739SOL    HW216680   0.586   4.199   3.801  0.3474 -0.4014 -1.7322
 1740SOL     OW16681   2.414   2.186   6.253 -0.7986 -0.2153 -0.0469
 1740SOL    HW116682   2.501   2.226   6.258 -1.5837  0.9860  3.5796
 1740SOL    HW216683   2.431   2.111   6.196  1.7470  0.2721  0.0540
 1741SOL     OW16684   1.529   3.217   7.297 -0.2580  0.8573  0.2625
 1741SOL    HW116685   1.624   3.215   7.300 -0.2154  0.4562 -1.4081
 1741SOL    HW216686   1.505   3.160   7.370 -0.1830 -1.5749 -1.6418
 1742SOL     OW16687   0.554   2.328   8.274  0.5129  0.0947 -0.3280
 1742SOL    HW116688   0.506   2.392   8.327 -2.0358 -1.3251 -0.8787
 1742SOL    HW216689   0.496   2.252   8.282 -0.4304  0.8781  0.3630
 1743SOL     OW16690   2.548   0.509  10.256  0.4875 -0.0563 -0.2792
 1743SOL    HW116691   2.496   0.463  10.322 -2.3719  1.8577 -1.2103
 1743SOL    HW216692   2.546   0.453  10.178  0.2024 -1.2238  0.5629
 1744SOL     OW16693   1.002   0.503   4.974 -0.7342 -0.0141 -0.2219
 1744SOL    HW116694   0.999   0.409   4.955 -1.0498  0.3129 -1.7348
 1744SOL    HW216695   0.936   0.519   4.907  1.4676  0.0648 -2.3851
 1745SOL     OW16696   1.966   0.404   8.697  0.0769  0.0803  0.1931
 1745SOL    HW116697   1.952   0.495   8.726  0.8682  0.1101  0.4880
 1745SOL    HW216698   1.916   0.357   8.763  1.2488 -1.2607  0.1147
 1746SOL     OW16699   3.970   4.016   4.041 -0.1420 -0.6748 -0.1543
 1746SOL    HW116700   3.878   4.037   4.059 -0.2872 -1.1264 -0.3657
 1746SOL    HW216701   3.984   3.933   4.086 -0.7169 -0.6454  0.0823
 1747SOL     OW16702   2.617   2.948  12.788 -0.3876 -0.3971 -0.0989
 1747SOL    HW116703   2.591   2.957  12.879  1.0557 -1.2667  0.3926
 1747SOL    HW216704   2.663   2.865  12.775 -0.6644 -0.5478 -0.1327
 1748SOL     OW16705   2.911   1.003   5.419 -0.2418 -0.1715  0.3327
 1748SOL    HW116706   2.878   1.024   5.332  1.6754  0.2252 -0.2819
 1748SOL    HW216707   2.993   0.957   5.402  0.9159  1.0848  2.5878
 1749SOL     OW16708   1.045   0.480  15.441  0.3460 -0.3219  0.3505
 1749SOL    HW116709   1.088   0.481  15.527  1.8614 -0.9978 -0.3898
 1749SOL    HW216710   1.029   0.388  15.422 -0.8998 -0.2766  1.1637
 1750SOL     OW16711   0.234   2.060  14.683  0.3308  0.0573 -0.2936
 1750SOL    HW116712   0.160   2.006  14.657  2.1612 -0.3531 -4.5101
 1750SOL    HW216713   0.263   2.016  14.763 -1.6335  0.0188  0.4063
 1751SOL     OW16714   2.984   3.021   2.705 -0.1113 -0.5778  0.6088
 1751SOL    HW116715   2.937   3.092   2.750  0.2800 -0.2737  0.5391
 1751SOL    HW216716   3.036   2.985   2.777  2.9118  2.9469  0.2104
 1752SOL     OW16717   3.386   2.497   9.120 -0.6323  0.1639  0.0908
 1752SOL    HW116718   3.370   2.406   9.096  0.5521 -0.0295  0.0233
 1752SOL    HW216719   3.356   2.495   9.210  1.7952 -5.4238  0.7579
 1753SOL     OW16720   2.597   4.168   5.181  0.5058  0.7843 -0.4811
 1753SOL    HW116721   2.663   4.110   5.219 -0.9175 -0.0325  0.7177
 1753SOL    HW216722   2.533   4.181   5.250 -0.2173  0.0596 -1.0053
 1754SOL     OW16723   2.665   1.746  10.543 -0.4122  0.6584  0.9175
 1754SOL    HW116724   2.745   1.740  10.595  0.5143 -0.5350 -0.6223
 1754SOL    HW216725   2.597   1.758  10.609 -0.8306  0.9761  0.4232
 1755SOL     OW16726   3.199   1.304   0.268  0.0085  0.0172  0.1965
 1755SOL    HW116727   3.123   1.357   0.291  0.1409  1.0126 -1.7137
 1755SOL    HW216728   3.171   1.262   0.187 -1.3236 -0.2758  0.8143
 1756SOL     OW16729   2.942   4.208   2.816 -0.4082  0.0206 -0.0956
 1756SOL    HW116730   2.872   4.244   2.869  0.1771 -1.0423  1.3908
 1756SOL    HW216731   3.017   4.230   2.871 -0.8436 -0.4224  0.6739
 1757SOL     OW16732   1.550   2.359   4.936  0.2787 -0.5104 -0.0317
 1757SOL    HW116733   1.621   2.314   4.889  0.7213 -1.7132  1.8007
 1757SOL    HW216734   1.594   2.432   4.980 -1.0759  1.9215 -2.7237
 1758SOL     OW16735   0.904   2.732   3.723 -0.4053 -0.0678  0.2044
 1758SOL    HW116736   0.850   2.662   3.762 -0.4429  1.0873  2.2652
 1758SOL    HW216737   0.961   2.674   3.674 -0.0747 -0.8324  1.4957
 1759SOL     OW16738   1.487   3.488   5.205 -0.2114 -0.0669  0.3996
 1759SOL    HW116739   1.454   3.512   5.118 -2.3411 -1.9677  0.6686
 1759SOL    HW216740   1.411   3.513   5.258 -0.2722  0.1913  0.1880
 1760SOL     OW16741   0.675   4.659   5.165 -0.0410 -0.5516 -0.0275
 1760SOL    HW116742   0.740   4.711   5.117  0.9448 -1.1279  0.6916
 1760SOL    HW216743   0.715   4.636   5.249 -1.0924  1.1049  0.9210
 1761SOL     OW16744   2.794   4.613   2.996 -0.6852 -0.0510  0.1855
 1761SOL    HW116745   2.858   4.634   3.064 -0.0279 -2.1031  0.2190
 1761SOL    HW216746   2.765   4.700   2.970  1.6705  0.7313  0.1278
 1762SOL     OW16747   3.317   4.508  16.877  0.0644  0.3134  0.3016
 1762SOL    HW116748   3.297   4.484  16.967 -1.6272 -0.9040 -0.3991
 1762SOL    HW216749   3.238   4.558  16.853 -0.1645  0.7553  2.0061
 1763SOL     OW16750   1.372   4.014   5.234 -0.0058 -0.2401 -0.1010
 1763SOL    HW116751   1.301   3.949   5.233 -1.1535  0.9636  2.3362
 1763SOL    HW216752   1.420   3.984   5.312 -1.1470  0.6301  0.9455
 1764SOL     OW16753   2.048   3.493  14.662 -0.1983 -0.6150  0.0526
 1764SOL    HW116754   1.968   3.441  14.672 -1.2926  0.8488 -1.1339
 1764SOL    HW216755   2.004   3.578  14.651 -0.4771 -1.2455 -3.7581
 1765SOL     OW16756   1.456   1.653   8.901  0.8715 -0.4374 -0.2399
 1765SOL    HW116757   1.458   1.596   8.978 -0.6171 -0.3471 -0.1343
 1765SOL    HW216758   1.412   1.729   8.937 -0.0909  0.2123 -2.8040
 1766SOL     OW16759   3.794   2.687   6.924 -0.2718 -0.1540  0.1335
 1766SOL    HW116760   3.856   2.713   6.856  0.0711  0.4638  0.6743
 1766SOL    HW216761   3.834   2.743   6.991 -0.1557  1.0604 -0.9617
 1767SOL     OW16762   2.773   4.156   3.669  0.2194  0.0673 -0.3568
 1767SOL    HW116763   2.765   4.238   3.620 -1.4049  0.3400  0.3791
 1767SOL    HW216764   2.776   4.088   3.602  0.1405 -0.9647  0.6939
 1768SOL     OW16765   2.643   3.574   8.309 -0.3711  0.1180 -0.5428
 1768SOL    HW116766   2.661   3.540   8.396 -1.4474  0.1451 -0.3140
 1768SOL    HW216767   2.695   3.655   8.303 -0.6358  0.4502  1.6473
 1769SOL     OW16768   2.534   1.021   2.455 -0.3210  0.4437  0.0429
 1769SOL    HW116769   2.482   0.956   2.502  0.3459 -0.4563 -0.4571
 1769SOL    HW216770   2.460   1.072   2.423  0.0418  0.9822  0.0560
 1770SOL     OW16771   2.982   0.881   7.293 -0.1369 -0.0864 -0.0649
 1770SOL    HW116772   2.986   0.952   7.358  0.8206  0.1335 -0.3548
 1770SOL    HW216773   3.042   0.905   7.222 -1.0843  1.6477 -0.2732
 1771SOL     OW16774   0.189   1.201   2.859 -0.2715 -0.2026  0.0340
 1771SOL    HW116775   0.242   1.233   2.932  2.4570 -0.5168 -1.8366
 1771SOL    HW216776   0.175   1.285   2.814 -0.4652  0.5497  1.4775
 1772SOL     OW16777   2.333   3.248   4.258 -0.1880 -0.0726  0.2263
 1772SOL    HW116778   2.334   3.305   4.181 -0.3457 -0.4245 -0.0300
 1772SOL    HW216779   2.307   3.323   4.313 -1.6970 -1.7373  1.7739
 1773SOL     OW16780   1.143   0.870   6.563  0.2672 -0.5144 -0.3710
 1773SOL    HW116781   1.052   0.844   6.547 -0.4515  1.5458  0.3675
 1773SOL    HW216782   1.193   0.795   6.532 -0.7235 -1.6261  0.7145
 1774SOL     OW16783   2.596   0.606   0.418 -0.4862 -0.1661  0.0789
 1774SOL    HW116784   2.597   0.546   0.343  2.4118 -0.7623  0.6108
 1774SOL    HW216785   2.503   0.611   0.439 -0.3833  0.2426  0.4281
 1775SOL     OW16786   0.365   1.721  13.475  0.1648  0.0842 -0.1387
 1775SOL    HW116787   0.338   1.771  13.398 -0.8656 -0.7667 -0.3280
 1775SOL    HW216788   0.347   1.632  13.445 -0.8841  0.2140  0.1075
 1776SOL     OW16789   0.614   1.872  13.264 -0.6470  0.1793  0.0803
 1776SOL    HW116790   0.549   1.942  13.271  0.7528  1.6813 -2.1048
 1776SOL    HW216791   0.690   1.916  13.301 -1.8269  3.0813 -0.9686
 1777SOL     OW16792   1.649   3.077  10.029 -0.4784 -0.1951 -0.3143
 1777SOL    HW116793   1.635   3.010  10.095  0.1442 -0.6787 -0.6664
 1777SOL    HW216794   1.672   3.022   9.954  1.6631  0.6901 -0.2946
 1778SOL     OW16795   3.956   1.386  14.460 -0.2514  0.2559 -0.3257
 1778SOL    HW116796   3.878   1.349  14.503  1.3805  0.3496  2.6878
 1778SOL    HW216797   3.933   1.380  14.367 -0.5041 -2.4479 -0.0755
 1779SOL     OW16798   3.804   3.663  15.822 -0.2127 -0.2582 -0.0067
 1779SOL    HW116799   3.726   3.708  15.855 -0.7846  2.1264 -4.6265
 1779SOL    HW216800   3.832   3.616  15.900 -0.5349 -2.5994 -1.3111
 1780SOL     OW16801   3.621   0.294   9.657 -0.3775  0.2989 -0.3694
 1780SOL    HW116802   3.668   0.315   9.738 -1.1996 -1.5808  0.5873
 1780SOL    HW216803   3.696   0.256   9.612 -0.5167  1.1078 -1.2666
 1781SOL     OW16804   1.716   3.266   5.546  0.2366 -0.2586  0.0085
 1781SOL    HW116805   1.735   3.289   5.455  1.8098 -0.3860  0.3058
 1781SOL    HW216806   1.622   3.262   5.528  0.5448 -1.3081 -1.3455
 1782SOL     OW16807   3.441   0.212   6.795  0.6223 -0.4009  0.0605
 1782SOL    HW116808   3.414   0.175   6.711  1.2177 -0.6863 -0.0035
 1782SOL    HW216809   3.479   0.295   6.766 -0.7447  0.0223 -0.5368
 1783SOL     OW16810   1.360   4.337   3.833  0.1186 -0.1885  0.1596
 1783SOL    HW116811   1.370   4.383   3.750 -0.4273  1.0626  0.7782
 1783SOL    HW216812   1.449   4.339   3.870 -0.4189 -0.2742  1.4837
 1784SOL     OW16813   1.322   4.541   6.013  0.3135  0.4918 -0.5425
 1784SOL    HW116814   1.267   4.597   6.067  0.5646 -1.8500  2.1526
 1784SOL    HW216815   1.351   4.475   6.076  1.6799  0.9779 -0.6652
 1785SOL     OW16816   2.920   1.658   8.809 -0.5588  0.2792 -0.1378
 1785SOL    HW116817   2.932   1.594   8.739  0.4859 -1.4601  1.6136
 1785SOL    HW216818   2.996   1.627   8.858 -1.8679  0.2885  1.9337
 1786SOL     OW16819   1.733   2.237   2.759 -0.6152 -0.1703 -0.4535
 1786SOL    HW116820   1.800   2.190   2.708  0.6474  0.0886  0.9626
 1786SOL    HW216821   1.779   2.256   2.841  0.2554 -1.9499 -0.5206
 1787SOL     OW16822   2.732   3.567   3.291  0.1128  0.0636 -1.0953
 1787SOL    HW116823   2.725   3.578   3.196  1.3126  1.3415 -1.0381
 1787SOL    HW216824   2.679   3.640   3.324  1.2388  0.8610 -1.0034
 1788SOL     OW16825   0.427   4.654  10.404  1.0753 -0.7269  0.5260
 1788SOL    HW116826   0.501   4.665  10.465  0.0281 -0.4465  1.7553
 1788SOL    HW216827   0.353   4.677  10.460 -0.2979 -2.2564 -0.6926
 1789SOL     OW16828   1.631   3.469   0.681 -0.0096  0.6986  0.1680
 1789SOL    HW116829   1.724   3.454   0.664  0.0810 -0.1372  1.4322
 1789SOL    HW216830   1.617   3.543   0.621  0.8988 -0.2898 -1.2636
 1790SOL     OW16831   2.604   1.344  12.361  0.2872 -0.4176  0.4486
 1790SOL    HW116832   2.648   1.402  12.423  0.1064  1.1141 -0.8332
 1790SOL    HW216833   2.510   1.356  12.373  0.2551  1.3425 -1.4809
 1791SOL     OW16834   2.012   0.701   6.433  0.6606  0.1679 -0.8113
 1791SOL    HW116835   2.053   0.626   6.389  1.1550 -0.8099  1.3336
 1791SOL    HW216836   1.940   0.725   6.374  0.6115 -0.7177 -1.1065
 1792SOL     OW16837   4.135   0.174   7.220 -0.0190  0.1962  0.2164
 1792SOL    HW116838   4.160   0.082   7.230  0.2322  0.4189  1.5992
 1792SOL    HW216839   4.056   0.175   7.273  0.2941 -1.2370  0.7080
 1793SOL     OW16840   1.661   2.813   3.672  0.3747  0.5525  0.4873
 1793SOL    HW116841   1.653   2.739   3.732 -2.0818 -0.2893 -0.8529
 1793SOL    HW216842   1.683   2.762   3.594 -3.1013  0.2691 -0.3355
 1794SOL     OW16843   3.266   4.008   5.464 -0.1022  0.2846 -0.4527
 1794SOL    HW116844   3.237   4.091   5.425 -0.6132  0.2753 -0.0971
 1794SOL    HW216845   3.361   4.021   5.461  0.1806 -1.8184 -0.4376
 1795SOL     OW16846   0.316   0.962   7.590  0.0599  0.0066  0.0253
 1795SOL    HW116847   0.299   0.902   7.663 -0.3278  0.2313  0.1197
 1795SOL    HW216848   0.226   0.988   7.569  0.4192 -0.3978 -2.0532
 1796SOL     OW16849   3.307   3.728   5.355  0.2813  0.5279 -0.0435
 1796SOL    HW116850   3.279   3.751   5.266 -1.0024  2.3480  0.8417
 1796SOL    HW216851   3.309   3.815   5.394 -0.7997  0.2902  0.5437
 1797SOL     OW16852   0.988   0.571   8.845  0.1612 -0.6112  0.2497
 1797SOL    HW116853   0.925   0.643   8.853  0.9941  0.2483 -0.8851
 1797SOL    HW216854   0.976   0.541   8.755  0.7243  0.4604 -0.1850
 1798SOL     OW16855   3.901   2.423   3.201 -0.3647  0.0569 -0.7903
 1798SOL    HW116856   3.880   2.503   3.152 -0.3593  0.4449 -0.1561
 1798SOL    HW216857   3.840   2.370   3.149  0.9291 -0.2276 -2.0147
 1799SOL     OW16858   1.127   1.931   3.100  0.0093  0.0439 -0.0786
 1799SOL    HW116859   1.110   2.013   3.053  1.4616  2.0538  2.9353
 1799SOL    HW216860   1.117   1.863   3.033  3.0003  0.7590 -1.2521
 1800SOL     OW16861   2.956   3.871   5.969  0.1625 -0.3624 -0.1609
 1800SOL    HW116862   3.016   3.933   6.010 -0.2527  0.5851 -1.0018
 1800SOL    HW216863   2.874   3.920   5.972  0.8050  0.6606  0.6838
 1801SOL     OW16864   3.594   2.099   5.507  0.7272 -0.2296 -0.2716
 1801SOL    HW116865   3.535   2.128   5.576  1.0658 -0.1451 -0.0184
 1801SOL    HW216866   3.532   2.104   5.434  1.4250 -1.1444 -0.9431
 1802SOL     OW16867   2.439   0.054   6.595 -0.2238 -0.5031  0.2013
 1802SOL    HW116868   2.463   0.005   6.517 -0.3077  0.7336 -0.5924
 1802SOL    HW216869   2.487   0.008   6.664 -0.6435 -1.2276  0.0113
 1803SOL     OW16870   2.275   3.935  15.239 -0.1690  0.1272  0.0779
 1803SOL    HW116871   2.215   3.894  15.302 -0.4274  0.6037  0.1444
 1803SOL    HW216872   2.221   4.002  15.197  1.2043  0.6136 -0.8984
 1804SOL     OW16873   2.295   3.421   8.363  0.6279  0.1106  0.1400
 1804SOL    HW116874   2.380   3.465   8.371  0.3348  0.3579  1.9247
 1804SOL    HW216875   2.244   3.461   8.433 -1.4941 -0.4101 -1.1306
 1805SOL     OW16876   2.684   2.144  10.937 -0.7860  0.2240 -0.0849
 1805SOL    HW116877   2.732   2.187  11.008 -0.4236  1.7464 -1.2483
 1805SOL    HW216878   2.614   2.104  10.988 -1.4547  1.0238 -0.3735
 1806SOL     OW16879   2.160   3.404   5.447 -0.4848 -0.1027  0.0563
 1806SOL    HW116880   2.104   3.337   5.485 -0.4873 -0.4526 -0.5728
 1806SOL    HW216881   2.097   3.458   5.398  1.0751  0.3734 -1.4403
 1807SOL     OW16882   2.757   3.674  15.758  0.1109 -0.0513  0.4907
 1807SOL    HW116883   2.708   3.684  15.677 -0.8217 -0.8591  0.9632
 1807SOL    HW216884   2.686   3.679  15.822 -0.7378 -0.5213 -0.4131
 1808SOL     OW16885   0.172   1.024  14.977 -0.0560 -0.4120  0.1213
 1808SOL    HW116886   0.165   1.069  15.061  2.1753 -1.4951  0.8941
 1808SOL    HW216887   0.081   0.996  14.974 -0.3892  0.4869  2.2297
 1809SOL     OW16888   2.809   0.923  10.601  0.4568 -0.0442 -0.1234
 1809SOL    HW116889   2.892   0.881  10.623  0.6661  0.4153 -0.0375
 1809SOL    HW216890   2.786   0.899  10.511  0.5523 -1.8897  0.3344
 1810SOL     OW16891   2.254   2.508   1.909 -0.1030  0.0875  0.2467
 1810SOL    HW116892   2.251   2.569   1.983 -0.5520 -0.8363  1.0023
 1810SOL    HW216893   2.167   2.520   1.870 -0.2366  0.5775  0.6949
 1811SOL     OW16894   4.122   2.207   7.615 -0.5385 -0.0463 -0.1237
 1811SOL    HW116895   4.050   2.227   7.555  2.3717  1.3013 -3.1500
 1811SOL    HW216896   4.092   2.239   7.700  2.4363 -0.5097  1.1154
 1812SOL     OW16897   3.873   0.049   8.321  0.6483  0.2480  0.2399
 1812SOL    HW116898   3.830   0.025   8.239 -2.2495  1.1129  1.5016
 1812SOL    HW216899   3.840   0.138   8.331 -0.6981 -0.2827  0.4932
 1813SOL     OW16900   0.516   3.531   8.288  0.6961 -0.0872 -0.1045
 1813SOL    HW116901   0.427   3.561   8.269  1.8950  2.2058 -2.1331
 1813SOL    HW216902   0.506   3.436   8.282  0.2221 -0.1074  0.8705
 1814SOL     OW16903   1.243   0.328   6.556 -0.6983 -0.1053  0.0709
 1814SOL    HW116904   1.270   0.280   6.635 -1.6396  0.1384  0.5474
 1814SOL    HW216905   1.162   0.284   6.533 -1.2526  1.1497 -0.3797
 1815SOL     OW16906   4.234   2.331   1.103  0.2407  0.3209  0.6955
 1815SOL    HW116907   4.301   2.398   1.099 -0.0009  0.5100 -0.1368
 1815SOL    HW216908   4.156   2.382   1.125 -0.9931 -1.5958  0.7493
 1816SOL     OW16909   1.962   1.140  16.314 -0.2187  0.0412  0.1493
 1816SOL    HW116910   1.917   1.215  16.353  0.0497 -1.1949  2.8990
 1816SOL    HW216911   2.048   1.146  16.355 -0.9820 -0.7555  1.9085
 1817SOL     OW16912   1.752   2.274   1.569  0.4361 -0.3453 -0.1305
 1817SOL    HW116913   1.767   2.186   1.606 -0.6999 -1.1321 -1.5490
 1817SOL    HW216914   1.760   2.254   1.476  1.1299 -0.9656  0.0616
 1818SOL     OW16915   1.833   0.864   4.352 -0.1803 -0.1556 -0.2446
 1818SOL    HW116916   1.894   0.855   4.279 -1.5962 -0.2585 -1.4109
 1818SOL    HW216917   1.754   0.838   4.306 -0.3206 -0.7140  0.3115
 1819SOL     OW16918   3.779   1.706   4.151  0.1947 -0.6773  0.2079
 1819SOL    HW116919   3.735   1.640   4.205  1.8908 -0.6973  1.5757
 1819SOL    HW216920   3.708   1.730   4.092  0.3728 -1.5086 -0.3497
 1820SOL     OW16921   3.583   1.797  10.862  0.5964 -0.0852  0.3046
 1820SOL    HW116922   3.504   1.795  10.808  0.5696  0.0899  0.3372
 1820SOL    HW216923   3.650   1.812  10.796  0.7126  1.5579  0.8066
 1821SOL     OW16924   0.462   4.300   2.380 -0.0260 -0.1568 -0.3042
 1821SOL    HW116925   0.460   4.338   2.467  2.0210 -0.0346 -0.3144
 1821SOL    HW216926   0.463   4.207   2.402 -0.0904 -0.4727 -1.6115
 1822SOL     OW16927   3.690   0.923   3.583  0.2663 -0.2251 -0.1356
 1822SOL    HW116928   3.760   0.948   3.523  0.0785 -0.3187 -0.3927
 1822SOL    HW216929   3.632   0.993   3.553 -0.2984 -1.3034 -1.5662
 1823SOL     OW16930   0.359   0.117   0.875 -0.7714 -0.1001 -0.3157
 1823SOL    HW116931   0.363   0.022   0.890 -2.4644  0.2179  2.1466
 1823SOL    HW216932   0.343   0.150   0.964 -2.7076  1.8902 -1.3989
 1824SOL     OW16933   2.187   1.115  16.085  0.0905  0.4589  0.5547
 1824SOL    HW116934   2.139   1.036  16.059 -1.0453  0.9249  1.1985
 1824SOL    HW216935   2.173   1.113  16.180  1.4743  2.5462  0.8066
 1825SOL     OW16936   4.060   2.791   8.944 -0.0342 -0.5903  0.0644
 1825SOL    HW116937   4.025   2.880   8.949 -0.8841 -0.9234  0.1178
 1825SOL    HW216938   4.154   2.803   8.939 -0.3783  1.9311 -0.5156
 1826SOL     OW16939   1.022   1.623   4.336 -0.4613 -0.3920 -1.0533
 1826SOL    HW116940   1.028   1.683   4.410  2.2615  0.4985 -1.9845
 1826SOL    HW216941   0.964   1.551   4.359  0.0147 -0.4766 -0.1321
 1827SOL     OW16942   1.271   3.725   5.037  0.0996 -0.3685 -0.0588
 1827SOL    HW116943   1.180   3.699   5.024  0.3767 -0.6544 -1.4532
 1827SOL    HW216944   1.281   3.810   4.995 -3.4297 -0.0108 -0.1503
 1828SOL     OW16945   0.967   4.024   2.678 -0.0358  0.2838  0.3142
 1828SOL    HW116946   0.994   4.030   2.770  0.8840 -0.1082  0.0676
 1828SOL    HW216947   1.050   4.046   2.637 -0.0291 -1.1925 -0.4275
 1829SOL     OW16948   3.756   2.705   0.418 -0.2633  0.1276  0.0903
 1829SOL    HW116949   3.807   2.639   0.371  0.3273  0.2884  0.5105
 1829SOL    HW216950   3.686   2.717   0.353 -1.0485  0.1868  0.9480
 1830SOL     OW16951   0.067   4.380   7.075  0.3989  0.1588 -0.2003
 1830SOL    HW116952   0.037   4.384   7.166  2.1342  0.4425  0.3645
 1830SOL    HW216953   0.144   4.437   7.068 -0.0017  0.7952  0.5359
 1831SOL     OW16954   2.022   4.009   3.916 -0.0111  0.1576  0.1654
 1831SOL    HW116955   2.087   3.945   3.947  0.5692  0.2649 -0.8260
 1831SOL    HW216956   2.046   4.015   3.823 -1.6398  0.5534 -0.2237
 1832SOL     OW16957   4.451   1.203   4.840  0.5286  0.1349  0.1979
 1832SOL    HW116958   4.504   1.175   4.766 -1.9499 -1.7933 -0.8620
 1832SOL    HW216959   4.369   1.212   4.792  0.8720  1.2300 -0.1727
 1833SOL     OW16960   2.766   0.902   1.398  0.0767  0.3383  0.5773
 1833SOL    HW116961   2.784   0.992   1.370 -0.0407  0.8787  2.2891
 1833SOL    HW216962   2.739   0.865   1.313 -0.4068 -0.7382  1.1954
 1834SOL     OW16963   3.441   1.754   1.292  0.3390  0.2907 -0.0037
 1834SOL    HW116964   3.421   1.760   1.385 -1.6267  0.4946 -0.4365
 1834SOL    HW216965   3.356   1.768   1.252 -0.2380 -0.8385  0.8271
 1835SOL     OW16966   3.785   1.060   7.325  0.2720  0.1556 -0.6023
 1835SOL    HW116967   3.733   1.107   7.259 -0.7772  0.4796  0.4510
 1835SOL    HW216968   3.719   0.996   7.352  0.8010 -0.2495 -0.2882
 1836SOL     OW16969   4.656   2.085   6.577  0.3449  0.4947  0.0594
 1836SOL    HW116970   4.632   2.168   6.618 -0.9815 -0.3968  1.0980
 1836SOL    HW216971   4.577   2.044   6.611  0.8790 -2.1060 -1.8208
 1837SOL     OW16972   2.436   1.028  15.307 -0.1645 -0.1285  0.2472
 1837SOL    HW116973   2.469   1.114  15.334 -1.1505  1.4553 -3.6850
 1837SOL    HW216974   2.452   1.035  15.213  0.3926  1.2285  0.4453
 1838SOL     OW16975   0.174   0.406   8.830 -0.2155 -0.0098 -0.1537
 1838SOL    HW116976   0.168   0.418   8.925 -1.4507 -1.1705 -0.0828
 1838SOL    HW216977   0.096   0.351   8.822 -0.8770  1.1504 -1.5979
 1839SOL     OW16978   1.349   0.766   3.926 -0.2602  0.3230 -0.9146
 1839SOL    HW116979   1.376   0.689   3.976  0.5372  0.8497 -0.5380
 1839SOL    HW216980   1.420   0.778   3.863  0.9338 -3.2255 -0.2601
 1840SOL     OW16981   1.169   0.821   8.796  0.1754  0.5760 -0.6340
 1840SOL    HW116982   1.100   0.758   8.816  2.1159 -0.5119  2.6066
 1840SOL    HW216983   1.247   0.775   8.827 -1.5630 -0.7697  1.6931
 1841SOL     OW16984   2.995   2.490   7.990  0.1574 -0.3129  0.3550
 1841SOL    HW116985   3.005   2.418   7.927  0.7054  1.6935 -1.8603
 1841SOL    HW216986   2.973   2.569   7.940  0.1558 -2.1076 -2.5012
 1842SOL     OW16987   2.298   0.669  16.462  0.3352 -0.6462  0.3095
 1842SOL    HW116988   2.319   0.581  16.493  0.1484  0.0376  2.4036
 1842SOL    HW216989   2.297   0.652  16.368  0.9461  1.5952 -0.0990
 1843SOL     OW16990   3.694   3.406   3.449 -0.1353 -0.1330 -0.2945
 1843SOL    HW116991   3.763   3.460   3.411  0.6226 -0.5742  0.4453
 1843SOL    HW216992   3.746   3.336   3.488 -2.5040 -1.0047  1.3418
 1844SOL     OW16993   2.216   2.230   2.028 -0.1933 -0.2906  0.2644
 1844SOL    HW116994   2.190   2.320   2.010 -1.0907 -0.5841  0.0567
 1844SOL    HW216995   2.218   2.238   2.124 -1.4450  1.0253  0.1738
 1845SOL     OW16996   2.449   3.195   5.010 -0.2122  0.1421  0.0353
 1845SOL    HW116997   2.415   3.111   4.978 -1.3996  0.6708 -0.1154
 1845SOL    HW216998   2.472   3.244   4.931  0.0028  1.1510  0.7227
 1846SOL     OW16999   3.947   1.867   1.722  0.4488 -0.4561  1.0714
 1846SOL    HW117000   4.022   1.834   1.673  0.5018 -0.7603  1.3593
 1846SOL    HW217001   3.900   1.917   1.655 -0.0504 -2.6829 -0.2325
 1847SOL     OW17002   3.026   3.180  13.865  0.5149  0.4719 -0.2550
 1847SOL    HW117003   3.107   3.149  13.904  0.9935 -1.1001 -2.5115
 1847SOL    HW217004   3.044   3.271  13.841 -1.2242  1.3859  1.9487
 1848SOL     OW17005   4.264   3.123   1.580  0.2398  0.1116  0.7970
 1848SOL    HW117006   4.260   3.068   1.658  1.2968 -1.0444  0.0461
 1848SOL    HW217007   4.337   3.080   1.535 -0.2248 -0.0754  0.2284
 1849SOL     OW17008   2.459   1.445   2.811  0.7195 -0.0125  0.2884
 1849SOL    HW117009   2.510   1.391   2.750  2.1898 -0.3488  1.8221
 1849SOL    HW217010   2.488   1.531   2.779  1.0894 -0.5285 -0.7699
 1850SOL     OW17011   3.442   1.711   8.224  0.3449  0.5965  0.3635
 1850SOL    HW117012   3.410   1.756   8.302 -0.8675  1.1736 -0.4622
 1850SOL    HW217013   3.528   1.683   8.252  1.4069  0.7767 -2.6943
 1851SOL     OW17014   1.263   3.371   3.065  0.1180  0.2644  0.6536
 1851SOL    HW117015   1.230   3.323   2.989  0.9053  1.9752 -0.7431
 1851SOL    HW217016   1.239   3.310   3.136 -4.6785  0.7861 -0.5044
 1852SOL     OW17017   4.558   3.291   6.517  0.1231  0.2341 -0.4342
 1852SOL    HW117018   4.533   3.218   6.460 -0.3660  1.0105 -1.2122
 1852SOL    HW217019   4.596   3.239   6.588 -1.2100  0.6820  0.6166
 1853SOL     OW17020   1.936   1.557   3.163  0.1965  0.8928  0.5743
 1853SOL    HW117021   1.964   1.528   3.076  0.4460  0.8184  0.6770
 1853SOL    HW217022   1.912   1.648   3.144 -0.2323  0.8163  0.7534
 1854SOL     OW17023   2.745   3.537   4.161 -0.4098  0.3079 -0.3095
 1854SOL    HW117024   2.726   3.445   4.177  0.4117  0.2630  0.4294
 1854SOL    HW217025   2.671   3.559   4.105  0.3956  0.9103 -1.1494
 1855SOL     OW17026   3.495   2.489   4.666 -0.0950 -0.0886  0.2909
 1855SOL    HW117027   3.536   2.432   4.601  2.6639  0.5808  1.4528
 1855SOL    HW217028   3.525   2.576   4.641  0.5193 -0.7493 -1.2546
 1856SOL     OW17029   1.358   4.229   2.922 -0.5753  0.8532 -0.2146
 1856SOL    HW117030   1.392   4.306   2.967  1.2279 -0.4589  0.6801
 1856SOL    HW217031   1.418   4.164   2.959  0.5518  2.4927  0.8280
 1857SOL     OW17032   3.248   2.645   5.405 -0.4372 -0.1970  0.0016
 1857SOL    HW117033   3.233   2.555   5.434 -1.8378  0.7059  2.0945
 1857SOL    HW217034   3.175   2.663   5.346  0.3861 -0.7464 -1.1870
 1858SOL     OW17035   3.946   2.255   8.241  0.0090 -0.1683  0.4975
 1858SOL    HW117036   4.037   2.275   8.263 -0.6462  0.8718  2.1816
 1858SOL    HW217037   3.964   2.175   8.191 -1.5513 -0.2876  0.1488
 1859SOL     OW17038   0.389   3.526   6.455 -0.3140  0.3223  0.4594
 1859SOL    HW117039   0.348   3.611   6.438  2.0487  1.5784  1.0838
 1859SOL    HW217040   0.358   3.463   6.389 -2.3133  1.7380  0.0495
 1860SOL     OW17041   4.610   1.492   1.376  0.1166  0.4326 -0.4717
 1860SOL    HW117042   4.524   1.478   1.336 -0.2740 -2.9853  1.5649
 1860SOL    HW217043   4.614   1.421   1.440 -1.3441  0.8789  0.1086
 1861SOL     OW17044   3.685   3.033  14.640 -0.3794 -0.4952 -0.1074
 1861SOL    HW117045   3.626   3.088  14.692 -1.9472 -0.6230 -1.7776
 1861SOL    HW217046   3.623   2.988  14.583 -2.4462  2.9033 -0.5568
 1862SOL     OW17047   4.172   3.220   3.874  0.1300 -0.1602 -0.3060
 1862SOL    HW117048   4.161   3.282   3.946 -0.1088  1.3609 -1.6618
 1862SOL    HW217049   4.260   3.186   3.891 -0.7563 -1.0356  2.5564
 1863SOL     OW17050   2.559   3.158  11.571  0.2023  0.3930  0.3401
 1863SOL    HW117051   2.652   3.180  11.573  0.0833  1.0272 -0.9125
 1863SOL    HW217052   2.554   3.064  11.585  0.0112  0.3946  0.2826
 1864SOL     OW17053   2.838   1.426   2.633 -0.2985  0.4424 -0.3119
 1864SOL    HW117054   2.931   1.443   2.616  0.3675 -2.3533  0.5560
 1864SOL    HW217055   2.804   1.479   2.561  0.7335 -0.5002 -1.5003
 1865SOL     OW17056   1.632   1.541  10.309  0.0425 -0.3348 -0.0379
 1865SOL    HW117057   1.556   1.590  10.278  2.2010  2.2649 -1.2257
 1865SOL    HW217058   1.707   1.573  10.259 -1.0844  0.3116 -1.3152
 1866SOL     OW17059   1.512   3.556   7.042  0.0429  0.2461 -0.0317
 1866SOL    HW117060   1.479   3.489   7.101  1.9780 -0.1907  0.5422
 1866SOL    HW217061   1.524   3.506   6.961 -0.7144 -0.5724  0.3703
 1867SOL     OW17062   2.113   0.748   6.091  0.1862  0.2517 -0.3876
 1867SOL    HW117063   2.190   0.752   6.034  0.3209  2.0226 -0.0706
 1867SOL    HW217064   2.080   0.837   6.077 -0.4197 -0.0182 -0.6979
 1868SOL     OW17065   2.433   2.858   0.257 -0.2144 -0.3319  0.0274
 1868SOL    HW117066   2.459   2.932   0.202 -0.3460  0.3104  0.8429
 1868SOL    HW217067   2.452   2.911   0.334 -0.8374  0.8578 -0.6460
 1869SOL     OW17068   4.595   1.471   3.544  0.1043  0.3764  0.5342
 1869SOL    HW117069   4.627   1.538   3.604  2.1372 -0.6450  0.6051
 1869SOL    HW217070   4.567   1.530   3.474 -1.0555 -0.2322  0.4786
 1870SOL     OW17071   3.207   0.188   5.161 -0.2268  0.2814  0.3471
 1870SOL    HW117072   3.113   0.200   5.175 -0.1587  1.4499 -0.1432
 1870SOL    HW217073   3.211   0.100   5.198 -0.1166 -0.0431 -0.4297
 1871SOL     OW17074   4.556   1.363  11.963  0.0922  0.5512 -0.0302
 1871SOL    HW117075   4.518   1.288  11.918 -0.6737  1.5385 -1.0005
 1871SOL    HW217076   4.477   1.412  11.985  0.9867  1.2463  1.6827
 1872SOL     OW17077   2.078   4.101   4.357 -0.4073 -0.5644 -0.0901
 1872SOL    HW117078   2.099   4.058   4.439  0.9697 -0.7528 -0.5365
 1872SOL    HW217079   2.124   4.048   4.292 -0.8779 -2.1109  0.8537
 1873SOL     OW17080   4.017   4.310   5.219 -0.5235  0.0030 -0.0873
 1873SOL    HW117081   4.089   4.322   5.158  0.0097  0.5299  0.6475
 1873SOL    HW217082   3.942   4.306   5.159 -1.0514  2.8353  0.4087
 1874SOL     OW17083   3.720   2.608   2.138 -0.3331  0.8206  0.2750
 1874SOL    HW117084   3.788   2.653   2.089 -1.5385  0.9696 -1.2496
 1874SOL    HW217085   3.649   2.671   2.124 -0.9688  0.2061  0.7268
 1875SOL     OW17086   4.540   0.475   8.648 -0.1718 -0.2319 -0.5577
 1875SOL    HW117087   4.498   0.392   8.669  0.5659 -0.4666 -0.0014
 1875SOL    HW217088   4.625   0.443   8.617 -0.7820 -1.3341 -1.0949
 1876SOL     OW17089   0.770   3.740   6.320  0.2564 -0.4930 -0.2417
 1876SOL    HW117090   0.758   3.750   6.415  0.4571  0.1941 -0.2853
 1876SOL    HW217091   0.710   3.809   6.291  0.9023  0.0060 -0.4019
 1877SOL     OW17092   3.241   4.134   1.368 -0.2325 -0.3129  0.3494
 1877SOL    HW117093   3.278   4.160   1.284 -0.3144  0.2982  0.4997
 1877SOL    HW217094   3.229   4.039   1.372  0.3425 -0.4395 -1.1701
 1878SOL     OW17095   4.129   1.352   6.193 -0.2748  0.1240  0.3635
 1878SOL    HW117096   4.035   1.364   6.178  0.4026  1.4272 -2.8458
 1878SOL    HW217097   4.138   1.338   6.287 -0.9234 -1.4150  0.1793
 1879SOL     OW17098   2.924   4.715   6.002 -0.7478 -0.2148 -0.0802
 1879SOL    HW117099   2.947   4.665   5.924 -0.0170  1.0901 -0.7079
 1879SOL    HW217100   2.986   4.682   6.066  0.4160  2.7961  0.3340
 1880SOL     OW17101   0.507   3.092  17.281  0.0376 -0.2501  0.2000
 1880SOL    HW117102   0.542   3.178  17.306 -0.3885  0.0109 -0.1139
 1880SOL    HW217103   0.499   3.050  17.367 -3.1529  1.6022  0.7850
 1881SOL     OW17104   2.052   2.729   5.357  0.0188  0.4321 -0.5009
 1881SOL    HW117105   2.030   2.670   5.429  2.8256  0.1819  0.1470
 1881SOL    HW217106   2.133   2.691   5.323 -0.9988 -0.2710 -2.1586
 1882SOL     OW17107   2.331   0.838   2.465 -0.1827 -0.8871  0.2726
 1882SOL    HW117108   2.248   0.876   2.495  0.6376  0.0735  1.3524
 1882SOL    HW217109   2.323   0.750   2.503  0.0444 -0.0611  2.2335
 1883SOL     OW17110   3.857   3.147   6.585  0.0368  0.3931 -0.2788
 1883SOL    HW117111   3.872   3.165   6.678 -1.0123  1.0653 -0.2362
 1883SOL    HW217112   3.763   3.142   6.604 -0.0341 -1.4935 -1.1090
 1884SOL     OW17113   2.426   3.652   2.443 -0.2876  0.6170  0.2677
 1884SOL    HW117114   2.353   3.667   2.382 -0.0911  1.4098  0.2334
 1884SOL    HW217115   2.494   3.620   2.383 -1.9130 -1.4703 -0.5043
 1885SOL     OW17116   3.664   3.028   6.262  0.0479 -0.1476 -0.0136
 1885SOL    HW117117   3.594   2.974   6.299  0.0878 -0.3313 -0.2048
 1885SOL    HW217118   3.695   2.978   6.187 -0.1760  0.6712 -0.6480
 1886SOL     OW17119   1.780   0.479   2.090  0.1602  0.1848 -0.5128
 1886SOL    HW117120   1.724   0.470   2.167  0.1179  0.1860 -0.5436
 1886SOL    HW217121   1.713   0.484   2.022 -1.0472  0.0595  0.6686
 1887SOL     OW17122   2.727   3.729   3.810 -0.4816 -0.7539 -0.2705
 1887SOL    HW117123   2.727   3.641   3.772 -1.4678 -0.1956 -1.5820
 1887SOL    HW217124   2.804   3.764   3.764 -0.1548 -1.4977 -0.2876
 1888SOL     OW17125   0.481   0.726   7.418  0.3764 -0.0180 -0.3388
 1888SOL    HW117126   0.414   0.735   7.351  0.4946 -1.1047 -0.6044
 1888SOL    HW217127   0.469   0.806   7.469  0.5436 -1.6242  2.2051
 1889SOL     OW17128   0.672   3.671   3.601 -0.1487 -0.1958 -0.4159
 1889SOL    HW117129   0.683   3.766   3.599 -1.2856  0.0129  2.4887
 1889SOL    HW217130   0.732   3.630   3.665 -0.0012 -0.7101 -0.8851
 1890SOL     OW17131   3.669   2.490   0.671  0.0392 -0.2485 -0.0484
 1890SOL    HW117132   3.579   2.523   0.673 -1.3369 -3.9084 -1.1358
 1890SOL    HW217133   3.709   2.564   0.715  0.1010  0.8104 -1.8813
 1891SOL     OW17134   3.215   2.562   1.024 -0.0409  0.0006  0.2163
 1891SOL    HW117135   3.164   2.548   0.944 -0.0424  1.6718 -0.0801
 1891SOL    HW217136   3.291   2.602   0.981 -1.7945  3.7472  0.5640
 1892SOL     OW17137   4.328   0.396  11.378 -0.5729 -0.0013  0.5075
 1892SOL    HW117138   4.380   0.359  11.449 -1.0927 -1.5867  0.0657
 1892SOL    HW217139   4.315   0.326  11.314  3.6502  0.7159 -1.1871
 1893SOL     OW17140   0.143   3.229   1.148 -0.4379  0.4527 -0.3541
 1893SOL    HW117141   0.167   3.304   1.203  2.6115  0.3233 -1.4760
 1893SOL    HW217142   0.183   3.162   1.203 -1.1292  0.9927  0.8050
 1894SOL     OW17143   0.956   3.118   2.978  0.1956  0.7889  0.0806
 1894SOL    HW117144   0.972   3.174   2.902 -1.6204  1.1119 -0.0613
 1894SOL    HW217145   0.908   3.047   2.934 -0.8413  1.1582  0.6211
 1895SOL     OW17146   0.718   3.220   8.344 -1.1452 -0.4443  0.2535
 1895SOL    HW117147   0.638   3.178   8.375  0.3651 -1.8472  2.2797
 1895SOL    HW217148   0.733   3.152   8.278 -1.1225  1.0623 -1.2992
 1896SOL     OW17149   2.187   1.421   8.272  0.3653 -0.2808  0.0642
 1896SOL    HW117150   2.097   1.452   8.274  0.4007 -0.0917 -1.5054
 1896SOL    HW217151   2.239   1.501   8.261 -1.3386  0.8032  0.0065
 1897SOL     OW17152   4.498   0.655  11.281 -0.0066  0.4008 -0.1565
 1897SOL    HW117153   4.537   0.568  11.276  2.9910  1.5664  2.4898
 1897SOL    HW217154   4.414   0.650  11.237  0.5725  0.4224 -1.2669
 1898SOL     OW17155   1.967   3.097   3.194 -0.2569  0.0984  0.0800
 1898SOL    HW117156   1.903   3.082   3.264 -1.1062 -0.7309 -0.8740
 1898SOL    HW217157   2.043   3.117   3.248 -1.6427  1.7509  1.4267
 1899SOL     OW17158   1.897   3.745   9.749  0.1421 -0.2918  0.0188
 1899SOL    HW117159   1.866   3.656   9.732  1.0140 -0.4148 -0.9654
 1899SOL    HW217160   1.930   3.751   9.838  2.3522  1.3947 -0.9077
 1900SOL     OW17161   2.642   0.963   6.848 -0.5998 -0.7337  0.5319
 1900SOL    HW117162   2.636   0.868   6.843  0.0219 -0.8318  1.8130
 1900SOL    HW217163   2.705   0.980   6.918  0.2597 -0.3019 -0.3320
 1901SOL     OW17164   1.840   3.289   9.966  0.4532  0.3561  0.2698
 1901SOL    HW117165   1.790   3.228  10.020  0.1831 -2.0354 -2.6564
 1901SOL    HW217166   1.768   3.338   9.926 -0.3866 -0.9365  0.2033
 1902SOL     OW17167   0.307   2.988   3.485 -0.4181 -0.1084 -0.0232
 1902SOL    HW117168   0.395   2.951   3.473 -0.4136  0.2025 -0.9455
 1902SOL    HW217169   0.325   3.081   3.471  4.0844 -0.8582  0.6193
 1903SOL     OW17170   0.539   3.014   3.787 -0.4493  0.4571  0.0332
 1903SOL    HW117171   0.537   3.076   3.714  1.6247 -1.5546 -1.7371
 1903SOL    HW217172   0.585   3.060   3.856  1.0243 -0.7040 -0.1727
 1904SOL     OW17173   1.326   0.984   6.872 -0.7042 -0.7401  0.1700
 1904SOL    HW117174   1.355   0.907   6.823  0.7691 -0.3434  0.4012
 1904SOL    HW217175   1.261   1.023   6.814 -0.8439 -0.4284  0.5367
 1905SOL     OW17176   3.342   4.670  12.352  0.6411  0.1390 -0.7466
 1905SOL    HW117177   3.314   4.686  12.262 -1.6247 -0.2579 -0.0961
 1905SOL    HW217178   3.418   4.613  12.339  0.4148 -0.6468  1.4569
 1906SOL     OW17179   2.684   1.147   8.560 -0.5956 -0.1796  0.4102
 1906SOL    HW117180   2.760   1.135   8.618 -0.1848 -1.6212 -0.4137
 1906SOL    HW217181   2.702   1.082   8.492  1.1617  1.7612 -0.9825
 1907SOL     OW17182   2.508   2.013  11.105  0.1317 -0.0173  0.4888
 1907SOL    HW117183   2.541   1.940  11.157 -0.7496  0.3126  1.5166
 1907SOL    HW217184   2.419   1.997  11.137 -0.0056 -0.7248 -0.2648
 1908SOL     OW17185   0.272   1.518   6.819  0.1867  0.2414  0.4051
 1908SOL    HW117186   0.196   1.566   6.851  0.0302 -1.5145  2.6511
 1908SOL    HW217187   0.250   1.435   6.861 -0.9488  0.6448  0.6061
 1909SOL     OW17188   4.631   3.138   8.203  0.1384  0.0427  0.0638
 1909SOL    HW117189   4.542   3.103   8.200  0.4032 -0.6999  0.8051
 1909SOL    HW217190   4.643   3.155   8.110  1.5820 -1.2490  0.0140
 1910SOL     OW17191   2.665   3.227   9.479 -0.3072  0.5164 -0.0208
 1910SOL    HW117192   2.661   3.322   9.484 -0.5961  0.3583  3.2229
 1910SOL    HW217193   2.650   3.193   9.567  0.2416 -0.3335 -0.2563
 1911SOL     OW17194   1.004   4.334   0.167 -0.6628  0.1243  0.0815
 1911SOL    HW117195   1.096   4.333   0.195 -0.9409  0.3613  1.0207
 1911SOL    HW217196   0.998   4.251   0.121  2.0452 -1.2193  2.1102
 1912SOL     OW17197   1.407   2.468   1.465  0.3093 -0.1888 -0.5765
 1912SOL    HW117198   1.356   2.390   1.487 -2.1129  1.1881 -1.2680
 1912SOL    HW217199   1.454   2.424   1.394 -0.1568 -0.4168 -0.7463
 1913SOL     OW17200   3.387   2.690   5.817  0.0756  0.0013 -0.2812
 1913SOL    HW117201   3.298   2.655   5.827 -0.2102  0.7381 -0.2273
 1913SOL    HW217202   3.372   2.784   5.816  1.3664  0.1906 -1.0990
 1914SOL     OW17203   0.117   4.478   4.966  0.7203 -0.5651  0.2664
 1914SOL    HW117204   0.084   4.500   5.053 -1.2622 -0.8655 -0.4000
 1914SOL    HW217205   0.188   4.418   4.990  1.1528  0.7134  2.1507
 1915SOL     OW17206   1.771   3.694   2.638  0.0693  0.1251  0.6814
 1915SOL    HW117207   1.777   3.788   2.618  1.2338  0.4032  2.3493
 1915SOL    HW217208   1.675   3.688   2.641 -0.0687  2.4344  1.1748
 1916SOL     OW17209   3.679   2.290   9.143 -0.1898  0.1489 -0.3221
 1916SOL    HW117210   3.728   2.332   9.214 -0.3779  0.4723 -0.3821
 1916SOL    HW217211   3.689   2.355   9.072  0.0002  1.8826  1.2830
 1917SOL     OW17212   3.839   1.404   4.113 -0.4327 -0.6065  0.1147
 1917SOL    HW117213   3.921   1.437   4.150 -0.7691 -0.1222  0.4272
 1917SOL    HW217214   3.862   1.381   4.023  1.0342 -1.3104  0.6669
 1918SOL     OW17215   2.632   3.573   7.002 -0.0545  0.2743  0.2145
 1918SOL    HW117216   2.676   3.631   6.941 -2.2490  0.8221 -0.8175
 1918SOL    HW217217   2.672   3.489   6.976 -0.7272  0.1894 -0.5272
 1919SOL     OW17218   4.128   0.483   1.595 -0.0238  0.4675  0.1505
 1919SOL    HW117219   4.049   0.482   1.649 -1.9043 -3.0711 -2.6397
 1919SOL    HW217220   4.090   0.473   1.507  0.4958 -1.2772  0.1197
 1920SOL     OW17221   0.108   3.891   1.441 -0.4846 -0.2136 -0.3354
 1920SOL    HW117222   0.062   3.861   1.362 -1.1337  0.3719 -0.1788
 1920SOL    HW217223   0.126   3.807   1.482 -0.7982  0.6689  1.5969
 1921SOL     OW17224   1.149   3.909  13.537  0.0990  0.9447  0.2549
 1921SOL    HW117225   1.204   3.956  13.475 -0.7004 -0.8229 -1.7915
 1921SOL    HW217226   1.062   3.946  13.521 -0.3720 -0.8345 -1.3326
 1922SOL     OW17227   2.606   3.743  12.554 -0.0505  0.1514 -0.6324
 1922SOL    HW117228   2.521   3.712  12.583 -0.3734  1.9683  0.3802
 1922SOL    HW217229   2.659   3.686  12.610  1.4046  2.0503 -0.0455
 1923SOL     OW17230   1.325   0.316   1.560  0.1140 -0.2835 -0.1121
 1923SOL    HW117231   1.243   0.346   1.520 -0.6148 -0.1722  1.4518
 1923SOL    HW217232   1.357   0.398   1.598  0.6251 -0.3273 -0.4646
 1924SOL     OW17233   1.608   4.125   7.215  0.3941 -0.7482  0.3544
 1924SOL    HW117234   1.637   4.040   7.246 -1.3599 -0.7763  1.9981
 1924SOL    HW217235   1.513   4.123   7.232  0.0372 -0.9266 -1.7399
 1925SOL     OW17236   0.139   3.343   0.009  0.4879 -0.2422  0.5651
 1925SOL    HW117237   0.197   3.385  17.635 -1.6694  0.9107 -0.6328
 1925SOL    HW217238   0.200   3.342   0.084  0.5439 -0.6129  0.5158
 1926SOL     OW17239   1.728   1.654   5.712  0.3265 -0.0495  0.0039
 1926SOL    HW117240   1.745   1.701   5.793 -1.6936  1.3146 -0.3806
 1926SOL    HW217241   1.746   1.730   5.657  0.9424  0.2864  0.6771
 1927SOL     OW17242   4.458   3.738  10.534  0.2127  0.3507 -0.6745
 1927SOL    HW117243   4.530   3.696  10.488  0.9229  2.0838 -1.1517
 1927SOL    HW217244   4.391   3.690  10.487  0.2544 -0.3261 -0.0528
 1928SOL     OW17245   1.771   0.387  12.736 -0.1049  0.3968 -0.1900
 1928SOL    HW117246   1.800   0.419  12.650  0.5242 -0.2401 -0.2097
 1928SOL    HW217247   1.854   0.345  12.757  0.1068 -0.5607 -2.9221
 1929SOL     OW17248   2.824   3.582  12.331  0.1349  0.6220  0.5077
 1929SOL    HW117249   2.853   3.641  12.400  2.7531 -0.7330  0.5681
 1929SOL    HW217250   2.837   3.495  12.367  2.9949  0.5117 -0.7586
 1930SOL     OW17251   4.459   0.487  11.948  0.5539 -0.4205 -0.1179
 1930SOL    HW117252   4.549   0.453  11.941  1.3657  1.8767 -1.0554
 1930SOL    HW217253   4.407   0.408  11.958 -1.4304  0.3938 -4.0815
 1931SOL     OW17254   0.563   2.987   7.418 -0.5407  0.1117 -0.2406
 1931SOL    HW117255   0.605   3.007   7.501  0.7096 -2.0743 -0.3475
 1931SOL    HW217256   0.509   2.914   7.446 -1.3836  0.1591 -1.7290
 1932SOL     OW17257   1.345   3.132   8.059  0.6138  0.1601 -0.1516
 1932SOL    HW117258   1.384   3.103   8.141  1.2123  1.0660 -0.1196
 1932SOL    HW217259   1.356   3.226   8.075 -1.1338  0.2878  0.4033
 1933SOL     OW17260   0.732   0.258  10.495  0.3117 -0.1721  0.2413
 1933SOL    HW117261   0.684   0.226  10.571 -1.2873 -1.1554 -1.1912
 1933SOL    HW217262   0.662   0.305  10.449  1.3179 -0.0615 -1.1765
 1934SOL     OW17263   4.015   1.264   4.554  0.5455  0.3674 -0.4860
 1934SOL    HW117264   4.044   1.175   4.534  1.4632  1.0147 -2.0000
 1934SOL    HW217265   4.048   1.308   4.476  0.5856 -0.3591 -0.8707
 1935SOL     OW17266   4.564   1.439   5.361 -0.0212  0.3028  0.3448
 1935SOL    HW117267   4.634   1.481   5.411 -1.2807  1.5231  1.0673
 1935SOL    HW217268   4.500   1.407   5.425 -3.0957  1.5979 -2.0745
 1936SOL     OW17269   1.897   0.314   0.759 -0.0311  0.4237  0.0605
 1936SOL    HW117270   1.981   0.298   0.716  1.5274  2.5741  2.2872
 1936SOL    HW217271   1.914   0.288   0.850  1.0356  0.3686 -0.1466
 1937SOL     OW17272   3.753   2.660  12.871 -0.0469 -0.0567 -0.2090
 1937SOL    HW117273   3.752   2.754  12.853  1.1019 -0.1256 -0.6651
 1937SOL    HW217274   3.843   2.631  12.858 -0.0158 -0.3224  0.6562
 1938SOL     OW17275   2.631   1.951   3.701 -1.0522  0.4927 -0.3971
 1938SOL    HW117276   2.687   1.942   3.624  1.5995 -1.2762  1.7804
 1938SOL    HW217277   2.556   2.004   3.674 -0.0102  1.9015 -0.5357
 1939SOL     OW17278   3.194   2.607  11.187 -0.1599  0.1901  0.1367
 1939SOL    HW117279   3.235   2.682  11.144 -1.4958  1.3642  0.8802
 1939SOL    HW217280   3.267   2.551  11.214 -0.1714 -1.8134 -4.0361
 1940SOL     OW17281   2.475   2.395   5.363  0.0612  0.2429  0.0333
 1940SOL    HW117282   2.570   2.384   5.357 -0.0365 -1.6645  2.0881
 1940SOL    HW217283   2.483   2.468   5.424  0.4518 -0.1928  0.4949
 1941SOL     OW17284   0.472   2.869  14.745 -0.0670  0.7071  0.1310
 1941SOL    HW117285   0.415   2.941  14.773  1.2298  1.7649  0.0780
 1941SOL    HW217286   0.488   2.894  14.654  2.9028 -0.8556  0.2638
 1942SOL     OW17287   1.210   2.120   7.266  0.0744 -0.3282 -0.9074
 1942SOL    HW117288   1.304   2.106   7.274  0.1507 -1.2679 -3.4453
 1942SOL    HW217289   1.182   2.037   7.304 -0.3922  0.4640  0.4679
 1943SOL     OW17290   3.752   3.061   7.055  0.0711  0.6602 -0.3485
 1943SOL    HW117291   3.701   3.030   6.980 -0.1679  1.9924 -0.7445
 1943SOL    HW217292   3.680   3.096   7.107  0.2897  0.7796 -0.1274
 1944SOL     OW17293   2.511   0.880   3.562 -0.0784 -0.5840  0.7562
 1944SOL    HW117294   2.568   0.838   3.497  0.4650 -1.3990  1.7684
 1944SOL    HW217295   2.580   0.927   3.609 -0.0777 -0.5824  0.7536
 1945SOL     OW17296   3.037   3.605   3.806 -0.2555  0.6141  0.0980
 1945SOL    HW117297   3.127   3.603   3.839  0.1688  0.0945 -1.1120
 1945SOL    HW217298   2.989   3.579   3.884 -2.1487  3.3494 -0.1487
 1946SOL     OW17299   0.176   2.996   9.705  0.2518  1.0479 -0.0177
 1946SOL    HW117300   0.235   3.058   9.747  2.2561  0.6238 -2.2031
 1946SOL    HW217301   0.194   2.928   9.769  2.8366 -0.3704 -2.2273
 1947SOL     OW17302   0.284   3.564   5.337 -0.2100  0.0389  0.0488
 1947SOL    HW117303   0.295   3.480   5.382 -2.3088 -0.6134 -0.6465
 1947SOL    HW217304   0.348   3.615   5.387 -0.1733 -1.8004  1.8865
 1948SOL     OW17305   3.002   3.320   2.596  0.0513 -0.4656 -0.0848
 1948SOL    HW117306   3.063   3.299   2.666  1.0622 -0.4001 -0.9359
 1948SOL    HW217307   2.999   3.415   2.606 -1.9869 -0.9288  3.5912
 1949SOL     OW17308   3.623   0.843   8.630  0.5464  0.1520  0.5086
 1949SOL    HW117309   3.556   0.801   8.575  1.8038 -2.5004  1.0043
 1949SOL    HW217310   3.700   0.860   8.575 -1.0352  0.6000 -1.5881
 1950SOL     OW17311   1.766   0.433  13.881  0.2649 -0.1896 -0.4145
 1950SOL    HW117312   1.840   0.487  13.854  0.9017 -0.4656  0.7683
 1950SOL    HW217313   1.797   0.342  13.878  1.6856  0.3197 -1.2657
 1951SOL     OW17314   4.587   2.274   5.553  0.0458  0.2558 -0.0571
 1951SOL    HW117315   4.569   2.268   5.459 -0.5386 -2.1432  0.1973
 1951SOL    HW217316   4.513   2.216   5.575  0.7033  0.4483  2.6269
 1952SOL     OW17317   3.597   3.757  15.326 -0.7861  0.2400 -0.4385
 1952SOL    HW117318   3.592   3.774  15.232 -0.6398 -1.6958 -0.7876
 1952SOL    HW217319   3.548   3.834  15.355 -0.1369 -0.4282  2.4608
 1953SOL     OW17320   2.931   0.317   7.658  0.4927 -0.1335 -0.2783
 1953SOL    HW117321   2.848   0.363   7.664  0.2700 -0.5009 -0.4823
 1953SOL    HW217322   2.991   0.383   7.624 -1.5575  0.8509 -2.0448
 1954SOL     OW17323   4.072   3.124   5.312 -0.0221 -0.2370  0.6410
 1954SOL    HW117324   4.030   3.087   5.390 -1.7042 -0.4673 -0.3903
 1954SOL    HW217325   4.038   3.069   5.242 -0.0657  0.0775  0.4185
 1955SOL     OW17326   2.617   4.140   3.892 -0.4582  0.4525  0.2224
 1955SOL    HW117327   2.561   4.213   3.866  0.8658  1.8206  1.2039
 1955SOL    HW217328   2.670   4.132   3.813  1.1394 -1.9062  1.5446
 1956SOL     OW17329   4.372   3.253  11.754  0.9281  0.5375 -0.0237
 1956SOL    HW117330   4.454   3.287  11.788  1.0246 -0.5167  0.8312
 1956SOL    HW217331   4.353   3.322  11.691 -0.7693  0.8261  0.7887
 1957SOL     OW17332   3.503   1.982   4.920  0.4645 -0.2599 -0.0982
 1957SOL    HW117333   3.557   1.936   4.856 -0.1004 -1.8414  0.5560
 1957SOL    HW217334   3.548   2.066   4.917  0.0488 -0.0187  0.6024
 1958SOL     OW17335   0.560   2.017   6.978  0.6021  0.4246 -0.6498
 1958SOL    HW117336   0.641   2.066   6.994 -0.0034  0.2170  2.9563
 1958SOL    HW217337   0.573   2.031   6.884 -0.4636  1.5618 -0.6236
 1959SOL     OW17338   0.783   2.548   2.748 -0.2988 -0.0493  0.4351
 1959SOL    HW117339   0.801   2.605   2.674  1.8411 -4.0296 -2.0974
 1959SOL    HW217340   0.696   2.513   2.729  0.5410 -2.0049  0.1755
 1960SOL     OW17341   4.713   0.759  11.111 -0.2497 -0.0158 -0.0996
 1960SOL    HW117342   0.007   0.665  11.113 -1.8153 -0.2152  2.6886
 1960SOL    HW217343   4.640   0.762  11.172  0.7130 -0.5978  1.0847
 1961SOL     OW17344   3.725   0.781   8.114  0.0364 -0.4557  0.4310
 1961SOL    HW117345   3.762   0.695   8.133  2.1742  0.1646 -0.9972
 1961SOL    HW217346   3.718   0.779   8.019 -0.3946  1.4841  0.4167
 1962SOL     OW17347   3.707   1.953  17.229 -0.3323  0.1700  0.5215
 1962SOL    HW117348   3.778   2.018  17.227 -1.5834  1.5132 -0.0053
 1962SOL    HW217349   3.635   2.012  17.207 -0.9252 -0.6393  0.3143
 1963SOL     OW17350   1.602   0.794   7.067 -0.3482  0.0758 -0.2387
 1963SOL    HW117351   1.675   0.739   7.037 -0.6433 -2.1987  3.2451
 1963SOL    HW217352   1.549   0.727   7.110 -1.8884  0.9745 -0.7689
 1964SOL     OW17353   3.194   2.064   2.830 -0.3776  0.3776 -0.1949
 1964SOL    HW117354   3.236   2.036   2.749  0.8933  0.2479  0.4961
 1964SOL    HW217355   3.263   2.052   2.896  1.3919 -0.3105 -2.2013
 1965SOL     OW17356   1.631   3.510   3.157  0.6413 -0.4323 -0.2698
 1965SOL    HW117357   1.678   3.582   3.115  0.3881 -0.0462  0.1005
 1965SOL    HW217358   1.545   3.547   3.176 -0.5422 -2.2736 -2.0660
 1966SOL     OW17359   0.809   1.152  11.873  0.5985 -0.2921 -0.2691
 1966SOL    HW117360   0.809   1.172  11.967 -0.4591 -0.2117 -0.2879
 1966SOL    HW217361   0.714   1.146  11.859  1.0153  0.7645 -3.4872
 1967SOL     OW17362   2.444   2.580   4.550 -0.3915  0.4689 -0.5476
 1967SOL    HW117363   2.418   2.531   4.627 -1.1408 -0.2209 -1.2493
 1967SOL    HW217364   2.539   2.588   4.561 -0.5553  0.4777  0.8619
 1968SOL     OW17365   3.743   3.494   7.128 -0.5334  0.0934  0.0054
 1968SOL    HW117366   3.757   3.490   7.034  2.4058  2.0747  0.3605
 1968SOL    HW217367   3.688   3.572   7.131  1.4627  1.4986  0.0277
 1969SOL     OW17368   1.975   2.916  10.429  0.1949  0.1755 -0.0088
 1969SOL    HW117369   2.046   2.967  10.390 -0.4512  0.1539 -1.2110
 1969SOL    HW217370   2.015   2.891  10.513 -3.0963 -2.6596  0.7035
 1970SOL     OW17371   2.705   2.074  12.614  0.4885  0.3272  0.0708
 1970SOL    HW117372   2.800   2.066  12.601  0.2715 -0.0768 -1.2641
 1970SOL    HW217373   2.705   2.050  12.706  2.8298  0.9816  0.2424
 1971SOL     OW17374   3.235   1.678   5.840 -0.5100  0.0999  0.5441
 1971SOL    HW117375   3.223   1.674   5.935 -0.4183 -0.3266  0.5356
 1971SOL    HW217376   3.233   1.774   5.835  1.0367 -0.0129 -1.6978
 1972SOL     OW17377   1.801   0.731   8.132  0.3686 -0.3416 -0.5361
 1972SOL    HW117378   1.895   0.723   8.116  0.2842 -2.5154 -0.0396
 1972SOL    HW217379   1.771   0.640   8.120 -2.7235  0.9167 -2.1924
 1973SOL     OW17380   2.378   0.229   5.658 -0.0742  0.0043  0.1053
 1973SOL    HW117381   2.470   0.256   5.654  0.0199 -0.3793 -0.2567
 1973SOL    HW217382   2.362   0.236   5.752  0.0368  0.3786  0.0948
 1974SOL     OW17383   1.400   1.627   4.465  0.0068  0.3848 -0.6061
 1974SOL    HW117384   1.407   1.698   4.529 -0.4210 -0.4534  0.3681
 1974SOL    HW217385   1.305   1.632   4.451  0.0153 -0.4354 -0.9626
 1975SOL     OW17386   1.902   4.273   8.554  0.0708  0.2399  0.0711
 1975SOL    HW117387   1.869   4.212   8.620  1.2773 -0.4513  0.0359
 1975SOL    HW217388   1.890   4.219   8.477 -0.9212  1.5811 -0.7069
 1976SOL     OW17389   2.574   4.191   5.504  0.1797 -0.4158  0.1721
 1976SOL    HW117390   2.656   4.143   5.515  1.3270  2.0269  2.3035
 1976SOL    HW217391   2.594   4.279   5.537  2.5276 -1.4491  1.4620
 1977SOL     OW17392   3.388   2.958   4.311  0.2540 -0.6600 -0.3038
 1977SOL    HW117393   3.434   3.042   4.319  0.4344 -0.5564 -2.6637
 1977SOL    HW217394   3.424   2.921   4.392  0.6656 -0.6631 -0.4849
 1978SOL     OW17395   1.182   1.013   2.193 -0.1908  0.7082  0.4675
 1978SOL    HW117396   1.126   0.940   2.167 -0.5192  0.7617  1.0279
 1978SOL    HW217397   1.116   1.081   2.197 -1.0391  0.1248 -3.2277
 1979SOL     OW17398   0.311   1.969   6.379  0.4168 -0.9845 -0.4463
 1979SOL    HW117399   0.221   1.997   6.361  0.3293 -1.6685 -1.0614
 1979SOL    HW217400   0.323   1.953   6.285  1.7202 -0.3880 -0.3754
 1980SOL     OW17401   4.371   1.898  13.556 -0.0840  0.4114  0.4548
 1980SOL    HW117402   4.463   1.923  13.561 -0.1128  0.4774  0.6571
 1980SOL    HW217403   4.357   1.853  13.639 -0.5699  0.0208  0.1632
 1981SOL     OW17404   0.967   0.145   5.280  0.3635 -0.0618 -0.0634
 1981SOL    HW117405   0.969   0.158   5.185  0.6685  0.2158 -0.0192
 1981SOL    HW217406   1.022   0.217   5.309 -0.6870  1.0284 -0.7767
 1982SOL     OW17407   3.130   1.278  11.572  0.0169  0.3210  0.2609
 1982SOL    HW117408   3.061   1.268  11.507 -0.1272  2.6880  0.0525
 1982SOL    HW217409   3.186   1.211  11.532  0.4324 -1.0113  3.0800
 1983SOL     OW17410   4.681   2.741   3.653 -0.1380  0.1325  0.2273
 1983SOL    HW117411   0.053   2.726   3.641 -0.3939  0.1288 -1.6698
 1983SOL    HW217412   4.648   2.764   3.567  0.5258  0.7728  0.1410
 1984SOL     OW17413   1.964   1.843   1.998 -0.2895  0.9440 -0.1069
 1984SOL    HW117414   1.872   1.825   1.978  0.5628 -3.2165 -0.0814
 1984SOL    HW217415   1.962   1.939   1.989  1.4743  1.0693  0.9580
 1985SOL     OW17416   4.407   3.097   3.049 -0.4977 -0.0607 -0.3506
 1985SOL    HW117417   4.357   3.152   2.988 -1.0859 -1.7646 -1.4033
 1985SOL    HW217418   4.495   3.103   3.011 -0.6866  1.8420 -0.5163
 1986SOL     OW17419   2.323   3.262  11.476 -0.3105 -0.3016 -0.1061
 1986SOL    HW117420   2.341   3.349  11.440 -0.2678 -1.1296 -2.1126
 1986SOL    HW217421   2.406   3.216  11.488  0.2759  0.8332  0.1720
 1987SOL     OW17422   2.515   2.104  10.121 -0.9426  0.0705 -0.1206
 1987SOL    HW117423   2.545   2.040  10.185 -0.0300 -1.2871 -1.9182
 1987SOL    HW217424   2.422   2.081  10.125 -0.8311 -0.0739  1.5585
 1988SOL     OW17425   3.801   3.674   3.916  0.0274 -0.0787 -0.3248
 1988SOL    HW117426   3.833   3.652   4.003  0.3351  0.3443 -0.3303
 1988SOL    HW217427   3.858   3.631   3.852 -0.8290 -0.6664 -0.6951
 1989SOL     OW17428   2.330   1.321   4.579 -0.4651 -0.4621  0.0803
 1989SOL    HW117429   2.240   1.332   4.608 -0.3037 -0.4670  0.5884
 1989SOL    HW217430   2.351   1.413   4.596 -0.6441 -0.4772  0.3771
 1990SOL     OW17431   1.354   4.048  13.080  0.4592 -0.3181  0.5607
 1990SOL    HW117432   1.282   4.014  13.132 -0.7040  1.0872 -0.1306
 1990SOL    HW217433   1.357   4.135  13.120  0.5995  0.6243 -1.5194
 1991SOL     OW17434   2.271   3.262   6.322 -1.1309  0.7405 -0.9460
 1991SOL    HW117435   2.282   3.280   6.229 -1.6434  2.5679 -0.6495
 1991SOL    HW217436   2.191   3.310   6.344 -1.4658  0.9924 -2.7350
 1992SOL     OW17437   4.502   0.746  10.067 -0.5935  0.4013  0.4002
 1992SOL    HW117438   4.548   0.827  10.089 -0.5287  0.2211  0.9514
 1992SOL    HW217439   4.527   0.696  10.145 -0.3215 -0.2677 -0.1233
 1993SOL     OW17440   2.610   2.085   7.100 -0.0354 -0.1946 -0.1006
 1993SOL    HW117441   2.705   2.098   7.097  0.0958 -0.9173  1.0709
 1993SOL    HW217442   2.598   2.026   7.175  1.9684 -0.3281  0.1025
 1994SOL     OW17443   2.293   2.865   4.017  0.4861  0.4382 -0.3033
 1994SOL    HW117444   2.356   2.937   4.017  1.9843 -0.8876  1.4948
 1994SOL    HW217445   2.316   2.820   4.098  2.3224  1.4871 -0.2522
 1995SOL     OW17446   0.534   3.059   4.660  0.1515  0.2569 -0.5178
 1995SOL    HW117447   0.627   3.080   4.656 -0.4846  2.9935 -1.3688
 1995SOL    HW217448   0.516   3.055   4.753  2.8033 -1.5678 -0.0918
 1996SOL     OW17449   1.366   2.891  10.284  0.2977  0.1151  0.0120
 1996SOL    HW117450   1.460   2.872  10.279  0.0137 -0.6811 -2.2217
 1996SOL    HW217451   1.328   2.811  10.320  0.5549 -0.5903 -1.2925
 1997SOL     OW17452   4.641   2.111  12.372  0.0288  0.0426 -0.1868
 1997SOL    HW117453   4.585   2.128  12.448 -0.6111  1.1335 -0.9075
 1997SOL    HW217454   4.617   2.186  12.318  0.2867  0.7043  0.6167
 1998SOL     OW17455   1.323   2.610   4.487 -0.2204 -0.6871 -0.0766
 1998SOL    HW117456   1.262   2.541   4.462 -0.0253 -0.6743 -0.5975
 1998SOL    HW217457   1.385   2.555   4.534  0.8791  1.9411  1.4962
 1999SOL     OW17458   3.432   3.154   7.719  0.6741 -0.1014  0.1188
 1999SOL    HW117459   3.466   3.122   7.802 -0.7589 -0.3478  0.6183
 1999SOL    HW217460   3.512   3.152   7.666  0.5642 -0.0563 -0.0503
 2000SOL     OW17461   4.125   4.131   8.564 -0.5797 -0.4114  0.4253
 2000SOL    HW117462   4.033   4.119   8.587 -0.1802 -0.8911  1.7463
 2000SOL    HW217463   4.138   4.224   8.547 -0.4083 -0.8034 -1.5828
 2001SOL     OW17464   1.435   1.129   6.531  0.2101 -0.6692 -0.7157
 2001SOL    HW117465   1.383   1.150   6.608  1.5589  1.1746 -0.3210
 2001SOL    HW217466   1.363   1.126   6.468 -0.2914 -0.1534 -0.1584
 2002SOL     OW17467   4.275   4.212   2.861  0.5424  0.0659 -0.4780
 2002SOL    HW117468   4.182   4.234   2.856  0.4294 -0.2684  0.2319
 2002SOL    HW217469   4.278   4.117   2.871 -0.5482 -0.0568 -1.3081
 2003SOL     OW17470   0.344   4.432  15.077 -0.8078 -0.2245 -0.7014
 2003SOL    HW117471   0.275   4.468  15.132  1.0973 -0.0510  1.5671
 2003SOL    HW217472   0.339   4.501  15.011  0.1352  1.2682  0.8042
 2004SOL     OW17473   1.006   0.172   6.517 -0.3569 -0.5170 -0.3994
 2004SOL    HW117474   0.960   0.164   6.601  0.4958  1.2667  0.2461
 2004SOL    HW217475   0.957   0.100   6.477 -0.3333 -0.6948 -0.1103
 2005SOL     OW17476   1.162   2.291  15.071 -0.2998 -0.0347  0.5590
 2005SOL    HW117477   1.240   2.260  15.117 -0.8111 -0.1840  1.3233
 2005SOL    HW217478   1.117   2.342  15.138 -0.2341  0.1693  0.4481
 2006SOL     OW17479   1.498   2.023   8.555  0.1140 -0.1538 -0.0160
 2006SOL    HW117480   1.538   1.963   8.618 -0.3925 -2.9111 -2.2860
 2006SOL    HW217481   1.413   1.979   8.552 -1.2001  2.3857  0.6753
 2007SOL     OW17482   2.291   0.258   9.543 -0.0113  0.3963 -0.6203
 2007SOL    HW117483   2.354   0.187   9.526 -1.2190 -0.8205  0.0268
 2007SOL    HW217484   2.320   0.316   9.472  0.3670  0.7755 -0.1554
 2008SOL     OW17485   2.527   1.268   0.119  0.7834  0.8470 -0.3668
 2008SOL    HW117486   2.584   1.193   0.104 -1.2300 -1.0485  1.4560
 2008SOL    HW217487   2.520   1.261   0.215  2.3707 -0.9853 -0.3924
 2009SOL     OW17488   1.971   0.425  15.780 -0.7019  0.4118 -0.2230
 2009SOL    HW117489   2.061   0.423  15.812 -0.7869 -1.5532 -0.0886
 2009SOL    HW217490   1.977   0.470  15.695 -0.3934  1.3750  0.3035
 2010SOL     OW17491   4.418   2.642   5.917 -0.7650 -0.7403 -0.2648
 2010SOL    HW117492   4.481   2.708   5.945 -0.7977 -0.1284 -1.6115
 2010SOL    HW217493   4.472   2.569   5.886 -0.1858 -1.0458  1.5062
 2011SOL     OW17494   4.703   0.905   8.802  0.2678  0.1219  0.4296
 2011SOL    HW117495   0.020   0.819   8.814  0.7337  0.4476  1.3193
 2011SOL    HW217496   4.715   0.919   8.708  0.6870 -0.6628  0.3662
 2012SOL     OW17497   3.931   4.478   2.001 -0.4709  0.1629  0.1198
 2012SOL    HW117498   3.842   4.506   1.978  0.0949  1.2175 -0.7592
 2012SOL    HW217499   3.956   4.452   1.913  1.2789  2.5783 -0.0890
 2013SOL     OW17500   4.186   1.304   4.783 -0.4855  0.5967  0.6198
 2013SOL    HW117501   4.135   1.312   4.702 -2.1403  2.4000  1.8509
 2013SOL    HW217502   4.162   1.214   4.806  1.6161  0.7720  3.5653
 2014SOL     OW17503   2.736   3.565   7.415 -0.0948 -0.1487 -0.1768
 2014SOL    HW117504   2.719   3.524   7.500  2.8989 -0.2684  0.3934
 2014SOL    HW217505   2.700   3.495   7.361 -0.0643  0.5420 -1.0895
 2015SOL     OW17506   0.661   4.322   2.032  0.3309  0.7797  0.1433
 2015SOL    HW117507   0.598   4.371   1.979  1.4109  0.4102 -1.4792
 2015SOL    HW217508   0.601   4.255   2.066  0.1318 -0.7621 -3.1952
 2016SOL     OW17509   0.670   3.835   5.993 -0.2912 -0.2913 -0.4625
 2016SOL    HW117510   0.664   3.744   6.022 -0.3355 -0.6064 -1.4740
 2016SOL    HW217511   0.625   3.885   6.061  0.9831 -0.7461  0.7255
 2017SOL     OW17512   0.843   3.266   3.188  0.2237  0.3708  0.3810
 2017SOL    HW117513   0.852   3.340   3.129  0.4828  1.8848  2.2964
 2017SOL    HW217514   0.865   3.198   3.125  1.6335  0.3651  0.8784
 2018SOL     OW17515   2.713   2.890   3.416  0.5717 -0.4261 -0.3583
 2018SOL    HW117516   2.733   2.984   3.412 -2.7017  0.3067  0.7472
 2018SOL    HW217517   2.619   2.888   3.432  0.7561  1.3930  1.0311
 2019SOL     OW17518   3.093   4.629   7.516 -0.2140 -0.7975 -0.9652
 2019SOL    HW117519   3.004   4.664   7.517  0.2733  0.4274  0.8036
 2019SOL    HW217520   3.145   4.707   7.498  1.0575 -1.6542 -0.9941
 2020SOL     OW17521   0.143   4.469   6.507  0.1498 -0.1851  0.3487
 2020SOL    HW117522   0.185   4.458   6.593  0.3703 -0.3773  0.2155
 2020SOL    HW217523   0.197   4.544   6.482  0.5816 -1.1676 -1.6825
 2021SOL     OW17524   1.505   1.130   2.823 -0.2084  0.2880  0.0665
 2021SOL    HW117525   1.570   1.059   2.827  0.1838  0.4757 -2.5696
 2021SOL    HW217526   1.455   1.100   2.747 -0.0623 -0.4563  0.2676
 2022SOL     OW17527   0.505   0.892   2.279 -0.5033  0.1194 -0.1612
 2022SOL    HW117528   0.511   0.973   2.330  1.2394 -0.0680 -0.0798
 2022SOL    HW217529   0.580   0.905   2.221 -0.2364  1.3678  0.4778
 2023SOL     OW17530   0.741   3.343   4.789 -0.0944 -0.1546 -0.5122
 2023SOL    HW117531   0.778   3.299   4.712 -2.8298 -1.9374 -0.7938
 2023SOL    HW217532   0.647   3.325   4.790 -0.5194  2.2564  2.0860
 2024SOL     OW17533   3.555   3.626   3.523  0.0225  0.0848 -0.4606
 2024SOL    HW117534   3.593   3.538   3.520  1.4630  0.7030 -0.4066
 2024SOL    HW217535   3.604   3.673   3.456 -0.9732  0.8515 -0.6381
 2025SOL     OW17536   0.682   2.812  16.393 -0.5626  0.4463  0.2749
 2025SOL    HW117537   0.606   2.784  16.445 -1.4134  0.9089 -0.7064
 2025SOL    HW217538   0.690   2.899  16.433 -1.0959  1.0629 -0.9412
 2026SOL     OW17539   0.167   2.579  14.232  0.1447  0.4227 -0.0564
 2026SOL    HW117540   0.122   2.664  14.222 -1.2330 -0.7125 -3.7732
 2026SOL    HW217541   0.143   2.541  14.316  2.3149 -4.6276 -1.7175
 2027SOL     OW17542   3.748   2.994   0.479  0.5633  0.0603 -0.1083
 2027SOL    HW117543   3.824   3.025   0.429  1.2304 -3.4356 -1.2790
 2027SOL    HW217544   3.736   2.902   0.456 -2.9828  0.8303 -1.4468
 2028SOL     OW17545   1.138   0.578  10.350  0.7069  0.3998 -0.0389
 2028SOL    HW117546   1.092   0.657  10.321 -0.3215 -0.0039  0.5150
 2028SOL    HW217547   1.112   0.580  10.442  0.5470  0.6445 -0.0901
 2029SOL     OW17548   1.864   1.861   7.597 -0.1371  0.1505  0.8176
 2029SOL    HW117549   1.856   1.766   7.586 -1.0836  0.3338 -0.1035
 2029SOL    HW217550   1.893   1.873   7.506 -0.2992 -1.9043  0.4795
 2030SOL     OW17551   2.062   3.212   6.975 -0.6371  0.0529  0.0204
 2030SOL    HW117552   2.110   3.211   7.058 -2.8408 -0.3496  1.2819
 2030SOL    HW217553   2.125   3.187   6.907  1.2099 -0.0170  1.7438
 2031SOL     OW17554   2.704   2.597   2.905  0.2436  0.6396  0.4934
 2031SOL    HW117555   2.727   2.690   2.914 -2.3288  1.4723 -1.2482
 2031SOL    HW217556   2.737   2.557   2.985 -0.0869 -1.2145 -0.3003
 2032SOL     OW17557   3.493   0.468   6.688 -0.1742  0.4379 -0.0562
 2032SOL    HW117558   3.432   0.504   6.751  0.1880  0.6892  0.1493
 2032SOL    HW217559   3.537   0.547   6.657  1.3049 -1.2563 -2.3483
 2033SOL     OW17560   2.183   4.502   4.294 -0.2877  0.4696 -0.0383
 2033SOL    HW117561   2.273   4.528   4.313 -0.0289  0.8627 -1.7904
 2033SOL    HW217562   2.139   4.579   4.328 -0.3076  0.3620  0.1783
 2034SOL     OW17563   0.026   2.490  12.344  0.2179  0.0456 -0.2576
 2034SOL    HW117564   0.066   2.446  12.419  1.9911  1.4694 -0.3699
 2034SOL    HW217565   4.664   2.445  12.331  0.0795  1.3703 -3.8512
 2035SOL     OW17566   0.165   4.286   4.702 -0.0787  0.6567 -0.1465
 2035SOL    HW117567   0.081   4.296   4.746  0.4469  1.0969  0.7764
 2035SOL    HW217568   0.189   4.205   4.746  0.7177  1.0779  0.2031
 2036SOL     OW17569   3.648   2.159   7.214  0.5610  0.3399  0.2403
 2036SOL    HW117570   3.640   2.228   7.280  0.8701  1.4334 -0.8591
 2036SOL    HW217571   3.704   2.102   7.266 -0.0183 -1.2205 -0.8514
 2037SOL     OW17572   2.700   4.086   9.358  0.1892 -0.2527  0.2978
 2037SOL    HW117573   2.782   4.041   9.378 -0.2372 -1.4010 -0.5363
 2037SOL    HW217574   2.643   4.035   9.415  2.4494 -2.1874  0.8392
 2038SOL     OW17575   2.548   3.489  16.117 -0.2507 -0.4303  0.5194
 2038SOL    HW117576   2.593   3.415  16.075 -1.4845  0.0185 -1.6003
 2038SOL    HW217577   2.488   3.446  16.177  1.3900 -2.4340  0.7379
 2039SOL     OW17578   3.409   3.548   4.880 -0.5357  0.0391  0.3825
 2039SOL    HW117579   3.433   3.578   4.792  1.7833 -2.3094  0.2004
 2039SOL    HW217580   3.323   3.509   4.867 -1.2784  1.6255  0.6109
 2040SOL     OW17581   3.556   2.219   6.757 -0.5992 -0.3179  0.0717
 2040SOL    HW117582   3.616   2.171   6.699  0.2357  1.3979 -0.4741
 2040SOL    HW217583   3.480   2.161   6.747 -0.8681  0.4078 -1.9688
 2041SOL     OW17584   4.562   4.084   2.699 -0.4421 -0.1763  0.6100
 2041SOL    HW117585   4.486   4.136   2.670  0.6786  1.2707  0.2796
 2041SOL    HW217586   4.629   4.149   2.678  0.4407 -1.4957 -0.6491
 2042SOL     OW17587   3.600   3.874   4.412 -0.6596 -0.3565 -0.2917
 2042SOL    HW117588   3.578   3.900   4.322 -1.7089 -0.4858 -0.0731
 2042SOL    HW217589   3.673   3.815   4.394 -0.6187 -0.2242 -0.5656
 2043SOL     OW17590   3.918   0.936   0.528 -0.2818 -0.1674  0.0826
 2043SOL    HW117591   3.893   0.882   0.452  1.2428  1.2353 -1.4223
 2043SOL    HW217592   3.977   0.880   0.578  1.1572  2.5448  1.3505
 2044SOL     OW17593   4.599   4.041   4.016 -0.0302 -0.1411  0.1852
 2044SOL    HW117594   4.657   4.045   4.092 -2.5646  1.1961  2.0412
 2044SOL    HW217595   4.642   4.102   3.956  1.6977 -0.2543  1.3097
 2045SOL     OW17596   0.007   0.166   9.375  0.2118  0.8279 -0.4942
 2045SOL    HW117597   0.092   0.145   9.337 -1.4231  0.4657 -3.9393
 2045SOL    HW217598   0.005   0.134   9.465  0.4966 -0.3613 -0.9052
 2046SOL     OW17599   2.161   3.932   6.822 -0.1454  0.8124  0.1252
 2046SOL    HW117600   2.087   3.899   6.874 -1.3119 -0.3758 -2.3107
 2046SOL    HW217601   2.116   4.005   6.781 -3.1262  0.0135  1.9281
 2047SOL     OW17602   0.516   2.464   3.188 -0.0985 -0.0770 -0.5535
 2047SOL    HW117603   0.427   2.479   3.221 -1.0498 -1.4333 -2.4849
 2047SOL    HW217604   0.571   2.502   3.257 -0.7334 -1.0195  0.4728
 2048SOL     OW17605   2.655   4.293   6.111  0.3884 -0.6909  0.2309
 2048SOL    HW117606   2.582   4.297   6.173 -0.8464  0.0676 -1.2786
 2048SOL    HW217607   2.600   4.307   6.034  1.9173  1.7830 -0.3828
 2049SOL     OW17608   0.996   2.273   9.733  0.2436  0.1502  0.4624
 2049SOL    HW117609   1.037   2.359   9.733 -1.0001  0.7409  1.3830
 2049SOL    HW217610   1.010   2.250   9.641 -2.3846  1.9277 -0.3950
 2050SOL     OW17611   2.701   1.370   5.569 -0.1764  0.4424  0.0848
 2050SOL    HW117612   2.617   1.405   5.541 -0.4329  0.0397  0.3440
 2050SOL    HW217613   2.710   1.379   5.663  1.7196  1.5488 -0.2164
 2051SOL     OW17614   4.460   4.455  11.042  0.8562  0.4150  0.0678
 2051SOL    HW117615   4.403   4.382  11.069 -0.3757  1.7099  0.9543
 2051SOL    HW217616   4.506   4.416  10.967 -1.2023 -0.9968 -0.4898
 2052SOL     OW17617   1.837   1.115   5.411  0.4189 -0.9550 -0.8588
 2052SOL    HW117618   1.858   1.193   5.360  2.7230 -1.3413 -0.4618
 2052SOL    HW217619   1.773   1.072   5.355 -1.9422  1.1112  0.2188
 2053SOL     OW17620   4.040   2.020   4.667  0.4394 -0.6221 -0.2752
 2053SOL    HW117621   4.073   1.933   4.643  1.1968 -0.6165  0.7341
 2053SOL    HW217622   4.096   2.037   4.743 -1.5272  0.0205  1.0271
 2054SOL     OW17623   1.593   1.044   7.174 -0.8831  0.6720  0.6032
 2054SOL    HW117624   1.600   0.953   7.148 -0.2427  0.7718  0.4277
 2054SOL    HW217625   1.570   1.093   7.095 -1.6436 -2.6688 -1.2293
 2055SOL     OW17626   4.188   2.583   7.344  0.3687 -0.0703  0.5293
 2055SOL    HW117627   4.200   2.495   7.378 -0.1239 -1.1492 -2.0919
 2055SOL    HW217628   4.130   2.625   7.408  1.7847  0.5236  1.4278
 2056SOL     OW17629   0.620   4.693   6.541 -0.5890 -0.0229 -0.7965
 2056SOL    HW117630   0.641   0.047   6.488  1.3110 -0.6382 -0.9437
 2056SOL    HW217631   0.600   4.625   6.477  1.2484  1.3845 -2.8532
 2057SOL     OW17632   1.354   1.591   8.630 -0.3731 -0.7990 -0.2233
 2057SOL    HW117633   1.330   1.678   8.599  0.6447 -0.3139  0.3809
 2057SOL    HW217634   1.362   1.598   8.725  2.1769  1.9507 -0.6465
 2058SOL     OW17635   3.261   2.531  12.301 -0.3765  0.4501 -0.0238
 2058SOL    HW117636   3.319   2.534  12.225  1.0513  1.9806  1.1213
 2058SOL    HW217637   3.300   2.457  12.347 -0.3448  0.7247  0.3953
 2059SOL     OW17638   1.949   1.685   7.925 -0.2951 -0.0204  0.0329
 2059SOL    HW117639   1.927   1.758   7.984 -1.0753 -1.1202  1.0976
 2059SOL    HW217640   1.972   1.621   7.992  0.1204  0.8453  0.7207
 2060SOL     OW17641   2.652   1.175   1.721 -0.1088  0.7102 -0.7166
 2060SOL    HW117642   2.733   1.196   1.767  0.4987  0.9497 -1.8820
 2060SOL    HW217643   2.651   1.080   1.727  0.6564  0.7230 -0.4831
 2061SOL     OW17644   0.669   4.165  14.304 -0.3327  0.1044  0.0385
 2061SOL    HW117645   0.663   4.122  14.390  0.2565 -0.1384 -0.0471
 2061SOL    HW217646   0.763   4.170  14.290 -0.0174 -2.2682  1.4211
 2062SOL     OW17647   1.787   3.867   3.951 -0.3618  0.0517  0.9581
 2062SOL    HW117648   1.732   3.890   3.877  1.4792  0.5607 -0.2504
 2062SOL    HW217649   1.830   3.949   3.975  1.6779 -1.2123  1.6895
 2063SOL     OW17650   2.553   1.607   5.359  0.4103  0.1483 -0.1339
 2063SOL    HW117651   2.605   1.674   5.401  0.1851  0.7109 -0.7546
 2063SOL    HW217652   2.591   1.594   5.272 -3.7000 -0.3263 -1.8898
 2064SOL     OW17653   0.254   0.518   2.172  0.0497  0.6434 -0.0747
 2064SOL    HW117654   0.188   0.448   2.170  2.3148 -1.5329  1.4331
 2064SOL    HW217655   0.329   0.465   2.145 -0.5344 -1.0044  1.5012
 2065SOL     OW17656   3.927   4.012   6.455 -0.2951  0.6356  0.2242
 2065SOL    HW117657   4.001   3.959   6.426 -1.0689 -0.2940 -0.0031
 2065SOL    HW217658   3.969   4.091   6.489 -0.8916  0.0265  2.3878
 2066SOL     OW17659   0.360   0.551   7.587 -0.3551 -0.0407  0.5919
 2066SOL    HW117660   0.308   0.513   7.517  0.0098 -0.9361  0.8146
 2066SOL    HW217661   0.409   0.616   7.536 -0.5642  1.7035  2.5803
 2067SOL     OW17662   2.335   2.980   4.321  0.3421 -0.1661  0.1110
 2067SOL    HW117663   2.250   2.938   4.337  1.8379 -2.9659  0.7075
 2067SOL    HW217664   2.315   3.067   4.286  1.9208  0.1087 -0.0947
 2068SOL     OW17665   1.781   1.035   3.492 -1.0401  0.1993 -0.6083
 2068SOL    HW117666   1.822   1.008   3.574 -0.5895  0.6742 -0.6829
 2068SOL    HW217667   1.752   0.947   3.465  0.4527 -0.5142  0.1019
 2069SOL     OW17668   2.686   1.224  12.636  0.2254 -0.2390  0.8710
 2069SOL    HW117669   2.622   1.287  12.667  2.3748  2.2324  0.2896
 2069SOL    HW217670   2.643   1.164  12.574  0.9156 -0.5149  0.6494
 2070SOL     OW17671   3.275   2.780  15.525  0.2906  0.3741  0.0390
 2070SOL    HW117672   3.317   2.714  15.580 -1.5445  0.1702  1.2207
 2070SOL    HW217673   3.279   2.727  15.445  0.7343  0.5113 -0.0290
 2071SOL     OW17674   3.553   3.244   6.055 -0.3618  0.0918 -0.2319
 2071SOL    HW117675   3.585   3.328   6.021 -1.2525  1.2029  1.6167
 2071SOL    HW217676   3.634   3.196   6.068 -1.4433 -1.3298  1.2169
 2072SOL     OW17677   2.612   1.260   1.450  0.7398 -0.1066  0.3100
 2072SOL    HW117678   2.638   1.269   1.541  0.4440 -0.0571  0.3904
 2072SOL    HW217679   2.693   1.222   1.417  0.2228 -1.1413  0.2155
 2073SOL     OW17680   4.264   0.696   4.483 -0.1210 -0.2904 -0.0610
 2073SOL    HW117681   4.224   0.770   4.529 -2.0312  0.8810 -3.6381
 2073SOL    HW217682   4.309   0.649   4.553 -3.2671 -2.0190  0.7826
 2074SOL     OW17683   1.168   1.652   2.999  0.2856 -0.2570  0.2657
 2074SOL    HW117684   1.251   1.699   2.988  0.6423 -1.6976 -3.1665
 2074SOL    HW217685   1.188   1.619   3.087 -2.2337 -0.4506  0.7668
 2075SOL     OW17686   2.465   3.934   4.893 -0.8619  0.1916  0.7043
 2075SOL    HW117687   2.534   3.919   4.958 -0.1579  0.1949 -0.0337
 2075SOL    HW217688   2.398   3.970   4.950  0.2089  0.5126  1.7696
 2076SOL     OW17689   1.834   2.813   5.624  0.0012  0.2328 -0.1557
 2076SOL    HW117690   1.900   2.871   5.586  0.2289 -0.5655 -0.9702
 2076SOL    HW217691   1.817   2.868   5.700 -0.3791  0.9029 -0.7284
 2077SOL     OW17692   1.269   0.335  10.294 -0.4243  0.5393 -0.3547
 2077SOL    HW117693   1.244   0.415  10.340  2.4516  0.9539  0.4294
 2077SOL    HW217694   1.200   0.333  10.227 -0.9893  0.8119  0.2221
 2078SOL     OW17695   2.287   4.286   4.365 -0.3780  0.3960 -0.0603
 2078SOL    HW117696   2.220   4.218   4.377  0.1358  0.7280  4.7201
 2078SOL    HW217697   2.231   4.363   4.360  0.6211  0.8211 -4.0430
 2079SOL     OW17698   2.388   4.626   3.906  0.0990 -0.3571 -0.5803
 2079SOL    HW117699   2.314   4.582   3.947 -0.8379  0.7899 -1.0641
 2079SOL    HW217700   2.380   4.607   3.812  2.6480  2.2613 -1.3374
 2080SOL     OW17701   4.520   4.606   4.700 -0.4898 -0.7135  0.0979
 2080SOL    HW117702   4.439   4.615   4.649  1.4004 -0.2023 -2.8254
 2080SOL    HW217703   4.519   4.692   4.742  2.4664  0.0927 -1.4940
 2081SOL     OW17704   0.627   3.190  10.592 -0.4662 -0.8061  0.1904
 2081SOL    HW117705   0.546   3.144  10.611 -1.4349  0.6115 -0.4897
 2081SOL    HW217706   0.590   3.278  10.587 -0.6973 -0.8458  1.1157
 2082SOL     OW17707   2.134   2.403   2.531 -0.1434  0.4743  0.1987
 2082SOL    HW117708   2.124   2.329   2.592  0.4012  0.3096  0.0795
 2082SOL    HW217709   2.146   2.470   2.599 -0.2093 -0.6546  1.3274
 2083SOL     OW17710   1.600   0.012   4.852  0.0587 -1.0578 -0.4953
 2083SOL    HW117711   1.595   0.099   4.812  2.3704 -1.1436 -0.9903
 2083SOL    HW217712   1.513   0.013   4.890  0.6872  0.8013  0.8657
 2084SOL     OW17713   4.017   3.749  16.721 -0.2703  0.1998 -0.4479
 2084SOL    HW117714   4.082   3.815  16.696  1.0035 -0.5544  0.8721
 2084SOL    HW217715   3.957   3.762  16.647  0.1772  1.2783 -0.6222
 2085SOL     OW17716   1.777   2.733   7.319 -0.1469 -0.1464  0.5582
 2085SOL    HW117717   1.730   2.788   7.256  0.9133 -0.9255 -0.9263
 2085SOL    HW217718   1.846   2.797   7.334 -1.8508  1.3627  1.9362
 2086SOL     OW17719   3.895   0.457   7.230 -0.3019 -0.4729  0.4618
 2086SOL    HW117720   3.851   0.380   7.193 -0.6315  0.6140 -1.4176
 2086SOL    HW217721   3.971   0.456   7.173  0.4568  0.3818  1.4536
 2087SOL     OW17722   2.260   4.564  12.130  0.0915  0.1997 -0.1307
 2087SOL    HW117723   2.235   4.576  12.222  0.4409  0.5971 -0.0879
 2087SOL    HW217724   2.352   4.543  12.142 -0.1506  0.5641  2.3072
 2088SOL     OW17725   2.803   1.141   3.465 -0.2160 -0.3809  0.1929
 2088SOL    HW117726   2.721   1.188   3.478 -0.0270 -0.3404  1.2304
 2088SOL    HW217727   2.849   1.165   3.545  0.6385  1.5921 -0.8878
 2089SOL     OW17728   2.037   0.994   0.928  0.9513 -0.0279 -0.5864
 2089SOL    HW117729   2.106   1.009   0.993  0.4439 -0.0027 -0.0591
 2089SOL    HW217730   2.061   1.047   0.852 -3.9341  2.0524 -0.6490
 2090SOL     OW17731   2.242   1.936   7.568  0.3376  0.4441  0.2023
 2090SOL    HW117732   2.215   1.885   7.644 -2.7373 -0.6639 -1.6124
 2090SOL    HW217733   2.320   1.977   7.606  0.0128  0.8809  0.3953
 2091SOL     OW17734   2.639   3.556   5.575  0.0716  0.7189 -0.6212
 2091SOL    HW117735   2.645   3.521   5.664  0.3407 -0.3939 -1.0805
 2091SOL    HW217736   2.544   3.552   5.567  0.0850 -1.0869  0.0760
 2092SOL     OW17737   1.510   4.707  16.098  0.0392 -0.6488 -0.1500
 2092SOL    HW117738   1.570   0.028  16.159 -0.9356  1.3895 -0.6301
 2092SOL    HW217739   1.515   4.616  16.127  0.5947 -0.1334  1.3749
 2093SOL     OW17740   2.917   1.114  12.767 -0.0052  0.8383 -0.3305
 2093SOL    HW117741   2.830   1.130  12.730 -0.5923 -1.3430  0.0891
 2093SOL    HW217742   2.936   1.032  12.721 -2.4208  1.0802 -1.7594
 2094SOL     OW17743   1.287   2.704   2.388  0.4540 -0.6361  0.1513
 2094SOL    HW117744   1.319   2.790   2.414 -1.4887  0.7290 -2.0087
 2094SOL    HW217745   1.193   2.721   2.384  0.5101 -0.4045 -0.2118
 2095SOL     OW17746   1.214   3.691   2.580 -0.5352 -0.6315 -0.7814
 2095SOL    HW117747   1.182   3.779   2.600  1.2812 -0.5450  1.6708
 2095SOL    HW217748   1.301   3.723   2.557 -0.6719 -1.0088 -1.8635
 2096SOL     OW17749   3.504   1.158   9.278 -0.1318  0.3281 -0.3536
 2096SOL    HW117750   3.512   1.142   9.372 -0.9923  1.4655 -0.0784
 2096SOL    HW217751   3.586   1.114   9.256 -0.0858 -0.3204  1.1386
 2097SOL     OW17752   1.979   0.284   2.576 -0.2094 -0.3983 -0.1441
 2097SOL    HW117753   1.954   0.196   2.548  0.2866 -0.6924  0.3516
 2097SOL    HW217754   2.073   0.270   2.590 -0.3395 -2.4116 -1.2821
 2098SOL     OW17755   0.419   2.915   5.253 -0.1807 -0.4223  0.8264
 2098SOL    HW117756   0.338   2.894   5.207 -0.4677  0.1054  1.0962
 2098SOL    HW217757   0.379   2.920   5.340 -0.3720  3.9523  0.4645
 2099SOL     OW17758   4.208   4.085  10.593 -0.1584  0.1422 -0.4479
 2099SOL    HW117759   4.252   4.166  10.568  0.8881 -0.0723  0.7114
 2099SOL    HW217760   4.117   4.113  10.578 -1.0542 -2.0606  0.8076
 2100SOL     OW17761   3.503   0.835  14.518 -0.2955  0.1497  0.0546
 2100SOL    HW117762   3.447   0.772  14.472  0.5816  0.3144 -1.2455
 2100SOL    HW217763   3.571   0.778  14.553 -0.2698  0.3654  0.3464
 2101SOL     OW17764   0.903   2.567   7.452  0.8569  0.2027  0.9258
 2101SOL    HW117765   0.997   2.558   7.442  0.9085  1.0463  0.6271
 2101SOL    HW217766   0.870   2.486   7.413 -0.0491  0.4919  1.0700
 2102SOL     OW17767   0.851   1.940   4.730 -0.0125  0.3324  0.6913
 2102SOL    HW117768   0.816   1.957   4.817 -2.8169  1.4681 -0.6909
 2102SOL    HW217769   0.777   1.894   4.691  0.7713 -1.0780  0.8641
 2103SOL     OW17770   2.380   1.368  11.092 -0.4739  0.0552 -0.4792
 2103SOL    HW117771   2.436   1.293  11.072 -1.1516 -0.5486 -0.1134
 2103SOL    HW217772   2.308   1.331  11.143  0.4759  2.5128  2.6359
 2104SOL     OW17773   4.220   1.138   0.027  0.6344 -0.8368 -0.2798
 2104SOL    HW117774   4.188   1.205  17.655 -2.0891 -0.1665  1.8910
 2104SOL    HW217775   4.306   1.180   0.037  0.5293 -0.6974  0.0351
 2105SOL     OW17776   2.823   0.107   7.788  0.0824  0.1117  0.3965
 2105SOL    HW117777   2.807   0.058   7.708  1.3535  2.6281 -1.3954
 2105SOL    HW217778   2.884   0.172   7.753 -0.1428 -0.4128 -0.9503
 2106SOL     OW17779   3.286   0.645   5.491 -0.4610 -0.3182 -0.0093
 2106SOL    HW117780   3.307   0.552   5.488 -0.0649 -0.2219 -0.2104
 2106SOL    HW217781   3.360   0.677   5.542  0.5182 -0.9027 -1.0602
 2107SOL     OW17782   3.332   0.918   8.241 -0.1935  0.0764 -0.3137
 2107SOL    HW117783   3.319   0.838   8.192 -0.0368  1.0171 -1.8811
 2107SOL    HW217784   3.419   0.904   8.277 -0.3014 -1.3992 -0.6460
 2108SOL     OW17785   1.124   1.068   3.602 -0.1498 -0.1709  0.3428
 2108SOL    HW117786   1.191   1.129   3.633  1.2397 -1.1253 -0.7976
 2108SOL    HW217787   1.086   1.123   3.533 -0.8285 -0.4951  0.4573
 2109SOL     OW17788   0.601   4.066   7.854 -0.2345  0.0625 -0.5583
 2109SOL    HW117789   0.593   4.035   7.944  0.8949 -1.6951 -1.0589
 2109SOL    HW217790   0.608   3.979   7.813  0.6171  0.2442 -0.8001
 2110SOL     OW17791   4.374   1.849   6.200 -0.5308 -0.0390  0.1950
 2110SOL    HW117792   4.355   1.845   6.106  1.0366 -0.7581 -0.0978
 2110SOL    HW217793   4.469   1.863   6.202 -0.2886 -1.4801 -1.2965
 2111SOL     OW17794   4.075   1.939  13.836  0.5403 -0.2692 -0.0035
 2111SOL    HW117795   4.047   1.972  13.922 -0.0972 -0.8498  0.0121
 2111SOL    HW217796   4.093   1.849  13.865 -0.7214 -0.5847 -0.1963
 2112SOL     OW17797   0.599   3.162   5.962 -0.5864  0.5330  0.3246
 2112SOL    HW117798   0.646   3.169   5.879 -1.8760  2.1856 -0.2689
 2112SOL    HW217799   0.520   3.210   5.938 -0.1736  0.6977 -0.7010
 2113SOL     OW17800   2.369   1.201   8.746 -0.2803 -0.1478  0.0808
 2113SOL    HW117801   2.454   1.196   8.789 -0.3475 -2.3765 -0.0259
 2113SOL    HW217802   2.391   1.168   8.659 -0.3727 -0.3569  0.1377
 2114SOL     OW17803   1.911   3.538   9.127  0.3618 -0.2233  0.4693
 2114SOL    HW117804   1.860   3.590   9.190  1.1879  0.0929  0.8828
 2114SOL    HW217805   1.855   3.475   9.082  1.9411 -0.9403 -0.4894
 2115SOL     OW17806   1.021   3.028  11.951 -0.0385  0.0099 -0.1971
 2115SOL    HW117807   1.013   2.999  12.042 -0.7515  0.5788 -0.0864
 2115SOL    HW217808   1.106   3.072  11.955  0.6058 -1.3438  1.3281
 2116SOL     OW17809   1.243   2.582   9.485  0.5283  0.1050 -0.1183
 2116SOL    HW117810   1.160   2.569   9.439  0.7608 -0.3988 -0.3981
 2116SOL    HW217811   1.230   2.570   9.579 -2.0188 -1.5810 -0.6748
 2117SOL     OW17812   0.593   4.601  17.208 -0.3705  0.0303  0.8263
 2117SOL    HW117813   0.634   4.590  17.294 -0.1435  0.7773  0.8147
 2117SOL    HW217814   0.644   4.678  17.181  0.2071  0.1127  2.1502
 2118SOL     OW17815   2.280   1.712   9.467  0.3925  0.6050 -0.1917
 2118SOL    HW117816   2.307   1.778   9.403  0.7988 -0.8760 -1.5340
 2118SOL    HW217817   2.255   1.763   9.544  1.1296  1.3343 -0.4265
 2119SOL     OW17818   3.951   3.049   8.853 -0.5953  0.4187  0.1140
 2119SOL    HW117819   3.880   3.104   8.819 -0.5640 -0.4511 -1.3563
 2119SOL    HW217820   3.997   3.113   8.908 -1.1555 -0.1620  1.2475
 2120SOL     OW17821   1.713   4.170   6.353  0.1345  0.2972 -0.0407
 2120SOL    HW117822   1.641   4.110   6.370  1.4280 -1.8094 -2.0330
 2120SOL    HW217823   1.788   4.116   6.380  0.6419  0.7868 -0.4596
 2121SOL     OW17824   0.360   1.305   5.769  0.0532  0.3883 -0.3624
 2121SOL    HW117825   0.398   1.375   5.822 -1.6786  0.3214  0.9389
 2121SOL    HW217826   0.337   1.247   5.842 -0.0808  1.3799  0.3813
 2122SOL     OW17827   4.557   3.623  17.334 -0.2207 -0.3289  1.2010
 2122SOL    HW117828   4.571   3.529  17.320 -0.3651  0.1093 -1.8247
 2122SOL    HW217829   4.642   3.647  17.371 -0.3646  0.7108  0.8461
 2123SOL     OW17830   2.843   0.648   4.997  0.4216 -0.0485  0.2349
 2123SOL    HW117831   2.879   0.709   5.061 -1.2040  2.1047 -0.8840
 2123SOL    HW217832   2.915   0.586   4.994  0.6442  0.3312 -2.2045
 2124SOL     OW17833   4.474   0.809   0.022 -0.2810 -0.1150 -0.5064
 2124SOL    HW117834   4.504   0.777   0.108 -1.9365  0.9526  0.4656
 2124SOL    HW217835   4.532   0.763  17.651  1.0035  0.2366  0.4386
 2125SOL     OW17836   2.015   0.644   1.849  0.1574  0.3898 -0.0396
 2125SOL    HW117837   1.925   0.652   1.881  0.7025  1.1936  1.2903
 2125SOL    HW217838   2.003   0.621   1.757  0.8357 -0.0659 -0.0165
 2126SOL     OW17839   4.490   0.851   7.042  0.0783 -0.5517  0.8863
 2126SOL    HW117840   4.404   0.814   7.059 -0.5272  0.2161 -0.5549
 2126SOL    HW217841   4.528   0.773   7.001  0.9223 -0.1691  0.9245
 2127SOL     OW17842   3.289   0.860   9.737  0.3414 -0.2720 -0.0095
 2127SOL    HW117843   3.235   0.838   9.812 -0.9969  2.0804 -0.2680
 2127SOL    HW217844   3.283   0.784   9.680  1.7814 -1.4015  1.3742
 2128SOL     OW17845   3.317   0.371   2.681 -0.4432 -0.5510 -0.3017
 2128SOL    HW117846   3.308   0.432   2.608  1.2920 -0.0355 -0.0830
 2128SOL    HW217847   3.325   0.285   2.640  1.3198 -0.7448  0.4404
 2129SOL     OW17848   0.944   1.059   6.300  0.5979  0.0156 -0.0870
 2129SOL    HW117849   0.928   0.970   6.269  2.0719 -0.0676 -0.5993
 2129SOL    HW217850   0.925   1.100   6.216 -0.4504 -0.2896  0.0041
 2130SOL     OW17851   3.419   0.674  12.815  0.3237  0.1466  0.0131
 2130SOL    HW117852   3.337   0.667  12.863  0.9100 -0.8661  0.8647
 2130SOL    HW217853   3.446   0.584  12.829 -0.4157 -0.2123 -0.8469
 2131SOL     OW17854   0.104   0.575   5.416 -0.4055 -0.1295 -0.6002
 2131SOL    HW117855   0.063   0.621   5.490 -1.1057 -2.2532  0.3203
 2131SOL    HW217856   0.027   0.527   5.386  0.1279 -0.6169 -1.2002
 2132SOL     OW17857   4.290   4.509   0.377 -0.4007 -0.3263  0.1769
 2132SOL    HW117858   4.289   4.602   0.398  0.3265  0.1046 -1.6884
 2132SOL    HW217859   4.380   4.486   0.400 -0.5089 -0.4940  0.4402
 2133SOL     OW17860   1.571   1.392  15.278  0.5978 -0.1051 -0.4010
 2133SOL    HW117861   1.532   1.452  15.341 -0.2568 -1.4998  0.3845
 2133SOL    HW217862   1.509   1.320  15.288  0.4370  0.2543  1.1579
 2134SOL     OW17863   2.733   0.298   3.673 -0.3676  0.2836  0.3376
 2134SOL    HW117864   2.824   0.326   3.664 -0.5673  0.5073 -0.9604
 2134SOL    HW217865   2.697   0.385   3.660 -0.0544  0.2366 -0.7883
 2135SOL     OW17866   1.743   4.333   7.873 -0.0923  0.2700  0.0378
 2135SOL    HW117867   1.708   4.422   7.875 -0.1820  0.2990 -2.3827
 2135SOL    HW217868   1.743   4.304   7.782  0.7686 -0.1542  0.1676
 2136SOL     OW17869   2.958   3.908   7.266  0.1797  0.4645  0.7903
 2136SOL    HW117870   2.924   3.976   7.208  0.6420  0.7595  0.8612
 2136SOL    HW217871   2.952   3.839   7.199  1.3948  0.8968  0.2414
 2137SOL     OW17872   2.161   4.584  15.068  0.9127 -0.2829  0.7970
 2137SOL    HW117873   2.165   4.495  15.105 -4.2631 -0.2064  1.5688
 2137SOL    HW217874   2.241   4.584  15.016 -0.4995 -0.1727 -1.3383
 2138SOL     OW17875   4.007   1.050  12.384  0.0406  0.4756  0.3830
 2138SOL    HW117876   4.090   1.096  12.373 -0.3146  1.4714  1.9333
 2138SOL    HW217877   4.045   0.970  12.347 -2.2159  0.4817 -1.9494
 2139SOL     OW17878   3.547   0.774  17.554 -0.2860 -0.0255  0.2702
 2139SOL    HW117879   3.486   0.746  17.486  1.6280 -1.1489 -0.9943
 2139SOL    HW217880   3.627   0.786  17.504 -0.1627 -1.8113  0.0396
 2140SOL     OW17881   4.646   0.335   8.132  0.8391 -0.9884 -0.1533
 2140SOL    HW117882   4.559   0.358   8.166  0.0570 -3.2377 -0.7039
 2140SOL    HW217883   4.699   0.345   8.211  0.0367 -1.0336  0.3897
 2141SOL     OW17884   0.900   1.829   5.770  0.0967 -0.0863  0.3580
 2141SOL    HW117885   0.989   1.864   5.778 -0.0334 -0.0774  1.7297
 2141SOL    HW217886   0.911   1.747   5.817  1.1339 -0.7538 -1.0404
 2142SOL     OW17887   0.395   1.763  15.827  1.3904  0.5201 -0.0428
 2142SOL    HW117888   0.439   1.827  15.884  1.4453  0.0118  0.4848
 2142SOL    HW217889   0.350   1.815  15.761 -0.1352  0.0254  0.6031
 2143SOL     OW17890   0.235   3.742   6.410  0.1482  0.1510 -0.1470
 2143SOL    HW117891   0.241   3.814   6.473 -1.7523 -0.7189  1.0231
 2143SOL    HW217892   0.140   3.725   6.411  0.2354 -0.2358  1.2286
 2144SOL     OW17893   3.854   1.834   7.892 -0.4877 -0.0453 -0.1547
 2144SOL    HW117894   3.858   1.781   7.813  2.6782  0.1071 -0.1216
 2144SOL    HW217895   3.942   1.872   7.893 -0.5135  0.0669 -2.2923
 2145SOL     OW17896   2.356   0.252   8.536 -0.1416  0.5544 -0.6401
 2145SOL    HW117897   2.321   0.274   8.623 -0.4805  1.1486 -0.9262
 2145SOL    HW217898   2.408   0.178   8.565  0.0748  1.2389  0.7284
 2146SOL     OW17899   3.937   3.242   4.467  0.1921 -0.2253  0.7826
 2146SOL    HW117900   3.986   3.319   4.494 -0.1852  0.6102 -0.9384
 2146SOL    HW217901   3.860   3.266   4.519 -1.4753 -0.0912 -1.7535
 2147SOL     OW17902   4.558   4.389   3.649  0.6099 -0.5461 -0.2293
 2147SOL    HW117903   4.605   4.468   3.623 -0.4244  0.6496  1.4841
 2147SOL    HW217904   4.573   4.335   3.571 -1.8050  0.5908 -1.4826
 2148SOL     OW17905   3.860   3.539   5.318 -0.3328  0.9940  0.2075
 2148SOL    HW117906   3.779   3.567   5.361  0.1669  0.5693  1.4237
 2148SOL    HW217907   3.909   3.620   5.310 -1.2273  1.3422 -1.7420
 2149SOL     OW17908   1.387   0.878   8.078 -0.0653  0.2891 -0.3376
 2149SOL    HW117909   1.377   0.805   8.139 -0.7399  0.3544 -0.3646
 2149SOL    HW217910   1.314   0.859   8.019 -2.2595  2.1600  1.7998
 2150SOL     OW17911   4.028   3.508   4.496  0.0829 -0.4853 -0.6378
 2150SOL    HW117912   4.049   3.560   4.573  1.2829 -0.5315 -0.9400
 2150SOL    HW217913   4.080   3.551   4.428  0.4546 -1.7358 -1.1428
 2151SOL     OW17914   2.853   2.433  17.387 -0.3833  0.1163  0.3713
 2151SOL    HW117915   2.865   2.343  17.356 -0.3438  0.4225 -0.5278
 2151SOL    HW217916   2.760   2.439  17.363 -0.5784 -0.0862  1.0752
 2152SOL     OW17917   1.842   2.479   7.268  0.4288 -0.0990 -0.5191
 2152SOL    HW117918   1.776   2.464   7.200  1.1648 -1.4704 -0.9170
 2152SOL    HW217919   1.806   2.560   7.305 -0.4443 -0.5566 -0.3738
 2153SOL     OW17920   1.807   3.204   7.326  0.0578 -0.2323 -0.4268
 2153SOL    HW117921   1.834   3.130   7.380  0.1625  0.8062  0.9542
 2153SOL    HW217922   1.810   3.159   7.242 -3.0943  0.3443 -0.8350
 2154SOL     OW17923   1.090   4.217   9.419  0.4553  0.2068 -0.0007
 2154SOL    HW117924   1.059   4.221   9.509 -0.5222 -0.2380 -0.3125
 2154SOL    HW217925   1.063   4.130   9.389 -0.1630 -0.5357  2.7854
 2155SOL     OW17926   2.177   4.198   6.154  0.8017 -0.3341  0.4623
 2155SOL    HW117927   2.125   4.150   6.091  0.5183  0.6596 -0.0587
 2155SOL    HW217928   2.263   4.158   6.145  0.6657 -0.6998  0.7616
 2156SOL     OW17929   3.542   1.736   8.688  0.4622  0.2043 -0.5410
 2156SOL    HW117930   3.450   1.742   8.664 -0.0259  1.6544  1.7281
 2156SOL    HW217931   3.550   1.827   8.715 -0.8553 -0.4427  2.0181
 2157SOL     OW17932   0.796   2.484   4.456  0.3336  0.3026  0.2251
 2157SOL    HW117933   0.826   2.532   4.533 -0.7109 -2.4195  2.2977
 2157SOL    HW217934   0.754   2.551   4.401 -0.3453 -0.7218 -0.5012
 2158SOL     OW17935   1.929   3.751  10.513 -0.1882  0.0012  0.1533
 2158SOL    HW117936   1.926   3.834  10.561  0.7230 -0.0229  0.2449
 2158SOL    HW217937   1.893   3.687  10.575 -0.7506  1.7757  1.6651
 2159SOL     OW17938   0.293   2.160   5.066  0.1018 -0.2635  0.3153
 2159SOL    HW117939   0.370   2.102   5.065  0.8820  0.7183  2.1431
 2159SOL    HW217940   0.327   2.249   5.071 -0.6439  0.0883 -1.0065
 2160SOL     OW17941   4.552   1.738  12.524 -0.4397 -0.8861 -0.7409
 2160SOL    HW117942   4.524   1.674  12.459 -1.8778 -1.4027  0.3853
 2160SOL    HW217943   4.647   1.740  12.533 -0.5031 -1.9783  0.1146
 2161SOL     OW17944   1.819   3.938   4.274  0.1992 -0.4652 -0.3556
 2161SOL    HW117945   1.799   4.010   4.215 -0.1313 -1.8682 -1.9342
 2161SOL    HW217946   1.801   3.965   4.364 -1.5702 -0.5264 -0.6891
 2162SOL     OW17947   2.534   4.359  12.879  0.0231 -0.4136  0.8905
 2162SOL    HW117948   2.594   4.410  12.934 -0.0460 -1.2361  1.7158
 2162SOL    HW217949   2.592   4.284  12.872  0.3275 -0.2802  1.9582
 2163SOL     OW17950   4.528   3.846   6.841  0.0534 -0.1684  0.2749
 2163SOL    HW117951   4.603   3.819   6.789  1.3616  1.4129  1.3405
 2163SOL    HW217952   4.563   3.852   6.930 -0.1226 -0.2268  0.3490
 2164SOL     OW17953   3.839   2.923   8.186 -0.6414  0.1958 -0.3626
 2164SOL    HW117954   3.873   2.928   8.096 -0.9206 -0.3260 -0.4996
 2164SOL    HW217955   3.748   2.897   8.173 -1.0248  0.6601  1.4516
 2165SOL     OW17956   4.475   3.134   2.413 -0.5137  0.7057 -0.2050
 2165SOL    HW117957   4.492   3.227   2.403 -1.6487  1.0799  1.4341
 2165SOL    HW217958   4.531   3.096   2.345 -0.4353 -0.2971  0.4145
 2166SOL     OW17959   4.268   3.608  15.633 -0.1655 -0.2895 -0.0159
 2166SOL    HW117960   4.251   3.546  15.703 -0.8843 -0.7779 -0.6242
 2166SOL    HW217961   4.247   3.563  15.551 -3.0373 -1.1279  1.1635
 2167SOL     OW17962   3.232   0.215   0.825 -0.9933  0.0219 -0.0390
 2167SOL    HW117963   3.325   0.239   0.825 -0.3444 -2.4563  0.5724
 2167SOL    HW217964   3.198   0.255   0.905  0.1222 -0.8679  0.8830
 2168SOL     OW17965   1.123   3.085  10.638 -0.0645  0.7279 -0.9852
 2168SOL    HW117966   1.071   3.101  10.716  1.3951  0.3856  0.0683
 2168SOL    HW217967   1.064   3.029  10.588  0.5335 -1.9968  1.2988
 2169SOL     OW17968   3.422   1.290  14.193 -0.4284  0.1178 -0.3601
 2169SOL    HW117969   3.396   1.317  14.105 -2.1933  2.3786  0.8434
 2169SOL    HW217970   3.339   1.250  14.217 -0.2297  0.3192  0.6748
 2170SOL     OW17971   4.666   0.332   5.042  1.0436 -0.3486 -0.3744
 2170SOL    HW117972   4.648   0.404   4.982  2.1672  0.4384  0.2291
 2170SOL    HW217973   4.582   0.289   5.025 -0.0217  1.6989 -0.2680
 2171SOL     OW17974   2.754   3.935  13.975 -0.2969 -0.1795  0.6522
 2171SOL    HW117975   2.663   3.929  14.004 -0.4244  0.1892  0.3246
 2171SOL    HW217976   2.771   4.025  14.003  3.3486 -0.3277 -1.1200
 2172SOL     OW17977   2.493   3.764   3.089  0.2889 -0.3760 -0.6482
 2172SOL    HW117978   2.549   3.694   3.053  1.1192 -0.3165  0.5386
 2172SOL    HW217979   2.431   3.775   3.017  0.6184  1.6271 -0.6315
 2173SOL     OW17980   4.198   1.414   4.109 -0.4401 -0.4345 -0.0668
 2173SOL    HW117981   4.281   1.453   4.079  1.2799 -2.9567  1.4644
 2173SOL    HW217982   4.130   1.466   4.067 -1.0166 -1.3801 -0.2965
 2174SOL     OW17983   2.184   3.307   2.717 -0.0514 -0.0757  0.1381
 2174SOL    HW117984   2.154   3.305   2.626  2.2840  1.2948 -0.6502
 2174SOL    HW217985   2.205   3.401   2.724 -2.8565  0.3238  3.0379
 2175SOL     OW17986   3.777   3.787   7.019 -0.0923  1.0062  0.4300
 2175SOL    HW117987   3.870   3.769   7.005  0.1557  2.6369 -0.0634
 2175SOL    HW217988   3.778   3.817   7.109  0.8185 -0.3074  0.8605
 2176SOL     OW17989   2.994   0.645   8.998  0.2835  0.2307 -0.1767
 2176SOL    HW117990   2.932   0.670   9.067  0.1002  0.0398 -0.2735
 2176SOL    HW217991   3.059   0.597   9.050  0.2571  0.8339  0.4225
 2177SOL     OW17992   2.146   0.973   8.032  0.3271 -0.2412  0.0170
 2177SOL    HW117993   2.125   1.019   8.113  0.9928 -1.6972  1.0159
 2177SOL    HW217994   2.079   1.020   7.982  1.4700  1.9038  0.5468
 2178SOL     OW17995   1.449   2.610   4.233  0.7888 -0.4848 -0.0802
 2178SOL    HW117996   1.458   2.519   4.205 -0.4943 -0.7280  0.2634
 2178SOL    HW217997   1.412   2.615   4.322  0.6789 -0.6960 -0.1129
 2179SOL     OW17998   4.043   1.579  16.355  0.3497  0.4790 -0.0810
 2179SOL    HW117999   4.041   1.674  16.347 -1.9523  0.3135 -1.5103
 2179SOL    HW218000   3.967   1.569  16.414  0.0450  0.8208 -0.4184
 2180SOL     OW18001   0.211   1.994   1.315  0.2329  0.4151 -0.2914
 2180SOL    HW118002   0.270   1.933   1.358 -0.8952  0.2420  0.9888
 2180SOL    HW218003   0.194   1.943   1.235  0.1823  2.7289 -1.7588
 2181SOL     OW18004   3.101   4.556   7.967  0.0224  0.4387  0.1744
 2181SOL    HW118005   3.008   4.537   7.956 -0.3537  1.1932  1.9437
 2181SOL    HW218006   3.104   4.550   8.063  1.8152  1.9423  0.2163
 2182SOL     OW18007   2.594   2.563  15.002  0.3050  0.2276 -0.5680
 2182SOL    HW118008   2.663   2.537  14.941  1.5696 -1.5365  1.6242
 2182SOL    HW218009   2.520   2.509  14.975  0.5516 -1.2364  1.6945
 2183SOL     OW18010   4.331   3.785   7.095 -0.5267 -0.8071  0.2319
 2183SOL    HW118011   4.344   3.857   7.157  0.6100 -0.3677 -0.5062
 2183SOL    HW218012   4.424   3.771   7.077 -0.5740 -1.3496  0.4274
 2184SOL     OW18013   4.608   2.113   2.216 -0.5184 -0.4637  0.0311
 2184SOL    HW118014   4.651   2.059   2.281 -0.3769  2.0256  2.0134
 2184SOL    HW218015   4.517   2.082   2.213 -1.0616  1.1680 -0.5181
 2185SOL     OW18016   1.133   3.887   2.289  0.4389 -0.1787 -0.1694
 2185SOL    HW118017   1.064   3.953   2.295 -0.3486 -1.0257 -0.0254
 2185SOL    HW218018   1.191   3.911   2.361  0.0185  2.2438 -0.6293
 2186SOL     OW18019   4.242   1.818   2.819 -0.7326 -0.1151  0.8542
 2186SOL    HW118020   4.224   1.903   2.779 -1.2643 -1.5966 -2.0269
 2186SOL    HW218021   4.211   1.839   2.907 -2.0505  0.3352  0.2658
 2187SOL     OW18022   3.960   1.195  13.629 -0.2390 -0.2433  0.0548
 2187SOL    HW118023   3.931   1.109  13.597  0.7171 -1.0422  1.3683
 2187SOL    HW218024   3.957   1.252  13.551 -0.6942 -1.1082 -0.5627
 2188SOL     OW18025   0.679   3.444   7.239 -0.1653 -0.6166 -0.0063
 2188SOL    HW118026   0.584   3.430   7.241 -0.3013  0.0682 -1.8001
 2188SOL    HW218027   0.683   3.448   7.334 -2.5994 -0.0953  0.0755
 2189SOL     OW18028   0.834   3.585   3.785  0.0244  0.8683  0.0939
 2189SOL    HW118029   0.905   3.551   3.839 -1.0822 -1.9369 -0.2328
 2189SOL    HW218030   0.836   3.678   3.810  0.9050  1.4619 -2.1923
 2190SOL     OW18031   2.658   3.793   6.830  0.7557  0.0822 -0.1064
 2190SOL    HW118032   2.647   3.886   6.814  0.7273  0.3390  1.3712
 2190SOL    HW218033   2.567   3.763   6.822  1.0152 -0.7144 -0.0490
 2191SOL     OW18034   3.769   4.160  12.947 -0.4567  0.1266 -0.2385
 2191SOL    HW118035   3.796   4.091  12.887 -1.8690 -0.2050 -0.4938
 2191SOL    HW218036   3.716   4.215  12.890  0.0589 -0.4065 -1.2418
 2192SOL     OW18037   1.453   1.318   5.151 -0.9565 -1.0857  0.2056
 2192SOL    HW118038   1.404   1.338   5.231 -0.4207  2.2205 -0.2878
 2192SOL    HW218039   1.532   1.273   5.181  0.8739  2.1029  0.1546
 2193SOL     OW18040   1.443   2.932  13.009 -0.7981  0.4288 -0.3234
 2193SOL    HW118041   1.497   2.906  12.934 -2.1966  1.4906 -1.7105
 2193SOL    HW218042   1.497   2.917  13.086  1.1908  0.2525 -1.7447
 2194SOL     OW18043   3.751   2.512  11.867 -0.2824 -0.0906  0.2710
 2194SOL    HW118044   3.785   2.601  11.862  0.7892 -0.4318  1.4154
 2194SOL    HW218045   3.784   2.480  11.783  0.1001 -1.0004  0.7640
 2195SOL     OW18046   1.478   2.118   6.322  0.7523  0.0400  0.1026
 2195SOL    HW118047   1.544   2.118   6.391  2.0715  0.3726 -1.1645
 2195SOL    HW218048   1.513   2.180   6.258 -1.2647  0.4790 -0.5886
 2196SOL     OW18049   3.188   1.879   1.243  0.1363 -0.1313  0.2920
 2196SOL    HW118050   3.120   1.908   1.305  1.2093  1.5512  0.6899
 2196SOL    HW218051   3.202   1.959   1.192 -0.1170 -0.6633 -0.6045
 2197SOL     OW18052   0.963   3.260   4.935  0.0861  0.2381 -0.4049
 2197SOL    HW118053   0.959   3.274   5.029  2.1876  1.8595 -0.5563
 2197SOL    HW218054   0.885   3.280   4.884  0.4629  2.0907 -0.2452
 2198SOL     OW18055   2.151   0.133   7.865  0.3169  0.1288 -0.1172
 2198SOL    HW118056   2.210   0.059   7.880 -0.1175  0.1997  1.8587
 2198SOL    HW218057   2.177   0.205   7.923 -0.3660 -0.3599  0.7800
 2199SOL     OW18058   4.032   3.825   8.368  0.3399  0.3626  0.0592
 2199SOL    HW118059   3.980   3.906   8.371  0.4216  0.4384 -0.5972
 2199SOL    HW218060   4.080   3.831   8.450 -0.2365  0.7282  0.3697
 2200SOL     OW18061   0.746   3.827  17.413 -0.1554  0.1146  0.4281
 2200SOL    HW118062   0.688   3.761  17.376 -0.0993 -0.2202  0.9387
 2200SOL    HW218063   0.719   3.899  17.356 -1.4192 -0.8499 -0.1864
 2201SOL     OW18064   2.420   0.570   4.808  0.6504 -0.2718  0.2540
 2201SOL    HW118065   2.364   0.534   4.876  2.1218  2.3626  2.8504
 2201SOL    HW218066   2.368   0.619   4.744  2.7604  1.4581 -0.1433
 2202SOL     OW18067   0.937   2.710   7.858 -0.7395  0.1173 -0.3326
 2202SOL    HW118068   0.969   2.641   7.799  0.6117  0.5488 -0.1156
 2202SOL    HW218069   0.943   2.655   7.936  0.8290  1.7442  0.6799
 2203SOL     OW18070   2.048   3.094   0.582  0.5029 -0.1766  0.2793
 2203SOL    HW118071   1.986   3.166   0.599  1.1977  0.2107  1.1567
 2203SOL    HW218072   2.108   3.136   0.519 -0.9086  1.2843 -0.0983
 2204SOL     OW18073   1.240   1.316  11.939  0.1626  1.2692  0.1335
 2204SOL    HW118074   1.317   1.261  11.926  0.2183  1.3172  0.2593
 2204SOL    HW218075   1.170   1.256  11.914  1.3576 -0.6388  1.4416
 2205SOL     OW18076   0.062   0.840   3.855 -0.0842 -0.4139 -0.7140
 2205SOL    HW118077   0.017   0.881   3.929  2.6580 -1.0314  1.2842
 2205SOL    HW218078   0.110   0.765   3.891  1.5387  0.5080 -0.9681
 2206SOL     OW18079   4.626   0.004   9.729 -0.3002  0.0278  0.5848
 2206SOL    HW118080   4.614   4.691   9.640  0.2946  3.1260 -0.6909
 2206SOL    HW218081   4.672   0.086   9.711  0.6483  0.0620  3.1180
 2207SOL     OW18082   0.958   2.568   8.094  0.6519  0.3677  0.3509
 2207SOL    HW118083   0.884   2.525   8.137  2.3311 -0.3579  2.5046
 2207SOL    HW218084   1.006   2.497   8.053 -0.7077  0.2102 -0.9554
 2208SOL     OW18085   0.035   4.594   9.918  0.1886  0.5295  0.0079
 2208SOL    HW118086   4.685   4.615   9.859  1.5124  1.3789 -1.2982
 2208SOL    HW218087   0.096   4.661   9.888 -1.7098  0.3953 -4.0807
 2209SOL     OW18088   4.188   2.707   5.573 -0.3374  0.5241  0.2847
 2209SOL    HW118089   4.093   2.711   5.559 -0.5101 -0.4501  1.1448
 2209SOL    HW218090   4.197   2.635   5.511 -1.1595 -0.0437  0.8209
 2210SOL     OW18091   3.135   2.044   6.214  0.1887  0.3524  0.2587
 2210SOL    HW118092   3.090   1.966   6.245 -0.2756  0.1144 -1.0159
 2210SOL    HW218093   3.080   2.060   6.137  1.0572 -1.3267 -0.7130
 2211SOL     OW18094   4.165   0.674   1.301 -0.1421 -0.2639 -0.4697
 2211SOL    HW118095   4.175   0.696   1.209  0.0544 -0.1279 -0.4160
 2211SOL    HW218096   4.166   0.578   1.296  1.8549 -0.3528  1.6774
 2212SOL     OW18097   3.215   2.371   6.095 -0.0112  0.3839  0.1370
 2212SOL    HW118098   3.182   2.386   6.183 -2.8395 -2.2440 -0.4658
 2212SOL    HW218099   3.133   2.377   6.045 -0.1596 -1.8413  0.1258
 2213SOL     OW18100   0.280   0.824  10.756  0.2100 -0.2535  0.2764
 2213SOL    HW118101   0.296   0.909  10.796 -4.5218  0.9893 -0.3828
 2213SOL    HW218102   0.196   0.803  10.797  0.5098  1.1109  1.5984
 2214SOL     OW18103   3.792   1.131   2.937 -0.0314 -0.3585 -0.3448
 2214SOL    HW118104   3.863   1.088   2.983  0.0953  1.6721  1.3610
 2214SOL    HW218105   3.745   1.160   3.015 -0.8426  0.1419 -1.0130
 2215SOL     OW18106   2.866   3.521  15.367  0.3205  0.1741  0.1504
 2215SOL    HW118107   2.851   3.428  15.383  0.8024  0.0729  0.0064
 2215SOL    HW218108   2.790   3.558  15.412 -1.8940 -2.1043 -1.6526
 2216SOL     OW18109   0.144   4.485   4.537 -0.0661 -0.2754 -0.4072
 2216SOL    HW118110   0.161   4.409   4.591  0.2546  0.6066  0.7231
 2216SOL    HW218111   0.197   4.462   4.461  0.3445 -0.9372  0.0902
 2217SOL     OW18112   2.761   2.250   3.828 -0.2432 -0.3339 -0.0996
 2217SOL    HW118113   2.797   2.328   3.871 -1.7512 -0.5054  1.4913
 2217SOL    HW218114   2.789   2.181   3.888  0.6483 -0.2802 -0.4559
 2218SOL     OW18115   0.623   0.605   2.242  0.1207 -0.1870  0.3243
 2218SOL    HW118116   0.697   0.666   2.251 -0.6295  1.1147 -2.4873
 2218SOL    HW218117   0.552   0.664   2.218  0.4311  0.3481  0.7043
 2219SOL     OW18118   1.202   4.183   8.116  0.0960 -0.1118 -0.4799
 2219SOL    HW118119   1.252   4.110   8.153 -0.1402  0.3570  0.7394
 2219SOL    HW218120   1.271   4.217   8.059 -0.2896 -0.1935 -0.9999
 2220SOL     OW18121   4.635   3.286  11.788  0.1098 -0.4103 -0.2143
 2220SOL    HW118122   4.691   3.304  11.863 -2.6737  2.5752  1.1784
 2220SOL    HW218123   4.691   3.232  11.733  0.1363 -0.9437  0.3425
 2221SOL     OW18124   0.873   0.286   0.352  0.3377 -0.4394  0.1538
 2221SOL    HW118125   0.848   0.309   0.263 -2.5351 -1.1275  0.7628
 2221SOL    HW218126   0.899   0.368   0.393  0.0621 -0.1240 -0.3019
 2222SOL     OW18127   1.629   0.469   8.125 -0.2292  0.6513  0.1099
 2222SOL    HW118128   1.609   0.394   8.181 -1.8612  0.3198 -0.9215
 2222SOL    HW218129   1.567   0.459   8.053 -3.0374  1.6322  2.4114
 2223SOL     OW18130   2.158   1.892  16.561 -0.3119  0.4657 -0.4695
 2223SOL    HW118131   2.213   1.884  16.638 -1.7882 -1.4580  0.4138
 2223SOL    HW218132   2.094   1.824  16.584 -0.2381  0.6049  0.1403
 2224SOL     OW18133   4.361   1.499   6.938 -0.0705 -0.3882 -0.5265
 2224SOL    HW118134   4.440   1.543   6.967 -0.9684  0.6374  0.3480
 2224SOL    HW218135   4.387   1.408   6.952  0.9438  0.0560  0.4893
 2225SOL     OW18136   4.092   1.392   4.352 -0.0821 -0.0643  0.0612
 2225SOL    HW118137   4.061   1.481   4.370 -0.8944 -0.2180 -0.5836
 2225SOL    HW218138   4.144   1.411   4.274 -1.2008 -1.4597 -1.0051
 2226SOL     OW18139   4.151   0.014   8.380 -0.3874  0.0249  0.8669
 2226SOL    HW118140   4.069   4.698   8.411  0.1643 -0.0911  2.1622
 2226SOL    HW218141   4.126   0.084   8.319 -0.5668 -0.5469  0.2858
 2227SOL     OW18142   4.605   2.532   7.705  0.3667  0.4604  0.0278
 2227SOL    HW118143   4.674   2.547   7.640  0.9798  0.4599  0.6740
 2227SOL    HW218144   4.643   2.452   7.741  0.6415  1.1739  1.3341
 2228SOL     OW18145   2.744   0.949  11.804  0.0093  0.2392 -0.9259
 2228SOL    HW118146   2.721   1.042  11.808 -0.7703 -0.0820  2.8494
 2228SOL    HW218147   2.670   0.906  11.762 -2.6275  0.6862  3.2639
 2229SOL     OW18148   1.141   0.840  10.561  0.4896  0.4906 -0.2771
 2229SOL    HW118149   1.210   0.900  10.586  1.3677 -1.3421  1.7554
 2229SOL    HW218150   1.116   0.886  10.481 -1.0140  2.6988  1.4785
 2230SOL     OW18151   2.102   0.189   4.673 -0.2084 -0.4708  0.8369
 2230SOL    HW118152   2.181   0.159   4.627  0.1424 -0.1146  1.2068
 2230SOL    HW218153   2.126   0.159   4.761  0.8755  0.3433  0.8197
 2231SOL     OW18154   2.436   0.459  16.017 -0.3808  0.0761 -0.1080
 2231SOL    HW118155   2.527   0.487  16.026 -0.6104  0.2478  1.6894
 2231SOL    HW218156   2.391   0.532  16.057  1.2078  1.8770 -1.6089
 2232SOL     OW18157   3.539   3.280   3.249 -0.7738 -0.4166  0.2462
 2232SOL    HW118158   3.586   3.293   3.332  0.8066 -0.8723 -0.5741
 2232SOL    HW218159   3.509   3.369   3.227  0.1223  0.8691  4.1690
 2233SOL     OW18160   4.071   1.345   1.126  0.5297 -0.0646 -0.5250
 2233SOL    HW118161   4.105   1.271   1.176 -0.5743 -0.8734 -0.9844
 2233SOL    HW218162   4.133   1.407   1.164  0.0936  0.8808 -1.3689
 2234SOL     OW18163   4.143   3.203   6.220  0.4574 -0.8234 -0.2123
 2234SOL    HW118164   4.068   3.155   6.254 -0.9476  1.5158 -0.0070
 2234SOL    HW218165   4.205   3.130   6.217 -0.1454 -1.3344 -0.1253
 2235SOL     OW18166   1.109   1.990   7.798 -0.4790 -0.2533 -0.2126
 2235SOL    HW118167   1.027   1.955   7.832  0.6494 -3.0125 -0.3138
 2235SOL    HW218168   1.136   1.917   7.742  0.7765  0.7059 -0.8639
 2236SOL     OW18169   1.727   4.086  15.141  0.2361 -0.0391  0.2509
 2236SOL    HW118170   1.676   4.016  15.100  0.6535 -0.1249 -0.1261
 2236SOL    HW218171   1.665   4.119  15.205  0.7349 -0.1677  0.7959
 2237SOL     OW18172   1.566   0.361   3.415 -0.0177  0.0016 -0.2304
 2237SOL    HW118173   1.574   0.384   3.507  1.6762  0.5862 -0.5241
 2237SOL    HW218174   1.650   0.387   3.377 -0.3002  2.0540  0.5854
 2238SOL     OW18175   4.502   1.041  17.590  0.3533  0.1018  0.0778
 2238SOL    HW118176   4.468   1.106  17.651  0.2650 -0.0978  0.2391
 2238SOL    HW218177   4.495   0.954  17.629  0.1918  0.5565  1.0490
 2239SOL     OW18178   0.087   0.299  14.999 -0.0261 -0.7436  0.3591
 2239SOL    HW118179   0.075   0.298  14.904  0.3152 -1.0716  0.3211
 2239SOL    HW218180   0.027   0.368  15.028  1.4451  0.5578  0.3388
 2240SOL     OW18181   2.109   1.046   5.875 -0.4413  0.0984  0.3477
 2240SOL    HW118182   2.063   1.125   5.902 -0.3908  0.5319 -0.8438
 2240SOL    HW218183   2.194   1.081   5.849 -1.0029  1.7865  0.8307
 2241SOL     OW18184   1.775   2.318   6.133 -0.1614 -0.0381 -0.5439
 2241SOL    HW118185   1.685   2.322   6.100 -0.3901  0.4551  0.1294
 2241SOL    HW218186   1.812   2.352   6.051 -0.9483  0.7527 -0.5731
 2242SOL     OW18187   2.423   2.326   8.477 -0.1349 -0.3043  0.0498
 2242SOL    HW118188   2.334   2.354   8.497 -0.0334 -0.1938  0.3412
 2242SOL    HW218189   2.436   2.409   8.431  1.1450 -0.7393 -0.4035
 2243SOL     OW18190   0.340   1.537   3.904  0.2239 -0.2005 -0.0091
 2243SOL    HW118191   0.399   1.612   3.915  1.4791 -1.1091 -0.5850
 2243SOL    HW218192   0.270   1.554   3.967 -0.8056 -0.7045 -1.0062
 2244SOL     OW18193   0.857   3.756  12.564  0.3950 -0.4257 -0.1425
 2244SOL    HW118194   0.907   3.813  12.623  0.5976  0.1230 -0.8425
 2244SOL    HW218195   0.894   3.787  12.481 -0.1048 -1.5935 -0.8031
 2245SOL     OW18196   2.336   3.080   3.743  0.1058  0.2397  0.0850
 2245SOL    HW118197   2.258   3.131   3.765 -0.7248 -2.2399  2.8952
 2245SOL    HW218198   2.375   3.133   3.673  0.0757  1.1091  0.7213
 2246SOL     OW18199   3.899   2.013  12.066 -0.0919 -0.4056 -0.1547
 2246SOL    HW118200   3.835   1.989  12.134 -0.7607  0.2318 -0.5569
 2246SOL    HW218201   3.950   2.075  12.118  0.2336 -2.0682  1.4979
 2247SOL     OW18202   1.400   2.324   9.365 -0.1331  0.3543 -0.9904
 2247SOL    HW118203   1.464   2.348   9.432 -1.7759 -1.7846  1.3548
 2247SOL    HW218204   1.447   2.354   9.288  1.6018  1.3931  0.4696
 2248SOL     OW18205   4.178   4.112   4.797 -0.4376  0.0858  0.0023
 2248SOL    HW118206   4.217   4.103   4.885 -1.7338  0.8810  0.6562
 2248SOL    HW218207   4.107   4.174   4.816 -1.9145 -2.3831  2.5915
 2249SOL     OW18208   3.465   0.364   6.023 -0.3118  0.5466 -0.3917
 2249SOL    HW118209   3.451   0.285   5.971  0.4396  1.3123 -1.7830
 2249SOL    HW218210   3.449   0.435   5.960  1.2241  0.4034 -0.9395
 2250SOL     OW18211   0.735   2.218  11.572 -0.4541  0.4342  0.2711
 2250SOL    HW118212   0.661   2.171  11.610 -0.1196  0.7517  1.3232
 2250SOL    HW218213   0.716   2.210  11.479 -0.3491 -0.4399  0.3275
 2251SOL     OW18214   4.721   2.616  14.836  0.3289  0.2678 -0.4138
 2251SOL    HW118215   0.032   2.706  14.847 -0.6857  0.5016  0.6771
 2251SOL    HW218216   0.052   2.569  14.900  0.3960 -0.8652 -1.3112
 2252SOL     OW18217   2.728   1.477  14.233  0.3374 -0.4095 -0.2936
 2252SOL    HW118218   2.792   1.494  14.164  2.2508 -1.9505  1.1140
 2252SOL    HW218219   2.662   1.436  14.177 -0.8698 -1.8584  2.2385
 2253SOL     OW18220   0.647   4.650  10.583  0.2007 -0.5408  0.0225
 2253SOL    HW118221   0.716   4.688  10.527 -0.2406 -0.1807 -0.2789
 2253SOL    HW218222   0.688   4.564  10.594  0.8539 -0.5434 -2.2997
 2254SOL     OW18223   4.124   2.435   0.439 -0.0118 -0.3534 -0.7595
 2254SOL    HW118224   4.203   2.383   0.420 -0.0528 -0.8784  0.4958
 2254SOL    HW218225   4.090   2.387   0.514  0.4827 -0.0647 -0.3470
 2255SOL     OW18226   0.132   2.773   6.943 -0.2261  0.3757  0.4548
 2255SOL    HW118227   0.042   2.783   6.973 -0.2183  0.1220  0.5640
 2255SOL    HW218228   0.132   2.681   6.969 -0.1596 -0.2417 -1.7405
 2256SOL     OW18229   0.850   1.856   6.994 -0.3374 -0.1493  0.1258
 2256SOL    HW118230   0.821   1.792   6.929  0.2356  1.5181 -1.7736
 2256SOL    HW218231   0.765   1.876   7.033  0.7566  0.1480  2.3816
 2257SOL     OW18232   2.171   2.247  17.097 -0.2201  0.0647 -0.6010
 2257SOL    HW118233   2.230   2.298  17.042  1.8162 -1.0338  0.6014
 2257SOL    HW218234   2.164   2.166  17.048 -1.0625 -0.4760  0.4079
 2258SOL     OW18235   4.060   3.727   7.016 -0.4726 -0.4033  0.0844
 2258SOL    HW118236   4.145   3.772   7.019 -1.3277  1.1447  0.9913
 2258SOL    HW218237   4.084   3.657   7.077  1.2582  0.6027  0.5741
 2259SOL     OW18238   1.829   0.312   1.483 -0.2758 -0.4706 -0.1046
 2259SOL    HW118239   1.782   0.244   1.434  1.2291 -2.2308  0.8764
 2259SOL    HW218240   1.862   0.361   1.408  0.2659 -0.2112  0.3041
 2260SOL     OW18241   3.430   3.255   7.024  0.0174  0.2535 -0.4597
 2260SOL    HW118242   3.481   3.241   6.944 -0.2488  0.5542 -0.6876
 2260SOL    HW218243   3.416   3.350   7.028  1.5391  0.4051  0.7594
 2261SOL     OW18244   0.657   3.013   1.454  0.1643 -0.2923 -0.2510
 2261SOL    HW118245   0.750   3.005   1.437  0.2174 -0.1772 -0.0109
 2261SOL    HW218246   0.659   2.985   1.546  0.4060  0.8251  0.0842
 2262SOL     OW18247   3.458   2.596  16.039 -0.4368  0.0027 -0.2250
 2262SOL    HW118248   3.434   2.670  15.984 -0.6967 -0.1084 -0.2646
 2262SOL    HW218249   3.525   2.561  15.980 -0.7880 -1.1823  0.0646
 2263SOL     OW18250   2.419   4.123   7.757 -0.2062 -0.0114  0.2601
 2263SOL    HW118251   2.352   4.054   7.757 -1.8576  1.6111  2.0753
 2263SOL    HW218252   2.431   4.144   7.849 -1.1280  0.7439  0.2084
 2264SOL     OW18253   3.835   1.834   2.194  0.1492  0.8525 -0.0491
 2264SOL    HW118254   3.763   1.828   2.256 -1.4033 -2.1561 -2.1488
 2264SOL    HW218255   3.834   1.926   2.169  0.8716  1.4408  2.0952
 2265SOL     OW18256   0.252   2.477   2.262 -0.1745  0.1713  0.2479
 2265SOL    HW118257   0.237   2.510   2.174 -1.9985  0.4901  0.6830
 2265SOL    HW218258   0.189   2.405   2.272 -2.2080  1.7596 -1.1445
 2266SOL     OW18259   3.058   3.344   1.793 -0.1566 -0.6172 -0.2916
 2266SOL    HW118260   3.039   3.418   1.736  1.1437 -0.3055 -0.3130
 2266SOL    HW218261   2.984   3.284   1.782 -0.9427  0.2621  0.2276
 2267SOL     OW18262   2.362   2.505   5.993  0.1738  0.2064 -0.4070
 2267SOL    HW118263   2.401   2.582   6.033  1.3149 -0.2395 -0.6602
 2267SOL    HW218264   2.309   2.474   6.067  2.4275 -0.1012  1.0638
 2268SOL     OW18265   3.761   0.125   3.446  0.1127 -0.1480  0.7348
 2268SOL    HW118266   3.684   0.176   3.472  1.1628  2.6414 -1.7045
 2268SOL    HW218267   3.726   0.037   3.459  1.9831 -0.6317  2.4915
 2269SOL     OW18268   4.317   4.404   6.502  0.4526 -0.0047  0.4741
 2269SOL    HW118269   4.345   4.315   6.525  0.5998  0.1973  1.0787
 2269SOL    HW218270   4.376   4.417   6.427 -0.3453  0.2376 -0.1075
 2270SOL     OW18271   0.463   1.538  17.679  0.0791 -0.0354  0.9664
 2270SOL    HW118272   0.474   1.449  17.647  1.1975  0.7812 -0.9128
 2270SOL    HW218273   0.377   1.555  17.641  0.7854 -0.6797 -0.9158
 2271SOL     OW18274   4.719   1.772   5.631 -0.1022 -0.8667 -0.6297
 2271SOL    HW118275   0.002   1.850   5.576 -0.6139 -0.7788 -0.5450
 2271SOL    HW218276   4.719   1.809   5.720  2.4478 -1.5886 -0.3218
 2272SOL     OW18277   3.174   1.101   6.401 -0.3938 -0.0122  0.3081
 2272SOL    HW118278   3.103   1.084   6.463 -1.4067 -1.0715 -1.1333
 2272SOL    HW218279   3.173   1.023   6.345  0.4728  2.0145 -2.5350
 2273SOL     OW18280   3.388   1.526  14.899  0.1733  0.6146  0.3551
 2273SOL    HW118281   3.381   1.549  14.992  0.4069 -0.6424  0.6807
 2273SOL    HW218282   3.293   1.514  14.895  0.3730 -0.9732  0.4623
 2274SOL     OW18283   0.676   2.254   6.449  0.5418 -0.0575 -0.0224
 2274SOL    HW118284   0.606   2.312   6.478  0.4330  0.6768 -1.7596
 2274SOL    HW218285   0.637   2.174   6.484 -1.4252  0.7873 -0.3080
 2275SOL     OW18286   2.215   2.520   0.757  0.6073  0.8506 -0.9128
 2275SOL    HW118287   2.290   2.569   0.723  1.1392 -0.4076 -1.5503
 2275SOL    HW218288   2.184   2.560   0.838  0.5020 -2.1625  0.5190
 2276SOL     OW18289   1.020   3.392   9.016  0.1608  0.0238  0.2147
 2276SOL    HW118290   1.020   3.374   9.110  1.0724 -2.7781 -0.3091
 2276SOL    HW218291   0.935   3.434   9.007 -0.2021 -0.7544 -0.0478
 2277SOL     OW18292   2.331   1.397   4.035 -0.5340  0.0358 -0.5656
 2277SOL    HW118293   2.301   1.421   4.123  0.8407  0.8483 -0.3073
 2277SOL    HW218294   2.271   1.443   3.977 -2.7976 -2.3039 -0.0767
 2278SOL     OW18295   1.863   4.610   5.654 -0.0510 -0.6036  0.4524
 2278SOL    HW118296   1.919   4.567   5.718  0.3825  0.2052  0.6095
 2278SOL    HW218297   1.775   4.600   5.692 -0.6471 -0.0635 -0.7931
 2279SOL     OW18298   1.843   0.229   5.236  0.4852  0.3197 -0.2113
 2279SOL    HW118299   1.801   0.176   5.304  1.5281  0.7136  0.7406
 2279SOL    HW218300   1.797   0.184   5.165 -2.1664 -0.4630  2.0279
 2280SOL     OW18301   3.920   1.482   1.820 -0.0972 -0.1744  0.1792
 2280SOL    HW118302   3.884   1.561   1.860 -2.4326  0.2952 -2.8171
 2280SOL    HW218303   3.931   1.513   1.730 -4.9572  0.3609 -0.2470
 2281SOL     OW18304   1.477   3.420   5.884 -0.3503 -0.2029  0.2038
 2281SOL    HW118305   1.565   3.427   5.845 -0.7756 -0.0916 -0.7492
 2281SOL    HW218306   1.434   3.352   5.831  1.6208  0.4144 -2.1941
 2282SOL     OW18307   3.654   1.451   5.256  0.4952 -0.1355  0.4425
 2282SOL    HW118308   3.628   1.543   5.250  0.1691 -0.1637  1.4272
 2282SOL    HW218309   3.707   1.444   5.335  2.3139 -2.5299 -0.9744
 2283SOL     OW18310   1.091   2.589   3.338  0.4378 -0.8589 -0.1065
 2283SOL    HW118311   1.036   2.662   3.311  2.6315  1.5779  2.0094
 2283SOL    HW218312   1.080   2.529   3.265  2.7847  1.2996 -2.2222
 2284SOL     OW18313   0.610   2.883   0.294  0.0959 -0.3848 -0.0634
 2284SOL    HW118314   0.689   2.831   0.311  1.0809  1.2164  0.3225
 2284SOL    HW218315   0.599   2.920   0.382  0.9186 -2.1248  0.7644
 2285SOL     OW18316   3.076   3.683   5.006  0.2354  0.0296 -0.3802
 2285SOL    HW118317   3.091   3.607   4.950  1.7395 -1.1578  1.6749
 2285SOL    HW218318   2.996   3.718   4.965  0.0159 -2.1761 -1.8386
 2286SOL     OW18319   3.210   4.462   1.829  0.1044  1.0683  0.4251
 2286SOL    HW118320   3.132   4.517   1.818 -0.9625 -0.3535  0.7798
 2286SOL    HW218321   3.232   4.447   1.737 -1.0327 -1.6598  0.6034
 2287SOL     OW18322   3.984   2.215  10.180 -0.3262 -0.0567 -0.5917
 2287SOL    HW118323   3.936   2.142  10.142 -1.3925  0.1330  0.4043
 2287SOL    HW218324   3.988   2.201  10.275 -0.7855 -1.4888 -0.7847
 2288SOL     OW18325   0.671   0.112   8.436 -0.3483 -0.7184  0.7084
 2288SOL    HW118326   0.748   0.077   8.391 -2.1106 -1.5927 -1.6079
 2288SOL    HW218327   0.672   0.038   8.497  0.9476 -2.0894 -1.0009
 2289SOL     OW18328   2.882   4.358   9.588 -0.1504  0.2812 -0.2918
 2289SOL    HW118329   2.847   4.410   9.516 -1.6371  1.0601  0.9963
 2289SOL    HW218330   2.965   4.400   9.608 -1.2574  1.8619  1.0153
 2290SOL     OW18331   3.530   2.483   4.956 -0.0788  0.5809  0.4239
 2290SOL    HW118332   3.517   2.576   4.975  0.5537  0.1584  2.8186
 2290SOL    HW218333   3.472   2.469   4.880  0.5797  0.3620 -0.0389
 2291SOL     OW18334   0.414   0.335  10.569 -0.0360 -0.2347  0.0329
 2291SOL    HW118335   0.492   0.384  10.596  0.5353 -0.4601 -1.1663
 2291SOL    HW218336   0.400   0.283  10.648  2.7164  0.3888  0.9525
 2292SOL     OW18337   2.394   1.949   3.405 -0.3346 -0.3071  0.5027
 2292SOL    HW118338   2.309   1.906   3.396 -0.0462 -1.2991  2.5581
 2292SOL    HW218339   2.443   1.868   3.410  0.9459  0.4267 -0.1131
 2293SOL     OW18340   1.843   1.070  12.873 -0.4208  0.2001  0.3419
 2293SOL    HW118341   1.877   1.126  12.943  2.8932 -1.2900 -0.0389
 2293SOL    HW218342   1.810   1.008  12.938  1.1403 -1.2450 -0.2271
 2294SOL     OW18343   3.660   4.509   0.297  0.0342  0.1391  0.2583
 2294SOL    HW118344   3.580   4.542   0.337 -0.4987 -2.5956  1.4538
 2294SOL    HW218345   3.719   4.547   0.363  0.1643 -0.2328  0.3551
 2295SOL     OW18346   0.582   0.180   6.895 -0.3294 -0.1152 -0.2440
 2295SOL    HW118347   0.657   0.152   6.948  1.1542  0.3419 -2.0831
 2295SOL    HW218348   0.627   0.218   6.819  1.7650  0.1246  1.1276
 2296SOL     OW18349   4.634   4.234  10.919  0.1599 -0.6239 -0.4403
 2296SOL    HW118350   4.707   4.177  10.943 -0.7879 -1.2539  0.9433
 2296SOL    HW218351   4.684   4.310  10.889  1.4920 -0.1924  2.8639
 2297SOL     OW18352   0.849   0.763   8.038  0.6417  0.3950  0.0307
 2297SOL    HW118353   0.832   0.828   7.970  0.6812  0.3287 -0.0420
 2297SOL    HW218354   0.874   0.822   8.109  2.8174  0.7011 -0.9827
 2298SOL     OW18355   0.674   0.740   4.020  0.0633  0.3512 -0.0982
 2298SOL    HW118356   0.767   0.752   4.043 -0.5835  0.1883  2.5516
 2298SOL    HW218357   0.638   0.820   4.059  0.8357  0.5466  0.2163
 2299SOL     OW18358   2.954   0.897   3.408  0.0041 -0.0903 -0.2836
 2299SOL    HW118359   2.890   0.828   3.425  0.4650 -0.3632  0.3521
 2299SOL    HW218360   2.897   0.971   3.426  0.9139  0.3974  0.5890
 2300SOL     OW18361   3.870   2.210   5.407  0.1208  0.3260 -0.2144
 2300SOL    HW118362   3.782   2.183   5.433 -0.5653  1.7959 -1.0554
 2300SOL    HW218363   3.900   2.148   5.340  1.5756  0.5765  0.1897
 2301SOL     OW18364   1.203   2.856   5.097 -0.5211  0.2974  0.4451
 2301SOL    HW118365   1.194   2.907   5.178 -3.0842  0.1738  0.2197
 2301SOL    HW218366   1.188   2.928   5.036 -1.2499  0.3805  0.7285
 2302SOL     OW18367   2.511   4.459   6.550  0.0661 -0.0125 -0.3004
 2302SOL    HW118368   2.536   4.376   6.511 -3.1736 -1.1930  0.1478
 2302SOL    HW218369   2.517   4.517   6.473 -1.6846 -0.4057 -0.7365
 2303SOL     OW18370   0.151   3.456   9.178 -0.8482 -0.1063  0.1044
 2303SOL    HW118371   0.236   3.500   9.178 -1.6456  1.4281  1.6092
 2303SOL    HW218372   0.103   3.536   9.157  2.0846  1.4917 -0.5020
 2304SOL     OW18373   2.425   4.100   8.874  0.3983  0.2665  0.0604
 2304SOL    HW118374   2.420   4.044   8.797  1.2527  0.4559 -0.1370
 2304SOL    HW218375   2.378   4.046   8.938 -0.2229 -0.1310 -0.7313
 2305SOL     OW18376   3.415   3.764   9.569 -0.7345  0.0524  0.0939
 2305SOL    HW118377   3.505   3.731   9.563 -0.0527  1.5457  1.9588
 2305SOL    HW218378   3.439   3.835   9.629  0.4266 -1.0925  0.9866
 2306SOL     OW18379   1.950   2.074   5.917  0.2776 -0.4243 -0.5898
 2306SOL    HW118380   1.971   2.068   5.824 -1.6928  2.7248 -1.2495
 2306SOL    HW218381   1.911   2.162   5.921 -0.3908 -0.6929 -1.1802
 2307SOL     OW18382   2.603   1.176   8.899  0.0433 -0.1522  0.6372
 2307SOL    HW118383   2.622   1.246   8.961 -1.0567 -0.8085  1.7338
 2307SOL    HW218384   2.680   1.177   8.842  0.6894 -2.3417  1.4796
 2308SOL     OW18385   3.357   2.517  15.542  0.8789  0.6299 -0.0112
 2308SOL    HW118386   3.413   2.484  15.471  0.1990  1.1725 -0.7905
 2308SOL    HW218387   3.379   2.467  15.621 -1.2557 -0.0627  0.1453
 2309SOL     OW18388   4.347   3.462   2.563  0.3820 -0.0608  0.0169
 2309SOL    HW118389   4.290   3.385   2.560  1.9866 -1.2806  1.1025
 2309SOL    HW218390   4.405   3.445   2.489  0.7910  0.4240  0.2244
 2310SOL     OW18391   4.127   4.017  11.145  0.1861  0.0274  0.2745
 2310SOL    HW118392   4.117   4.093  11.202 -1.1310  1.7534 -2.2902
 2310SOL    HW218393   4.219   3.991  11.147 -0.0221 -0.5629  2.0874
 2311SOL     OW18394   2.325   1.650   6.376 -0.0767 -0.7341  0.5229
 2311SOL    HW118395   2.383   1.654   6.300 -0.0963  1.7675  0.6611
 2311SOL    HW218396   2.383   1.696   6.437 -1.2758  1.1419  0.2494
 2312SOL     OW18397   0.711   3.471  17.117  0.4402 -0.2074  0.0699
 2312SOL    HW118398   0.692   3.398  17.058 -0.6135 -1.6588  2.2099
 2312SOL    HW218399   0.782   3.436  17.170  0.8882  1.1067  0.3474
 2313SOL     OW18400   4.616   3.049   1.587 -0.2228 -0.1162 -0.2454
 2313SOL    HW118401   4.696   3.017   1.629  1.5332  1.4167 -2.4291
 2313SOL    HW218402   4.552   3.016   1.650  0.6799  0.8187  1.1680
 2314SOL     OW18403   3.682   2.209   6.507  0.0206 -0.0878 -0.2558
 2314SOL    HW118404   3.748   2.180   6.444  1.2968 -0.3824  1.1976
 2314SOL    HW218405   3.735   2.279   6.546 -0.0309  0.0581 -0.4492
 2315SOL     OW18406   3.778   1.244   7.950 -0.2788  0.0848  0.9024
 2315SOL    HW118407   3.816   1.173   7.900 -1.1902  0.8246 -0.8429
 2315SOL    HW218408   3.848   1.309   7.950  1.2193 -1.5567 -1.0159
 2316SOL     OW18409   0.979   0.102   4.239  0.1196 -0.3413  0.0327
 2316SOL    HW118410   0.897   0.145   4.265 -0.1644 -0.7904 -0.1166
 2316SOL    HW218411   0.987   0.132   4.148 -0.5335 -1.5156 -0.4156
 2317SOL     OW18412   0.521   0.124   3.838  0.1347  0.4536 -0.0992
 2317SOL    HW118413   0.519   0.220   3.839 -2.5505  0.4013  0.8133
 2317SOL    HW218414   0.588   0.100   3.902 -0.0978 -0.4139 -0.1840
 2318SOL     OW18415   4.266   0.639   9.984  0.0009 -0.1164  0.1330
 2318SOL    HW118416   4.233   0.574  10.046 -0.8212 -0.0924 -0.2821
 2318SOL    HW218417   4.344   0.675  10.026  0.5561  0.1660 -1.1371
 2319SOL     OW18418   2.129   0.092   2.275  0.3567 -0.5781 -0.1671
 2319SOL    HW118419   2.084   0.144   2.208  0.8650  0.3319  0.1876
 2319SOL    HW218420   2.068   0.019   2.279 -0.0898 -0.2298 -0.4907
 2320SOL     OW18421   4.437   4.167  17.108 -0.1542 -0.1123 -0.1185
 2320SOL    HW118422   4.440   4.073  17.095 -1.4252  0.3710 -3.7026
 2320SOL    HW218423   4.366   4.168  17.172 -0.7254 -0.9387 -0.7480
 2321SOL     OW18424   4.470   1.754   2.568 -0.1278 -0.1007 -0.2830
 2321SOL    HW118425   4.422   1.831   2.538 -2.4801 -1.2131  0.6548
 2321SOL    HW218426   4.431   1.690   2.509  1.5405  0.3073 -1.8250
 2322SOL     OW18427   3.456   0.167  12.516  0.7575  0.1889 -0.4333
 2322SOL    HW118428   3.530   0.136  12.569 -0.0205  1.1669  1.2279
 2322SOL    HW218429   3.425   0.086  12.476  0.3632  0.9309 -1.6232
 2323SOL     OW18430   0.916   1.837  16.545 -0.2537  0.5603  0.4428
 2323SOL    HW118431   0.871   1.850  16.461 -0.0595 -0.0951  0.2375
 2323SOL    HW218432   0.839   1.819  16.599 -0.7206 -1.3254 -0.8572
 2324SOL     OW18433   4.254   3.187   2.562  0.0682 -0.6059  0.1180
 2324SOL    HW118434   4.324   3.158   2.504  0.8652  1.6053 -0.0363
 2324SOL    HW218435   4.186   3.120   2.550  0.3173 -1.1210  1.5871
 2325SOL     OW18436   4.234   2.625   8.381 -0.4376  0.2340  0.0358
 2325SOL    HW118437   4.169   2.601   8.447 -0.7380  1.2892  0.1143
 2325SOL    HW218438   4.184   2.614   8.301  2.1453  0.8430 -1.6589
 2326SOL     OW18439   0.045   3.087   0.870  0.0833 -0.0448  0.1994
 2326SOL    HW118440   4.694   3.143   0.894 -0.0321 -1.0037  2.1126
 2326SOL    HW218441   0.106   3.097   0.943 -0.0912  0.2449  0.3047
 2327SOL     OW18442   1.211   3.578   8.887 -0.7774 -0.0278 -0.3064
 2327SOL    HW118443   1.197   3.573   8.792  1.8357  0.2459 -0.6865
 2327SOL    HW218444   1.155   3.509   8.922 -2.2801  0.8084 -1.0402
 2328SOL     OW18445   2.504   4.626  16.944 -0.2840  0.1295  0.2367
 2328SOL    HW118446   2.508   4.564  17.016 -0.6874 -0.8948 -0.6346
 2328SOL    HW218447   2.413   4.622  16.913  0.4201 -1.5171 -1.5894
 2329SOL     OW18448   2.943   3.663  11.904 -0.0394  0.4813  0.0117
 2329SOL    HW118449   2.978   3.662  11.815  0.4672  2.3708  0.1749
 2329SOL    HW218450   2.856   3.628  11.886 -0.1220  0.2360  0.8885
 2330SOL     OW18451   4.157   1.232   7.413 -0.2849 -0.4553 -0.1252
 2330SOL    HW118452   4.229   1.186   7.456 -0.7950  0.3864  1.6193
 2330SOL    HW218453   4.115   1.157   7.372  1.2564  0.4038 -3.2404
 2331SOL     OW18454   2.883   0.260   2.770 -0.1240  1.0684  0.1245
 2331SOL    HW118455   2.809   0.217   2.814 -1.1552  1.3529 -1.3167
 2331SOL    HW218456   2.951   0.255   2.837  0.0259 -1.8210 -0.2480
 2332SOL     OW18457   3.955   0.127  13.664 -0.2182 -0.1201 -0.0605
 2332SOL    HW118458   4.009   0.132  13.586  0.5418  1.2222  0.5565
 2332SOL    HW218459   3.872   0.106  13.620  0.2190 -0.5785 -0.6635
 2333SOL     OW18460   1.300   4.099   7.269 -0.0734 -0.8588 -0.9112
 2333SOL    HW118461   1.254   4.020   7.295 -1.2935 -0.0776 -0.7132
 2333SOL    HW218462   1.231   4.164   7.256  0.3116 -0.8055 -2.7156
 2334SOL     OW18463   3.488   2.327   0.211  0.2701 -0.0662 -0.1789
 2334SOL    HW118464   3.518   2.324   0.302  0.3166  1.3146 -0.1496
 2334SOL    HW218465   3.562   2.292   0.161  2.0642  0.2688  2.2308
 2335SOL     OW18466   4.598   4.686   4.270 -0.5468 -0.3075  0.1748
 2335SOL    HW118467   4.564   0.043   4.312  0.3349  0.9145 -1.3864
 2335SOL    HW218468   4.590   4.627   4.345  2.2000 -1.6830 -0.6089
 2336SOL     OW18469   4.065   4.649   5.099  0.0018  0.8989 -0.6732
 2336SOL    HW118470   3.977   4.627   5.129  0.3226  0.6339  0.0712
 2336SOL    HW218471   4.093   4.559   5.081 -0.6096  1.0476 -2.3559
 2337SOL     OW18472   0.020   3.033   7.673  0.1543 -0.3619 -0.1846
 2337SOL    HW118473   4.715   3.103   7.613  0.5864  3.0735  3.6036
 2337SOL    HW218474   4.661   3.029   7.724  1.5753  0.0080  2.1361
 2338SOL     OW18475   1.878   4.602   9.147 -0.7761 -0.0936  0.5057
 2338SOL    HW118476   1.886   4.607   9.242  0.3553  1.0628  0.3515
 2338SOL    HW218477   1.955   4.557   9.112  0.2916  0.6659  1.8939
 2339SOL     OW18478   1.996   0.227  10.164  0.1652  0.0938  0.6756
 2339SOL    HW118479   1.962   0.279  10.090  0.3908 -0.4651  0.1745
 2339SOL    HW218480   2.060   0.286  10.203  0.5209  0.9161 -1.1570
 2340SOL     OW18481   2.137   3.930   5.691 -0.3096 -0.1730  0.5104
 2340SOL    HW118482   2.228   3.919   5.663 -0.8923 -0.0940 -1.4132
 2340SOL    HW218483   2.097   3.858   5.642  2.4360 -1.5801  0.3630
 2341SOL     OW18484   1.462   1.501   5.714 -0.6427  0.1253 -0.4104
 2341SOL    HW118485   1.555   1.524   5.712 -0.3392 -1.0042  0.4450
 2341SOL    HW218486   1.484   1.408   5.721 -1.2597  0.0917  1.0347
 2342SOL     OW18487   0.262   3.648  11.775  0.0361 -0.5073 -0.5167
 2342SOL    HW118488   0.326   3.591  11.732  1.2889 -0.6592  1.5297
 2342SOL    HW218489   0.321   3.714  11.811  0.2795 -0.7967 -0.3870
 2343SOL     OW18490   2.952   4.369   4.948  0.2809  0.3597  0.2828
 2343SOL    HW118491   2.876   4.427   4.954  0.2371  0.0948  2.4453
 2343SOL    HW218492   2.955   4.332   5.037 -1.3404 -0.2997  0.0709
 2344SOL     OW18493   1.702   3.239   4.337 -0.0150  0.4190  0.2307
 2344SOL    HW118494   1.617   3.194   4.331  1.1342 -1.7994  0.4913
 2344SOL    HW218495   1.748   3.180   4.278  0.6715 -0.7889  1.9596
 2345SOL     OW18496   0.586   3.637  17.318  0.0610 -0.0174  0.3096
 2345SOL    HW118497   0.628   3.558  17.284  0.3674  0.7709 -1.1280
 2345SOL    HW218498   0.511   3.642  17.259 -0.3350 -1.1332  0.7188
 2346SOL     OW18499   4.578   2.544   6.831 -0.1029  0.5570 -1.2557
 2346SOL    HW118500   4.542   2.625   6.868  1.5474  0.7621 -0.0888
 2346SOL    HW218501   4.647   2.526   6.895 -1.1710  1.7391  0.2188
 2347SOL     OW18502   0.685   3.251  12.654  0.3326 -0.2290 -0.0516
 2347SOL    HW118503   0.730   3.328  12.620 -0.4445  1.1773  2.0656
 2347SOL    HW218504   0.739   3.221  12.727  0.7354  0.2888 -0.1336
 2348SOL     OW18505   3.089   2.968   2.317 -0.1465  0.0602 -0.3716
 2348SOL    HW118506   3.087   3.062   2.304  1.1865  0.2004  0.5085
 2348SOL    HW218507   3.052   2.952   2.404  1.2807 -1.3719 -0.0255
 2349SOL     OW18508   4.051   4.248  10.378 -0.4648  0.5950  0.4938
 2349SOL    HW118509   3.968   4.281  10.413 -0.7092  0.2812  0.2156
 2349SOL    HW218510   4.014   4.212  10.297  2.1936 -0.4163 -0.2728
 2350SOL     OW18511   2.118   3.337   6.100 -0.7982 -0.3418  0.7387
 2350SOL    HW118512   2.031   3.298   6.108 -1.1281  0.0895 -0.6372
 2350SOL    HW218513   2.124   3.372   6.011 -1.0660 -2.4073 -0.0978
 2351SOL     OW18514   1.267   4.419   7.295  0.1476 -0.6227 -0.2582
 2351SOL    HW118515   1.351   4.465   7.288  2.1135 -4.1506  0.1292
 2351SOL    HW218516   1.268   4.396   7.388 -2.3560  0.9611  0.1501
 2352SOL     OW18517   2.488   0.847   6.293 -0.1733  0.2145  0.3134
 2352SOL    HW118518   2.571   0.842   6.341 -1.1807 -1.8431  1.8702
 2352SOL    HW218519   2.434   0.794   6.353 -2.0725  2.9231  1.0280
 2353SOL     OW18520   1.163   1.249   2.472  0.1619  0.0581  0.4752
 2353SOL    HW118521   1.203   1.295   2.398 -0.9421 -0.5492 -0.5007
 2353SOL    HW218522   1.202   1.304   2.540 -1.2580 -1.9266  2.9172
 2354SOL     OW18523   4.150   2.634   3.179 -0.4913 -0.4818  0.0170
 2354SOL    HW118524   4.062   2.617   3.145 -0.1046 -0.3025 -1.0681
 2354SOL    HW218525   4.201   2.573   3.125  0.2667 -0.8408  1.1448
 2355SOL     OW18526   1.906   3.299   8.126  0.0519  0.2960 -0.1451
 2355SOL    HW118527   1.942   3.331   8.209 -0.4266 -1.3785  0.6996
 2355SOL    HW218528   1.931   3.207   8.127 -0.3142  0.1992  0.7049
 2356SOL     OW18529   0.277   0.751   6.464  0.2663  0.4292  0.2049
 2356SOL    HW118530   0.182   0.760   6.470  0.2750  1.0842 -0.6142
 2356SOL    HW218531   0.299   0.676   6.519 -2.4012 -0.1311  0.5080
 2357SOL     OW18532   2.166   3.294  11.000  0.2782  0.3214 -0.1492
 2357SOL    HW118533   2.085   3.247  11.022  0.8473 -0.5257  0.1321
 2357SOL    HW218534   2.206   3.231  10.941 -0.9433  1.2251 -1.9379
 2358SOL     OW18535   0.263   1.547   0.749 -0.2356  0.4568  0.2128
 2358SOL    HW118536   0.292   1.512   0.833 -2.9072  0.0095  0.9564
 2358SOL    HW218537   0.169   1.561   0.762 -0.4375 -0.2356 -0.4685
 2359SOL     OW18538   2.670   4.361   3.518 -0.3135 -0.3419 -0.1097
 2359SOL    HW118539   2.582   4.329   3.538 -1.6465  2.6802 -0.9978
 2359SOL    HW218540   2.661   4.367   3.423 -2.9341 -1.6816  0.0570
 2360SOL     OW18541   1.189   2.255  10.930  0.2963 -0.4430 -0.9956
 2360SOL    HW118542   1.240   2.253  10.849  1.0223  0.2568 -0.5534
 2360SOL    HW218543   1.251   2.231  10.998  0.6200  1.0052 -0.7905
 2361SOL     OW18544   1.564   1.522   9.503  0.0571  0.4099  0.0618
 2361SOL    HW118545   1.562   1.429   9.480  0.0035  0.1081  1.2797
 2361SOL    HW218546   1.659   1.527   9.509 -0.0501  1.0161  1.2444
 2362SOL     OW18547   0.335   2.625  15.831 -0.0923  0.0338 -0.0198
 2362SOL    HW118548   0.290   2.569  15.768  1.2111 -2.6015  1.3850
 2362SOL    HW218549   0.263   2.676  15.870 -0.4235 -0.9949  0.7008
 2363SOL     OW18550   3.769   3.036   1.152 -0.0317 -0.0031 -1.1845
 2363SOL    HW118551   3.834   2.966   1.143  2.1146  1.8214  0.3012
 2363SOL    HW218552   3.711   3.003   1.220  0.4841 -2.0494 -1.7407
 2364SOL     OW18553   1.558   0.376  11.749  0.1649 -0.1430  0.0556
 2364SOL    HW118554   1.637   0.425  11.726  0.9363 -1.9725 -1.1436
 2364SOL    HW218555   1.500   0.385  11.674 -0.5310 -1.2655  0.4724
 2365SOL     OW18556   3.417   4.624   1.911 -0.0532 -0.0425 -0.6090
 2365SOL    HW118557   3.466   4.612   1.993  0.1754 -0.6218 -0.8297
 2365SOL    HW218558   3.363   4.546   1.900 -0.0603  0.0212 -1.0181
 2366SOL     OW18559   4.450   4.544   8.536  0.5266  0.6213  0.2185
 2366SOL    HW118560   4.387   4.472   8.524  0.0289  1.3722 -1.7427
 2366SOL    HW218561   4.449   4.584   8.449  2.6165 -0.8384 -0.4950
 2367SOL     OW18562   1.010   4.544   4.731  0.7643  0.1130  0.1195
 2367SOL    HW118563   0.923   4.578   4.708 -0.4860 -2.1843  1.5025
 2367SOL    HW218564   1.017   4.455   4.699 -2.2918  0.4146 -1.4103
 2368SOL     OW18565   2.683   4.677  16.731  0.2636  0.2003  0.0312
 2368SOL    HW118566   2.630   4.695  16.808 -0.0224  2.7842 -0.7996
 2368SOL    HW218567   2.672   4.582  16.730 -1.3778  0.4032 -0.9940
 2369SOL     OW18568   3.701   1.629   3.034 -0.1134  0.3895 -0.3236
 2369SOL    HW118569   3.707   1.697   3.102 -0.6685 -2.1755  2.2645
 2369SOL    HW218570   3.608   1.606   3.031  0.1134 -0.6565  0.8704
 2370SOL     OW18571   1.320   4.118   1.905  0.2100 -0.0421 -0.2404
 2370SOL    HW118572   1.258   4.117   1.832  0.2761 -2.4826 -0.2764
 2370SOL    HW218573   1.265   4.157   1.973 -0.3407  1.9690 -1.8476
 2371SOL     OW18574   0.569   3.381   3.836  0.2910 -0.6329  0.1343
 2371SOL    HW118575   0.492   3.340   3.876 -0.5487 -0.4340 -1.2969
 2371SOL    HW218576   0.629   3.308   3.852 -1.1819 -1.5921  1.2439
 2372SOL     OW18577   0.108   2.370  17.587 -0.1486 -0.7091  0.3904
 2372SOL    HW118578   0.034   2.312  17.568 -0.5954 -0.0213  0.0483
 2372SOL    HW218579   0.158   2.327  17.656 -1.3006 -0.8664  1.1154
 2373SOL     OW18580   4.128   1.379  17.640 -0.5369 -0.1459  0.2311
 2373SOL    HW118581   4.125   1.465  17.683 -3.6632  0.3790 -1.0589
 2373SOL    HW218582   4.046   1.378  17.591 -0.5119  0.5761  0.1704
 2374SOL     OW18583   0.378   2.546   7.290 -0.5056  0.0034  0.0291
 2374SOL    HW118584   0.322   2.623   7.280  0.8561  0.8493 -1.1934
 2374SOL    HW218585   0.464   2.583   7.310 -0.7501  0.3843  0.3719
 2375SOL     OW18586   3.836   3.467   0.619  0.6190 -0.1729  0.4535
 2375SOL    HW118587   3.766   3.427   0.671 -0.0276  1.0884  0.5399
 2375SOL    HW218588   3.786   3.522   0.559  2.3546  0.3674 -0.4927
 2376SOL     OW18589   2.001   3.524   7.225  0.0271  0.0753  0.1020
 2376SOL    HW118590   2.015   3.461   7.296 -1.2063 -1.6307 -1.1457
 2376SOL    HW218591   1.942   3.475   7.168 -2.2657  3.1977 -0.1933
 2377SOL     OW18592   2.046   1.145   3.064 -0.6783 -0.3194 -0.4028
 2377SOL    HW118593   2.079   1.192   3.141 -0.5170  0.8617 -1.1987
 2377SOL    HW218594   2.106   1.188   3.003  0.2330  0.3967  1.0078
 2378SOL     OW18595   1.263   1.948  15.293 -0.0443 -0.8380  0.5058
 2378SOL    HW118596   1.356   1.959  15.312  0.1333  2.7209 -2.2808
 2378SOL    HW218597   1.244   2.015  15.227  4.2098 -1.9108 -1.8028
 2379SOL     OW18598   0.550   0.787   8.269  0.3322  0.1153 -0.0188
 2379SOL    HW118599   0.507   0.788   8.184 -0.0691  0.8780  0.1815
 2379SOL    HW218600   0.527   0.697   8.291 -0.3485  0.7769  2.0699
 2380SOL     OW18601   0.680   0.128   6.300  0.3151 -0.3052  0.5586
 2380SOL    HW118602   0.587   0.112   6.285 -0.2133 -0.1741  3.7263
 2380SOL    HW218603   0.693   0.184   6.223  1.1410 -2.4775 -0.8686
 2381SOL     OW18604   3.642   4.121   3.115 -0.0248  0.5017  0.2706
 2381SOL    HW118605   3.688   4.048   3.156 -1.1531  0.2561  1.1075
 2381SOL    HW218606   3.707   4.155   3.054 -0.6447  0.7938 -0.2348
 2382SOL     OW18607   3.142   2.361   9.595 -0.1959 -0.3673 -0.4623
 2382SOL    HW118608   3.155   2.385   9.504 -1.2920 -0.1043 -0.5564
 2382SOL    HW218609   3.056   2.399   9.617 -0.1421 -0.5032 -0.0173
 2383SOL     OW18610   0.836   2.983  15.980 -0.3061 -0.0870  0.0253
 2383SOL    HW118611   0.760   3.012  16.031 -1.0357 -0.8844 -0.6082
 2383SOL    HW218612   0.895   2.953  16.050  0.4503  1.1243 -0.0837
 2384SOL     OW18613   1.622   3.582   6.490 -0.4000  0.3620  0.6208
 2384SOL    HW118614   1.630   3.493   6.523  1.9653  0.1396 -0.5029
 2384SOL    HW218615   1.571   3.624   6.559 -2.2728  2.1782 -1.8367
 2385SOL     OW18616   1.363   0.169  11.519 -0.4228 -0.7407 -0.1270
 2385SOL    HW118617   1.320   0.135  11.598  1.4352  1.3509  1.7950
 2385SOL    HW218618   1.368   0.262  11.539 -0.4273 -0.4103 -1.6947
 2386SOL     OW18619   4.515   2.561  12.051 -0.0487  0.1572 -0.3259
 2386SOL    HW118620   4.549   2.612  11.978  2.2952  0.1205  0.7155
 2386SOL    HW218621   4.550   2.474  12.029  0.9884 -0.1006  2.2972
 2387SOL     OW18622   3.421   1.307  16.559  0.1801 -0.3485 -0.1343
 2387SOL    HW118623   3.397   1.392  16.595  2.6020 -0.7255  2.4134
 2387SOL    HW218624   3.503   1.323  16.511  0.4594 -1.4704 -0.0458
 2388SOL     OW18625   1.634   1.361   6.790 -0.3883 -0.2010 -0.4654
 2388SOL    HW118626   1.715   1.368   6.841 -1.2074 -0.5249  0.8841
 2388SOL    HW218627   1.591   1.445   6.810  0.6644  0.2337 -0.0200
 2389SOL     OW18628   4.104   2.776   6.188 -0.2705 -0.0106  0.3287
 2389SOL    HW118629   4.122   2.706   6.125  1.2779  0.3226  0.3828
 2389SOL    HW218630   4.044   2.735   6.250 -0.5357  0.2438  0.2335
 2390SOL     OW18631   4.719   3.022  12.537 -0.5098  0.0779  0.7855
 2390SOL    HW118632   4.719   2.929  12.556 -1.0908 -0.0849  0.0096
 2390SOL    HW218633   4.651   3.041  12.472  0.7517  0.1469 -0.5294
 2391SOL     OW18634   1.176   4.699   9.607 -0.2928 -0.0508  0.0995
 2391SOL    HW118635   1.240   4.641   9.648  0.6654  0.5850 -0.5007
 2391SOL    HW218636   1.238   0.045   9.583 -0.2404 -0.2341 -0.2774
 2392SOL     OW18637   2.622   3.084   7.640  0.4558 -0.8768  0.1219
 2392SOL    HW118638   2.534   3.049   7.659 -0.4255  1.0457 -0.4299
 2392SOL    HW218639   2.662   3.083   7.727  3.4693 -0.9802 -1.2638
 2393SOL     OW18640   2.752   4.317   5.674 -0.6498 -0.3962 -0.0140
 2393SOL    HW118641   2.784   4.227   5.669 -1.3403 -0.4812 -3.0674
 2393SOL    HW218642   2.822   4.353   5.728 -1.0446  1.6421 -0.8750
 2394SOL     OW18643   1.028   4.520   7.560  0.6082  0.7422  0.6162
 2394SOL    HW118644   0.992   4.447   7.509 -0.1755  0.4898  1.5325
 2394SOL    HW218645   1.087   4.468   7.613  0.1676  0.1431  0.5187
 2395SOL     OW18646   3.365   1.285  12.790  0.0374  0.7239  0.1888
 2395SOL    HW118647   3.372   1.196  12.757 -0.3590 -0.2385  2.6572
 2395SOL    HW218648   3.423   1.324  12.725 -0.7970  0.4303 -0.7343
 2396SOL     OW18649   1.817   4.356  16.776  0.0950 -0.0423 -0.5179
 2396SOL    HW118650   1.814   4.265  16.808  0.5260  0.1739  0.1536
 2396SOL    HW218651   1.727   4.382  16.794  0.0787 -1.7781  1.9826
 2397SOL     OW18652   3.336   1.279   6.521 -0.0102  0.2426 -0.0747
 2397SOL    HW118653   3.388   1.215   6.571 -1.3424 -1.2565 -0.5854
 2397SOL    HW218654   3.269   1.223   6.481 -0.3870  0.4920  0.2048
 2398SOL     OW18655   0.438   1.869   5.362 -0.2572 -0.3941  0.0430
 2398SOL    HW118656   0.418   1.877   5.456  0.1539  2.3140 -0.1025
 2398SOL    HW218657   0.471   1.780   5.349 -1.0577 -0.8531  1.1411
 2399SOL     OW18658   1.371   1.068   8.589  0.1530 -0.1831  0.0297
 2399SOL    HW118659   1.350   0.992   8.535  1.2835  0.5652 -1.4699
 2399SOL    HW218660   1.391   1.121   8.512  0.3692 -1.7748 -1.0222
 2400SOL     OW18661   3.606   1.123  14.355 -0.2223  0.1016  0.4250
 2400SOL    HW118662   3.661   1.177  14.412  2.5796 -2.1272 -0.1573
 2400SOL    HW218663   3.535   1.179  14.326 -0.8473 -0.0006  1.7342
 2401SOL     OW18664   2.176   2.833   2.943 -0.0503 -0.4059 -0.5038
 2401SOL    HW118665   2.171   2.910   2.886  1.0895  0.0112 -0.0457
 2401SOL    HW218666   2.089   2.821   2.981 -0.1018  0.2541 -0.4190
 2402SOL     OW18667   1.454   2.681  16.682  0.4115 -0.2107  0.1440
 2402SOL    HW118668   1.416   2.644  16.762  0.9732  0.8449  0.8927
 2402SOL    HW218669   1.540   2.641  16.672  2.0837  3.5098 -0.5039
 2403SOL     OW18670   3.576   2.011  10.156  0.2930 -0.5148  0.0033
 2403SOL    HW118671   3.495   2.050  10.189  0.7510  1.9024 -1.7408
 2403SOL    HW218672   3.542   1.921  10.154 -1.2828  0.0402  1.7826
 2404SOL     OW18673   4.226   4.501   9.153 -0.0464 -0.2252  0.3125
 2404SOL    HW118674   4.132   4.515   9.157 -0.0923 -0.6710  0.8822
 2404SOL    HW218675   4.234   4.435   9.223 -1.2220  0.5326  1.1626
 2405SOL     OW18676   2.642   4.294  11.299 -0.1547  0.1352 -0.3607
 2405SOL    HW118677   2.600   4.210  11.283 -1.5048  0.7078  0.1626
 2405SOL    HW218678   2.700   4.273  11.371  1.1519 -0.7231 -1.6704
 2406SOL     OW18679   4.325   1.030  10.039  0.1193 -0.3671  0.4058
 2406SOL    HW118680   4.301   1.006  10.128  0.6680  0.3971  0.7624
 2406SOL    HW218681   4.264   0.972   9.995 -1.3105  0.6221  1.0652
 2407SOL     OW18682   4.146   1.569  13.378  0.1201 -0.3610 -0.5359
 2407SOL    HW118683   4.083   1.570  13.306  0.3097 -1.4179 -0.7096
 2407SOL    HW218684   4.206   1.503  13.343  1.0533 -0.0537  0.5017
 2408SOL     OW18685   4.457   3.783  12.206  0.4627  0.3801  0.1387
 2408SOL    HW118686   4.382   3.724  12.207 -1.5200  2.8689  0.2594
 2408SOL    HW218687   4.478   3.785  12.113  0.3641 -0.6749  0.0961
 2409SOL     OW18688   1.098   0.997   7.396 -0.2998 -0.0862 -0.1506
 2409SOL    HW118689   1.108   0.927   7.332 -0.7851 -0.9049  0.6560
 2409SOL    HW218690   1.012   1.029   7.372  0.0428 -0.3529 -1.7088
 2410SOL     OW18691   0.558   1.435  14.782  0.1541 -0.1137  0.9488
 2410SOL    HW118692   0.500   1.360  14.794  2.2005 -1.5055  2.1138
 2410SOL    HW218693   0.541   1.484  14.862  3.6918  1.4547  0.7383
 2411SOL     OW18694   3.833   3.031  12.632  0.1391  0.8181  0.5718
 2411SOL    HW118695   3.755   3.026  12.687 -1.6969 -3.4252 -2.4664
 2411SOL    HW218696   3.902   3.001  12.691  0.5955  0.9830  0.1217
 2412SOL     OW18697   2.425   2.785  10.356  0.3668  0.4261  0.1741
 2412SOL    HW118698   2.338   2.763  10.324  0.4170  3.7253 -2.1572
 2412SOL    HW218699   2.414   2.797  10.450 -2.4232 -0.7740 -0.0064
 2413SOL     OW18700   0.223   2.048  15.960 -0.6202  0.0037  0.0089
 2413SOL    HW118701   0.251   2.094  16.040 -0.4815  1.0410 -0.6330
 2413SOL    HW218702   0.281   1.972  15.950 -0.5610 -0.2835  2.3871
 2414SOL     OW18703   2.853   1.273   6.927 -0.0354 -0.1044  0.0397
 2414SOL    HW118704   2.919   1.224   6.879  0.9799  2.0917 -0.8433
 2414SOL    HW218705   2.817   1.201   6.979 -1.4759  1.0775  0.6933
 2415SOL     OW18706   4.338   1.732  13.784  0.0340 -0.0731  0.0908
 2415SOL    HW118707   4.389   1.657  13.814 -0.7395 -0.5682  0.1783
 2415SOL    HW218708   4.303   1.753  13.870  1.4878  3.6350 -0.2321
 2416SOL     OW18709   1.785   0.775   5.642  0.4682  0.2840 -0.2969
 2416SOL    HW118710   1.709   0.766   5.699  1.3066 -0.8162  0.6494
 2416SOL    HW218711   1.847   0.825   5.695  0.0366  0.1678  0.3187
 2417SOL     OW18712   0.779   1.909   6.472  0.5484  0.4599  0.7469
 2417SOL    HW118713   0.861   1.866   6.497 -0.6252 -2.5532 -0.6400
 2417SOL    HW218714   0.738   1.841   6.419 -2.3247  2.3140  0.5695
 2418SOL     OW18715   4.312   0.345   7.305 -0.0636  0.1616  0.1966
 2418SOL    HW118716   4.293   0.396   7.227 -1.9583 -0.6398  0.1252
 2418SOL    HW218717   4.260   0.265   7.297  0.6040 -0.0084 -2.5397
 2419SOL     OW18718   1.147   2.980  14.502  0.2927  0.6120  0.1968
 2419SOL    HW118719   1.078   2.965  14.439 -1.2055  1.9897  1.5141
 2419SOL    HW218720   1.151   2.891  14.538 -1.1825  0.7485  0.6987
 2420SOL     OW18721   2.165   4.607   6.375  0.0868 -0.1220 -0.2786
 2420SOL    HW118722   2.205   4.693   6.358  0.4752 -0.4188 -0.8564
 2420SOL    HW218723   2.160   4.569   6.287 -1.9848  0.0498 -0.2306
 2421SOL     OW18724   3.620   0.610   9.828 -0.4752  0.7328 -0.6663
 2421SOL    HW118725   3.608   0.577   9.918  0.1515  0.0660 -0.8306
 2421SOL    HW218726   3.712   0.591   9.811 -0.9147 -0.9036 -1.1640
 2422SOL     OW18727   4.409   1.144  13.129  0.2837  0.1242 -0.1857
 2422SOL    HW118728   4.338   1.079  13.124  0.9242 -0.5923 -0.0281
 2422SOL    HW218729   4.472   1.103  13.069  1.2787  1.3552  0.0256
 2423SOL     OW18730   0.603   2.009  12.109  0.0734  0.5063 -0.3825
 2423SOL    HW118731   0.683   2.058  12.127  0.5291  0.1254 -1.3532
 2423SOL    HW218732   0.552   2.040  12.184  1.7019  1.9732  0.1181
 2424SOL     OW18733   3.388   0.656  10.424  0.0001 -0.0162 -0.4316
 2424SOL    HW118734   3.483   0.665  10.427  0.1797 -1.9581 -0.4333
 2424SOL    HW218735   3.368   0.729  10.483  2.8840  1.0779 -0.7934
 2425SOL     OW18736   2.465   4.475   7.940  0.2187  0.1628 -0.6101
 2425SOL    HW118737   2.453   4.382   7.956  1.0266 -0.0417 -1.1439
 2425SOL    HW218738   2.392   4.506   7.993  0.2211  1.0055 -1.1020
 2426SOL     OW18739   4.345   1.464   7.432 -0.4942 -0.6791  0.1565
 2426SOL    HW118740   4.283   1.397   7.402 -1.0352  0.1331 -0.5360
 2426SOL    HW218741   4.432   1.448   7.394 -0.0090  0.1411  0.9006
 2427SOL     OW18742   3.560   3.631   5.407  0.1658  0.0987 -0.3375
 2427SOL    HW118743   3.500   3.561   5.432  0.0065  0.2871 -0.1928
 2427SOL    HW218744   3.511   3.694   5.355  0.5241  0.1303 -0.6395
 2428SOL     OW18745   2.930   4.459   8.603  0.3636  0.4146  0.7773
 2428SOL    HW118746   2.924   4.450   8.698 -2.6116 -0.4167  0.5408
 2428SOL    HW218747   2.877   4.533   8.574 -0.1938 -0.0709  0.5439
 2429SOL     OW18748   3.280   2.583   3.649 -0.7311  0.4328  0.3681
 2429SOL    HW118749   3.261   2.494   3.621  0.2117  0.2212  0.4202
 2429SOL    HW218750   3.336   2.613   3.578 -0.8562 -0.8065 -0.2518
 2430SOL     OW18751   0.724   3.261   5.270 -0.2279 -0.0094  0.2870
 2430SOL    HW118752   0.660   3.207   5.317 -0.8088  0.5305  0.1046
 2430SOL    HW218753   0.784   3.192   5.240 -1.3298 -1.1739  0.7533
 2431SOL     OW18754   2.385   3.784   5.935  0.4838  0.2755 -0.0392
 2431SOL    HW118755   2.340   3.701   5.918 -2.0026  1.6223  0.0003
 2431SOL    HW218756   2.408   3.762   6.026 -1.4079  3.4243  1.2048
 2432SOL     OW18757   3.805   1.811  10.372 -0.2222 -0.0814 -0.1004
 2432SOL    HW118758   3.782   1.889  10.422 -2.3549 -1.5055  1.1406
 2432SOL    HW218759   3.832   1.756  10.446 -0.7946 -3.0562 -2.0642
 2433SOL     OW18760   2.369   3.990   1.391 -0.4369  0.0580 -0.5791
 2433SOL    HW118761   2.384   3.939   1.470  0.3491  0.1489 -0.6685
 2433SOL    HW218762   2.431   3.949   1.331  1.1588  2.1565 -0.3688
 2434SOL     OW18763   1.697   3.692  14.882 -0.2510  0.4918 -0.5129
 2434SOL    HW118764   1.693   3.711  14.976  1.9643  0.0200 -0.3265
 2434SOL    HW218765   1.614   3.646  14.866 -0.2171  1.1286 -2.4793
 2435SOL     OW18766   0.770   0.109   4.907 -0.2205  0.2650 -1.0288
 2435SOL    HW118767   0.757   0.028   4.858 -1.0848 -1.0088  1.3252
 2435SOL    HW218768   0.677   0.128   4.908 -0.9153 -3.1690 -1.0722
 2436SOL     OW18769   2.482   2.663   6.173 -0.6360  0.5791  0.4649
 2436SOL    HW118770   2.523   2.745   6.145  3.0520 -1.8512 -1.2241
 2436SOL    HW218771   2.550   2.596   6.164 -2.8417 -1.6009 -0.0159
 2437SOL     OW18772   2.491   2.210  13.852  0.1303  0.3316  0.0493
 2437SOL    HW118773   2.459   2.217  13.762  1.6655 -0.5822 -0.5679
 2437SOL    HW218774   2.485   2.301  13.881 -3.0377 -0.1122  0.7837
 2438SOL     OW18775   3.304   1.136   4.374  0.0007 -0.6577 -0.0585
 2438SOL    HW118776   3.243   1.063   4.365 -0.5886 -0.4052  1.9230
 2438SOL    HW218777   3.334   1.148   4.283  0.3121 -0.1302  0.1088
 2439SOL     OW18778   3.362   1.226   0.891  0.0444  0.0610  0.0292
 2439SOL    HW118779   3.301   1.215   0.964  0.8013  0.3145  0.7029
 2439SOL    HW218780   3.437   1.265   0.936  0.9924  0.4521 -1.8674
 2440SOL     OW18781   0.523   0.118   5.499 -0.0438  0.1182 -0.2356
 2440SOL    HW118782   0.471   0.170   5.438 -0.0869 -0.6769 -0.8783
 2440SOL    HW218783   0.558   0.042   5.453 -0.6583 -0.8848  0.9304
 2441SOL     OW18784   0.332   4.047  14.646 -0.1354  0.4183  0.2754
 2441SOL    HW118785   0.344   3.980  14.578 -0.5991  0.7649 -0.1454
 2441SOL    HW218786   0.378   4.124  14.612  1.5013 -0.9792 -0.7093
 2442SOL     OW18787   0.573   3.310   0.419  0.1265  0.4488 -0.2154
 2442SOL    HW118788   0.631   3.300   0.495  0.8641 -0.7163 -0.9354
 2442SOL    HW218789   0.498   3.257   0.447  0.5006 -0.4476 -0.9138
 2443SOL     OW18790   3.399   4.407   5.781 -0.6253  0.1239 -0.0510
 2443SOL    HW118791   3.364   4.321   5.803 -0.8372 -0.1312 -1.4116
 2443SOL    HW218792   3.401   4.421   5.687  0.1791 -0.4211 -0.1071
 2444SOL     OW18793   0.289   3.304   6.828  0.0801  0.2779  0.3145
 2444SOL    HW118794   0.215   3.304   6.889 -0.3831  1.2751 -0.2532
 2444SOL    HW218795   0.257   3.235   6.769 -1.6602  2.0597 -0.8330
 2445SOL     OW18796   2.299   3.537   5.000  0.1150 -0.0397  0.0451
 2445SOL    HW118797   2.316   3.608   5.062 -2.9197  0.3732  0.3695
 2445SOL    HW218798   2.380   3.535   4.950  0.7948  2.3429  1.0316
 2446SOL     OW18799   2.486   2.260  12.421 -0.4077  0.6213 -0.2569
 2446SOL    HW118800   2.437   2.190  12.378 -0.2469  0.5807 -0.3745
 2446SOL    HW218801   2.579   2.244  12.403 -0.0525  2.6804 -0.2907
 2447SOL     OW18802   0.942   2.272   6.681 -1.0948 -0.6258  0.4305
 2447SOL    HW118803   0.974   2.339   6.620 -1.1167 -1.2606 -0.2685
 2447SOL    HW218804   1.018   2.252   6.736  0.2507 -0.1571 -1.2333
 2448SOL     OW18805   3.076   1.977   1.466 -0.0494  0.2473 -0.0074
 2448SOL    HW118806   3.109   2.053   1.515  0.3580  0.4052 -0.5223
 2448SOL    HW218807   2.981   1.987   1.476 -0.2789  0.8423 -2.7317
 2449SOL     OW18808   2.643   0.441   5.698 -0.2464 -0.4529 -0.1907
 2449SOL    HW118809   2.720   0.495   5.711 -0.0274 -0.4755 -1.4003
 2449SOL    HW218810   2.598   0.494   5.632  1.4152  1.3332  0.1337
 2450SOL     OW18811   1.717   2.704   3.421  0.4287  0.2984  0.5284
 2450SOL    HW118812   1.651   2.720   3.352  1.3964 -0.4029 -0.5617
 2450SOL    HW218813   1.751   2.626   3.378 -1.6130  0.2644 -1.0345
 2451SOL     OW18814   0.111   1.542  12.401 -0.0177  0.3981 -0.5168
 2451SOL    HW118815   0.147   1.525  12.314 -0.3857  1.0807 -0.8049
 2451SOL    HW218816   0.029   1.493  12.390  0.8735 -1.0192 -0.8026
 2452SOL     OW18817   1.610   1.954   0.415 -0.0596  0.5187  1.0340
 2452SOL    HW118818   1.640   1.911   0.495  0.8177 -0.4357  0.1924
 2452SOL    HW218819   1.517   1.953   0.434 -0.2640 -0.2234 -0.0325
 2453SOL     OW18820   4.141   1.578   5.076  0.5849 -0.0807  0.2149
 2453SOL    HW118821   4.215   1.562   5.018  1.4399 -1.3328  1.6519
 2453SOL    HW218822   4.076   1.510   5.059 -0.1681  0.3742  1.2980
 2454SOL     OW18823   2.832   3.673   8.918  0.1991 -0.4637 -0.6443
 2454SOL    HW118824   2.914   3.628   8.898  1.0010  1.3606 -1.5389
 2454SOL    HW218825   2.790   3.615   8.980  1.2053  1.0598  1.4824
 2455SOL     OW18826   2.488   3.204   1.915 -0.0486 -0.1337 -0.7406
 2455SOL    HW118827   2.454   3.286   1.880  0.3625 -0.2367 -1.3788
 2455SOL    HW218828   2.497   3.233   2.006 -1.6791 -0.5558 -0.4474
 2456SOL     OW18829   3.614   4.142  11.958 -0.3977  0.1164  0.0926
 2456SOL    HW118830   3.577   4.219  11.915 -1.5501 -0.9885 -0.9007
 2456SOL    HW218831   3.652   4.110  11.876 -0.1701 -0.1802  0.3114
 2457SOL     OW18832   1.841   3.534   3.795  0.1579 -0.6165 -0.0336
 2457SOL    HW118833   1.888   3.513   3.714 -2.0180 -1.2329 -1.1459
 2457SOL    HW218834   1.907   3.589   3.837 -1.8125  1.6572  0.1385
 2458SOL     OW18835   3.349   1.190   8.054 -0.3370 -0.1198 -0.2260
 2458SOL    HW118836   3.407   1.260   8.083 -0.5010 -0.1408  0.1494
 2458SOL    HW218837   3.407   1.133   8.003 -2.1451 -2.9202  0.8282
 2459SOL     OW18838   0.950   0.968  13.805  0.3612  0.3051  0.2309
 2459SOL    HW118839   1.044   0.968  13.821  0.4527  0.4041 -0.2864
 2459SOL    HW218840   0.916   0.977  13.893  0.0374 -0.0040  0.1387
 2460SOL     OW18841   0.625   2.471  15.241 -0.3072 -0.3801  0.0712
 2460SOL    HW118842   0.714   2.505  15.234 -0.7875  0.7245 -0.6852
 2460SOL    HW218843   0.632   2.381  15.273 -1.0392 -0.8358 -1.0562
 2461SOL     OW18844   0.305   0.433   6.261 -0.3357 -0.4335  0.6998
 2461SOL    HW118845   0.400   0.448   6.263 -0.3647 -0.5088  2.6161
 2461SOL    HW218846   0.305   0.345   6.224  0.6401  0.2401 -0.8995
 2462SOL     OW18847   3.642   1.565   6.075  0.3982  0.1725  0.4524
 2462SOL    HW118848   3.594   1.648   6.074 -0.1282 -0.1315  0.4389
 2462SOL    HW218849   3.573   1.511   6.114 -1.5804  1.5670 -1.0970
 2463SOL     OW18850   4.617   2.636   2.747  0.2723 -0.3248 -0.3006
 2463SOL    HW118851   4.579   2.721   2.766  1.3117 -0.0142  0.3465
 2463SOL    HW218852   4.708   2.661   2.735  0.1348  1.4010  2.1951
 2464SOL     OW18853   4.664   0.585  10.758 -0.1956 -0.4008 -0.5809
 2464SOL    HW118854   4.641   0.615  10.670  0.3549  1.4818 -0.0801
 2464SOL    HW218855   4.578   0.552  10.781  0.0714 -0.4359  0.3541
 2465SOL     OW18856   2.027   4.642   5.250  0.0921  0.3567  0.3444
 2465SOL    HW118857   1.970   4.573   5.217 -1.2283  0.6135  2.0774
 2465SOL    HW218858   2.111   4.629   5.206  1.3359  1.5216  2.3787
 2466SOL     OW18859   4.018   1.036   3.045  0.2197  0.3930  0.0914
 2466SOL    HW118860   4.019   1.060   3.137 -1.5017  0.8768 -0.0180
 2466SOL    HW218861   4.075   0.959   3.046 -0.4602 -0.1288 -0.5743
 2467SOL     OW18862   4.547   1.346   6.308 -0.3861 -0.0912 -0.7716
 2467SOL    HW118863   4.455   1.355   6.285 -0.6078  0.8700  0.4945
 2467SOL    HW218864   4.563   1.428   6.354  2.7053 -0.1418 -1.7282
 2468SOL     OW18865   0.757   3.079   0.168 -0.1318 -0.0263  0.3151
 2468SOL    HW118866   0.686   3.142   0.173  1.8746  2.5481 -3.2107
 2468SOL    HW218867   0.707   2.999   0.186 -0.8537 -0.0799 -1.9207
 2469SOL     OW18868   1.671   0.048   3.059  0.0521  0.1328 -0.2609
 2469SOL    HW118869   1.701   0.071   2.971  0.8541  1.7327  0.4453
 2469SOL    HW218870   1.649   0.135   3.093  0.0821  1.4153 -3.5486
 2470SOL     OW18871   4.367   0.976   8.060  0.0883  0.0636 -0.6544
 2470SOL    HW118872   4.345   0.886   8.081 -0.4881 -0.0095 -1.5618
 2470SOL    HW218873   4.279   1.014   8.063 -0.4568 -1.2110 -0.5992
 2471SOL     OW18874   3.276   1.845   4.102  0.3738  0.4072  0.5598
 2471SOL    HW118875   3.235   1.930   4.119 -0.4161  0.4097 -1.3341
 2471SOL    HW218876   3.367   1.868   4.084 -0.1256  0.8983 -1.3647
 2472SOL     OW18877   3.379   1.713   6.339 -0.2898 -0.1054  0.2531
 2472SOL    HW118878   3.345   1.799   6.364 -2.3283 -0.4603 -1.3466
 2472SOL    HW218879   3.429   1.733   6.260 -1.3510  0.3737 -0.2869
 2473SOL     OW18880   3.457   1.818   7.693 -0.8741 -0.0720  0.2321
 2473SOL    HW118881   3.552   1.824   7.700 -0.6850 -1.1619 -1.3211
 2473SOL    HW218882   3.434   1.797   7.783 -1.6523  0.4310  0.1507
 2474SOL     OW18883   2.782   4.268   0.089  0.1369  0.0284  0.4419
 2474SOL    HW118884   2.696   4.288   0.052  0.0037  0.4300  0.9727
 2474SOL    HW218885   2.755   4.219   0.166 -2.2679  1.6460  0.6362
 2475SOL     OW18886   2.833   2.186   4.883 -0.0219  0.7499 -0.5706
 2475SOL    HW118887   2.896   2.132   4.836  0.8073 -0.7276  2.3063
 2475SOL    HW218888   2.764   2.197   4.817 -0.6999 -1.2153 -0.1754
 2476SOL     OW18889   2.808   1.470   9.352 -0.1896  0.4282  0.7990
 2476SOL    HW118890   2.878   1.472   9.288 -0.7580  0.5187  0.1760
 2476SOL    HW218891   2.833   1.419   9.429  0.9283  0.0519  0.1868
 2477SOL     OW18892   3.119   3.891  15.375  0.0359 -0.0034 -0.1640
 2477SOL    HW118893   3.176   3.966  15.391  0.5790 -0.5073  0.2542
 2477SOL    HW218894   3.043   3.931  15.332 -1.6715 -1.7450  1.2159
 2478SOL     OW18895   1.499   2.145   1.621 -0.0014 -0.5110 -0.6028
 2478SOL    HW118896   1.420   2.163   1.569 -0.0158  0.9233 -0.0556
 2478SOL    HW218897   1.551   2.215   1.583  1.1811 -0.7690  0.5436
 2479SOL     OW18898   2.936   0.181  13.476  0.1495 -0.2023 -0.3721
 2479SOL    HW118899   2.853   0.228  13.479  0.1774 -0.1217 -0.9252
 2479SOL    HW218900   2.912   0.106  13.531  0.2406  0.5534  0.7013
 2480SOL     OW18901   1.183   0.264   7.516 -0.7329 -0.3330  0.7524
 2480SOL    HW118902   1.129   0.320   7.460 -0.5534 -1.9504 -1.0436
 2480SOL    HW218903   1.244   0.220   7.457 -1.3612  1.0420 -0.9313
 2481SOL     OW18904   3.103   4.232   9.440 -0.1428 -0.5306  0.4646
 2481SOL    HW118905   3.060   4.273   9.365  0.0886 -3.2232 -1.1414
 2481SOL    HW218906   3.033   4.208   9.501 -1.1139 -1.5675 -1.0605
 2482SOL     OW18907   2.186   3.084   2.496  0.4255 -0.0748 -0.0228
 2482SOL    HW118908   2.093   3.096   2.517 -0.0363 -0.0174 -2.1160
 2482SOL    HW218909   2.183   3.001   2.448  0.6501 -0.0527 -0.0726
 2483SOL     OW18910   4.465   1.063  10.770  0.5637  0.2449  0.4210
 2483SOL    HW118911   4.558   1.063  10.792  0.3906  3.6754  1.2291
 2483SOL    HW218912   4.447   1.157  10.770 -0.9245 -0.0405  0.2514
 2484SOL     OW18913   2.088   0.446   9.396  0.0470 -0.3251  0.6383
 2484SOL    HW118914   2.135   0.510   9.450  1.0003 -0.0032 -0.5688
 2484SOL    HW218915   2.069   0.387   9.469  2.8802 -0.8757  0.9240
 2485SOL     OW18916   4.199   4.528   4.668  0.0636  0.0791  0.0093
 2485SOL    HW118917   4.140   4.456   4.692  1.1317 -1.0480 -0.7428
 2485SOL    HW218918   4.223   4.502   4.579  0.0133  0.1772 -0.0331
 2486SOL     OW18919   3.876   3.786  16.480 -0.4150 -0.0263 -0.0585
 2486SOL    HW118920   3.910   3.842  16.410 -0.1773  2.2509  1.8628
 2486SOL    HW218921   3.782   3.783  16.459 -0.7735 -0.8464  1.6332
 2487SOL     OW18922   4.422   2.715   7.296 -0.4439  0.2383 -0.0398
 2487SOL    HW118923   4.406   2.800   7.337 -3.4412 -0.2074 -0.2636
 2487SOL    HW218924   4.340   2.671   7.318 -0.1472  0.0132  0.6166
 2488SOL     OW18925   0.909   2.134  16.330 -0.5410  0.3636 -0.6980
 2488SOL    HW118926   0.906   2.183  16.248  1.0833 -2.0430 -2.1850
 2488SOL    HW218927   0.836   2.175  16.377 -2.2365 -0.9024 -2.2097
 2489SOL     OW18928   3.864   0.844  14.396  0.2402 -0.3164  0.7542
 2489SOL    HW118929   3.894   0.815  14.310  0.0923  1.1393  0.1980
 2489SOL    HW218930   3.774   0.812  14.395 -0.6362  2.0917  1.7888
 2490SOL     OW18931   3.710   4.264  10.224  0.0093 -0.5447  0.3295
 2490SOL    HW118932   3.794   4.251  10.180 -0.3423  0.9075 -0.7541
 2490SOL    HW218933   3.713   4.198  10.293 -0.7600 -0.5997  0.3120
 2491SOL     OW18934   1.889   4.568   7.578  0.1004  0.1433  0.2543
 2491SOL    HW118935   1.946   4.572   7.501 -0.6020 -0.8189 -0.3134
 2491SOL    HW218936   1.933   4.633   7.633  1.2188 -0.3827  0.0017
 2492SOL     OW18937   3.105   2.763   5.074  0.3710  0.3710 -0.0253
 2492SOL    HW118938   3.048   2.727   5.142 -0.5207  2.0486  0.1311
 2492SOL    HW218939   3.041   2.830   5.048 -1.6088 -2.1137 -1.4814
 2493SOL     OW18940   1.039   0.756   2.129  0.0519 -0.9361 -0.2895
 2493SOL    HW118941   1.102   0.739   2.059  1.1167 -0.6800  0.6052
 2493SOL    HW218942   1.019   0.665   2.149 -1.8657 -0.5617 -0.4595
 2494SOL     OW18943   3.361   2.561  14.311  0.2231 -0.0538 -0.7706
 2494SOL    HW118944   3.286   2.530  14.362  2.2618  0.2465  2.3738
 2494SOL    HW218945   3.396   2.628  14.369  2.0664 -0.9122 -0.8781
 2495SOL     OW18946   3.561   4.674   7.713  0.1332  0.0408  0.1292
 2495SOL    HW118947   3.477   4.635   7.737  0.4676  0.1072  1.3873
 2495SOL    HW218948   3.541   0.017   7.645 -0.6938  0.0062  0.3337
 2496SOL     OW18949   1.114   1.035   8.360 -0.4532  0.1780 -0.1732
 2496SOL    HW118950   1.205   1.005   8.360 -1.0470 -1.6349 -2.9302
 2496SOL    HW218951   1.075   1.005   8.442  0.4154  3.9286  1.6472
 2497SOL     OW18952   4.442   3.686   7.696  0.0628  0.4045 -0.3754
 2497SOL    HW118953   4.495   3.627   7.750  0.4701 -1.3009 -2.6408
 2497SOL    HW218954   4.510   3.708   7.633  0.0077 -1.3400 -1.0436
 2498SOL     OW18955   2.187   2.735  10.237 -0.3429  0.0288  0.0134
 2498SOL    HW118956   2.199   2.762  10.146  1.3511  0.8951  0.4816
 2498SOL    HW218957   2.169   2.816  10.285 -0.6950  0.2569 -0.5100
 2499SOL     OW18958   4.406   1.232  11.012  0.0452  0.2513 -0.0739
 2499SOL    HW118959   4.421   1.317  10.971 -0.4298  0.0677 -0.6266
 2499SOL    HW218960   4.336   1.200  10.955 -1.4257  1.0847  1.2911
 2500SOL     OW18961   0.696   1.699   3.291  0.3576  0.2949 -0.9456
 2500SOL    HW118962   0.618   1.658   3.254  1.0008 -2.1335  0.4125
 2500SOL    HW218963   0.730   1.613   3.314  1.4962  0.9772 -0.1107
 2501SOL     OW18964   3.477   2.558   6.382  0.9807  0.5016  0.1981
 2501SOL    HW118965   3.462   2.551   6.288 -1.1392  1.2837  0.4702
 2501SOL    HW218966   3.478   2.468   6.415 -0.0447  0.8699  1.2364
 2502SOL     OW18967   3.578   0.941  10.496 -0.1063  1.1410  0.0281
 2502SOL    HW118968   3.497   0.931  10.547  1.2539 -2.2336  1.5029
 2502SOL    HW218969   3.637   0.882  10.543  1.4467  2.1226 -0.7155
 2503SOL     OW18970   4.225   0.642   6.762  0.1432 -0.0344 -0.0162
 2503SOL    HW118971   4.282   0.690   6.702  1.0675 -2.2997 -0.9339
 2503SOL    HW218972   4.214   0.711   6.828 -1.1786 -0.0459 -0.2259
 2504SOL     OW18973   2.750   4.326   4.426  0.4646  0.0798  0.3906
 2504SOL    HW118974   2.737   4.288   4.339 -0.3423  0.4134  0.3641
 2504SOL    HW218975   2.659   4.343   4.452  0.4605  0.8910 -0.1593
 2505SOL     OW18976   3.149   2.301   7.149 -0.0204  0.3028 -0.0300
 2505SOL    HW118977   3.177   2.232   7.088  0.0354  0.2479  0.0580
 2505SOL    HW218978   3.159   2.254   7.232  0.9614  0.4512 -0.0643
 2506SOL     OW18979   3.324   1.074  15.462 -1.0053  0.4039  0.2667
 2506SOL    HW118980   3.353   1.030  15.382 -0.3136  0.8931  0.2520
 2506SOL    HW218981   3.341   0.998  15.518  1.7355 -0.0160 -1.1134
 2507SOL     OW18982   2.467   1.855   6.184  0.0056  0.0306  0.7755
 2507SOL    HW118983   2.374   1.864   6.207  0.1397  0.0994  1.2717
 2507SOL    HW218984   2.462   1.800   6.105 -0.8698 -0.3608  1.1012
 2508SOL     OW18985   3.342   0.117   2.533 -0.7879 -0.7121 -0.3286
 2508SOL    HW118986   3.426   0.118   2.488 -0.2198 -0.3138  0.7382
 2508SOL    HW218987   3.351   0.037   2.584 -3.0921  0.2217  1.5572
 2509SOL     OW18988   4.166   3.494   6.382  0.4793 -0.1113  0.2066
 2509SOL    HW118989   4.261   3.499   6.391  0.7048 -1.3770 -1.4009
 2509SOL    HW218990   4.158   3.465   6.291 -0.7234  0.6650  0.0622
 2510SOL     OW18991   0.311   0.027  12.355  0.0519 -0.5070  0.3157
 2510SOL    HW118992   0.274   4.666  12.388  0.6483 -1.3734 -1.1667
 2510SOL    HW218993   0.256   0.084  12.409  2.0299  1.4140  0.3033
 2511SOL     OW18994   2.450   2.557  13.400 -0.1526 -0.1317  0.4931
 2511SOL    HW118995   2.526   2.515  13.441  1.2692  1.6422 -0.2904
 2511SOL    HW218996   2.415   2.599  13.479  0.3563  0.9032  0.1712
 2512SOL     OW18997   2.546   3.921   9.713 -0.7605 -0.0810 -0.1110
 2512SOL    HW118998   2.619   3.959   9.762 -0.2420 -1.9052  0.5068
 2512SOL    HW218999   2.475   3.929   9.777 -1.4620 -3.6987 -0.4621
 2513SOL     OW19000   0.726   0.628   2.880  0.2833  0.2510 -0.2909
 2513SOL    HW119001   0.759   0.702   2.931 -1.6638  1.0672 -0.2192
 2513SOL    HW219002   0.661   0.669   2.824  0.0165  0.5964  0.2756
 2514SOL     OW19003   0.066   0.875   9.751  0.4068 -0.2359 -0.1985
 2514SOL    HW119004   0.033   0.963   9.768 -1.2116 -0.4685 -2.2400
 2514SOL    HW219005   0.035   0.835   9.832  0.7227 -0.0266  0.0290
 2515SOL     OW19006   0.791   0.027   4.469  0.2436  0.7183  0.7164
 2515SOL    HW119007   0.826   0.108   4.507 -1.6160  1.5015  0.7556
 2515SOL    HW219008   0.875   4.716   4.436  0.0568  1.5655 -0.6165
 2516SOL     OW19009   1.260   2.154   3.370  0.4065 -0.3183 -0.1829
 2516SOL    HW119010   1.286   2.063   3.379  1.9180 -0.1102 -2.3599
 2516SOL    HW219011   1.302   2.177   3.287  2.1792 -0.9159  0.5394
 2517SOL     OW19012   4.624   3.736   8.390  0.3313 -0.2246  0.0279
 2517SOL    HW119013   4.531   3.732   8.369  0.6611  1.8494 -1.8695
 2517SOL    HW219014   4.625   3.753   8.484  0.1541 -1.5001  0.2578
 2518SOL     OW19015   1.691   3.723   4.475  0.7179  0.1739 -0.0420
 2518SOL    HW119016   1.669   3.670   4.398 -2.9469 -2.0789  2.5918
 2518SOL    HW219017   1.785   3.703   4.475  0.3702 -1.3979  0.8472
 2519SOL     OW19018   3.911   0.862  13.037 -0.4166 -0.0876  0.2088
 2519SOL    HW119019   3.859   0.941  13.055  0.9891  0.7308  0.6335
 2519SOL    HW219020   3.927   0.873  12.943 -0.3284  2.6729  0.5487
 2520SOL     OW19021   1.153   3.656   1.197 -1.0208  0.1251 -0.0953
 2520SOL    HW119022   1.208   3.733   1.210 -0.8818 -0.0126  0.1102
 2520SOL    HW219023   1.178   3.638   1.106  1.2265  0.9347  0.3809
 2521SOL     OW19024   2.844   1.477  11.108  0.6310  0.4621 -0.2747
 2521SOL    HW119025   2.806   1.538  11.044  0.8411 -0.3493 -1.1769
 2521SOL    HW219026   2.865   1.535  11.181 -0.1650  2.8291 -1.9101
 2522SOL     OW19027   1.569   3.540   7.549 -0.2742 -0.5819 -0.2111
 2522SOL    HW119028   1.642   3.489   7.515  0.2488 -1.2430  1.9395
 2522SOL    HW219029   1.508   3.534   7.475 -0.4834  0.6534 -0.1414
 2523SOL     OW19030   4.715   0.612   0.049  0.7078 -0.8510  0.1959
 2523SOL    HW119031   4.698   0.522   0.022  0.4661  0.0888 -2.7619
 2523SOL    HW219032   0.003   0.607   0.144  2.2038 -0.6716  0.0503
 2524SOL     OW19033   1.761   2.722   6.070  0.0178  0.0443 -0.4398
 2524SOL    HW119034   1.713   2.778   6.130  1.0257  1.0365 -0.5509
 2524SOL    HW219035   1.846   2.722   6.113 -0.4006 -0.1139  0.3867
 2525SOL     OW19036   1.093   3.125   7.942 -0.0875 -0.2294  0.1037
 2525SOL    HW119037   1.185   3.134   7.965  0.3305 -0.3601 -1.4969
 2525SOL    HW219038   1.058   3.070   8.013 -1.2806  0.6517  0.1999
 2526SOL     OW19039   0.438   4.051   6.433  0.5540  0.0109  0.4935
 2526SOL    HW119040   0.342   4.052   6.429  0.6005 -0.0494 -0.6350
 2526SOL    HW219041   0.465   4.136   6.399 -0.1343 -0.2742 -0.7658
 2527SOL     OW19042   0.500   3.628  16.972 -0.4846 -0.8385 -0.2354
 2527SOL    HW119043   0.588   3.597  16.994 -0.9882 -3.2100 -1.4859
 2527SOL    HW219044   0.501   3.623  16.876 -1.1503  0.5546 -0.3215
 2528SOL     OW19045   1.405   1.584  12.721 -0.2953  0.7966 -0.5918
 2528SOL    HW119046   1.472   1.649  12.742 -1.0698  1.0526  1.1078
 2528SOL    HW219047   1.461   1.509  12.737  0.5089  1.1715 -1.6918
 2529SOL     OW19048   2.196   1.609   4.565  0.4961  0.1760 -0.0487
 2529SOL    HW119049   2.157   1.545   4.625  0.4614  0.0702 -0.1841
 2529SOL    HW219050   2.145   1.583   4.489  1.8002 -0.1190 -0.8279
 2530SOL     OW19051   1.044   2.022   0.624 -0.2269 -0.2676  0.2705
 2530SOL    HW119052   1.074   1.953   0.565  1.7370  2.8678 -2.4095
 2530SOL    HW219053   0.993   1.971   0.688  0.9740 -1.1334  0.5460
 2531SOL     OW19054   1.631   0.765   8.602 -0.4105 -0.4838  0.2311
 2531SOL    HW119055   1.722   0.770   8.572 -0.5619  1.3802  0.0973
 2531SOL    HW219056   1.584   0.742   8.521  1.0443  1.2720 -1.1290
 2532SOL     OW19057   4.248   2.122  13.467  0.5733  0.3531  0.4862
 2532SOL    HW119058   4.224   2.164  13.550 -1.6343  1.8558 -0.9402
 2532SOL    HW219059   4.274   2.034  13.494 -1.0504 -0.6170 -1.1631
 2533SOL     OW19060   3.545   0.559   3.894 -0.2282 -0.4381 -0.7131
 2533SOL    HW119061   3.528   0.498   3.965  1.5064 -0.2376 -0.1131
 2533SOL    HW219062   3.468   0.612   3.874 -0.2660  0.2421  1.2412
 2534SOL     OW19063   0.935   2.799   3.290  0.6392 -0.2636  0.8634
 2534SOL    HW119064   0.960   2.878   3.337 -0.6834  0.7664 -0.1547
 2534SOL    HW219065   0.879   2.755   3.354 -0.3776 -1.8701 -1.1282
 2535SOL     OW19066   0.819   2.240   5.966 -0.6887 -0.8279  0.3078
 2535SOL    HW119067   0.789   2.191   5.889  0.6377 -0.1636 -0.6241
 2535SOL    HW219068   0.891   2.190   6.005  2.1070  1.0158 -2.5649
 2536SOL     OW19069   0.756   1.793   9.655  0.3838 -0.4518 -0.3315
 2536SOL    HW119070   0.775   1.750   9.571  1.0660  1.1846 -1.0025
 2536SOL    HW219071   0.807   1.874   9.653 -1.1113  0.4822 -0.4078
 2537SOL     OW19072   1.685   4.601  14.535 -0.0586 -0.1258 -0.2449
 2537SOL    HW119073   1.651   4.646  14.458  0.7746 -0.2117 -0.6643
 2537SOL    HW219074   1.650   4.652  14.608  0.7881  1.0694 -0.6770
 2538SOL     OW19075   0.628   2.277  14.264 -0.5050 -0.1260 -0.1012
 2538SOL    HW119076   0.570   2.257  14.190  0.3321 -2.4185 -0.1233
 2538SOL    HW219077   0.638   2.371  14.248  0.1248  0.0559  1.3761
 2539SOL     OW19078   2.086   3.958   2.416 -0.2398 -0.0203 -0.0479
 2539SOL    HW119079   2.063   4.013   2.341 -1.0277  1.0456  0.9781
 2539SOL    HW219080   2.168   3.921   2.383 -0.6885  2.1483 -3.6562
 2540SOL     OW19081   1.114   2.943  15.940 -0.6504  0.4721 -1.0329
 2540SOL    HW119082   1.145   3.014  15.883  0.5140  0.3425 -0.5590
 2540SOL    HW219083   1.026   2.975  15.957 -0.7491 -0.1664 -0.3573
 2541SOL     OW19084   0.593   2.402  16.238 -0.7019 -0.5607 -0.2334
 2541SOL    HW119085   0.579   2.363  16.325 -0.8036 -2.8532 -1.2699
 2541SOL    HW219086   0.646   2.480  16.254 -1.6746  0.0447 -0.0001
 2542SOL     OW19087   4.117   2.898   3.428 -0.2261 -0.1949 -0.1404
 2542SOL    HW119088   4.030   2.880   3.393  0.5784 -1.2414 -1.5716
 2542SOL    HW219089   4.096   2.905   3.521  0.0018  2.8370 -0.3122
 2543SOL     OW19090   4.199   1.731   3.081 -0.1759 -0.5597  0.5383
 2543SOL    HW119091   4.190   1.669   3.153 -0.0301  1.0714  1.9720
 2543SOL    HW219092   4.129   1.697   3.025 -0.4948 -0.8081  1.0860
 2544SOL     OW19093   3.075   4.602   5.576  0.8057 -0.0515 -0.3078
 2544SOL    HW119094   3.004   4.659   5.547  1.4093  0.4011 -0.9108
 2544SOL    HW219095   3.123   4.580   5.496  1.2977  0.8124 -0.2520
 2545SOL     OW19096   4.521   2.930  10.142 -0.1734  0.4704  0.7184
 2545SOL    HW119097   4.467   2.990  10.193 -1.1839  1.8615 -1.9587
 2545SOL    HW219098   4.531   2.984  10.063 -1.6936  1.1231  0.9737
 2546SOL     OW19099   2.872   4.166   8.430  0.6661 -0.0577 -0.2718
 2546SOL    HW119100   2.868   4.071   8.423  1.0474 -0.0833 -0.1259
 2546SOL    HW219101   2.786   4.184   8.470  0.9469 -1.3301  0.9011
 2547SOL     OW19102   0.004   0.789   7.370 -0.0232  0.3766  0.5203
 2547SOL    HW119103   0.020   0.734   7.447 -2.8519 -1.1751  0.0187
 2547SOL    HW219104   0.001   0.875   7.413 -0.4011  1.2358 -1.2327
 2548SOL     OW19105   0.307   2.147   7.714  0.1154  0.1901 -0.1484
 2548SOL    HW119106   0.239   2.206   7.745  2.2589  2.0747  0.9234
 2548SOL    HW219107   0.371   2.212   7.685  0.1387  0.7127  1.0798
 2549SOL     OW19108   0.100   2.986  10.683 -0.2563  0.0416 -0.3075
 2549SOL    HW119109   0.113   2.896  10.713 -1.1843 -0.3516 -1.1114
 2549SOL    HW219110   0.135   3.046  10.749  0.8095 -0.9018 -0.0102
 2550SOL     OW19111   1.154   0.754   5.288  0.1179 -0.6377  0.3884
 2550SOL    HW119112   1.144   0.742   5.194  0.0800  0.7688  0.2139
 2550SOL    HW219113   1.243   0.722   5.303  0.8186  0.9911 -0.3417
 2551SOL     OW19114   2.503   3.452   8.930  0.4414 -0.1849  0.0271
 2551SOL    HW119115   2.585   3.452   8.980 -0.1693  0.4371  1.0188
 2551SOL    HW219116   2.435   3.437   8.996  0.6372 -1.7106 -0.1354
 2552SOL     OW19117   4.118   4.595   5.444  0.3139  0.2263  0.0571
 2552SOL    HW119118   4.053   4.526   5.450 -0.7605  1.3185  0.9406
 2552SOL    HW219119   4.063   4.670   5.422 -0.8910 -0.9981 -1.0300
 2553SOL     OW19120   0.180   3.153   3.849  0.2859 -0.3233 -0.2130
 2553SOL    HW119121   0.146   3.239   3.873 -0.8766 -1.0022  0.5727
 2553SOL    HW219122   0.214   3.184   3.766  1.2602 -0.2859  0.2005
 2554SOL     OW19123   3.102   3.339   8.617 -0.1535  0.2313 -0.2567
 2554SOL    HW119124   3.139   3.363   8.701  0.1544 -0.1416 -0.2851
 2554SOL    HW219125   3.177   3.341   8.556  0.2984  1.6615  0.3411
 2555SOL     OW19126   4.687   0.828  14.846 -0.0966  0.1864  0.0588
 2555SOL    HW119127   4.665   0.847  14.755  1.2149  1.3616 -0.0198
 2555SOL    HW219128   4.645   0.898  14.896  1.3448  1.1236 -0.0347
 2556SOL     OW19129   2.429   4.038  16.558 -0.3850 -0.0634  0.3260
 2556SOL    HW119130   2.353   4.059  16.505 -0.6518  0.5268  0.9366
 2556SOL    HW219131   2.494   4.025  16.488 -1.2041  1.8317 -0.7859
 2557SOL     OW19132   4.590   1.898   1.992  0.4311 -0.1625  0.3325
 2557SOL    HW119133   4.507   1.920   2.034  1.0486  1.1806  0.8448
 2557SOL    HW219134   4.591   1.962   1.920 -2.2284  0.6925  1.0748
 2558SOL     OW19135   3.432   2.305   6.501 -0.2310  0.4305 -0.3832
 2558SOL    HW119136   3.521   2.271   6.495 -0.6834 -0.6109 -1.3059
 2558SOL    HW219137   3.381   2.227   6.523  0.9309 -0.2714 -0.1796
 2559SOL     OW19138   2.143   2.203   2.707  0.3140  0.0776 -0.2635
 2559SOL    HW119139   2.157   2.184   2.799 -1.5267  0.1044  0.0211
 2559SOL    HW219140   2.058   2.162   2.692 -1.4687  4.2450 -1.7128
 2560SOL     OW19141   2.461   0.852   2.201  0.6454  0.7153  0.0637
 2560SOL    HW119142   2.538   0.884   2.249 -0.0076  0.8182  1.0290
 2560SOL    HW219143   2.393   0.848   2.268  2.3194 -2.0690  1.5902
 2561SOL     OW19144   2.141   0.882   4.327  0.2986  0.3458 -0.6729
 2561SOL    HW119145   2.227   0.918   4.351 -0.5227 -0.3816  3.4668
 2561SOL    HW219146   2.080   0.940   4.373  0.8498  0.8801 -0.6185
 2562SOL     OW19147   4.306   0.930  17.398 -0.0776 -0.5962  0.3424
 2562SOL    HW119148   4.350   0.964  17.320 -2.7780 -0.5777 -1.1524
 2562SOL    HW219149   4.383   0.932  17.455 -0.5149 -0.9472  0.9522
 2563SOL     OW19150   4.556   1.264   5.593  0.0357 -0.8988  0.6118
 2563SOL    HW119151   4.595   1.191   5.640  0.5548 -1.9104 -1.4114
 2563SOL    HW219152   4.637   1.305   5.561 -0.6683  0.1917  0.2144
 2564SOL     OW19153   4.084   1.249  16.327  0.6513  0.2410 -0.0038
 2564SOL    HW119154   4.064   1.163  16.290 -3.0662  1.3462 -0.5600
 2564SOL    HW219155   4.016   1.302  16.286  0.7443  1.2082  1.0910
 2565SOL     OW19156   2.286   2.631   8.707  0.1956 -0.3081  0.0281
 2565SOL    HW119157   2.269   2.714   8.663 -1.4374 -0.3509  0.5907
 2565SOL    HW219158   2.382   2.629   8.709  0.2753  1.8502 -0.8043
 2566SOL     OW19159   2.190   4.682   8.773  0.5680  0.0588  0.1090
 2566SOL    HW119160   2.260   4.639   8.724 -0.4147  1.8192 -2.8622
 2566SOL    HW219161   2.117   4.635   8.731  1.8462 -0.4909 -1.4740
 2567SOL     OW19162   1.362   3.990   7.840 -0.1501  0.1003 -0.3052
 2567SOL    HW119163   1.382   3.942   7.920  2.0630 -0.7814 -1.3816
 2567SOL    HW219164   1.449   4.000   7.801  0.0573 -1.2460 -0.1914
 2568SOL     OW19165   2.386   4.192   2.199 -0.7808 -0.8329 -0.2663
 2568SOL    HW119166   2.333   4.119   2.229 -2.4893  0.5378  0.0421
 2568SOL    HW219167   2.476   4.174   2.226 -0.3571 -0.0573 -1.1440
 2569SOL     OW19168   4.158   2.899   1.736 -0.2136  0.1456  0.2241
 2569SOL    HW119169   4.116   2.816   1.759 -0.3245  0.6761  1.9374
 2569SOL    HW219170   4.099   2.966   1.769  0.3349  0.9326 -0.3902
 2570SOL     OW19171   2.600   2.903   4.311  0.3210  0.7526 -0.2724
 2570SOL    HW119172   2.513   2.942   4.317 -0.5003 -0.9244 -1.3136
 2570SOL    HW219173   2.597   2.815   4.273 -0.8595  1.4332 -1.7324
 2571SOL     OW19174   1.806   0.477  11.715  0.0109  0.0150 -0.2607
 2571SOL    HW119175   1.818   0.528  11.795  1.6597 -1.4895  0.4485
 2571SOL    HW219176   1.865   0.403  11.728 -0.0217 -0.0242 -0.3354
 2572SOL     OW19177   2.545   3.688  15.936  0.0417 -0.1705 -0.1611
 2572SOL    HW119178   2.523   3.595  15.936  1.9014 -0.6073  2.7972
 2572SOL    HW219179   2.512   3.714  16.022 -1.9974 -0.5539 -0.8225
 2573SOL     OW19180   2.630   1.395  11.546  0.2561 -0.0867 -0.2019
 2573SOL    HW119181   2.592   1.480  11.567 -1.5143 -0.8658 -0.2539
 2573SOL    HW219182   2.617   1.400  11.451 -0.9684 -0.6353 -0.0545
 2574SOL     OW19183   4.670   1.614  14.015  0.2562  0.6226 -0.2929
 2574SOL    HW119184   4.579   1.589  13.998  0.8131 -0.4131 -1.8191
 2574SOL    HW219185   4.700   1.535  14.060  0.0940 -1.2306 -3.4091
 2575SOL     OW19186   0.205   1.715   7.116  0.3405  0.2744 -0.2919
 2575SOL    HW119187   0.169   1.739   7.031  1.2336  0.6136 -0.5746
 2575SOL    HW219188   0.116   1.714   7.152 -0.0674 -2.4723 -1.4080
 2576SOL     OW19189   0.077   3.594   6.998 -0.4120 -0.9048 -0.0342
 2576SOL    HW119190   0.099   3.502   6.983  0.4679 -1.1046  2.5000
 2576SOL    HW219191   0.160   3.636   6.976 -1.5864  0.9147 -0.9303
 2577SOL     OW19192   3.038   2.520   7.014  0.3956  0.2739  0.4205
 2577SOL    HW119193   2.957   2.494   6.971 -0.3045  2.4303  0.4069
 2577SOL    HW219194   3.074   2.439   7.050  1.3550 -0.0948 -1.3717
 2578SOL     OW19195   3.557   1.078   7.911  0.0289  0.4956 -0.2485
 2578SOL    HW119196   3.638   1.125   7.930  0.7460 -0.2160 -1.5181
 2578SOL    HW219197   3.567   0.995   7.956 -1.8616 -0.3537 -1.3782
 2579SOL     OW19198   3.071   2.504   8.964  0.5994 -0.1260 -0.6250
 2579SOL    HW119199   3.127   2.434   8.932  2.9970  1.1741  0.6958
 2579SOL    HW219200   3.131   2.574   8.938 -0.3536  0.9826  0.1776
 2580SOL     OW19201   0.433   0.342  16.417  0.1944  0.5184  0.3107
 2580SOL    HW119202   0.482   0.273  16.461 -0.3751 -1.5388 -2.2796
 2580SOL    HW219203   0.443   0.318  16.325  1.5316  0.7559  0.3991
 2581SOL     OW19204   4.026   1.811   7.581  0.2101 -0.5108  0.5552
 2581SOL    HW119205   3.938   1.811   7.543  1.4178  0.8568 -2.2266
 2581SOL    HW219206   4.073   1.863   7.515  2.6100 -1.8226  1.2184
 2582SOL     OW19207   4.398   0.264   8.722  0.4854  0.0714  0.1878
 2582SOL    HW119208   4.322   0.226   8.767  2.1883 -2.9712  0.4265
 2582SOL    HW219209   4.393   0.215   8.640 -0.5135  0.2670  0.1247
 2583SOL     OW19210   3.448   3.039   9.812 -0.4009  0.0611  0.2898
 2583SOL    HW119211   3.442   3.133   9.796 -0.2172 -0.1381 -1.0051
 2583SOL    HW219212   3.387   3.031   9.885 -1.6859  2.4205 -0.5466
 2584SOL     OW19213   1.699   1.787   2.043  0.0449 -0.0365  0.0836
 2584SOL    HW119214   1.607   1.806   2.059  0.3561  1.0651  0.5550
 2584SOL    HW219215   1.700   1.703   2.088  1.5856 -0.2405 -0.3150
 2585SOL     OW19216   0.461   2.915   9.492  0.5189  0.1109 -0.3454
 2585SOL    HW119217   0.439   2.966   9.569  2.2226  2.3919 -1.3603
 2585SOL    HW219218   0.394   2.847   9.495  1.7900 -1.2452 -1.8657
 2586SOL     OW19219   4.356   3.374   9.152 -0.1487  0.1702 -0.4997
 2586SOL    HW119220   4.417   3.445   9.131  1.2111 -1.3961 -1.8826
 2586SOL    HW219221   4.403   3.324   9.219 -1.2969 -0.1283  0.0776
 2587SOL     OW19222   3.139   2.716   0.116  0.4649  0.0237  0.0915
 2587SOL    HW119223   3.154   2.794   0.063 -3.2731  0.3421 -0.4720
 2587SOL    HW219224   3.230   2.690   0.133  1.0509  1.8948 -0.2264
 2588SOL     OW19225   2.066   0.394   1.664  0.5733 -0.2875  0.1677
 2588SOL    HW119226   2.152   0.386   1.705  0.2083 -0.1144  0.9724
 2588SOL    HW219227   2.028   0.312   1.694  3.8074 -2.6279 -2.1269
 2589SOL     OW19228   2.088   2.678   3.200  0.2183 -0.3633 -0.0668
 2589SOL    HW119229   2.139   2.753   3.231  0.8491 -1.6321  1.9415
 2589SOL    HW219230   2.037   2.718   3.129  1.3652  2.6111  0.7943
 2590SOL     OW19231   1.016   0.471   2.136  0.4752  0.3287 -0.3924
 2590SOL    HW119232   1.026   0.448   2.228  0.0673  0.6308 -0.2724
 2590SOL    HW219233   0.947   0.411   2.108  0.0787  0.3264  0.5975
 2591SOL     OW19234   4.667   0.218   5.536  0.1547  0.1968  0.8069
 2591SOL    HW119235   0.032   0.181   5.551 -0.4455 -1.5520 -0.0942
 2591SOL    HW219236   4.638   0.255   5.619  0.9612  0.4068  0.9954
 2592SOL     OW19237   2.158   3.567   2.760  0.1547 -0.0740  0.2242
 2592SOL    HW119238   2.192   3.643   2.807 -1.0413  0.8222 -0.3668
 2592SOL    HW219239   2.116   3.614   2.688 -1.1671 -3.2535 -1.0692
 2593SOL     OW19240   3.188   2.614   7.814 -0.1089 -0.4206  0.2771
 2593SOL    HW119241   3.248   2.551   7.854  1.9355 -0.6173 -3.1874
 2593SOL    HW219242   3.129   2.557   7.765  0.2650 -0.5183 -0.0518
 2594SOL     OW19243   1.407   1.785   7.871 -0.3089  0.1846 -0.1067
 2594SOL    HW119244   1.338   1.850   7.873  0.0688  0.6134 -1.1256
 2594SOL    HW219245   1.478   1.840   7.838  0.9860 -2.1838 -1.2585
 2595SOL     OW19246   3.384   2.442   3.036  0.3815 -0.3438 -0.3692
 2595SOL    HW119247   3.430   2.409   2.959  1.4006 -1.0276  0.5253
 2595SOL    HW219248   3.461   2.450   3.093  1.0209  1.0412 -1.4335
 2596SOL     OW19249   3.684   2.675   9.915 -0.3235  0.2619  0.5336
 2596SOL    HW119250   3.717   2.760   9.885 -0.1158 -0.7458 -2.0693
 2596SOL    HW219251   3.598   2.697   9.951 -0.1861  2.2295 -0.3128
 2597SOL     OW19252   2.393   0.787   1.733 -0.0019 -0.4434 -0.5446
 2597SOL    HW119253   2.310   0.800   1.779  1.5075  2.0840  1.4744
 2597SOL    HW219254   2.445   0.756   1.807 -0.3981 -0.4546 -0.2673
 2598SOL     OW19255   1.897   1.292   4.684 -0.3274  0.0374 -0.0968
 2598SOL    HW119256   1.833   1.281   4.614  1.2637 -2.2405 -1.1866
 2598SOL    HW219257   1.936   1.204   4.682 -0.6717 -0.0926 -0.9928
 2599SOL     OW19258   2.908   1.852   7.292 -0.1394  0.0502  0.0477
 2599SOL    HW119259   2.978   1.807   7.340  0.5893  1.2768  0.1268
 2599SOL    HW219260   2.870   1.902   7.364 -1.0158 -1.3724  0.5672
 2600SOL     OW19261   1.714   4.343  14.480  0.2565  0.0218  0.0707
 2600SOL    HW119262   1.711   4.436  14.501 -0.5017 -0.2260  1.0893
 2600SOL    HW219263   1.723   4.304  14.568  0.7753 -0.4637 -0.1924
 2601SOL     OW19264   1.880   0.282   7.140  0.1746  0.2557  0.0231
 2601SOL    HW119265   1.933   0.233   7.203  0.1689  0.8512  0.4902
 2601SOL    HW219266   1.804   0.304   7.195  1.2224  0.3564  1.4193
 2602SOL     OW19267   0.112   0.403   6.446 -0.4843  0.3728 -0.3993
 2602SOL    HW119268   0.174   0.437   6.511  1.2513 -0.3787 -1.6536
 2602SOL    HW219269   0.170   0.408   6.370  0.7341  3.2851  0.7142
 2603SOL     OW19270   3.672   3.282  16.208 -0.3146 -0.1314 -0.1040
 2603SOL    HW119271   3.646   3.230  16.132 -1.1966 -0.5531  0.4875
 2603SOL    HW219272   3.619   3.250  16.281  1.4582  1.3172  1.8312
 2604SOL     OW19273   2.355   2.110   5.362 -0.0142 -0.0662 -0.5633
 2604SOL    HW119274   2.434   2.056   5.363  0.5681  0.7868 -0.0641
 2604SOL    HW219275   2.376   2.200   5.388 -0.4157 -0.6057  1.6769
 2605SOL     OW19276   3.596   3.312   3.865 -0.5286 -0.6198 -0.3296
 2605SOL    HW119277   3.507   3.290   3.890 -0.7551  1.3406  0.5484
 2605SOL    HW219278   3.579   3.405   3.876 -1.9271 -0.7391 -1.5112
 2606SOL     OW19279   0.547   2.140   8.695  0.4453  0.6308  0.1234
 2606SOL    HW119280   0.464   2.093   8.683  0.0530  1.4210 -0.2466
 2606SOL    HW219281   0.522   2.231   8.711 -1.3632  0.2618 -0.5691
 2607SOL     OW19282   1.561   3.975   0.018  0.3519  0.2252  0.1434
 2607SOL    HW119283   1.568   4.017  17.622 -1.4814 -1.1929 -0.6867
 2607SOL    HW219284   1.466   3.971   0.021  0.3573  1.0060  1.3919
 2608SOL     OW19285   1.858   2.278   7.953 -0.3863  0.4766 -0.3430
 2608SOL    HW119286   1.854   2.252   8.045 -3.1565  1.4903 -0.1619
 2608SOL    HW219287   1.774   2.256   7.913 -0.4870  1.6671 -0.7714
 2609SOL     OW19288   3.821   1.610   4.763 -0.0163  0.5285 -0.1308
 2609SOL    HW119289   3.749   1.670   4.781 -2.0472 -1.2955 -2.1846
 2609SOL    HW219290   3.782   1.542   4.708 -0.2721  0.9574 -0.4723
 2610SOL     OW19291   4.014   4.573   0.233  0.1016  0.0999  0.2276
 2610SOL    HW119292   4.062   4.493   0.257  0.6398  0.4902  0.4483
 2610SOL    HW219293   3.942   4.534   0.184  2.4659  0.6551 -3.7168
 2611SOL     OW19294   4.710   0.512   4.330 -0.1349 -0.0505 -0.2189
 2611SOL    HW119295   0.054   0.445   4.345  1.1768  1.0133 -1.2280
 2611SOL    HW219296   0.048   0.586   4.324 -2.0824  1.5031 -0.7725
 2612SOL     OW19297   4.152   3.245  14.599 -0.3989  0.5959  0.0677
 2612SOL    HW119298   4.203   3.309  14.648 -1.8636  2.4841 -0.8761
 2612SOL    HW219299   4.088   3.220  14.666 -1.1917 -1.8317 -1.6321
 2613SOL     OW19300   1.878   1.020   6.120 -0.3655  0.5222 -0.0967
 2613SOL    HW119301   1.822   1.053   6.190  1.1265 -0.4999  1.5774
 2613SOL    HW219302   1.957   1.071   6.138  3.0129 -4.0566 -2.0058
 2614SOL     OW19303   3.780   0.365   9.876 -0.0177 -0.4858  0.2348
 2614SOL    HW119304   3.717   0.379   9.946  0.4197  2.3955  0.0891
 2614SOL    HW219305   3.829   0.287   9.901 -0.3881 -0.1319  2.0414
 2615SOL     OW19306   2.447   0.774   8.821  0.1637 -0.0639  0.7530
 2615SOL    HW119307   2.378   0.823   8.865  1.0000  0.1373  1.8386
 2615SOL    HW219308   2.414   0.685   8.823  0.7479 -0.3404 -1.6980
 2616SOL     OW19309   3.642   0.728   4.846 -0.2621 -0.2209  0.1270
 2616SOL    HW119310   3.709   0.793   4.826 -0.0157 -0.1427  1.1766
 2616SOL    HW219311   3.559   0.776   4.847 -1.1089 -1.6800  1.0196
 2617SOL     OW19312   0.093   0.456  15.379  0.0440  0.2584  0.2045
 2617SOL    HW119313   0.031   0.457  15.452  0.1291 -1.2549  0.2961
 2617SOL    HW219314   0.032   0.456  15.305 -0.5872 -0.2923  0.7221
 2618SOL     OW19315   4.383   3.623   1.892  0.5142  0.2923 -1.1548
 2618SOL    HW119316   4.296   3.648   1.923  0.9421  0.3330 -0.0176
 2618SOL    HW219317   4.434   3.702   1.913  2.1130 -0.6938 -1.2946
 2619SOL     OW19318   0.609   1.514  11.800  0.1261 -0.2555 -0.0265
 2619SOL    HW119319   0.666   1.527  11.876 -1.6461 -0.4005  1.3264
 2619SOL    HW219320   0.610   1.419  11.811  1.5241  0.3932  5.5248
 2620SOL     OW19321   3.675   2.104   2.201 -0.0535  0.7463  0.4032
 2620SOL    HW119322   3.583   2.087   2.223  0.8180 -3.5533  0.6634
 2620SOL    HW219323   3.671   2.100   2.106  4.1413  0.4777  0.2496
 2621SOL     OW19324   4.200   4.543   6.935 -0.1340 -0.4006  0.1652
 2621SOL    HW119325   4.253   4.488   6.993 -1.3547  0.7963  2.4004
 2621SOL    HW219326   4.267   4.567   6.872 -0.3245 -0.2297  0.0296
 2622SOL     OW19327   1.506   4.433   1.956  0.3118  0.1719 -0.0630
 2622SOL    HW119328   1.567   4.501   1.987  0.3781  1.0566 -2.1032
 2622SOL    HW219329   1.458   4.492   1.897 -0.9524  0.4713  1.2844
 2623SOL     OW19330   2.603   4.468   3.185 -0.0777 -0.0886 -0.3130
 2623SOL    HW119331   2.638   4.552   3.213 -3.4288  1.2942 -0.3624
 2623SOL    HW219332   2.547   4.504   3.116  0.3358  1.7316  0.3131
 2624SOL     OW19333   2.642   1.458   8.769  0.1926  0.3080  0.3771
 2624SOL    HW119334   2.620   1.433   8.680 -0.2697 -2.4684  1.2872
 2624SOL    HW219335   2.556   1.483   8.802 -0.5147  2.8167 -3.4015
 2625SOL     OW19336   3.328   3.288   5.762  0.4694  0.4165 -0.1885
 2625SOL    HW119337   3.280   3.353   5.813  1.2207  0.0773  0.9392
 2625SOL    HW219338   3.380   3.241   5.827 -2.0247  0.2758  1.6912
 2626SOL     OW19339   2.865   0.700   4.430  0.0240  0.4390  0.1749
 2626SOL    HW119340   2.862   0.606   4.413  0.3952  0.3671  0.4868
 2626SOL    HW219341   2.814   0.703   4.511 -2.5311 -1.9201 -1.3959
 2627SOL     OW19342   3.368   2.132   8.100  0.1265  0.2401 -0.7857
 2627SOL    HW119343   3.457   2.163   8.084 -0.6435  2.5388 -0.6606
 2627SOL    HW219344   3.340   2.165   8.015 -1.0827  1.1303 -0.0453
 2628SOL     OW19345   1.487   1.183   6.969 -0.6004  0.0665  0.1383
 2628SOL    HW119346   1.422   1.123   6.931 -0.1569  0.7848 -1.7892
 2628SOL    HW219347   1.540   1.219   6.897  1.3684 -0.1304  1.4903
 2629SOL     OW19348   0.673   2.386   1.141  0.0726  0.5025 -0.2520
 2629SOL    HW119349   0.645   2.423   1.225  1.3578  0.6438  0.1049
 2629SOL    HW219350   0.767   2.378   1.155  0.2571  0.9710 -1.2416
 2630SOL     OW19351   4.610   2.101  11.329  0.2076 -0.1502  0.0341
 2630SOL    HW119352   4.579   2.042  11.398 -0.4726  1.8025  1.4222
 2630SOL    HW219353   4.668   2.163  11.372  1.4409 -2.1762  1.2564
 2631SOL     OW19354   1.888   0.418  12.494  0.6742  0.3331 -0.1059
 2631SOL    HW119355   1.882   0.324  12.509  0.2178  0.4476  0.4109
 2631SOL    HW219356   1.883   0.415  12.398  0.6116  2.3627 -0.1650
 2632SOL     OW19357   1.000   4.463  13.396 -0.1764  0.0910  0.3556
 2632SOL    HW119358   0.923   4.507  13.430 -0.5161  0.0752 -0.3750
 2632SOL    HW219359   1.028   4.531  13.335 -0.4067 -0.7572 -0.7131
 2633SOL     OW19360   0.511   2.755   1.515 -0.1525 -0.1382 -0.2216
 2633SOL    HW119361   0.549   2.842   1.527  1.0392 -0.5999 -0.6469
 2633SOL    HW219362   0.497   2.719   1.602 -0.2153 -1.5912 -0.8378
 2634SOL     OW19363   3.850   3.127   8.382 -0.2922 -0.0226  0.1609
 2634SOL    HW119364   3.854   3.063   8.312  0.8765  2.5095 -2.0847
 2634SOL    HW219365   3.894   3.201   8.339 -0.8155 -0.7810 -1.6709
 2635SOL     OW19366   4.535   4.655   3.602 -0.2043 -0.0923  0.0896
 2635SOL    HW119367   4.503   0.002   3.544 -0.8962 -1.7508 -1.5055
 2635SOL    HW219368   4.617   4.700   3.625 -0.9154  0.3867  1.6651
 2636SOL     OW19369   4.125   0.731   3.242 -0.1409  0.3179  0.0923
 2636SOL    HW119370   4.212   0.753   3.275  0.4620 -1.7229 -0.1432
 2636SOL    HW219371   4.125   0.751   3.148  1.7078  0.4745  0.1293
 2637SOL     OW19372   2.148   1.373   1.682  0.5012 -0.0461  0.1298
 2637SOL    HW119373   2.061   1.413   1.675  0.1270 -0.5083  2.2938
 2637SOL    HW219374   2.129   1.286   1.718  1.2504  0.5642  1.9729
 2638SOL     OW19375   0.106   4.614  14.013  0.0840 -0.0142 -0.0118
 2638SOL    HW119376   0.020   4.598  14.053 -0.3620  0.7219 -0.6982
 2638SOL    HW219377   0.074   4.642  13.928  0.5503  0.6983  0.0510
 2639SOL     OW19378   4.483   4.296   9.065 -0.3092  0.0871  0.3017
 2639SOL    HW119379   4.421   4.224   9.078  1.3658 -1.5852 -0.9254
 2639SOL    HW219380   4.535   4.259   8.993  0.2387 -1.0734  1.2875
 2640SOL     OW19381   4.549   2.909   7.970 -0.3151 -0.2249 -0.3808
 2640SOL    HW119382   4.596   2.992   7.980  0.4976 -0.6540 -0.7152
 2640SOL    HW219383   4.618   2.849   7.996 -0.3307 -0.3012 -0.5169
 2641SOL     OW19384   1.937   3.740   2.234 -0.0503 -0.2257  0.2919
 2641SOL    HW119385   1.893   3.687   2.167 -0.3355 -1.9142  1.8174
 2641SOL    HW219386   1.887   3.821   2.221 -1.9661 -1.5610 -0.4979
 2642SOL     OW19387   4.349   0.923   3.378  0.0015 -0.1161  0.1624
 2642SOL    HW119388   4.429   0.872   3.363  0.0949  0.0294  0.1576
 2642SOL    HW219389   4.376   1.007   3.339  1.5336  0.2874  2.0785
 2643SOL     OW19390   0.724   1.095   2.148  0.2248 -0.4335 -0.5646
 2643SOL    HW119391   0.731   1.121   2.240  0.2847  0.8796 -0.9377
 2643SOL    HW219392   0.647   1.140   2.112 -0.5391 -0.6190  0.8485
 2644SOL     OW19393   2.012   2.962   4.074  0.5466  0.2772  0.5227
 2644SOL    HW119394   2.096   2.978   4.031  0.3170  1.4566  0.4935
 2644SOL    HW219395   2.015   2.887   4.133 -0.7670 -0.1285  0.0908
 2645SOL     OW19396   3.916   1.060   6.813  0.3113 -0.1914  0.4420
 2645SOL    HW119397   3.965   1.137   6.840 -1.4333  1.1207 -0.1715
 2645SOL    HW219398   3.867   1.099   6.740 -1.0815 -1.4653  0.6790
 2646SOL     OW19399   0.365   4.536  13.416  0.6497  0.4029  0.3298
 2646SOL    HW119400   0.455   4.519  13.442  1.4159 -0.0378 -2.6692
 2646SOL    HW219401   0.327   4.451  13.439  2.2351  0.0271  1.5175
 2647SOL     OW19402   0.819   1.652   0.434  0.0746 -0.3698 -0.0239
 2647SOL    HW119403   0.906   1.613   0.439  0.9122  1.5964  0.4813
 2647SOL    HW219404   0.792   1.632   0.344  0.0504  2.3292 -0.6087
 2648SOL     OW19405   2.519   0.299   4.570 -0.4198 -0.5394 -0.1427
 2648SOL    HW119406   2.615   0.300   4.574 -0.3920 -1.1402 -0.6042
 2648SOL    HW219407   2.507   0.384   4.528 -1.1403 -1.0385 -0.9555
 2649SOL     OW19408   2.420   0.275  10.384  0.1544  0.0163  0.4184
 2649SOL    HW119409   2.364   0.297  10.310  0.4601 -1.4608 -0.2560
 2649SOL    HW219410   2.357   0.240  10.447  0.2289 -1.3331 -0.2521
 2650SOL     OW19411   4.429   3.450   4.351 -0.3391 -0.4106 -0.1472
 2650SOL    HW119412   4.510   3.502   4.347 -1.2204  1.0927  1.6118
 2650SOL    HW219413   4.455   3.365   4.317  0.3802 -0.7495  1.2829
 2651SOL     OW19414   0.065   3.955  16.536 -0.2291 -0.1554  0.1733
 2651SOL    HW119415   0.137   3.961  16.600  0.1720 -1.1143 -0.1824
 2651SOL    HW219416   0.050   3.861  16.529 -0.0887 -0.1800  0.1955
 2652SOL     OW19417   0.016   2.866  13.497 -0.3057 -0.4905 -0.4454
 2652SOL    HW119418   0.076   2.832  13.564  1.3697  2.2882 -0.5419
 2652SOL    HW219419   4.700   2.948  13.529 -1.8925 -1.0323 -0.9165
 2653SOL     OW19420   2.870   1.059  17.055 -0.8805 -0.4469 -0.2630
 2653SOL    HW119421   2.884   1.111  16.976 -0.3571 -1.1216 -0.6125
 2653SOL    HW219422   2.850   0.972  17.020 -0.1138 -1.0523  0.8036
 2654SOL     OW19423   4.642   4.290   4.249  0.0247 -0.1925 -0.4746
 2654SOL    HW119424   4.693   4.238   4.311 -0.8678  0.4208  0.7694
 2654SOL    HW219425   4.612   4.363   4.303 -0.2169 -0.4732 -0.2292
 2655SOL     OW19426   1.102   3.313  10.999 -0.3556 -0.8513 -0.0411
 2655SOL    HW119427   1.133   3.355  10.919 -0.0183  1.7829  1.4450
 2655SOL    HW219428   1.094   3.383  11.065 -1.1211 -2.0929  1.2023
 2656SOL     OW19429   0.865   2.012   6.163  0.2530 -0.3883  0.5988
 2656SOL    HW119430   0.778   1.972   6.162  1.3768 -2.8805  1.8259
 2656SOL    HW219431   0.864   2.070   6.239  0.5651  0.3494  0.0362
 2657SOL     OW19432   4.317   3.372   5.385 -0.0363 -0.1563  0.1186
 2657SOL    HW119433   4.390   3.353   5.326 -1.6946 -0.2623 -1.9126
 2657SOL    HW219434   4.296   3.455   5.342  2.0016  0.8111  1.0029
 2658SOL     OW19435   4.292   2.868   3.188 -0.0063 -0.1282 -0.2214
 2658SOL    HW119436   4.254   2.781   3.200 -0.3251  0.1097  0.4885
 2658SOL    HW219437   4.262   2.914   3.266 -2.9346  1.1740 -2.1335
 2659SOL     OW19438   2.100   2.192  11.949 -0.1560  0.2886 -0.4374
 2659SOL    HW119439   2.142   2.147  12.022  1.8762 -1.1185 -2.4794
 2659SOL    HW219440   2.172   2.250  11.922 -1.8110  2.5526  0.0040
 2660SOL     OW19441   4.604   3.430   0.102 -0.0108  0.0503  0.4576
 2660SOL    HW119442   4.682   3.421   0.047 -0.0007 -1.1249  0.6733
 2660SOL    HW219443   4.628   3.484   0.177  0.5052 -1.3623  1.3036
 2661SOL     OW19444   2.157   2.671  15.729  1.2768 -0.0054 -0.3460
 2661SOL    HW119445   2.166   2.590  15.679 -2.1212  1.6842 -3.6286
 2661SOL    HW219446   2.087   2.704  15.674  0.1623  1.0101  1.6888
 2662SOL     OW19447   4.646   3.885   2.377 -0.4882 -0.4551  0.3197
 2662SOL    HW119448   0.016   3.911   2.370 -0.5594 -0.4942 -0.7570
 2662SOL    HW219449   4.598   3.958   2.415 -0.5997 -1.3294  1.8499
 2663SOL     OW19450   2.955   1.874   1.049 -0.0047  0.0453  0.1325
 2663SOL    HW119451   3.040   1.858   1.089  1.3980  2.8364 -1.7118
 2663SOL    HW219452   2.902   1.813   1.101 -1.1611  0.5061 -0.5071
 2664SOL     OW19453   0.455   0.540   3.205 -0.1270  0.0998 -0.4374
 2664SOL    HW119454   0.421   0.473   3.147 -1.0845  1.4410 -1.4291
 2664SOL    HW219455   0.551   0.537   3.195 -0.0241  0.9500  0.2848
 2665SOL     OW19456   3.883   1.497  17.649  0.0833  0.1618 -0.4437
 2665SOL    HW119457   3.836   1.438   0.018 -0.9381  0.6772 -0.7350
 2665SOL    HW219458   3.854   1.587  17.668  1.2347 -0.2215  3.1187
 2666SOL     OW19459   2.463   1.061   0.649 -0.0422  0.5236  0.3005
 2666SOL    HW119460   2.465   0.968   0.671  0.8387  0.0842 -1.6779
 2666SOL    HW219461   2.385   1.089   0.697 -2.2061 -0.8932 -2.4377
 2667SOL     OW19462   1.431   4.714  15.841 -0.6183  0.3580  0.4064
 2667SOL    HW119463   1.456   0.001  15.933 -0.5129 -0.1015  0.4246
 2667SOL    HW219464   1.512   0.022  15.801 -1.5454  2.1718 -0.1310
 2668SOL     OW19465   0.592   1.984  14.125 -0.5530 -0.0290  0.6384
 2668SOL    HW119466   0.514   2.035  14.144 -0.7479 -0.3421  0.6801
 2668SOL    HW219467   0.661   2.049  14.114 -0.6596 -0.0627 -0.2464
 2669SOL     OW19468   2.654   0.975   8.329  0.2751  0.1630  0.0798
 2669SOL    HW119469   2.619   0.903   8.276 -0.9363  1.4926 -0.9383
 2669SOL    HW219470   2.697   1.021   8.256 -1.0621 -1.3079 -1.6339
 2670SOL     OW19471   3.910   1.835   6.479 -0.3545  0.4909  0.1667
 2670SOL    HW119472   3.946   1.921   6.501  1.5084  0.0503 -1.1238
 2670SOL    HW219473   3.827   1.855   6.437 -0.3908 -0.5485 -0.2604
 2671SOL     OW19474   0.503   1.832   4.590  0.1757 -0.0641  0.3483
 2671SOL    HW119475   0.552   1.902   4.547 -1.3813 -0.7384 -2.4994
 2671SOL    HW219476   0.412   1.847   4.562 -0.2412 -0.2304  1.6165
 2672SOL     OW19477   3.973   2.016   0.257 -0.4288  0.2214  0.2083
 2672SOL    HW119478   3.906   1.972   0.204  0.4811 -1.8357  0.7688
 2672SOL    HW219479   3.921   2.045   0.332 -1.9385 -2.0552  0.0600
 2673SOL     OW19480   3.096   0.310   0.607  0.0245 -0.5488  0.0480
 2673SOL    HW119481   3.137   0.307   0.693 -1.2606  0.4364  0.6991
 2673SOL    HW219482   3.147   0.241   0.565  0.2407 -0.4884  0.2127
 2674SOL     OW19483   0.658   1.136   5.905  0.5193  0.2328 -0.1518
 2674SOL    HW119484   0.648   1.187   5.986  2.7044  0.5100 -0.0603
 2674SOL    HW219485   0.593   1.069   5.927  0.1224  0.4374 -0.6893
 2675SOL     OW19486   2.306   0.861  14.417 -0.1334 -0.1563  0.1279
 2675SOL    HW119487   2.238   0.900  14.473 -0.2088  0.1426 -0.1755
 2675SOL    HW219488   2.251   0.808  14.359  1.2305  0.4094 -1.6620
 2676SOL     OW19489   4.627   2.685   9.523 -0.0967 -0.3599  0.3586
 2676SOL    HW119490   4.604   2.595   9.544 -2.1908 -0.2498 -1.4727
 2676SOL    HW219491   4.544   2.719   9.556 -0.3403 -0.1181 -0.5235
 2677SOL     OW19492   2.045   0.001   1.246 -0.2154  0.2335  0.2978
 2677SOL    HW119493   2.126   4.672   1.250  0.1526  0.8691  1.0436
 2677SOL    HW219494   2.062   0.046   1.328  0.7701 -0.2631  0.3667
 2678SOL     OW19495   2.858   2.212  11.117 -0.0221  0.2931  0.2966
 2678SOL    HW119496   2.824   2.173  11.198 -1.5361 -0.4615 -0.7122
 2678SOL    HW219497   2.933   2.265  11.144 -0.9370  1.2467  0.9851
 2679SOL     OW19498   4.567   4.164   3.080  0.8022 -0.2137 -0.2470
 2679SOL    HW119499   4.647   4.197   3.120  1.2982 -1.1350 -0.4727
 2679SOL    HW219500   4.510   4.221   3.131  0.8626  0.0762 -0.5037
 2680SOL     OW19501   2.513   1.890   4.169 -0.2313 -0.4155  0.6012
 2680SOL    HW119502   2.597   1.880   4.215 -0.7240 -0.1185  1.5840
 2680SOL    HW219503   2.473   1.954   4.228  3.0476  0.9265  1.4001
 2681SOL     OW19504   3.020   0.302  16.045 -0.4617 -0.9035 -0.0588
 2681SOL    HW119505   3.010   0.219  15.998 -0.5906 -2.1126  2.1203
 2681SOL    HW219506   3.060   0.362  15.982  1.1750 -0.9122  0.9795
 2682SOL     OW19507   0.605   2.204  15.635 -0.5230  0.0963  0.0236
 2682SOL    HW119508   0.588   2.129  15.579 -0.0843 -1.1136  1.5078
 2682SOL    HW219509   0.656   2.152  15.697 -0.6669 -0.0222  0.0402
 2683SOL     OW19510   2.828   4.371  13.588  0.1987 -0.4036  0.4912
 2683SOL    HW119511   2.870   4.322  13.659 -1.2040  1.8290  2.8557
 2683SOL    HW219512   2.842   4.321  13.508  0.4330 -0.0025  0.2795
 2684SOL     OW19513   2.051   4.500   7.362  0.4847 -0.4428  0.1813
 2684SOL    HW119514   2.034   4.547   7.280 -0.9564  1.6685  1.7397
 2684SOL    HW219515   2.132   4.454   7.338  0.6792  0.3027 -0.6044
 2685SOL     OW19516   1.785   4.475   8.327 -0.5922 -0.0531  0.2667
 2685SOL    HW119517   1.783   4.539   8.256 -0.6819 -0.9662 -0.5513
 2685SOL    HW219518   1.788   4.535   8.402 -1.1387 -1.3306  1.2968
 2686SOL     OW19519   2.799   4.108   1.904 -0.7614  0.2647  0.5154
 2686SOL    HW119520   2.739   4.071   1.839  1.4985 -1.0426 -0.8164
 2686SOL    HW219521   2.874   4.124   1.847 -0.9768 -1.5220 -0.2464
 2687SOL     OW19522   1.215   1.953   8.270  0.3471  0.1674 -0.5721
 2687SOL    HW119523   1.137   2.006   8.251  0.4786  0.2875 -0.7772
 2687SOL    HW219524   1.203   1.878   8.211  1.1212  0.5070 -1.1725
 2688SOL     OW19525   3.076   1.296  12.880 -0.2580  0.1380 -0.1718
 2688SOL    HW119526   3.026   1.236  12.825  0.2227 -0.1382 -0.3120
 2688SOL    HW219527   3.166   1.285  12.848 -0.6005 -2.6384 -0.1906
 2689SOL     OW19528   2.866   2.369  14.253  0.8836 -0.9084  0.2265
 2689SOL    HW119529   2.831   2.375  14.164  0.9224  0.8630  0.3306
 2689SOL    HW219530   2.956   2.364  14.220  0.5268 -0.4934 -0.8116
 2690SOL     OW19531   1.286   1.876   7.561 -0.0557  0.0444  0.0334
 2690SOL    HW119532   1.241   1.889   7.477 -0.4044 -2.0608 -0.1124
 2690SOL    HW219533   1.239   1.800   7.596  2.5084 -0.4002  2.4376
 2691SOL     OW19534   2.049   0.035   5.488  0.4486 -0.2910  0.4174
 2691SOL    HW119535   2.034   4.707   5.408 -0.1310  0.0096  0.3321
 2691SOL    HW219536   1.979   0.003   5.546 -0.9742 -0.8775 -1.6184
 2692SOL     OW19537   1.606   4.601   4.078  0.3524 -0.3153  0.9103
 2692SOL    HW119538   1.539   4.661   4.112 -0.0250  0.4392 -1.1554
 2692SOL    HW219539   1.642   4.565   4.159 -1.4166  0.2118  1.9335
 2693SOL     OW19540   1.639   3.932  11.345  0.0374 -0.4338  0.2695
 2693SOL    HW119541   1.658   3.947  11.438  2.8888  2.5455 -0.7687
 2693SOL    HW219542   1.611   3.841  11.354  2.2530 -1.1731 -0.3958
 2694SOL     OW19543   3.005   1.575   9.947 -0.1913  0.0054  0.4436
 2694SOL    HW119544   2.913   1.548   9.947  0.5715 -2.5905 -0.6856
 2694SOL    HW219545   3.027   1.585   9.855 -2.1391  0.0347 -0.0133
 2695SOL     OW19546   2.470   1.621  10.976  0.2781 -0.4925 -0.1123
 2695SOL    HW119547   2.435   1.534  10.996  0.7109 -0.9528 -1.3744
 2695SOL    HW219548   2.565   1.622  10.968  0.2271  1.8210 -0.5302
 2696SOL     OW19549   3.368   0.542  11.208 -0.2449 -0.2827  0.3455
 2696SOL    HW119550   3.372   0.449  11.231  1.2167  0.1615  1.8715
 2696SOL    HW219551   3.455   0.579  11.225 -1.1787  1.5281  1.1770
 2697SOL     OW19552   0.853   3.961   5.123 -0.5049 -0.0276  0.0640
 2697SOL    HW119553   0.886   3.978   5.212 -0.8894 -0.7322  0.3395
 2697SOL    HW219554   0.902   4.032   5.081 -1.4056  1.3195  1.2818
 2698SOL     OW19555   2.339   0.400   6.545 -0.1327  0.4356 -0.6296
 2698SOL    HW119556   2.258   0.391   6.595 -1.3685 -0.9940 -2.9241
 2698SOL    HW219557   2.403   0.401   6.617 -0.7196  2.7417 -0.1275
 2699SOL     OW19558   2.146   3.759   3.617 -0.2727  0.6410 -0.6483
 2699SOL    HW119559   2.197   3.686   3.579  1.9672  1.1095  1.4171
 2699SOL    HW219560   2.208   3.794   3.681 -1.2154  3.3282 -1.2336
 2700SOL     OW19561   1.059   1.789   3.553  0.8527 -0.0510  0.1369
 2700SOL    HW119562   1.087   1.781   3.644  0.8622  0.3945  0.1739
 2700SOL    HW219563   0.991   1.856   3.558  0.8635 -0.1205  1.2069
 2701SOL     OW19564   0.808   2.792   4.163 -0.5413 -0.0903 -0.1421
 2701SOL    HW119565   0.730   2.739   4.146  0.0035 -1.1115  0.5339
 2701SOL    HW219566   0.870   2.724   4.188  2.2896  1.9543 -1.5095
 2702SOL     OW19567   1.466   1.161   5.538  0.5927 -0.1975 -0.0814
 2702SOL    HW119568   1.461   1.080   5.588  0.5999 -0.1819 -0.0555
 2702SOL    HW219569   1.523   1.135   5.465  0.6143 -0.9115  0.1863
 2703SOL     OW19570   2.984   3.835   5.417 -0.5500  0.4139  0.0049
 2703SOL    HW119571   2.992   3.762   5.355 -0.7239 -0.2920  0.8281
 2703SOL    HW219572   3.078   3.847   5.428 -0.5903 -0.2813  1.0151
 2704SOL     OW19573   4.357   1.521   6.168  0.5613  0.1937  0.3484
 2704SOL    HW119574   4.274   1.473   6.168 -0.2704  1.6595  1.9734
 2704SOL    HW219575   4.336   1.595   6.111 -0.3364 -0.3230  0.0077
 2705SOL     OW19576   3.914   2.741   5.514 -0.1053  0.4602  0.1921
 2705SOL    HW119577   3.895   2.648   5.504 -1.3692  0.5755  1.5211
 2705SOL    HW219578   3.830   2.772   5.550 -0.1986 -0.7577  1.0369
 2706SOL     OW19579   1.057   4.224   7.244 -0.1936 -0.7222  0.8752
 2706SOL    HW119580   0.968   4.241   7.273 -0.5993  0.5682 -1.1541
 2706SOL    HW219581   1.079   4.317   7.245 -1.5872 -0.4005  0.9878
 2707SOL     OW19582   2.040   1.077   7.094 -0.1464 -0.0340 -0.1219
 2707SOL    HW119583   2.093   1.002   7.121  0.5958  0.5727  0.0812
 2707SOL    HW219584   2.103   1.148   7.086  0.4113 -0.2471  2.3976
 2708SOL     OW19585   0.010   3.596   2.154 -0.6597 -0.6288  0.0275
 2708SOL    HW119586   0.070   3.667   2.132 -1.6517  0.4743  0.9011
 2708SOL    HW219587   4.649   3.640   2.173  0.3591  1.9571 -1.5587
 2709SOL     OW19588   4.196   3.603  11.384  0.1473 -0.0881  0.2237
 2709SOL    HW119589   4.138   3.553  11.326 -1.4876 -0.2678  1.9973
 2709SOL    HW219590   4.254   3.655  11.329 -1.7573  0.1007 -1.6207
 2710SOL     OW19591   0.817   2.888   6.123  0.0004 -0.0507 -0.3218
 2710SOL    HW119592   0.750   2.866   6.059  1.6961  0.3346 -2.2233
 2710SOL    HW219593   0.842   2.978   6.101 -0.3757 -0.2183 -1.4130
 2711SOL     OW19594   3.935   2.064   6.799  0.4415 -0.2758  0.2012
 2711SOL    HW119595   3.896   2.131   6.855 -0.1449  0.5025 -1.1397
 2711SOL    HW219596   3.947   1.994   6.862 -1.4576 -0.0017  0.8652
 2712SOL     OW19597   1.719   4.064  11.126  0.2221 -0.2062  0.2416
 2712SOL    HW119598   1.637   4.057  11.078  0.0473  1.8785  0.2326
 2712SOL    HW219599   1.688   4.020  11.205  0.0774 -0.4655  0.0357
 2713SOL     OW19600   2.858   2.261  14.509  0.2262  0.5052  0.0725
 2713SOL    HW119601   2.869   2.298  14.421 -0.8102  2.9648  0.9621
 2713SOL    HW219602   2.771   2.281  14.544 -0.2368 -0.1302 -0.7272
 2714SOL     OW19603   4.637   2.716   3.392  1.0989  0.1140  0.0547
 2714SOL    HW119604   4.672   2.640   3.346  1.9749  0.9519 -0.6649
 2714SOL    HW219605   4.698   2.781   3.357  0.3094  0.2254 -1.0887
 2715SOL     OW19606   2.874   1.626  11.655  0.4113 -0.1795 -0.2350
 2715SOL    HW119607   2.853   1.574  11.733  1.3099 -0.0329  0.0969
 2715SOL    HW219608   2.871   1.719  11.680 -2.7543 -0.0841 -0.8420
 2716SOL     OW19609   3.260   1.600  11.159 -0.1004  0.6209 -0.2462
 2716SOL    HW119610   3.310   1.646  11.227 -0.8706  0.4643  0.4230
 2716SOL    HW219611   3.283   1.648  11.080 -1.5252  0.4120 -0.7890
 2717SOL     OW19612   4.684   1.070   7.811  0.7235 -0.4585  0.0022
 2717SOL    HW119613   0.024   1.004   7.844  0.7979 -1.0588 -1.3692
 2717SOL    HW219614   4.718   1.154   7.842  0.2451 -1.2091  2.5593
 2718SOL     OW19615   2.959   4.316   5.209 -0.0444 -0.3557  0.2348
 2718SOL    HW119616   3.046   4.333   5.244 -0.8186 -0.4399  2.2222
 2718SOL    HW219617   2.910   4.348   5.285  0.5136  2.3128 -0.5417
 2719SOL     OW19618   3.476   1.502   3.623  0.1729 -0.1006  0.8799
 2719SOL    HW119619   3.540   1.445   3.581 -0.4905  0.1610 -0.4666
 2719SOL    HW219620   3.535   1.561   3.671 -1.2941  0.7873  1.5827
 2720SOL     OW19621   1.772   0.599  16.420 -0.3353  0.2937 -0.1625
 2720SOL    HW119622   1.809   0.583  16.507  0.3528 -0.5155 -0.6032
 2720SOL    HW219623   1.813   0.684  16.407  0.6416 -0.0571  0.6152
 2721SOL     OW19624   2.998   2.010   3.808  0.6581  0.1512 -0.1520
 2721SOL    HW119625   2.932   1.988   3.743 -1.9430  1.3538  2.0593
 2721SOL    HW219626   3.065   1.947   3.784  0.5156 -0.2242  0.4213
 2722SOL     OW19627   0.355   3.339   1.586 -0.2252 -0.2262  0.7912
 2722SOL    HW119628   0.387   3.394   1.657  3.2507 -0.9268 -0.2259
 2722SOL    HW219629   0.262   3.333   1.607 -0.2595 -3.2965 -0.2941
 2723SOL     OW19630   0.119   4.147  15.721 -0.3843 -0.4685  0.2097
 2723SOL    HW119631   0.068   4.138  15.802 -0.1609  2.6860  0.6976
 2723SOL    HW219632   0.077   4.078  15.669 -1.9661  1.0416 -0.5396
 2724SOL     OW19633   4.272   0.575   4.980  0.0282  0.2684  0.1328
 2724SOL    HW119634   4.328   0.648   4.955  0.8865 -1.0614 -1.8199
 2724SOL    HW219635   4.268   0.521   4.901  0.3512  2.1745 -1.1890
 2725SOL     OW19636   2.928   1.546   4.804 -0.4682 -0.1724  0.1245
 2725SOL    HW119637   2.897   1.479   4.865  0.0027 -0.1859  0.3485
 2725SOL    HW219638   2.910   1.507   4.718  1.1180 -1.1688  0.2277
 2726SOL     OW19639   0.075   4.253   3.158 -0.2817 -0.3143  0.4711
 2726SOL    HW119640   0.059   4.325   3.218 -0.9401 -0.4303  0.4411
 2726SOL    HW219641   0.129   4.189   3.204 -0.0326  0.8273  1.7408
 2727SOL     OW19642   1.652   1.835   6.525 -0.1893 -0.1963  0.1894
 2727SOL    HW119643   1.704   1.765   6.565  2.1400  0.0726 -2.3633
 2727SOL    HW219644   1.719   1.903   6.516 -0.5610  0.1081 -0.2343
 2728SOL     OW19645   1.174   1.848   2.732 -0.1879  0.0211 -0.1731
 2728SOL    HW119646   1.225   1.929   2.725 -0.6500  0.5588  2.4740
 2728SOL    HW219647   1.086   1.884   2.736 -0.8363 -1.5040 -0.8114
 2729SOL     OW19648   2.007   2.728   6.512  0.1493 -0.1009 -0.0748
 2729SOL    HW119649   2.098   2.748   6.534 -0.1064  1.8200 -0.7034
 2729SOL    HW219650   1.997   2.784   6.435 -0.7985 -1.1284 -0.7124
 2730SOL     OW19651   0.294   1.560   8.794  0.8127 -0.0956  0.0707
 2730SOL    HW119652   0.348   1.508   8.853 -0.8739  0.6587  2.2733
 2730SOL    HW219653   0.248   1.489   8.751  1.6168 -1.1824  1.0066
 2731SOL     OW19654   1.526   0.191   4.605  0.4721 -0.1092  0.0647
 2731SOL    HW119655   1.430   0.189   4.595  0.2754  2.1977  1.4521
 2731SOL    HW219656   1.559   0.156   4.523 -0.5919 -1.3614  0.1696
 2732SOL     OW19657   0.599   1.977  15.466  0.3120  0.2886  0.0555
 2732SOL    HW119658   0.531   1.910  15.467  0.0290  0.5618 -0.7916
 2732SOL    HW219659   0.669   1.935  15.415 -0.6406 -0.3923 -0.7001
 2733SOL     OW19660   2.557   0.425  17.552  0.1380 -0.1716  0.0088
 2733SOL    HW119661   2.472   0.453  17.518  0.3401 -0.0351 -0.3919
 2733SOL    HW219662   2.571   0.349  17.495 -1.5416  0.0437 -0.6883
 2734SOL     OW19663   2.431   2.482   2.330 -0.2876  0.5518  0.0677
 2734SOL    HW119664   2.487   2.479   2.252  1.6061 -1.6272  1.5093
 2734SOL    HW219665   2.398   2.569   2.308 -0.5140  0.8230  1.4955
 2735SOL     OW19666   2.086   4.326   4.949  0.9844 -0.0668  0.3239
 2735SOL    HW119667   2.014   4.358   5.003 -0.4010 -1.1511 -0.9130
 2735SOL    HW219668   2.102   4.389   4.878 -1.3479  0.2727  0.1040
 2736SOL     OW19669   2.886   1.475  15.578 -0.2057 -0.0935  0.0364
 2736SOL    HW119670   2.845   1.402  15.532 -0.6009 -0.2461  0.6325
 2736SOL    HW219671   2.847   1.545  15.525  1.3527  0.7767  0.0202
 2737SOL     OW19672   2.906   1.057  10.874  0.0802 -0.0122 -0.7539
 2737SOL    HW119673   2.996   1.087  10.890 -0.2324  0.6545 -0.2368
 2737SOL    HW219674   2.917   1.034  10.782 -0.2051 -2.0097 -0.2866
 2738SOL     OW19675   3.724   4.054  13.217  0.0767  0.3774 -0.0745
 2738SOL    HW119676   3.796   4.014  13.267 -0.8436 -0.2763  0.7225
 2738SOL    HW219677   3.766   4.099  13.144 -2.6027  1.0813 -1.1494
 2739SOL     OW19678   4.570   3.765   9.434  0.8593  0.3626 -0.3121
 2739SOL    HW119679   4.591   3.857   9.447 -3.2333  1.1950  0.2086
 2739SOL    HW219680   4.476   3.781   9.432  1.1655  2.1152 -0.7236
 2740SOL     OW19681   3.833   4.113   2.870 -0.5770  0.7519  0.5814
 2740SOL    HW119682   3.839   4.020   2.893  0.1282  0.1892 -1.8812
 2740SOL    HW219683   3.762   4.104   2.807  0.6146  1.4394 -0.8712
 2741SOL     OW19684   1.727   3.474   8.407  0.2075  0.0152  0.1046
 2741SOL    HW119685   1.760   3.549   8.358 -0.5693  1.5953  1.9842
 2741SOL    HW219686   1.804   3.422   8.431  2.7866  0.9181 -6.1760
 2742SOL     OW19687   1.477   3.994   6.022 -0.3108  0.0909 -0.2526
 2742SOL    HW119688   1.496   3.901   6.036  1.8808  0.6949  0.7075
 2742SOL    HW219689   1.417   4.017   6.093 -0.4222 -0.2213 -0.2430
 2743SOL     OW19690   3.352   3.054   8.670 -0.0796 -0.4647 -0.4025
 2743SOL    HW119691   3.344   3.133   8.617 -0.4242  0.9199  1.7346
 2743SOL    HW219692   3.442   3.023   8.660  0.3560  1.0374 -1.1813
 2744SOL     OW19693   4.408   2.430   8.702  0.0731 -0.1187  0.1695
 2744SOL    HW119694   4.436   2.457   8.614 -1.0859  0.2084 -0.1047
 2744SOL    HW219695   4.488   2.421   8.753  0.1638  0.2451  0.0875
 2745SOL     OW19696   1.388   2.644  10.405  0.0270  0.7077  0.5463
 2745SOL    HW119697   1.427   2.647  10.492 -0.5542  0.5013  0.8141
 2745SOL    HW219698   1.323   2.574  10.409 -0.4322  1.0588 -0.6536
 2746SOL     OW19699   2.742   1.530   6.929 -0.7177 -0.1011 -0.2346
 2746SOL    HW119700   2.775   1.441   6.934 -0.4750  0.1638  2.7382
 2746SOL    HW219701   2.666   1.514   6.985 -1.2607  1.1814 -0.6041
 2747SOL     OW19702   0.639   1.430  10.244  0.1946  0.2758  0.0020
 2747SOL    HW119703   0.638   1.425  10.340 -0.0433 -1.6827 -0.1127
 2747SOL    HW219704   0.653   1.525  10.240 -1.2341  0.4162 -1.5099
 2748SOL     OW19705   3.553   0.785   8.344 -0.7025  0.3234 -0.4277
 2748SOL    HW119706   3.544   0.692   8.321 -0.5252 -0.0730  1.1208
 2748SOL    HW219707   3.647   0.804   8.347 -0.4773 -0.6659 -1.2036
 2749SOL     OW19708   1.913   1.322   6.470  0.4423 -0.1736  0.0972
 2749SOL    HW119709   1.920   1.330   6.565  0.2945  0.0615  0.0895
 2749SOL    HW219710   1.999   1.356   6.446 -0.2301  2.3519  1.2561
 2750SOL     OW19711   4.498   2.790   4.522  0.0853  0.5770 -0.0607
 2750SOL    HW119712   4.579   2.741   4.533 -0.7828 -0.8680 -0.0729
 2750SOL    HW219713   4.451   2.782   4.605  0.6705  0.5151  0.2628
 2751SOL     OW19714   0.225   2.537   8.121  0.2930 -0.2016  0.1734
 2751SOL    HW119715   0.304   2.590   8.130 -0.3225  0.4654  1.7536
 2751SOL    HW219716   0.198   2.533   8.213  0.9001 -1.8789  0.2678
 2752SOL     OW19717   0.244   4.216   6.177  0.1978  0.9102 -0.7273
 2752SOL    HW119718   0.193   4.206   6.097 -1.0969  0.6055  0.1284
 2752SOL    HW219719   0.259   4.310   6.164  0.1205  0.5896 -2.9801
 2753SOL     OW19720   0.717   2.873   5.413 -0.1342  0.4085 -0.5618
 2753SOL    HW119721   0.690   2.804   5.352  1.3457  1.7765 -2.7573
 2753SOL    HW219722   0.634   2.920   5.408 -1.1779 -1.4188 -0.5639
 2754SOL     OW19723   2.503   2.482   2.739  0.2238  0.3201 -0.2299
 2754SOL    HW119724   2.425   2.477   2.793  0.7893 -1.7340  0.4137
 2754SOL    HW219725   2.564   2.538   2.787 -1.0451  0.5503  1.1036
 2755SOL     OW19726   3.320   2.732   3.237 -0.3944 -0.2351  0.6858
 2755SOL    HW119727   3.345   2.732   3.144 -3.5047  0.4706 -0.1247
 2755SOL    HW219728   3.253   2.664   3.243 -1.1461  0.4021 -0.5734
 2756SOL     OW19729   1.541   1.295  17.324  0.0413 -0.2814  0.0854
 2756SOL    HW119730   1.507   1.221  17.274 -3.1981  0.7939  0.6805
 2756SOL    HW219731   1.555   1.358  17.253  2.1801 -1.4901 -0.5743
 2757SOL     OW19732   2.243   3.769   8.495  0.1181  0.4060 -0.0555
 2757SOL    HW119733   2.203   3.696   8.542  0.3010  0.5462  0.3106
 2757SOL    HW219734   2.186   3.761   8.418  0.1615  0.2736 -0.0732
 2758SOL     OW19735   2.007   0.556  11.152  0.1705  0.0505  0.3577
 2758SOL    HW119736   1.941   0.560  11.221 -0.9380 -2.0173 -0.5826
 2758SOL    HW219737   1.957   0.583  11.075  0.1511  0.9757  0.6911
 2759SOL     OW19738   1.727   2.213   3.533 -0.1679 -0.6742 -0.1400
 2759SOL    HW119739   1.683   2.139   3.575  0.1926 -0.6671  0.2468
 2759SOL    HW219740   1.658   2.254   3.480  0.0814  0.6510  0.5478
 2760SOL     OW19741   3.898   1.815   3.805  0.1972  0.2404  0.2113
 2760SOL    HW119742   3.928   1.748   3.867  1.1630 -1.0750 -1.6627
 2760SOL    HW219743   3.972   1.842   3.750  0.5288  0.5971  0.8298
 2761SOL     OW19744   0.813   2.227   5.518  0.1542 -0.5338 -0.2182
 2761SOL    HW119745   0.870   2.220   5.441 -1.8085 -1.5948 -1.5708
 2761SOL    HW219746   0.872   2.233   5.593 -0.9290 -0.0910  0.5949
 2762SOL     OW19747   3.616   3.405   8.565 -0.7215  0.3832 -0.2429
 2762SOL    HW119748   3.577   3.454   8.637 -0.4660 -1.5314  1.2299
 2762SOL    HW219749   3.707   3.433   8.573 -0.8881  0.2600  2.1349
 2763SOL     OW19750   2.517   4.025  11.207  0.2194  0.0248  0.3134
 2763SOL    HW119751   2.570   3.953  11.173  0.2730 -0.3895  1.2833
 2763SOL    HW219752   2.471   4.054  11.128 -0.4459  2.2221  1.4950
 2764SOL     OW19753   4.602   1.976  17.408  0.2548  0.3337 -0.3639
 2764SOL    HW119754   4.633   1.943  17.324  2.3613 -3.3346  1.8601
 2764SOL    HW219755   4.530   1.914  17.422  1.5780 -1.0664  0.2150
 2765SOL     OW19756   1.049   0.499  11.649 -0.2440  0.1765 -0.2325
 2765SOL    HW119757   1.061   0.407  11.670 -0.6651 -0.3725 -2.3711
 2765SOL    HW219758   1.032   0.536  11.736 -0.7378  0.5600 -0.4910
 2766SOL     OW19759   0.234   1.572   2.356 -0.2363  0.0544 -0.6033
 2766SOL    HW119760   0.228   1.484   2.394  1.4320  1.2682  2.4282
 2766SOL    HW219761   0.282   1.606   2.431  1.8484  0.3954 -2.1052
 2767SOL     OW19762   0.019   1.959   1.538  0.1679  0.6813  0.1439
 2767SOL    HW119763   0.109   1.927   1.533 -0.0492  0.0388  0.4546
 2767SOL    HW219764   4.690   1.881   1.558 -0.1025  0.6117 -0.7907
 2768SOL     OW19765   0.305   2.705  15.225 -0.6189 -0.3438 -0.4239
 2768SOL    HW119766   0.225   2.757  15.223 -0.6918 -0.4206  0.7452
 2768SOL    HW219767   0.348   2.752  15.297 -0.3338 -0.0428 -0.7834
 2769SOL     OW19768   3.366   2.996   2.817 -0.4634  0.0205  0.1241
 2769SOL    HW119769   3.444   2.953   2.852 -0.4084  0.9275  1.1286
 2769SOL    HW219770   3.388   3.082   2.852  0.1169  0.1291 -0.5260
 2770SOL     OW19771   3.792   2.256  17.490 -0.0118  0.0417  0.5939
 2770SOL    HW119772   3.862   2.289  17.547 -4.0259  4.2374  3.1404
 2770SOL    HW219773   3.834   2.260  17.405 -1.5697  0.1726 -0.1727
 2771SOL     OW19774   1.523   0.528   5.681 -0.0083 -0.8596 -0.0432
 2771SOL    HW119775   1.475   0.517   5.763  0.2822 -0.8809  0.1220
 2771SOL    HW219776   1.524   0.440   5.643 -1.4601 -0.8737 -0.0642
 2772SOL     OW19777   4.677   0.667   8.110  0.7260 -0.0986 -0.5519
 2772SOL    HW119778   4.651   0.652   8.201  1.0381  1.8626 -0.1329
 2772SOL    HW219779   0.050   0.658   8.122  0.3536 -2.2065  0.7534
 2773SOL     OW19780   1.294   3.992   0.020 -0.2725 -0.6856  0.2331
 2773SOL    HW119781   1.233   4.053  17.667  2.8445  0.1421 -2.9550
 2773SOL    HW219782   1.240   3.915   0.035  0.1176 -0.2593  3.8263
 2774SOL     OW19783   4.526   4.202   7.034  0.2840 -0.5342 -0.1289
 2774SOL    HW119784   4.611   4.239   7.057  0.9195 -2.0788  0.0547
 2774SOL    HW219785   4.534   4.150   6.953 -2.4475 -3.5127  1.4855
 2775SOL     OW19786   2.547   4.211  17.048  0.7392 -0.5428  0.8625
 2775SOL    HW119787   2.634   4.180  17.021  1.5008  1.1945  1.2659
 2775SOL    HW219788   2.504   4.181  16.969  2.4988 -1.5856  0.3004
 2776SOL     OW19789   1.684   1.841   7.827  0.5934  0.5855  0.2908
 2776SOL    HW119790   1.750   1.849   7.758  1.3662 -1.9390  0.7409
 2776SOL    HW219791   1.725   1.848   7.914 -0.0146  0.6623  0.5689
 2777SOL     OW19792   1.070   0.753  15.411 -0.6916 -0.1358  0.1708
 2777SOL    HW119793   1.064   0.658  15.425  0.2178 -0.2504 -0.2566
 2777SOL    HW219794   1.062   0.755  15.316 -0.2268  0.0180  0.1381
 2778SOL     OW19795   4.242   1.556   4.670  0.2704  0.1109 -0.2575
 2778SOL    HW119796   4.289   1.484   4.628  1.1283  0.7104 -0.3301
 2778SOL    HW219797   4.285   1.552   4.755 -1.2345  0.5146  0.5174
 2779SOL     OW19798   2.109   4.258   1.966 -0.0819 -0.3185 -0.0148
 2779SOL    HW119799   2.078   4.302   1.888 -0.8923  0.2810  0.6546
 2779SOL    HW219800   2.201   4.287   1.963 -0.1298 -0.3654 -1.5917
 2780SOL     OW19801   1.611   0.366  14.540  0.3715 -0.0757 -0.3974
 2780SOL    HW119802   1.670   0.423  14.590 -1.5475  1.6954 -0.1694
 2780SOL    HW219803   1.599   0.283  14.587 -0.1238 -0.6730 -1.5827
 2781SOL     OW19804   2.785   3.905   8.538 -0.1919  0.2468  0.8814
 2781SOL    HW119805   2.745   3.956   8.609  1.7909 -1.2529  3.0291
 2781SOL    HW219806   2.716   3.841   8.522  0.4888 -0.2145 -0.2317
 2782SOL     OW19807   0.261   1.881   3.555 -0.0841 -0.0132 -0.1324
 2782SOL    HW119808   0.299   1.927   3.481  1.4952 -0.5560  0.3419
 2782SOL    HW219809   0.218   1.814   3.501  1.2505 -1.7320  0.9194
 2783SOL     OW19810   3.818   1.735   8.611  0.2502  0.3837  0.3277
 2783SOL    HW119811   3.799   1.801   8.545  1.5857 -2.3772 -2.7870
 2783SOL    HW219812   3.730   1.722   8.648 -0.6921  0.8068 -1.7707
 2784SOL     OW19813   1.810   4.300   4.782  0.3806  0.3160 -0.1878
 2784SOL    HW119814   1.842   4.213   4.756 -0.3901  0.1850 -0.6969
 2784SOL    HW219815   1.804   4.280   4.875 -1.2225  2.4852  0.1613
 2785SOL     OW19816   3.460   3.555   3.186  0.5497 -0.1786  0.0026
 2785SOL    HW119817   3.388   3.547   3.123  0.0708  1.5837  0.2992
 2785SOL    HW219818   3.448   3.635   3.238  1.2614 -2.3686  3.5582
 2786SOL     OW19819   4.229   0.939   5.194  0.2474  0.6937 -0.2836
 2786SOL    HW119820   4.273   0.865   5.236  0.8737  0.9120 -0.5540
 2786SOL    HW219821   4.141   0.924   5.228 -0.4144  1.5232 -1.6718
 2787SOL     OW19822   1.533   1.456   3.806  0.1967 -0.4442 -0.4603
 2787SOL    HW119823   1.551   1.529   3.864  0.8776  0.9900 -2.4748
 2787SOL    HW219824   1.545   1.382   3.865  1.3666 -0.2468 -0.4445
 2788SOL     OW19825   3.853   1.817   6.928  0.2570 -0.3003  0.1027
 2788SOL    HW119826   3.768   1.861   6.924  0.1372 -0.4392  1.1338
 2788SOL    HW219827   3.863   1.777   6.842  0.9442 -1.1494  0.5678
 2789SOL     OW19828   3.345   1.128   7.478  0.6444 -0.5561 -0.3205
 2789SOL    HW119829   3.394   1.153   7.400 -0.1586  0.2823 -0.5605
 2789SOL    HW219830   3.399   1.058   7.514  1.3030  0.0794 -0.0839
 2790SOL     OW19831   2.842   1.603  14.002 -0.3065  0.2365 -0.3410
 2790SOL    HW119832   2.844   1.694  14.033 -0.2919 -0.2787  1.1831
 2790SOL    HW219833   2.770   1.610  13.940 -2.1219 -1.6789  1.5518
 2791SOL     OW19834   3.757   4.003   5.320  0.3807 -0.0874  0.2618
 2791SOL    HW119835   3.677   3.960   5.293 -0.6197  0.3852  2.4096
 2791SOL    HW219836   3.814   3.980   5.247  0.8554  0.7037  0.3774
 2792SOL     OW19837   0.244   0.454   1.774  0.4765 -0.3307  0.6007
 2792SOL    HW119838   0.282   0.466   1.861  0.0346 -1.4022  0.9361
 2792SOL    HW219839   0.310   0.489   1.715  1.4822 -2.4766  0.4745
 2793SOL     OW19840   2.708   1.171   0.902  0.7499 -0.1999  0.1404
 2793SOL    HW119841   2.711   1.096   0.842 -0.0045  0.8060 -1.1591
 2793SOL    HW219842   2.631   1.223   0.880 -0.2476 -1.8754 -0.3243
 2794SOL     OW19843   2.391   0.007   7.152  0.4062  0.0392  0.3544
 2794SOL    HW119844   2.385   4.666   7.224 -0.7214 -1.2554 -0.8810
 2794SOL    HW219845   2.327   4.690   7.093 -1.0097 -0.7803  2.4585
 2795SOL     OW19846   3.117   3.523   9.201  0.5905  0.2520  0.5442
 2795SOL    HW119847   3.048   3.539   9.266  1.8050  0.9536  1.6628
 2795SOL    HW219848   3.175   3.593   9.231 -0.6375  1.2837  0.5213
 2796SOL     OW19849   1.809   1.068  10.514  0.4527 -0.3593 -0.6727
 2796SOL    HW119850   1.845   1.004  10.453 -0.6285 -2.0098  0.4222
 2796SOL    HW219851   1.722   1.031  10.530  0.0065  1.2939  0.7097
 2797SOL     OW19852   0.191   2.175   6.005  0.2091 -0.2780 -0.2889
 2797SOL    HW119853   0.108   2.174   5.958  1.3139 -1.4814 -2.2264
 2797SOL    HW219854   0.171   2.224   6.084  0.5709 -0.4938 -0.0624
 2798SOL     OW19855   2.749   2.167   9.517  0.3128  0.2153 -0.0922
 2798SOL    HW119856   2.730   2.218   9.438  0.8286  2.2301  1.0928
 2798SOL    HW219857   2.675   2.107   9.523  1.9629 -1.8202 -0.0133
 2799SOL     OW19858   0.283   3.131  14.522 -0.8541  0.0168  0.4658
 2799SOL    HW119859   0.365   3.085  14.537 -1.3332 -1.3324 -1.1244
 2799SOL    HW219860   0.236   3.105  14.601 -2.9619  0.6502 -0.5838
 2800SOL     OW19861   0.650   3.354   4.168  0.1652  0.5240 -0.0644
 2800SOL    HW119862   0.636   3.433   4.219 -0.8141 -0.1004  0.6264
 2800SOL    HW219863   0.746   3.351   4.173  0.1948 -1.5395 -1.7276
 2801SOL     OW19864   0.012   3.634   8.838  0.1824 -0.4221 -0.0114
 2801SOL    HW119865   0.076   3.701   8.863 -1.1133  0.6077  0.5382
 2801SOL    HW219866   0.064   3.595   8.767 -0.8616  0.2033 -1.1307
 2802SOL     OW19867   3.187   2.226   4.868 -0.2784 -0.1974 -0.6570
 2802SOL    HW119868   3.103   2.185   4.848  0.2146 -0.4821 -2.1010
 2802SOL    HW219869   3.224   2.160   4.927 -0.1870  0.6714  0.2642
 2803SOL     OW19870   3.632   1.594  13.546 -0.0590  0.7750 -0.4713
 2803SOL    HW119871   3.597   1.681  13.565  0.4238  0.8957 -0.1412
 2803SOL    HW219872   3.674   1.569  13.628 -0.7143 -0.2645 -0.4550
 2804SOL     OW19873   3.062   3.805   2.036  0.1539 -0.2524 -0.4036
 2804SOL    HW119874   3.104   3.891   2.023  1.3526 -0.8420 -0.4554
 2804SOL    HW219875   2.970   3.826   2.050 -0.2723 -2.3018 -0.1426
 2805SOL     OW19876   3.028   2.927  10.430  0.1818 -0.1081 -0.3133
 2805SOL    HW119877   3.082   2.989  10.479 -2.1597  1.1772  0.6149
 2805SOL    HW219878   3.046   2.843  10.471 -0.1387 -0.0798 -0.1147
 2806SOL     OW19879   0.316   3.299  15.354  0.6128 -0.2110  0.1546
 2806SOL    HW119880   0.325   3.210  15.388  1.5368  0.0078  0.4901
 2806SOL    HW219881   0.293   3.277  15.264  1.2201 -1.7167  0.3681
 2807SOL     OW19882   1.542   2.114   0.766  1.0378  0.0717  0.3051
 2807SOL    HW119883   1.586   2.044   0.814  3.6180  0.7760 -1.0269
 2807SOL    HW219884   1.489   2.073   0.698 -1.1836  1.2727  1.2810
 2808SOL     OW19885   0.542   4.107   4.804 -0.1839 -0.5054  0.0212
 2808SOL    HW119886   0.496   4.141   4.727  1.0095  0.1296 -0.4223
 2808SOL    HW219887   0.476   4.051   4.844  0.0543 -0.3744  0.6062
 2809SOL     OW19888   1.289   1.064   3.923 -0.6514  0.2996 -0.1395
 2809SOL    HW119889   1.287   1.116   3.842 -4.4157 -0.0654 -0.2798
 2809SOL    HW219890   1.303   0.977   3.886 -0.9919 -0.4102  1.4096
 2810SOL     OW19891   2.742   3.209   2.387  0.5580 -0.3973  0.2055
 2810SOL    HW119892   2.759   3.295   2.425  3.0067 -0.5504 -0.5434
 2810SOL    HW219893   2.788   3.152   2.448 -0.9094 -0.6700  1.0622
 2811SOL     OW19894   0.773   1.988   4.978 -0.0242  0.2214  0.1056
 2811SOL    HW119895   0.678   1.992   4.990 -0.1234 -0.0958 -0.5529
 2811SOL    HW219896   0.797   2.026   5.063 -1.4211  0.5765  0.3411
 2812SOL     OW19897   1.327   2.425   2.395 -0.0845  0.2992 -0.0449
 2812SOL    HW119898   1.341   2.519   2.384  2.2975  0.0011  0.5437
 2812SOL    HW219899   1.411   2.390   2.424  0.2445  1.4381  0.3514
 2813SOL     OW19900   2.913   3.135   8.993 -0.1381  0.2248  0.0630
 2813SOL    HW119901   2.990   3.127   9.049 -0.7240 -1.2261  0.6584
 2813SOL    HW219902   2.871   3.052   9.014 -1.0102  1.2323  2.3124
 2814SOL     OW19903   0.498   3.066   8.415  0.2863  0.1193  0.0450
 2814SOL    HW119904   0.418   3.055   8.466 -0.6644  1.1084 -1.2036
 2814SOL    HW219905   0.522   2.975   8.400 -1.3269  0.0670 -2.3094
 2815SOL     OW19906   2.174   0.765  11.301 -0.4168 -0.1274  0.2964
 2815SOL    HW119907   2.141   0.784  11.389 -2.2839  0.9565 -0.6496
 2815SOL    HW219908   2.106   0.715  11.257  0.1987  1.2415 -2.1815
 2816SOL     OW19909   0.539   0.361  16.729  0.2676 -0.0375  0.3732
 2816SOL    HW119910   0.509   0.411  16.804  0.3600 -3.1469  2.4638
 2816SOL    HW219911   0.578   0.291  16.782  2.9332  0.8933 -0.3582
 2817SOL     OW19912   4.151   1.113   8.442  0.3400 -0.4413 -0.6574
 2817SOL    HW119913   4.073   1.114   8.387  0.4229 -2.5665 -0.8159
 2817SOL    HW219914   4.118   1.108   8.532  2.4782  2.5972  0.3025
 2818SOL     OW19915   4.371   4.423   5.306  0.7778  0.0699 -0.0950
 2818SOL    HW119916   4.412   4.398   5.388 -1.2199 -1.6826  0.3751
 2818SOL    HW219917   4.308   4.490   5.333 -1.7209 -2.1369 -0.3723
 2819SOL     OW19918   3.641   0.982   6.507 -0.3374 -0.0421 -0.2500
 2819SOL    HW119919   3.645   1.037   6.428  1.0278  0.7812  0.3912
 2819SOL    HW219920   3.712   0.918   6.506  0.4364  0.7833  1.5611
 2820SOL     OW19921   2.155   0.858   8.623 -0.4773  0.5975 -0.5508
 2820SOL    HW119922   2.203   0.874   8.705 -1.7463  1.8669 -0.0521
 2820SOL    HW219923   2.189   0.770   8.610  0.8687  1.0381 -0.0144
 2821SOL     OW19924   1.674   3.987   0.544 -0.2854  0.1605 -0.8615
 2821SOL    HW119925   1.700   4.078   0.530 -1.4889  0.7036  0.5339
 2821SOL    HW219926   1.590   3.992   0.589 -0.5032 -1.4814 -1.0824
 2822SOL     OW19927   1.248   3.565   5.350 -0.2849  0.0363 -0.3260
 2822SOL    HW119928   1.168   3.514   5.363  0.7391 -1.3527  0.5459
 2822SOL    HW219929   1.215   3.644   5.309  2.6274  0.7084 -1.3887
 2823SOL     OW19930   0.453   1.870  10.535 -0.0127 -0.1753  0.1449
 2823SOL    HW119931   0.430   1.943  10.592  0.9844 -0.1622  0.5156
 2823SOL    HW219932   0.548   1.875  10.544 -0.0427 -0.8413  0.8345
 2824SOL     OW19933   3.185   2.376   6.366 -0.2881 -0.1330  0.5795
 2824SOL    HW119934   3.155   2.352   6.454  1.3414  2.3304  1.7851
 2824SOL    HW219935   3.260   2.317   6.359  0.6073  1.3564 -2.4426
 2825SOL     OW19936   2.376   1.806   4.633  1.1353 -0.0803  0.1145
 2825SOL    HW119937   2.324   1.728   4.610  2.0173 -0.1331 -1.7156
 2825SOL    HW219938   2.456   1.800   4.581  0.5901  1.8837 -0.9612
 2826SOL     OW19939   2.263   0.657   5.823 -0.5852 -0.3625 -0.3581
 2826SOL    HW119940   2.331   0.708   5.779 -1.0460 -0.4149 -1.1256
 2826SOL    HW219941   2.205   0.649   5.747  1.3680 -1.4236 -1.7535
 2827SOL     OW19942   0.608   4.554  12.311  0.2122  0.2352 -0.1777
 2827SOL    HW119943   0.535   4.502  12.278 -0.3583  0.2492  1.0555
 2827SOL    HW219944   0.643   4.594  12.232 -1.5313  0.0032 -1.0734
 2828SOL     OW19945   0.067   4.371   7.962  0.5067 -0.0251 -0.2850
 2828SOL    HW119946   0.113   4.350   8.044  2.2347  1.1119 -0.9602
 2828SOL    HW219947   4.701   4.399   7.988  0.4036 -2.6741  2.2347
 2829SOL     OW19948   3.530   4.406   5.018 -0.1105  0.0202 -0.3454
 2829SOL    HW119949   3.614   4.361   5.031 -0.5597 -1.1373 -1.4421
 2829SOL    HW219950   3.546   4.473   4.952  0.7764  0.7031  0.5593
 2830SOL     OW19951   0.826   0.005  13.482  0.0841 -0.0034  0.0933
 2830SOL    HW119952   0.783   0.084  13.513  1.8580  0.1208  2.1830
 2830SOL    HW219953   0.901   0.050  13.443 -0.0315 -1.7329 -2.1286
 2831SOL     OW19954   0.298   4.614   5.774 -0.5762  0.0420  0.0791
 2831SOL    HW119955   0.287   4.616   5.679  0.2698 -2.4221 -0.0641
 2831SOL    HW219956   0.366   4.547   5.784  0.7390  1.1239 -1.5335
 2832SOL     OW19957   3.118   1.412  11.017 -0.5600 -0.4997 -0.7485
 2832SOL    HW119958   3.171   1.479  11.061  0.4777 -0.8921 -1.4058
 2832SOL    HW219959   3.031   1.453  11.015 -0.4700 -0.3909 -2.2881
 2833SOL     OW19960   2.470   0.580   4.504  1.1132 -0.4606  0.5086
 2833SOL    HW119961   2.382   0.584   4.540  1.2066 -0.4733  0.7395
 2833SOL    HW219962   2.527   0.619   4.571  0.0361  1.8056  0.0977
 2834SOL     OW19963   4.563   0.598   6.935 -0.0272 -0.0223 -0.6163
 2834SOL    HW119964   4.495   0.530   6.939 -0.7568  0.5476 -3.2966
 2834SOL    HW219965   4.610   0.580   6.854 -0.9472  2.1399 -1.6510
 2835SOL     OW19966   0.959   1.385   5.069 -0.9382 -0.0006 -0.0573
 2835SOL    HW119967   1.046   1.357   5.038 -0.2823  0.9038  0.9515
 2835SOL    HW219968   0.953   1.340   5.153  0.2502 -0.3707 -0.1662
 2836SOL     OW19969   4.019   2.840  10.202 -0.1017  0.9422  0.7389
 2836SOL    HW119970   3.961   2.915  10.213 -1.6112 -0.1835  0.4570
 2836SOL    HW219971   3.958   2.774  10.234 -0.3807  1.3895  1.1352
 2837SOL     OW19972   1.205   4.132   6.991  0.7113 -0.5689  0.0454
 2837SOL    HW119973   1.161   4.162   7.070  0.9460 -1.2754  0.4504
 2837SOL    HW219974   1.161   4.048   6.982  0.6308 -0.4864 -0.3511
 2838SOL     OW19975   3.256   4.381   2.286  0.1404  0.5126  0.2385
 2838SOL    HW119976   3.321   4.313   2.270  0.4402  1.1656 -1.3716
 2838SOL    HW219977   3.176   4.328   2.283 -0.2442  1.0792  0.3716
 2839SOL     OW19978   1.022   0.840   0.433 -0.2427  0.6135 -0.0538
 2839SOL    HW119979   0.951   0.798   0.384 -1.3161  0.8590  1.2918
 2839SOL    HW219980   1.001   0.813   0.522  3.0302  2.0519  1.1232
 2840SOL     OW19981   3.597   4.609   9.462 -0.0825 -0.0232 -0.1095
 2840SOL    HW119982   3.690   4.620   9.482  0.2609  1.4526 -2.3862
 2840SOL    HW219983   3.558   4.691   9.492  0.2542 -0.5311  1.6573
 2841SOL     OW19984   3.442   4.052  14.496  0.3595 -0.9557  0.3981
 2841SOL    HW119985   3.384   4.109  14.547  0.9464 -1.5145  1.6730
 2841SOL    HW219986   3.372   4.018  14.440  0.2029 -1.3176  0.8180
 2842SOL     OW19987   1.705   4.367   1.569 -0.3940  0.9759 -0.2924
 2842SOL    HW119988   1.653   4.447   1.579 -1.3992  0.2160  0.5302
 2842SOL    HW219989   1.790   4.406   1.548  0.5634 -0.4627  0.9108
 2843SOL     OW19990   3.614   3.206   1.388  0.2844  0.0942 -0.2034
 2843SOL    HW119991   3.681   3.241   1.329  2.0729  1.0139  2.4035
 2843SOL    HW219992   3.657   3.215   1.472 -1.3433  2.2834  0.4018
 2844SOL     OW19993   3.649   4.526   4.573  0.0485  0.1102 -0.4118
 2844SOL    HW119994   3.622   4.614   4.600  0.3558  0.7274 -2.1516
 2844SOL    HW219995   3.567   4.477   4.577  0.5167 -0.6137  0.2876
 2845SOL     OW19996   0.229   2.421   3.577 -0.7289 -0.4665  0.9195
 2845SOL    HW119997   0.225   2.512   3.605 -0.8857 -0.8650  2.1869
 2845SOL    HW219998   0.152   2.416   3.521  0.3960 -0.0359 -0.6529
 2846SOL     OW19999   1.999   4.339   7.125  0.4499 -0.2782  0.2283
 2846SOL    HW120000   2.017   4.245   7.127 -1.2260 -0.5875  0.6902
 2846SOL    HW220001   1.958   4.356   7.209  1.1207  2.1747  0.0546
 2847SOL     OW20002   1.486   2.375   1.824 -0.4462  0.2341 -0.6777
 2847SOL    HW120003   1.456   2.347   1.910  2.5644  0.3414  0.3929
 2847SOL    HW220004   1.495   2.289   1.783 -2.1110  0.7054 -2.0579
 2848SOL     OW20005   4.399   3.319  17.136 -0.0612 -0.0741  0.1405
 2848SOL    HW120006   4.408   3.270  17.218  2.2331 -1.0558 -0.6950
 2848SOL    HW220007   4.331   3.384  17.155 -0.8657 -0.7955 -0.3128
 2849SOL     OW20008   2.679   0.207  10.366  0.0099  0.0731 -0.3842
 2849SOL    HW120009   2.716   0.150  10.299  1.2063  1.1920 -0.6659
 2849SOL    HW220010   2.593   0.226  10.328  0.6997  1.3539 -1.2861
 2850SOL     OW20011   2.674   1.781   7.118 -0.3422 -0.2844  0.2234
 2850SOL    HW120012   2.744   1.798   7.180  1.6866  0.8232 -2.3657
 2850SOL    HW220013   2.709   1.790   7.029 -2.6094  2.2590 -0.4088
 2851SOL     OW20014   3.310   4.270   1.124 -0.0969  0.6011 -0.2497
 2851SOL    HW120015   3.364   4.243   1.049 -0.7818  2.2684 -1.3427
 2851SOL    HW220016   3.355   4.346   1.161  0.1781  0.5070 -0.3870
 2852SOL     OW20017   1.580   3.176  10.957  0.0952 -0.7188  0.8211
 2852SOL    HW120018   1.518   3.193  10.885  0.3752  0.3836  0.8387
 2852SOL    HW220019   1.524   3.217  11.023  1.3375  1.6617  0.3900
 2853SOL     OW20020   3.797   3.480   1.879  0.4403  0.4991  0.3814
 2853SOL    HW120021   3.793   3.564   1.925  0.7442  1.0376 -0.5783
 2853SOL    HW220022   3.853   3.500   1.804 -0.0986  3.1458  0.6778
 2854SOL     OW20023   2.094   1.465   0.274  0.2806  0.1082  0.1538
 2854SOL    HW120024   2.153   1.537   0.299 -2.1449  1.3384  2.2920
 2854SOL    HW220025   2.153   1.397   0.304 -2.1981 -0.9275  2.6639
 2855SOL     OW20026   0.322   4.267   6.733 -0.3774 -0.5486  0.3196
 2855SOL    HW120027   0.333   4.211   6.810  1.0291 -0.1806  0.3985
 2855SOL    HW220028   0.301   4.207   6.662  1.2536 -0.2466 -0.4200
 2856SOL     OW20029   2.782   4.099   5.966  0.1006 -0.4274  0.6040
 2856SOL    HW120030   2.742   4.151   6.035 -0.7793 -1.5577  0.9504
 2856SOL    HW220031   2.868   4.139   5.976  0.1504  1.1373 -5.6676
 2857SOL     OW20032   1.590   1.928   7.486 -0.4251  0.4000 -0.3157
 2857SOL    HW120033   1.595   1.833   7.496 -2.3199  0.6512  2.7440
 2857SOL    HW220034   1.669   1.955   7.533 -0.7407  0.3175  0.2602
 2858SOL     OW20035   0.432   0.065  16.633 -0.6049  0.1010  0.2464
 2858SOL    HW120036   0.507   0.073  16.693 -1.4103 -1.4447  1.4470
 2858SOL    HW220037   0.413   4.693  16.629 -1.0781  0.2048  0.1755
 2859SOL     OW20038   1.067   0.263   3.283  0.2419 -0.2749  0.1928
 2859SOL    HW120039   1.150   0.308   3.300  1.9156 -3.1649 -0.3107
 2859SOL    HW220040   1.024   0.263   3.369  0.5567  1.7987  0.3545
 2860SOL     OW20041   3.424   1.541  15.438 -0.3041 -0.0140  0.0931
 2860SOL    HW120042   3.513   1.523  15.469 -1.0325  0.1145  2.2695
 2860SOL    HW220043   3.399   1.613  15.497 -0.3004  0.0161  0.0583
 2861SOL     OW20044   1.895   2.330   6.927 -0.3873 -0.5240  0.3268
 2861SOL    HW120045   1.872   2.239   6.909 -1.9270 -0.1807  0.5708
 2861SOL    HW220046   1.820   2.364   6.976  0.1348 -0.2370  0.9303
 2862SOL     OW20047   4.197   2.334   5.964 -0.2568  0.2393 -0.8045
 2862SOL    HW120048   4.147   2.390   6.023  2.0739  2.6185 -1.0828
 2862SOL    HW220049   4.149   2.252   5.969 -1.8974  1.2041 -0.5382
 2863SOL     OW20050   2.584   1.589  14.916  0.2995  0.3378  0.0271
 2863SOL    HW120051   2.611   1.677  14.890  0.1975 -0.3853 -2.4985
 2863SOL    HW220052   2.613   1.532  14.845  0.9163 -0.0121  0.5609
 2864SOL     OW20053   2.346   1.631  10.419 -0.1852 -0.1203  0.1106
 2864SOL    HW120054   2.433   1.592  10.404 -0.0887 -1.0364  3.1983
 2864SOL    HW220055   2.367   1.664  10.506 -0.2583  1.5839 -0.5110
 2865SOL     OW20056   4.462   0.658   5.565  0.3046  0.0998 -0.5266
 2865SOL    HW120057   4.403   0.610   5.507  2.1612 -5.4251  2.2099
 2865SOL    HW220058   4.407   0.733   5.585 -0.3738 -0.4856 -0.2301
 2866SOL     OW20059   2.043   3.799   7.239  0.2880 -0.1661  0.8027
 2866SOL    HW120060   1.963   3.814   7.290 -1.3542 -2.5214 -1.0909
 2866SOL    HW220061   2.031   3.704   7.233  2.8739 -0.4812  0.7981
 2867SOL     OW20062   1.083   3.222   5.571  0.3019  0.1452 -0.2087
 2867SOL    HW120063   1.125   3.155   5.626 -1.7833 -0.6342  0.4149
 2867SOL    HW220064   1.008   3.170   5.542  1.3660 -1.6847  0.3412
 2868SOL     OW20065   1.239   3.902   1.293  0.1670 -0.2813 -0.1327
 2868SOL    HW120066   1.318   3.957   1.301  0.5175 -1.3349  3.6161
 2868SOL    HW220067   1.181   3.967   1.254 -1.3285 -1.5921 -0.0604
 2869SOL     OW20068   1.105   3.566  11.132  0.3583  0.1844  0.2289
 2869SOL    HW120069   1.037   3.544  11.196  0.5715  1.2488  0.8226
 2869SOL    HW220070   1.058   3.643  11.102  1.8012  0.8513 -0.3502
 2870SOL     OW20071   2.715   0.005   2.580  0.0589 -0.0425  0.2478
 2870SOL    HW120072   2.755   0.089   2.602  1.0414 -0.5859  0.5101
 2870SOL    HW220073   2.736   4.715   2.487 -0.3173 -3.6519  0.6335
 2871SOL     OW20074   0.303   0.127  17.043 -0.2684  0.7815 -0.1800
 2871SOL    HW120075   0.277   0.035  17.054  0.5806  0.4580 -0.8716
 2871SOL    HW220076   0.211   0.153  17.034 -0.2537  1.0244  0.4338
 2872SOL     OW20077   2.066   3.795  11.090 -0.4565  0.4259 -0.4362
 2872SOL    HW120078   2.012   3.822  11.164  1.0739  0.5863  0.6106
 2872SOL    HW220079   2.083   3.702  11.104  0.7130  0.8355  0.8365
 2873SOL     OW20080   2.370   3.212   3.008 -0.1092  0.2404  0.2230
 2873SOL    HW120081   2.425   3.256   2.944  1.8839 -0.8207  1.2284
 2873SOL    HW220082   2.336   3.139   2.956  2.0223  0.4789 -1.5121
 2874SOL     OW20083   2.389   1.802   7.994  0.1200  0.1186 -0.3394
 2874SOL    HW120084   2.460   1.783   7.933  0.0435 -1.7464  0.1509
 2874SOL    HW220085   2.426   1.851   8.068  0.4428  0.2588 -0.5954
 2875SOL     OW20086   1.167   2.188   3.708  0.2311 -0.1872 -0.0171
 2875SOL    HW120087   1.233   2.137   3.755  0.4354  0.7751  0.7463
 2875SOL    HW220088   1.217   2.240   3.646  1.5400 -2.8370 -1.1670
 2876SOL     OW20089   4.595   0.036  10.251  0.2114  0.3518 -0.4049
 2876SOL    HW120090   4.621   4.685  10.194  0.4156 -1.3814  1.8905
 2876SOL    HW220091   4.530   0.082  10.198  1.2147  2.0539 -0.1369
 2877SOL     OW20092   3.747   4.050   6.676  0.0869 -0.1820 -0.0493
 2877SOL    HW120093   3.813   4.008   6.621 -0.1168  0.4922 -0.8103
 2877SOL    HW220094   3.802   4.122   6.706  0.8563 -1.5566  1.8334
 2878SOL     OW20095   4.097   1.247   9.050  0.0162 -0.0094 -0.1042
 2878SOL    HW120096   4.069   1.180   8.988  1.4106 -0.7496  0.0778
 2878SOL    HW220097   4.092   1.206   9.136  2.5593  2.3968  1.2028
 2879SOL     OW20098   1.303   3.861   3.294  0.0371  0.0418  0.1512
 2879SOL    HW120099   1.273   3.951   3.300 -2.4941 -0.9397  1.9838
 2879SOL    HW220100   1.241   3.819   3.235  1.8393 -0.6896 -1.2426
 2880SOL     OW20101   3.286   3.269   1.673 -0.1218  0.3556 -0.2124
 2880SOL    HW120102   3.216   3.293   1.733 -2.1231 -0.0400 -2.4206
 2880SOL    HW220103   3.259   3.313   1.592 -1.4066 -0.1964 -0.0827
 2881SOL     OW20104   2.714   3.491   3.707  0.0909  0.1386  0.5465
 2881SOL    HW120105   2.726   3.428   3.636 -0.7340 -2.5264  2.7858
 2881SOL    HW220106   2.640   3.542   3.673  0.6978 -0.1871 -1.2599
 2882SOL     OW20107   3.855   4.643  14.309  0.2569  0.2067  0.6363
 2882SOL    HW120108   3.916   4.569  14.300  2.6689  2.2663  0.1416
 2882SOL    HW220109   3.889   4.696  14.238  0.9670 -3.0473 -1.4827
 2883SOL     OW20110   0.144   3.817  16.799  0.4400  0.1113 -0.2072
 2883SOL    HW120111   0.133   3.747  16.864  0.3626 -0.0757 -0.4252
 2883SOL    HW220112   0.237   3.808  16.778  0.2642 -1.6359 -0.2754
 2884SOL     OW20113   4.292   3.115   5.094 -0.8322 -0.1133  0.4890
 2884SOL    HW120114   4.217   3.097   5.150 -2.1396 -0.9543 -1.5326
 2884SOL    HW220115   4.313   3.204   5.122 -0.2671 -0.1845  0.2941
 2885SOL     OW20116   2.720   2.324   1.985  0.2483  0.3427  0.3965
 2885SOL    HW120117   2.627   2.345   1.975  0.5288  1.3443 -0.1235
 2885SOL    HW220118   2.743   2.318   1.892 -0.4414 -3.3209  0.4641
 2886SOL     OW20119   1.448   4.202  11.213  0.2821 -0.3223  0.4265
 2886SOL    HW120120   1.439   4.113  11.179  0.5159  0.4922 -1.7638
 2886SOL    HW220121   1.385   4.251  11.160  1.2595 -1.3370 -1.6447
 2887SOL     OW20122   0.622   0.211   8.095  0.8679 -0.4087 -0.4899
 2887SOL    HW120123   0.632   0.117   8.078 -1.0717 -0.9458  1.1852
 2887SOL    HW220124   0.526   0.220   8.091  0.8353  0.0242  1.2398
 2888SOL     OW20125   4.318   3.442  13.846  0.7028  0.0999  0.7304
 2888SOL    HW120126   4.300   3.380  13.917  3.2010 -2.6499 -1.0384
 2888SOL    HW220127   4.279   3.522  13.882 -0.9421 -0.8950  1.1283
 2889SOL     OW20128   0.270   4.198   8.150  0.3952 -0.0237  0.7397
 2889SOL    HW120129   0.359   4.233   8.159  1.2978 -1.8977 -0.8066
 2889SOL    HW220130   0.240   4.233   8.234 -0.0211 -0.2630  0.6923
 2890SOL     OW20131   3.570   0.929   4.527 -0.3141  0.0663  0.1242
 2890SOL    HW120132   3.643   0.958   4.582 -1.6928  1.8379  1.0090
 2890SOL    HW220133   3.616   0.872   4.465  1.7645  0.7267  1.0758
 2891SOL     OW20134   1.702   1.273   2.445 -0.5036  0.2763 -0.1396
 2891SOL    HW120135   1.655   1.347   2.407  0.4651  0.5479 -0.8083
 2891SOL    HW220136   1.795   1.280   2.422 -1.0746 -0.6570 -2.7119
 2892SOL     OW20137   4.078   1.032  14.799 -0.5078 -0.1691  0.1113
 2892SOL    HW120138   4.064   1.115  14.752  0.2189  0.4655  1.0215
 2892SOL    HW220139   3.987   1.005  14.810 -0.4833 -1.0403 -1.6942
 2893SOL     OW20140   1.927   2.149  14.923 -0.1747 -0.6568  0.9061
 2893SOL    HW120141   1.882   2.233  14.927  0.6489 -0.1820  0.1815
 2893SOL    HW220142   1.950   2.144  15.016 -0.2776  0.6542  0.9942
 2894SOL     OW20143   4.175   0.527   9.660  0.1274  0.2437  0.1477
 2894SOL    HW120144   4.229   0.541   9.738  0.1160 -0.4193  0.2715
 2894SOL    HW220145   4.110   0.465   9.692 -0.1733  0.3853 -0.1913
 2895SOL     OW20146   1.871   2.669   1.797 -0.0230 -0.5726 -0.6152
 2895SOL    HW120147   1.919   2.603   1.747  1.3088 -2.8744  3.7138
 2895SOL    HW220148   1.882   2.643   1.889  0.1746 -0.0565 -0.4939
 2896SOL     OW20149   3.825   1.628   0.268  0.2059 -0.6305 -0.1636
 2896SOL    HW120150   3.780   1.553   0.230 -2.1902  0.6153  0.1737
 2896SOL    HW220151   3.798   1.689   0.199 -0.1793  1.1234  1.5078
 2897SOL     OW20152   4.383   2.093  15.539 -0.0593  0.3042  0.0260
 2897SOL    HW120153   4.437   2.155  15.588 -0.8887  0.4912  0.7109
 2897SOL    HW220154   4.336   2.159  15.489 -0.7778  0.3930  0.8080
 2898SOL     OW20155   2.544   3.624   1.590 -0.3848  0.1487 -0.2846
 2898SOL    HW120156   2.524   3.559   1.523  3.6875 -0.0757 -1.2438
 2898SOL    HW220157   2.637   3.646   1.587 -0.9177  2.6210  0.7467
 2899SOL     OW20158   1.794   0.791   9.781 -0.3359 -0.7878  0.6279
 2899SOL    HW120159   1.722   0.733   9.807 -1.7195  0.3891 -0.6217
 2899SOL    HW220160   1.755   0.877   9.764 -0.2179 -1.2901 -2.0652
 2900SOL     OW20161   4.136   2.680   5.914 -0.0102  0.3119 -0.0557
 2900SOL    HW120162   4.225   2.650   5.897 -0.2956  0.4235 -1.7075
 2900SOL    HW220163   4.125   2.735   5.836 -0.7737  1.9663  1.2062
 2901SOL     OW20164   0.783   2.853  11.219  0.0036  0.3639  0.1389
 2901SOL    HW120165   0.811   2.837  11.309  2.2993 -0.3981 -0.7126
 2901SOL    HW220166   0.863   2.897  11.191  0.3821 -1.1263 -1.0877
 2902SOL     OW20167   2.210   1.323   8.002 -0.1808 -0.3326 -0.6793
 2902SOL    HW120168   2.190   1.321   8.096  1.9278  1.1551 -0.1675
 2902SOL    HW220169   2.273   1.395   8.001  1.9598 -2.1897  0.3641
 2903SOL     OW20170   2.707   0.117   1.361  1.0526 -0.0657  0.7370
 2903SOL    HW120171   2.748   0.202   1.371  1.6302 -0.2749  0.1668
 2903SOL    HW220172   2.643   0.133   1.291 -0.1083 -1.2570  1.5199
 2904SOL     OW20173   1.842   2.391  10.475  0.6613  0.0234  0.0299
 2904SOL    HW120174   1.813   2.395  10.384 -0.7709 -1.6826  0.4354
 2904SOL    HW220175   1.825   2.479  10.510 -2.1278 -0.1679 -0.8235
 2905SOL     OW20176   2.154   4.663   6.625 -0.3247 -0.6605 -0.0677
 2905SOL    HW120177   2.142   4.637   6.534  0.9270 -0.9017 -0.1572
 2905SOL    HW220178   2.231   4.719   6.619 -0.0751 -1.1171 -1.0898
 2906SOL     OW20179   2.415   4.480  14.248 -0.0757  0.0868 -0.2485
 2906SOL    HW120180   2.414   4.408  14.311  0.4327  1.0049  0.8069
 2906SOL    HW220181   2.323   4.504  14.259  0.4955  2.2225  0.0358
 2907SOL     OW20182   3.737   4.545  16.510  0.7901 -0.0067 -0.0160
 2907SOL    HW120183   3.652   4.526  16.470  2.0318 -2.5733 -1.4599
 2907SOL    HW220184   3.722   4.611  16.578  0.7861 -0.5457  0.5136
 2908SOL     OW20185   4.662   1.924   3.445  0.0559 -0.0617  0.2211
 2908SOL    HW120186   4.664   2.001   3.503  0.2244  0.0073  0.1219
 2908SOL    HW220187   0.001   1.943   3.374  0.3896 -0.4510  0.4006
 2909SOL     OW20188   3.522   3.047   3.137 -0.2984  0.4684  0.9914
 2909SOL    HW120189   3.551   2.987   3.205 -0.4971  0.5630  1.1588
 2909SOL    HW220190   3.525   3.136   3.173  0.2404 -0.0533  2.2163
 2910SOL     OW20191   2.418   1.670  10.697 -0.2406 -0.2762  0.4609
 2910SOL    HW120192   2.451   1.689  10.785  1.6724  0.3224 -0.3889
 2910SOL    HW220193   2.342   1.615  10.714 -0.8852  0.0169 -1.4972
 2911SOL     OW20194   2.707   4.428   7.381 -0.1405 -0.5916  0.5068
 2911SOL    HW120195   2.720   4.368   7.455 -1.5858 -1.2091  0.2441
 2911SOL    HW220196   2.673   4.368   7.315 -1.0845 -0.7365  1.1325
 2912SOL     OW20197   3.438   2.803   4.809 -0.3441  0.3525 -0.2343
 2912SOL    HW120198   3.374   2.873   4.794  0.7714  0.9816 -2.0638
 2912SOL    HW220199   3.420   2.779   4.900  1.7847 -2.2822 -0.5230
 2913SOL     OW20200   3.088   2.079   8.579  0.0133  0.5315 -0.6804
 2913SOL    HW120201   3.019   2.063   8.515 -1.1805  0.3632  0.6253
 2913SOL    HW220202   3.162   2.088   8.519 -0.3061 -2.1438 -1.4863
 2914SOL     OW20203   2.849   2.314  10.315 -0.3381 -0.1443  0.6474
 2914SOL    HW120204   2.874   2.389  10.370  1.8238  0.0682 -0.6517
 2914SOL    HW220205   2.830   2.249  10.383  1.2984 -2.6957 -1.3502
 2915SOL     OW20206   1.318   3.759  13.658 -0.1695  0.1059  0.6529
 2915SOL    HW120207   1.288   3.697  13.725  0.6447 -2.0434 -0.9598
 2915SOL    HW220208   1.246   3.814  13.627  0.2025 -0.5138 -1.3232
 2916SOL     OW20209   0.698   4.049  14.537 -0.4087  0.1338 -0.0615
 2916SOL    HW120210   0.684   4.091  14.622 -1.5811 -1.2333  0.4189
 2916SOL    HW220211   0.747   3.968  14.553 -0.3368  0.0426 -0.7457
 2917SOL     OW20212   3.815   0.083   4.595 -0.1848 -0.2163  0.1487
 2917SOL    HW120213   3.826   0.008   4.536 -0.9441 -0.1912 -0.0313
 2917SOL    HW220214   3.893   0.073   4.649  1.1891 -1.3604 -2.0187
 2918SOL     OW20215   3.704   4.190   4.423 -0.2865  0.1613  0.0363
 2918SOL    HW120216   3.761   4.113   4.429 -1.0651 -0.3415  0.9230
 2918SOL    HW220217   3.776   4.253   4.412  0.7431 -1.4360 -2.3678
 2919SOL     OW20218   1.590   1.825   8.734 -0.1777 -0.1640 -1.0563
 2919SOL    HW120219   1.630   1.882   8.799 -0.1576  0.2450 -1.4283
 2919SOL    HW220220   1.548   1.756   8.786  2.8990 -0.7267  0.6797
 2920SOL     OW20221   1.920   2.536   8.846  0.2494  0.1271  0.0219
 2920SOL    HW120222   1.996   2.483   8.822  1.2803  2.0890 -1.0446
 2920SOL    HW220223   1.897   2.561   8.756  0.3977  0.8788  0.2012
 2921SOL     OW20224   0.630   3.669   2.805  0.9775  0.4501 -0.7313
 2921SOL    HW120225   0.546   3.670   2.760  0.9985 -2.0005 -0.7833
 2921SOL    HW220226   0.685   3.726   2.750  0.0652  0.9321 -1.1403
 2922SOL     OW20227   4.308   3.831   2.576  0.1959  0.7275 -0.6086
 2922SOL    HW120228   4.260   3.913   2.562 -3.4352 -1.5519 -1.4689
 2922SOL    HW220229   4.236   3.770   2.559  0.3805  0.3713 -0.1037
 2923SOL     OW20230   3.974   3.600  10.452  0.3940  0.1880  0.6544
 2923SOL    HW120231   3.914   3.549  10.398 -0.0244  2.4532 -1.0067
 2923SOL    HW220232   3.962   3.574  10.544  0.6479  1.7322  1.1344
 2924SOL     OW20233   4.462   3.768  15.561  0.0440  0.2341  0.5969
 2924SOL    HW120234   4.384   3.723  15.592  0.4153 -0.3197  0.7171
 2924SOL    HW220235   4.478   3.694  15.502 -0.4893  2.6732 -2.6072
 2925SOL     OW20236   1.417   2.178   6.671  0.1327 -0.2914 -0.0154
 2925SOL    HW120237   1.507   2.149   6.660 -0.9731 -4.0447  1.0365
 2925SOL    HW220238   1.409   2.272   6.652 -0.4744 -0.6553 -1.6006
 2926SOL     OW20239   3.054   0.943  11.415 -0.4434 -0.0677 -0.6995
 2926SOL    HW120240   3.123   0.912  11.357  0.2462 -1.2043  0.7199
 2926SOL    HW220241   3.054   0.870  11.478  2.2302 -0.8779 -1.6378
 2927SOL     OW20242   2.119   3.619  10.779  0.1808  0.0121  0.4239
 2927SOL    HW120243   2.050   3.562  10.745 -0.4898  1.3750 -0.5233
 2927SOL    HW220244   2.088   3.646  10.866  1.2280  2.5586  0.0165
 2928SOL     OW20245   1.245   0.776   0.772 -0.7972 -0.4041  0.2741
 2928SOL    HW120246   1.303   0.719   0.721 -0.2933  0.1216  0.2626
 2928SOL    HW220247   1.300   0.854   0.773 -0.1483 -0.8621 -0.4545
 2929SOL     OW20248   3.367   1.788  14.755  0.4570 -0.6016  0.7659
 2929SOL    HW120249   3.327   1.821  14.836  0.3120  0.4282  0.2702
 2929SOL    HW220250   3.389   1.699  14.781 -0.8229 -1.4258 -0.9955
 2930SOL     OW20251   0.715   0.604  16.625  0.1230 -0.0972  0.4879
 2930SOL    HW120252   0.681   0.691  16.644  0.2922  0.2125 -0.6026
 2930SOL    HW220253   0.660   0.544  16.676  0.0708  0.2392  0.8236
 2931SOL     OW20254   2.985   2.989   5.961  0.1427 -0.2721 -0.4990
 2931SOL    HW120255   2.985   3.055   6.030 -0.1666  1.1301 -1.8180
 2931SOL    HW220256   3.042   3.022   5.891 -1.0003 -0.9728 -1.7717
 2932SOL     OW20257   2.532   2.001  14.868  0.1867  0.4673  0.2528
 2932SOL    HW120258   2.486   1.990  14.785 -0.2859 -2.7583  0.9155
 2932SOL    HW220259   2.486   2.080  14.896  0.1396  0.5289 -0.0038
 2933SOL     OW20260   1.843   3.289  11.002 -0.3297  0.6159 -0.2991
 2933SOL    HW120261   1.751   3.281  10.976 -1.5643  0.3974  3.9928
 2933SOL    HW220262   1.831   3.350  11.076  0.6040  0.3708  0.0523
 2934SOL     OW20263   2.939   1.087   2.820  0.0146 -0.5592  0.6878
 2934SOL    HW120264   2.936   1.014   2.759  1.3113  0.0464 -0.1037
 2934SOL    HW220265   2.953   1.052   2.909  0.2118 -1.8660  0.1395
 2935SOL     OW20266   1.309   3.157  17.260  0.0511 -0.0848 -0.7221
 2935SOL    HW120267   1.219   3.125  17.264  0.2855 -0.6096  0.2441
 2935SOL    HW220268   1.294   3.220  17.190 -0.7769 -1.7136 -2.0320
 2936SOL     OW20269   2.198   3.965   7.554  0.1878  0.3090 -0.0477
 2936SOL    HW120270   2.200   3.903   7.481  1.0331  1.5240 -1.0435
 2936SOL    HW220271   2.179   4.048   7.510 -1.5515 -0.9442 -1.6629
 2937SOL     OW20272   2.121   4.075   2.664 -0.8517 -0.5181  0.0809
 2937SOL    HW120273   2.127   4.170   2.650 -0.6738 -0.8433 -2.0673
 2937SOL    HW220274   2.127   4.037   2.576 -0.2220  0.4866 -0.3192
 2938SOL     OW20275   4.150   3.865   6.426 -0.6362  0.1089  0.0841
 2938SOL    HW120276   4.217   3.884   6.491 -1.1506  0.0084  0.6337
 2938SOL    HW220277   4.202   3.803   6.373  2.3903  1.8296  1.0432
 2939SOL     OW20278   4.076   3.240   8.221  0.1996 -0.2852 -0.0916
 2939SOL    HW120279   4.164   3.221   8.251 -0.5041 -1.5837  1.1478
 2939SOL    HW220280   4.088   3.282   8.136  2.9480 -0.0047  0.4528
 2940SOL     OW20281   0.899   0.543   8.337  0.1051 -0.1076  0.5073
 2940SOL    HW120282   0.940   0.521   8.253  1.5619  0.0344  1.1751
 2940SOL    HW220283   0.842   0.467   8.348 -0.8650  0.7105  1.1325
 2941SOL     OW20284   4.253   3.057   8.505 -0.3326 -0.1779  0.2069
 2941SOL    HW120285   4.161   3.056   8.476 -0.1915  0.7294 -0.2778
 2941SOL    HW220286   4.253   3.143   8.548  2.4079 -0.4663  0.7625
 2942SOL     OW20287   3.561   0.043   3.810  0.2792 -0.2522  0.2393
 2942SOL    HW120288   3.469   0.042   3.782 -0.3134  3.2273  1.9986
 2942SOL    HW220289   3.555   0.035   3.905 -0.4455  0.8330  0.2836
 2943SOL     OW20290   2.989   1.411   7.339 -0.5196  0.1525 -0.1711
 2943SOL    HW120291   2.983   1.332   7.286 -2.0020  0.9876 -1.2459
 2943SOL    HW220292   2.998   1.374   7.427 -0.6027 -0.5642 -0.4661
 2944SOL     OW20293   1.794   3.770   3.625  0.4780 -0.4329 -0.4368
 2944SOL    HW120294   1.787   3.771   3.530 -0.6899  1.0634 -0.3420
 2944SOL    HW220295   1.781   3.677   3.647  0.9380 -0.2230  0.7423
 2945SOL     OW20296   1.976   3.391  10.726 -0.0164  0.3452  0.3625
 2945SOL    HW120297   2.018   3.308  10.703 -0.3752 -0.3014  2.0361
 2945SOL    HW220298   1.921   3.371  10.802 -0.8380 -0.3364 -0.4162
 2946SOL     OW20299   0.555   4.564   6.291  0.1372  0.4063 -0.1002
 2946SOL    HW120300   0.612   4.589   6.218 -0.6155 -1.7858 -1.4387
 2946SOL    HW220301   0.509   4.648   6.295 -4.0815 -1.8225 -2.0070
 2947SOL     OW20302   1.394   2.765   5.697 -0.0671  0.2615 -0.2174
 2947SOL    HW120303   1.445   2.684   5.706  0.4371  0.7613  1.4183
 2947SOL    HW220304   1.416   2.781   5.605 -1.1457 -1.1263 -0.7230
 2948SOL     OW20305   0.399   1.563   1.544  0.0673  0.9928 -0.5465
 2948SOL    HW120306   0.429   1.478   1.576 -0.4079  1.3257  0.8207
 2948SOL    HW220307   0.315   1.547   1.501  0.1997 -1.7574  0.2017
 2949SOL     OW20308   2.224   3.619  13.501  0.0341 -1.1732  0.2490
 2949SOL    HW120309   2.286   3.606  13.429  1.0470  2.7586  0.4112
 2949SOL    HW220310   2.148   3.652  13.453  1.7249  0.3541 -1.3692
 2950SOL     OW20311   4.721   1.138   6.349 -0.1405 -0.7399 -0.2394
 2950SOL    HW120312   0.029   1.161   6.262  1.2655  0.2073  0.4995
 2950SOL    HW220313   4.663   1.213   6.365 -0.9446 -0.8649 -2.5532
 2951SOL     OW20314   4.650   1.563   3.886 -0.0741 -0.6526  0.8844
 2951SOL    HW120315   4.599   1.493   3.845 -0.1528  2.2891 -3.9595
 2951SOL    HW220316   4.657   1.625   3.814 -1.1111 -1.2227  0.2961
 2952SOL     OW20317   3.050   0.095   2.569 -0.7572 -0.4963 -0.0555
 2952SOL    HW120318   3.145   0.090   2.553 -1.0312 -1.2204 -1.5079
 2952SOL    HW220319   3.045   0.019   2.627 -0.8709 -2.4572 -2.6231
 2953SOL     OW20320   2.058   2.599   7.182  0.1046 -0.3514  0.2222
 2953SOL    HW120321   2.096   2.515   7.156  0.3660 -0.3752  0.6782
 2953SOL    HW220322   1.985   2.561   7.232 -0.4045  0.8375  0.3853
 2954SOL     OW20323   2.724   3.455  17.681 -0.1599  0.1131  0.3129
 2954SOL    HW120324   2.781   3.422   0.061 -0.9025 -0.9025  0.4381
 2954SOL    HW220325   2.701   3.371  17.643 -0.4169  0.0555  0.6011
 2955SOL     OW20326   3.711   2.679   5.950  0.4773  0.7717 -0.0531
 2955SOL    HW120327   3.755   2.630   5.880  1.0681  1.7101 -0.3314
 2955SOL    HW220328   3.763   2.757   5.967 -0.5961  2.1705 -3.1746
 2956SOL     OW20329   3.432   3.323   9.816 -0.6996 -0.3242  0.5021
 2956SOL    HW120330   3.527   3.325   9.829 -0.2157 -2.9984 -2.6623
 2956SOL    HW220331   3.414   3.372   9.736 -2.5968 -2.6235 -0.4615
 2957SOL     OW20332   1.157   2.087   2.421  0.0503 -0.2336  0.1584
 2957SOL    HW120333   1.141   2.050   2.334 -2.0787  1.4252 -0.1554
 2957SOL    HW220334   1.123   2.175   2.404  1.9355  0.6019  0.7140
 2958SOL     OW20335   0.472   4.502   1.887 -0.1430 -0.8332  0.1273
 2958SOL    HW120336   0.425   4.445   1.826 -0.5358  2.1750 -2.3246
 2958SOL    HW220337   0.415   4.481   1.961 -0.6815 -0.4680 -0.1894
 2959SOL     OW20338   1.818   0.372   6.272  0.1799 -0.0775  0.3158
 2959SOL    HW120339   1.745   0.363   6.211 -0.0117 -3.8113  1.1292
 2959SOL    HW220340   1.841   0.465   6.271 -0.6865  0.0973 -2.3785
 2960SOL     OW20341   2.018   1.981   3.732  0.4420  0.6920  0.0377
 2960SOL    HW120342   1.966   2.057   3.758  1.5536  1.3487  0.3417
 2960SOL    HW220343   2.104   2.019   3.715 -0.3142  2.5719  0.4177
 2961SOL     OW20344   4.217   3.458   6.073  0.1662 -0.3752 -0.4861
 2961SOL    HW120345   4.224   3.365   6.096 -1.9879 -0.6750 -0.9684
 2961SOL    HW220346   4.123   3.469   6.058  0.1858  0.6025  0.1452
 2962SOL     OW20347   3.529   4.180   5.466  0.0269  0.6849 -0.0221
 2962SOL    HW120348   3.622   4.199   5.455  0.1615 -0.6776 -1.1886
 2962SOL    HW220349   3.489   4.207   5.383  2.1178 -0.7384 -1.4888
 2963SOL     OW20350   1.561   0.002  14.321  0.2571  0.0862 -0.3714
 2963SOL    HW120351   1.466   4.714  14.325  0.2987 -0.1157  0.1775
 2963SOL    HW220352   1.571   0.075  14.260 -1.7933  2.4464  2.1085
 2964SOL     OW20353   3.547   0.497   5.340 -0.1978 -0.7093  0.3554
 2964SOL    HW120354   3.495   0.455   5.270  0.4606  1.2038 -1.2817
 2964SOL    HW220355   3.498   0.464   5.415 -0.1942 -0.0861  0.6261
 2965SOL     OW20356   3.133   3.055   5.710 -0.1751  0.2881  0.2075
 2965SOL    HW120357   3.185   3.135   5.697  1.0540 -0.6059 -0.4011
 2965SOL    HW220358   3.201   2.988   5.700 -0.6310 -0.4569  2.0376
 2966SOL     OW20359   4.479   3.732   2.194  0.6682  0.1415  0.2665
 2966SOL    HW120360   4.513   3.793   2.260 -1.5758  1.5152  0.1774
 2966SOL    HW220361   4.384   3.745   2.195  0.7282  0.6368 -0.6736
 2967SOL     OW20362   2.672   0.123   2.910 -0.2525 -0.4323  0.4377
 2967SOL    HW120363   2.611   0.179   2.958 -0.1924 -0.1561  0.1905
 2967SOL    HW220364   2.614   0.062   2.864 -1.4942  0.6597  0.5509
 2968SOL     OW20365   3.427   2.800  15.858 -0.0858  0.1367 -0.4568
 2968SOL    HW120366   3.429   2.875  15.919 -1.5486 -1.6474  1.7788
 2968SOL    HW220367   3.423   2.828  15.767  1.7016  0.3292 -0.4808
 2969SOL     OW20368   3.167   3.881   8.649  0.0256 -0.0933 -0.1277
 2969SOL    HW120369   3.171   3.957   8.590  0.6137  1.7460  2.2731
 2969SOL    HW220370   3.114   3.912   8.722 -0.3309 -2.4511  0.5918
 2970SOL     OW20371   4.564   3.375   8.446 -0.1573 -0.2739  0.2346
 2970SOL    HW120372   4.493   3.417   8.397 -0.4160  0.2765  1.0813
 2970SOL    HW220373   4.525   3.376   8.533 -0.5903  1.9185  0.0289
 2971SOL     OW20374   0.561   1.067  10.758  0.1946 -0.0199 -0.1196
 2971SOL    HW120375   0.580   1.032  10.671 -5.2251  0.9501 -1.6526
 2971SOL    HW220376   0.629   1.133  10.768  0.3777 -0.1703 -0.3668
 2972SOL     OW20377   3.399   0.818   6.486 -0.0378  0.0098  0.4400
 2972SOL    HW120378   3.466   0.750   6.492 -0.8110 -0.9271 -1.4413
 2972SOL    HW220379   3.445   0.888   6.440  0.6758 -0.7812 -0.0571
 2973SOL     OW20380   2.524   4.359   8.808 -0.4410  0.2859  0.6340
 2973SOL    HW120381   2.593   4.357   8.875 -2.6723 -1.7671  2.8874
 2973SOL    HW220382   2.469   4.282   8.825  1.2895 -1.3050 -0.8961
 2974SOL     OW20383   2.042   0.093   7.599 -0.0108 -0.5656 -0.2995
 2974SOL    HW120384   2.073   0.122   7.685 -1.3280 -1.7386  0.5728
 2974SOL    HW220385   1.982   0.165   7.578 -0.0768 -0.6764 -0.4905
 2975SOL     OW20386   2.941   1.435   8.617  0.1505 -0.2504 -0.1646
 2975SOL    HW120387   2.857   1.418   8.659  0.9057 -1.0882  1.0149
 2975SOL    HW220388   2.959   1.353   8.572 -1.9285 -1.8957  2.0379
 2976SOL     OW20389   0.059   2.604   6.621  0.0040  0.2366  0.2259
 2976SOL    HW120390   0.113   2.537   6.663  0.7791  1.6196  1.4506
 2976SOL    HW220391   4.699   2.584   6.666 -0.6771 -1.6650 -1.8795
 2977SOL     OW20392   1.985   3.688   4.539  0.7348  0.4619 -0.5957
 2977SOL    HW120393   1.943   3.624   4.596 -1.3298  1.6789 -0.7487
 2977SOL    HW220394   2.043   3.730   4.602 -0.8788 -1.7145  2.3319
 2978SOL     OW20395   4.407   1.601   1.062 -0.2033  0.5186  0.1136
 2978SOL    HW120396   4.369   1.551   1.135 -0.6251 -0.3035 -0.6561
 2978SOL    HW220397   4.382   1.542   0.990 -2.2234  0.0150  1.2066
 2979SOL     OW20398   4.172   3.503   5.631 -0.0914 -0.8513  0.6429
 2979SOL    HW120399   4.230   3.448   5.579  0.4366  1.2443 -0.9662
 2979SOL    HW220400   4.231   3.578   5.638 -3.3140  1.6456  1.3806
 2980SOL     OW20401   4.692   4.624   2.519 -0.7798 -0.5380 -0.1258
 2980SOL    HW120402   0.056   4.592   2.490 -0.6739 -0.7738  0.4553
 2980SOL    HW220403   4.635   4.580   2.456  1.9119 -1.7629 -1.7118
 2981SOL     OW20404   2.304   1.227   4.886  0.6302 -0.4152  0.5350
 2981SOL    HW120405   2.305   1.311   4.839 -1.1357  0.7657  2.6046
 2981SOL    HW220406   2.355   1.259   4.960  1.6834  1.1820 -0.8792
 2982SOL     OW20407   3.907   3.344   8.559 -0.1668 -0.8183 -0.1139
 2982SOL    HW120408   3.878   3.293   8.483 -0.7838 -2.1157  0.9783
 2982SOL    HW220409   3.996   3.313   8.574  0.4417 -0.2775 -2.6579
 2983SOL     OW20410   0.629   3.303  15.309 -0.5816  0.1839  0.0625
 2983SOL    HW120411   0.641   3.338  15.397 -2.0644 -4.0729  1.9927
 2983SOL    HW220412   0.613   3.386  15.265  1.7166  2.4568  3.5484
 2984SOL     OW20413   0.115   2.292   2.682  0.3946  0.4436  0.2444
 2984SOL    HW120414   0.024   2.261   2.680  1.4113 -2.5633 -0.4468
 2984SOL    HW220415   0.154   2.221   2.732  0.5507 -0.2976 -0.9128
 2985SOL     OW20416   1.432   0.539   7.935  0.4685 -0.2515 -0.0292
 2985SOL    HW120417   1.456   0.616   7.987  0.9570 -0.3419 -0.1216
 2985SOL    HW220418   1.432   0.580   7.848 -0.9175  0.1347  0.1486
 2986SOL     OW20419   1.553   2.684   3.205 -0.1648  0.1014  0.7036
 2986SOL    HW120420   1.476   2.663   3.259 -0.4410 -0.7112 -0.0068
 2986SOL    HW220421   1.540   2.626   3.130  0.9353  0.6707  0.0840
 2987SOL     OW20422   4.062   3.087   1.215 -0.1370  0.0096  0.4165
 2987SOL    HW120423   4.088   3.172   1.251  0.1097 -0.0100  0.2807
 2987SOL    HW220424   4.136   3.065   1.159 -0.3955 -1.1490  0.5428
 2988SOL     OW20425   0.727   3.967   4.637 -0.4698 -0.3575 -0.2691
 2988SOL    HW120426   0.657   3.997   4.694 -0.4913  0.6239 -0.8042
 2988SOL    HW220427   0.795   4.034   4.643 -0.4928 -0.4276  0.7530
 2989SOL     OW20428   0.392   2.653  12.363  0.2624  0.1929 -0.1820
 2989SOL    HW120429   0.368   2.656  12.455 -3.6000  2.4828 -1.2760
 2989SOL    HW220430   0.313   2.677  12.316  0.3672  1.1609  0.1499
 2990SOL     OW20431   0.257   3.892   5.877  0.6774  0.2076  0.0759
 2990SOL    HW120432   0.252   3.801   5.904 -0.3449 -0.1838 -1.4444
 2990SOL    HW220433   0.182   3.912   5.821 -0.3781  1.3631  1.8753
 2991SOL     OW20434   1.062   1.819   4.546  0.0456  0.2058 -0.1831
 2991SOL    HW120435   0.989   1.819   4.607 -0.9340  0.6636 -1.3360
 2991SOL    HW220436   1.113   1.897   4.570  1.2849 -0.7488  0.2703
 2992SOL     OW20437   3.051   0.380   2.925  0.4392  0.1083 -0.2583
 2992SOL    HW120438   3.099   0.420   2.852 -1.6970 -3.8164 -3.8103
 2992SOL    HW220439   3.010   0.457   2.965 -1.0903  0.7353 -3.0582
 2993SOL     OW20440   4.333   0.741  13.429  0.1330 -0.2503  0.3266
 2993SOL    HW120441   4.407   0.688  13.399 -0.9009 -1.1040 -0.7205
 2993SOL    HW220442   4.332   0.811  13.363  0.7262 -1.7919 -1.3018
 2994SOL     OW20443   4.311   2.010  15.925 -0.3484  0.3511  0.5650
 2994SOL    HW120444   4.294   1.969  15.840 -0.5260  0.9156  0.3254
 2994SOL    HW220445   4.225   2.047  15.944 -0.1205 -0.3429  2.9660
 2995SOL     OW20446   2.273   4.709   3.101 -0.3410 -0.0060  0.3064
 2995SOL    HW120447   2.317   0.016   3.181  0.4974 -1.9106  0.5229
 2995SOL    HW220448   2.343   4.645   3.089 -1.0135 -0.6848  0.0009
 2996SOL     OW20449   4.673   3.245   7.530 -0.5935  0.0332  0.5536
 2996SOL    HW120450   4.668   3.312   7.461 -0.0755 -0.3826  0.1121
 2996SOL    HW220451   4.637   3.166   7.489 -1.5019 -0.1063  1.6260
 2997SOL     OW20452   2.098   1.554   9.381  0.0110 -0.1080 -0.3374
 2997SOL    HW120453   2.161   1.617   9.416  1.2144 -1.3509 -0.2554
 2997SOL    HW220454   2.032   1.622   9.368  0.3139  0.0779 -0.8948
 2998SOL     OW20455   2.495   2.244   7.530 -0.0837 -0.7696  0.7985
 2998SOL    HW120456   2.475   2.168   7.584  1.9361 -0.5688  1.8371
 2998SOL    HW220457   2.546   2.303   7.586  0.5139  0.0533 -0.6255
 2999SOL     OW20458   0.198   2.203   0.089  0.1000  0.2155  0.1846
 2999SOL    HW120459   0.233   2.192   0.177  1.3009 -2.0256 -0.6019
 2999SOL    HW220460   0.127   2.140   0.074 -0.8237  0.8752  1.7125
 3000SOL     OW20461   3.494   0.951   7.624  0.0815  0.1235 -0.1374
 3000SOL    HW120462   3.523   0.979   7.711 -2.7018  0.4572  0.6706
 3000SOL    HW220463   3.571   0.903   7.594 -0.2022 -1.0124  1.0106
 3001SOL     OW20464   4.411   1.169   8.709 -0.0219 -0.5468  0.1317
 3001SOL    HW120465   4.412   1.126   8.795 -1.0010  1.3097  1.0691
 3001SOL    HW220466   4.335   1.227   8.708 -0.6643 -1.4396 -1.9936
 3002SOL     OW20467   4.334   0.780   1.509 -0.3744 -0.1463 -0.2379
 3002SOL    HW120468   4.291   0.743   1.431  0.4251  0.3202 -0.8915
 3002SOL    HW220469   4.344   0.868   1.473 -0.1709  0.2747  0.8785
 3003SOL     OW20470   1.035   0.654   1.507  0.1119 -0.0004 -0.2157
 3003SOL    HW120471   0.979   0.666   1.431  0.9521 -0.7575 -0.9636
 3003SOL    HW220472   1.069   0.743   1.518  1.3600 -0.6165  0.9163
 3004SOL     OW20473   3.997   3.090  11.131  0.3198  0.3741  0.3713
 3004SOL    HW120474   4.041   3.106  11.048 -1.0283 -3.3148 -1.0327
 3004SOL    HW220475   4.017   3.002  11.162  0.7278  0.8248  1.3988
 3005SOL     OW20476   2.780   0.553  14.827  0.0061  0.4010  0.0320
 3005SOL    HW120477   2.830   0.481  14.866 -1.4479 -1.9652 -2.4003
 3005SOL    HW220478   2.687   0.533  14.844 -0.0342  0.7537  0.2202
 3006SOL     OW20479   3.523   1.345   1.391 -0.2023  0.4261  0.3714
 3006SOL    HW120480   3.527   1.262   1.438 -0.2583  0.2109 -0.0039
 3006SOL    HW220481   3.452   1.383   1.443  0.8745 -0.5749  2.5818
 3007SOL     OW20482   2.765   2.734  10.526  0.1935 -0.2397  0.5828
 3007SOL    HW120483   2.850   2.778  10.528 -0.9707  1.8554  3.3831
 3007SOL    HW220484   2.803   2.650  10.503 -0.9052 -0.3143 -1.0007
 3008SOL     OW20485   2.806   4.123   9.738 -0.2419  0.2096 -0.3207
 3008SOL    HW120486   2.798   4.148   9.831 -0.4128  0.6730 -0.4611
 3008SOL    HW220487   2.816   4.207   9.693  0.2189 -0.5765 -1.6770
 3009SOL     OW20488   3.772   2.321  10.452  0.0718 -0.6223  0.2572
 3009SOL    HW120489   3.806   2.353  10.368 -2.4136  0.8010 -0.1960
 3009SOL    HW220490   3.717   2.392  10.485  1.4843  0.0130  1.2292
 3010SOL     OW20491   3.891   1.265   5.753  0.2345  0.6307 -0.1606
 3010SOL    HW120492   3.936   1.320   5.690 -0.9099  0.9639 -0.6818
 3010SOL    HW220493   3.823   1.330   5.771 -0.2309  0.1403 -0.1674
 3011SOL     OW20494   2.222   1.197   0.789 -0.5665 -0.0271 -0.2893
 3011SOL    HW120495   2.188   1.275   0.832  0.8294 -1.6897  3.7767
 3011SOL    HW220496   2.143   1.184   0.736  1.4149 -1.0493 -3.0061
 3012SOL     OW20497   0.373   1.657   7.443  0.5267  0.0096 -0.6898
 3012SOL    HW120498   0.361   1.735   7.496  0.3137 -1.1006  0.9149
 3012SOL    HW220499   0.361   1.678   7.351 -2.5360 -1.2398 -0.5720
 3013SOL     OW20500   1.415   2.477   3.057  0.1298  0.1567 -0.0085
 3013SOL    HW120501   1.434   2.425   2.979 -1.3087 -0.5265  0.1062
 3013SOL    HW220502   1.323   2.501   3.051  0.1996  0.3640 -0.2611
 3014SOL     OW20503   1.771   4.332   7.334  0.2909 -0.1112 -0.0617
 3014SOL    HW120504   1.707   4.266   7.307  0.9825 -0.8659  0.1695
 3014SOL    HW220505   1.738   4.416   7.300 -0.7188 -0.8430 -0.9039
 3015SOL     OW20506   3.838   3.847   1.578  0.6220  0.0855 -0.6639
 3015SOL    HW120507   3.776   3.788   1.621  0.2724 -0.3156 -1.7083
 3015SOL    HW220508   3.793   3.927   1.605  0.8671 -0.5512  1.6348
 3016SOL     OW20509   1.371   3.668   4.393  0.2381  0.4542 -0.5833
 3016SOL    HW120510   1.409   3.690   4.308  1.9569  2.8692  0.7987
 3016SOL    HW220511   1.327   3.586   4.373  0.3557 -0.5494  3.2264
 3017SOL     OW20512   2.791   1.836  11.107  0.1153  0.1025 -0.1170
 3017SOL    HW120513   2.868   1.820  11.162  0.5844 -1.5664 -1.2597
 3017SOL    HW220514   2.731   1.878  11.168 -0.5897  1.2982 -1.6372
 3018SOL     OW20515   4.299   3.546   1.026  0.3765  0.7384  0.2820
 3018SOL    HW120516   4.222   3.576   1.076 -0.6734  1.3640 -1.6826
 3018SOL    HW220517   4.332   3.632   0.999  0.6744  0.9104  1.1791
 3019SOL     OW20518   1.460   3.175  13.687 -0.1992 -0.3598 -0.4709
 3019SOL    HW120519   1.457   3.113  13.760  0.2904  1.1101  0.7879
 3019SOL    HW220520   1.409   3.253  13.708 -2.9150 -1.8432 -1.5628
 3020SOL     OW20521   1.967   4.566  11.709 -0.1150 -0.2810 -0.1134
 3020SOL    HW120522   2.034   4.533  11.650  0.6078  0.6128  0.2064
 3020SOL    HW220523   1.999   4.525  11.789  0.4138  2.2639  0.9931
 3021SOL     OW20524   1.545   4.711  11.454 -0.1812  0.0706 -0.0861
 3021SOL    HW120525   1.620   0.050  11.449  0.3112 -0.5406 -0.1424
 3021SOL    HW220526   1.481   0.058  11.471 -0.7622  0.3872 -3.5557
 3022SOL     OW20527   2.743   2.716   7.342  0.7473  0.3418  0.8084
 3022SOL    HW120528   2.834   2.733   7.368  0.5827  1.5739  0.5808
 3022SOL    HW220529   2.744   2.620   7.344  1.4537  0.3280 -0.2623
 3023SOL     OW20530   4.203   2.986  10.707 -0.4747 -0.3920  0.0734
 3023SOL    HW120531   4.165   2.898  10.702 -3.5968  0.8294  2.4261
 3023SOL    HW220532   4.294   2.968  10.729  0.1548  0.6265 -1.6786
 3024SOL     OW20533   3.564   3.585   3.812 -0.1943 -0.5036  0.4624
 3024SOL    HW120534   3.562   3.627   3.726 -1.3863 -0.7772  0.3513
 3024SOL    HW220535   3.639   3.620   3.860  0.2350  1.1033 -1.4066
 3025SOL     OW20536   4.454   4.476  13.149  1.0172 -0.2552  0.2449
 3025SOL    HW120537   4.402   4.406  13.188 -2.1283  1.8898 -0.0846
 3025SOL    HW220538   4.398   4.508  13.078  0.9854  3.1586  1.8283
 3026SOL     OW20539   3.345   0.757   7.772  1.0173 -0.1388  0.4754
 3026SOL    HW120540   3.383   0.809   7.701 -1.6497 -1.2908 -1.7766
 3026SOL    HW220541   3.259   0.798   7.779  1.8027  1.3733  1.2160
 3027SOL     OW20542   3.981   1.081   8.658  0.5461 -0.1972  0.0213
 3027SOL    HW120543   4.053   1.073   8.721  0.8180  1.4457 -0.0802
 3027SOL    HW220544   3.908   1.093   8.719  0.4649  0.2666 -0.1657
 3028SOL     OW20545   3.746   2.245   3.058  0.1016 -0.4911  0.3091
 3028SOL    HW120546   3.785   2.178   3.002  2.8656  0.4315  1.0949
 3028SOL    HW220547   3.660   2.210   3.079 -0.0779 -1.3661 -1.8783
 3029SOL     OW20548   3.636   2.646   1.656  0.2270  0.4314 -0.6204
 3029SOL    HW120549   3.658   2.642   1.563 -2.7533 -0.0880 -1.2994
 3029SOL    HW220550   3.548   2.609   1.649  0.2902  0.1207  0.3071
 3030SOL     OW20551   3.994   0.633   4.980 -0.0990  0.1031 -0.2924
 3030SOL    HW120552   3.966   0.551   4.938  0.8274 -0.0006 -0.7059
 3030SOL    HW220553   4.083   0.612   5.009  0.3067  2.4441  0.1052
 3031SOL     OW20554   4.213   1.818   8.436 -0.8499  0.6558 -0.4894
 3031SOL    HW120555   4.216   1.731   8.475 -0.8311  0.7342 -0.3142
 3031SOL    HW220556   4.298   1.813   8.390  0.0249  0.4086  1.1569
 3032SOL     OW20557   3.505   3.691   7.233 -0.3109  0.5656  0.1744
 3032SOL    HW120558   3.518   3.737   7.316  2.1182 -0.9832  0.6293
 3032SOL    HW220559   3.436   3.747   7.197  0.0090 -0.8658 -2.7047
 3033SOL     OW20560   3.878   2.297   4.772 -0.4468 -0.2954 -0.4399
 3033SOL    HW120561   3.952   2.268   4.825 -0.3280 -0.0351 -0.4663
 3033SOL    HW220562   3.800   2.279   4.826  1.1038 -1.3119  1.4658
 3034SOL     OW20563   1.385   3.247   9.541 -0.1334  0.7633 -0.3267
 3034SOL    HW120564   1.455   3.202   9.588  0.2600  0.5058 -1.1528
 3034SOL    HW220565   1.351   3.293   9.617  0.8696  1.0169 -0.0338
 3035SOL     OW20566   2.790   1.511   2.356  0.2551  0.1024 -0.0710
 3035SOL    HW120567   2.768   1.570   2.284 -0.8962 -2.1596 -1.5640
 3035SOL    HW220568   2.884   1.492   2.352  0.4716  1.3100 -0.6423
 3036SOL     OW20569   0.119   3.380   7.293 -0.2537  0.4183  0.2635
 3036SOL    HW120570   0.026   3.374   7.270  0.4530 -1.4164 -2.1074
 3036SOL    HW220571   0.154   3.291   7.285 -1.2629  0.1190 -0.8739
 3037SOL     OW20572   0.603   2.631   4.293  0.5035  0.5020  0.2257
 3037SOL    HW120573   0.517   2.612   4.255  0.1638  1.0963  0.7072
 3037SOL    HW220574   0.582   2.698   4.358 -0.4478  0.3900  0.0374
 3038SOL     OW20575   1.110   2.518   2.051 -0.2640  0.3996  0.2396
 3038SOL    HW120576   1.061   2.551   2.127 -1.5122  0.0639 -0.4170
 3038SOL    HW220577   1.057   2.544   1.975 -1.4410  1.7351  1.5276
 3039SOL     OW20578   0.989   2.227   3.364 -0.5679  0.2787 -0.1171
 3039SOL    HW120579   1.012   2.275   3.443 -1.4362  1.5017 -0.6182
 3039SOL    HW220580   1.076   2.197   3.337 -0.7658 -0.2218 -0.2012
 3040SOL     OW20581   1.883   2.009   6.490 -0.5877  0.4440  0.2060
 3040SOL    HW120582   1.932   1.935   6.453  1.3637  1.3173  1.0456
 3040SOL    HW220583   1.957   2.070   6.496  1.0587 -1.4223 -0.9995
 3041SOL     OW20584   2.842   0.278   8.728 -0.1023 -0.1705  0.0045
 3041SOL    HW120585   2.799   0.349   8.776 -1.4879 -0.9118 -0.1132
 3041SOL    HW220586   2.930   0.274   8.765  0.4080  0.9655 -1.1033
 3042SOL     OW20587   4.029   0.784  11.996 -0.4034 -0.1637  0.4000
 3042SOL    HW120588   3.966   0.821  12.057  0.5757  0.8578  0.7925
 3042SOL    HW220589   4.023   0.689  12.003  0.4002 -0.2098  0.4218
 3043SOL     OW20590   1.965   4.106  17.122  0.6700 -0.0389 -0.5550
 3043SOL    HW120591   1.932   4.143  17.204 -1.0372  0.7895 -1.6116
 3043SOL    HW220592   2.048   4.153  17.117  1.3593 -1.2464 -0.2630
 3044SOL     OW20593   3.036   2.955   7.391  0.2766 -0.2999  0.2748
 3044SOL    HW120594   2.963   3.014   7.404 -0.6013 -1.0573 -1.2145
 3044SOL    HW220595   3.104   2.995   7.446 -2.0523  2.2665  1.2376
 3045SOL     OW20596   2.630   0.760  15.882  0.4860  0.4432  0.1916
 3045SOL    HW120597   2.702   0.747  15.821 -0.7917 -0.6572 -1.0972
 3045SOL    HW220598   2.600   0.851  15.871  0.6439  0.4313 -0.3435
 3046SOL     OW20599   1.933   4.192   5.844 -0.2323 -0.0589  0.4786
 3046SOL    HW120600   1.860   4.134   5.866 -0.5127  0.6773  1.4726
 3046SOL    HW220601   1.999   4.156   5.904  1.4017  0.7148 -0.8594
 3047SOL     OW20602   2.214   2.981  10.338  0.5291 -0.3568  0.1451
 3047SOL    HW120603   2.297   2.988  10.384 -0.6877  1.3797  2.0905
 3047SOL    HW220604   2.241   3.022  10.256 -1.9210  1.8242  0.4402
 3048SOL     OW20605   1.998   2.182   5.264  0.3252 -0.6475  0.0945
 3048SOL    HW120606   1.974   2.169   5.172  0.9310 -0.4726 -0.0846
 3048SOL    HW220607   2.085   2.219   5.252  0.2203 -1.5696 -3.4231
 3049SOL     OW20608   2.570   2.180   3.057  0.0636  0.1643 -0.3871
 3049SOL    HW120609   2.578   2.154   3.149  2.7264  0.1360 -0.6062
 3049SOL    HW220610   2.511   2.110   3.030 -1.6035  0.4918  2.4166
 3050SOL     OW20611   2.395   4.646   4.350 -0.2986  0.5370  0.0347
 3050SOL    HW120612   2.379   4.717   4.288 -0.7434  1.4097  1.1538
 3050SOL    HW220613   2.491   4.651   4.348 -0.3096  0.7953  0.2628
 3051SOL     OW20614   1.479   1.501   4.909 -0.1715  0.0591  0.2722
 3051SOL    HW120615   1.566   1.470   4.885 -1.2299 -0.2954 -3.1361
 3051SOL    HW220616   1.483   1.475   5.001  0.1446 -0.1371  0.2016
 3052SOL     OW20617   2.761   0.545   7.674  0.0844  0.1332  0.1128
 3052SOL    HW120618   2.726   0.533   7.585  0.8120 -1.5552  0.0505
 3052SOL    HW220619   2.688   0.561   7.732 -0.1219 -1.4615  0.2899
 3053SOL     OW20620   2.716   2.320  10.076 -0.2973  0.1334 -0.0917
 3053SOL    HW120621   2.761   2.330  10.159 -2.9440 -1.3699  1.5286
 3053SOL    HW220622   2.680   2.234  10.099  1.7058 -0.2003  1.7311
 3054SOL     OW20623   3.221   2.759  13.570 -0.2627 -0.5512 -0.7743
 3054SOL    HW120624   3.234   2.836  13.515  2.7194 -0.8811 -0.5766
 3054SOL    HW220625   3.269   2.777  13.651 -1.3783  1.7093 -0.6181
 3055SOL     OW20626   3.970   1.605   3.019 -0.3718 -0.3176 -0.7212
 3055SOL    HW120627   3.874   1.606   3.021 -0.3345 -2.3198  2.2501
 3055SOL    HW220628   3.984   1.510   3.014  0.4688 -0.1533 -1.4333
 3056SOL     OW20629   1.107   0.394   2.394 -0.3635  0.5439 -0.1991
 3056SOL    HW120630   1.136   0.308   2.361  0.1187  0.0531  1.5438
 3056SOL    HW220631   1.131   0.381   2.485 -0.0193  0.6141 -0.2791
 3057SOL     OW20632   1.362   0.787   2.839  0.8622  0.2330 -0.3280
 3057SOL    HW120633   1.434   0.833   2.883  1.0357  1.1316 -1.5716
 3057SOL    HW220634   1.303   0.775   2.914 -1.2817  3.0383 -1.5834
 3058SOL     OW20635   2.786   0.759   5.547  0.7316  0.4874 -0.4436
 3058SOL    HW120636   2.816   0.847   5.525  1.7990  0.3443  0.4590
 3058SOL    HW220637   2.691   0.771   5.541  0.6153  1.2040  2.5945
 3059SOL     OW20638   2.020   2.134  16.510  0.1452 -0.0170  0.0275
 3059SOL    HW120639   1.933   2.112  16.542 -0.0858 -0.9232 -1.2497
 3059SOL    HW220640   2.058   2.049  16.531 -0.8794 -0.2697  0.8527
 3060SOL     OW20641   0.455   4.655   4.554  0.5469  0.0304  0.3815
 3060SOL    HW120642   0.382   4.666   4.614 -0.3010  1.4483 -0.9205
 3060SOL    HW220643   0.514   4.597   4.603  1.8540  0.4498 -0.6940
 3061SOL     OW20644   3.755   3.884   3.469  0.5474 -0.3549  0.0268
 3061SOL    HW120645   3.707   3.893   3.551 -1.0432 -1.9683 -0.7136
 3061SOL    HW220646   3.834   3.842   3.500  0.1033 -1.9771 -1.0720
 3062SOL     OW20647   4.678   0.181   4.112  0.2978  0.1579  0.4281
 3062SOL    HW120648   4.693   0.089   4.135 -1.7796 -0.5824 -1.1414
 3062SOL    HW220649   4.616   0.204   4.181  0.3484  0.5911  0.3281
 3063SOL     OW20650   1.440   0.108   9.231  0.2520  0.3664 -0.0063
 3063SOL    HW120651   1.368   0.165   9.258 -0.1790 -0.6913  1.0981
 3063SOL    HW220652   1.467   0.075   9.317  0.0352 -1.0124 -0.4654
 3064SOL     OW20653   0.775   0.325   3.896 -0.3036 -0.2396 -0.0859
 3064SOL    HW120654   0.715   0.325   3.970 -1.3590  0.0522 -0.9496
 3064SOL    HW220655   0.739   0.395   3.842  0.5116  0.7562  0.6568
 3065SOL     OW20656   2.947   1.044   5.673 -0.4658  0.0856 -0.5166
 3065SOL    HW120657   3.022   0.985   5.664  0.8810  1.9065 -1.0928
 3065SOL    HW220658   2.917   1.044   5.581  1.4942 -1.0155 -1.1447
 3066SOL     OW20659   2.247   0.709   4.678 -0.2626  0.4438  0.0877
 3066SOL    HW120660   2.269   0.787   4.728 -0.3263  0.1366  0.5922
 3066SOL    HW220661   2.160   0.733   4.645 -1.7346 -3.5221  1.0685
 3067SOL     OW20662   2.646   4.319   4.934 -0.3918  0.4354 -0.1380
 3067SOL    HW120663   2.618   4.278   5.016  0.1651  1.6803  0.6741
 3067SOL    HW220664   2.596   4.401   4.938 -3.7635 -1.6089 -0.0171
 3068SOL     OW20665   3.298   1.020   3.137  0.2779  0.3210  0.5463
 3068SOL    HW120666   3.338   1.088   3.083  0.4020  1.0554  1.5644
 3068SOL    HW220667   3.352   0.944   3.115 -0.3721  0.0812 -0.2100
 3069SOL     OW20668   0.472   4.031   5.738 -0.0966 -0.7014  0.0081
 3069SOL    HW120669   0.420   3.951   5.751  0.3454 -0.7212  1.7459
 3069SOL    HW220670   0.457   4.057   5.829  1.6212  1.4467 -0.3214
 3070SOL     OW20671   1.543   4.710   7.969 -0.1404  0.2859  0.0112
 3070SOL    HW120672   1.505   0.072   7.941  1.1304  0.5067 -1.0057
 3070SOL    HW220673   1.465   4.655   7.969 -1.8548  2.6888  0.4053
 3071SOL     OW20674   1.174   4.388   5.545 -0.0152 -0.2892  0.3921
 3071SOL    HW120675   1.083   4.394   5.517  0.1269 -1.8646 -0.4264
 3071SOL    HW220676   1.173   4.447   5.620  0.3258 -1.5258  1.3681
 3072SOL     OW20677   2.219   2.985   6.837 -0.5869 -0.0481 -0.0431
 3072SOL    HW120678   2.308   3.010   6.812 -0.5318 -1.8799 -1.6171
 3072SOL    HW220679   2.239   2.908   6.889 -0.9857  0.0205  0.2106
 3073SOL     OW20680   0.107   4.678   3.513 -0.2745 -0.2685 -0.2727
 3073SOL    HW120681   0.111   4.695   3.607 -2.9784 -0.5633 -0.0965
 3073SOL    HW220682   0.143   0.039   3.482 -1.4027  1.0258  1.8244
 3074SOL     OW20683   0.661   2.934   1.698  0.2136 -0.0131  0.0702
 3074SOL    HW120684   0.594   2.934   1.766  2.0167 -1.6094  1.8326
 3074SOL    HW220685   0.736   2.895   1.744  0.9608  1.1201 -0.1863
 3075SOL     OW20686   1.049   1.545   3.481 -0.3704  0.4306 -0.1421
 3075SOL    HW120687   1.053   1.634   3.515 -1.2031 -0.0053  1.1551
 3075SOL    HW220688   0.961   1.525   3.516 -0.6134  0.2080 -0.8900
 3076SOL     OW20689   2.006   0.087   8.243 -0.4233 -0.2656  0.4891
 3076SOL    HW120690   1.994   0.178   8.213 -0.6774 -0.3309  0.3877
 3076SOL    HW220691   1.935   0.044   8.195  0.5622  1.5727 -2.6620
 3077SOL     OW20692   3.361   3.171   3.511  0.1832 -0.1770 -0.0091
 3077SOL    HW120693   3.269   3.149   3.530  0.1888  0.3436  0.6540
 3077SOL    HW220694   3.336   3.224   3.435 -0.6698 -0.5492  0.0086
 3078SOL     OW20695   3.371   2.178   4.361  0.0098  0.1883 -0.1567
 3078SOL    HW120696   3.426   2.252   4.334  0.4080 -0.0259  0.0589
 3078SOL    HW220697   3.331   2.226   4.433  0.5574 -1.3281  1.1597
 3079SOL     OW20698   3.821   2.934   6.045 -0.3061 -0.4531  0.3529
 3079SOL    HW120699   3.848   3.025   6.034  0.0327 -0.8290 -2.0653
 3079SOL    HW220700   3.908   2.894   6.055 -0.6641 -2.2034 -3.5072
 3080SOL     OW20701   4.584   1.130   5.176  0.5827  0.4356 -0.0705
 3080SOL    HW120702   4.568   1.223   5.163 -0.7717  0.2767  0.4660
 3080SOL    HW220703   4.672   1.129   5.213  0.4733 -0.4420  0.1793
 3081SOL     OW20704   3.240   2.874  10.211 -1.0127  0.6955  0.3777
 3081SOL    HW120705   3.210   2.911  10.128  0.5551 -0.4779 -0.6891
 3081SOL    HW220706   3.161   2.857  10.261 -2.1828  1.5605 -1.1615
 3082SOL     OW20707   0.918   2.655   1.283  0.4090  0.2825  0.0512
 3082SOL    HW120708   0.984   2.594   1.315  1.0429  0.3508 -1.0983
 3082SOL    HW220709   0.980   2.684   1.215  1.6167  0.6784  1.3327
 3083SOL     OW20710   2.090   3.952   2.022 -0.6490  0.6317 -0.4036
 3083SOL    HW120711   2.081   4.035   2.069  1.1292  1.2073 -1.1046
 3083SOL    HW220712   1.997   3.939   2.004 -0.2384 -0.2760 -1.8341
 3084SOL     OW20713   1.119   0.061   4.755 -0.1541 -0.3021  0.4665
 3084SOL    HW120714   1.079   4.696   4.749 -1.9855  0.5898 -0.2872
 3084SOL    HW220715   1.097   0.111   4.677 -2.2138 -0.2204  1.0838
 3085SOL     OW20716   4.607   2.765   0.505  0.1568 -0.0851  0.1051
 3085SOL    HW120717   4.644   2.823   0.572 -1.7537  2.2345 -0.8619
 3085SOL    HW220718   4.524   2.731   0.541  0.1501 -2.4932 -2.1803
 3086SOL     OW20719   1.847   4.017   1.914 -0.5466  0.2764 -0.0564
 3086SOL    HW120720   1.772   4.062   1.952  0.6894  0.2508  2.4497
 3086SOL    HW220721   1.837   4.014   1.819 -1.4164  1.3556  0.0107
 3087SOL     OW20722   3.421   0.364   1.351 -0.3874 -0.0243 -0.3240
 3087SOL    HW120723   3.398   0.391   1.440 -2.8340 -0.4724 -0.8152
 3087SOL    HW220724   3.336   0.330   1.322 -0.8171 -1.6717  2.8885
 3088SOL     OW20725   2.773   0.032   6.478 -0.5357 -0.2528 -0.3447
 3088SOL    HW120726   2.732   0.000   6.397  3.3511 -3.1692 -1.1486
 3088SOL    HW220727   2.785   4.683   6.541  1.0429  0.3713  0.0350
 3089SOL     OW20728   2.463   1.017  15.808  0.1665 -0.3533  0.5503
 3089SOL    HW120729   2.512   1.053  15.734 -1.8322 -0.1756 -0.6913
 3089SOL    HW220730   2.420   1.097  15.836  0.4762 -0.3982  1.1478
 3090SOL     OW20731   3.792   4.105   7.496 -0.1545 -0.1558  0.1970
 3090SOL    HW120732   3.699   4.094   7.512 -0.5635  0.7041 -1.6687
 3090SOL    HW220733   3.823   4.098   7.587 -2.8158  1.1496  1.2263
 3091SOL     OW20734   0.172   4.208   5.900 -0.5585 -0.1493 -0.4531
 3091SOL    HW120735   0.098   4.269   5.909 -2.0406 -1.7868 -1.5524
 3091SOL    HW220736   0.131   4.135   5.854  1.9704 -0.9868 -1.3314
 3092SOL     OW20737   2.138   1.099   8.315  0.1295  0.0632  0.7954
 3092SOL    HW120738   2.171   1.118   8.402  1.6874 -0.6423  0.3509
 3092SOL    HW220739   2.060   1.154   8.324  0.0309 -0.0954  0.9235
 3093SOL     OW20740   3.796   2.357   2.026 -0.0904  0.8677  0.0703
 3093SOL    HW120741   3.765   2.442   2.058  1.0509  0.7242  1.5617
 3093SOL    HW220742   3.846   2.367   1.945 -0.6273  0.9822 -0.2399
 3094SOL     OW20743   1.897   1.275   3.472 -0.0009  0.2997 -0.3239
 3094SOL    HW120744   1.880   1.184   3.493  1.4688 -0.2830 -1.6897
 3094SOL    HW220745   1.836   1.292   3.400 -0.0805  1.2025 -0.0482
 3095SOL     OW20746   0.025   2.403   0.515  0.5344  0.7919 -0.7417
 3095SOL    HW120747   4.670   2.389   0.458  0.1705 -0.4278  0.0646
 3095SOL    HW220748   0.077   2.323   0.513 -0.4860  0.0987  0.5937
 3096SOL     OW20749   3.574   3.068   4.059  0.3258  0.1546 -0.2847
 3096SOL    HW120750   3.503   3.130   4.076  0.3949  0.2914 -0.4865
 3096SOL    HW220751   3.589   3.040   4.149 -3.1758 -0.7009  0.0303
 3097SOL     OW20752   2.527   1.907  10.347 -0.3401  0.4160 -0.1068
 3097SOL    HW120753   2.463   1.927  10.416  0.3332 -1.9742  1.2352
 3097SOL    HW220754   2.587   1.845  10.388 -0.5364 -0.0936 -0.5998
 3098SOL     OW20755   4.351   4.720   9.319  0.2580  0.4921 -0.3550
 3098SOL    HW120756   4.340   4.646   9.260 -0.3343  0.3364 -0.0459
 3098SOL    HW220757   4.343   0.076   9.265 -0.4479  0.0199 -0.9176
 3099SOL     OW20758   2.952   0.277   4.887  0.1948  1.5456 -0.1323
 3099SOL    HW120759   2.860   0.302   4.893 -1.1005 -2.8741 -1.3694
 3099SOL    HW220760   2.975   0.312   4.974  0.3477 -1.8631  1.1920
 3100SOL     OW20761   3.775   1.744  10.107  0.0822  0.0709 -0.3851
 3100SOL    HW120762   3.768   1.774  10.198 -1.3019  0.3784 -0.5887
 3100SOL    HW220763   3.827   1.818  10.076  1.3985 -0.9122 -0.5232
 3101SOL     OW20764   0.152   4.104   7.897 -0.1775 -0.5046 -0.2635
 3101SOL    HW120765   0.120   4.193   7.890 -0.6073 -0.6043  0.4565
 3101SOL    HW220766   0.195   4.099   7.982 -3.0537  2.0993  1.3136
 3102SOL     OW20767   2.646   3.103   5.970 -0.0078 -0.7332  0.5164
 3102SOL    HW120768   2.717   3.162   5.998 -1.1907  1.0113 -0.1924
 3102SOL    HW220769   2.684   3.017   5.988  2.5218  0.0020 -1.2558
 3103SOL     OW20770   0.554   2.126  11.847  0.1757 -0.5596  0.3324
 3103SOL    HW120771   0.582   2.074  11.772  0.0722  0.2182 -0.2529
 3103SOL    HW220772   0.589   2.071  11.917  0.6038  0.1428  0.6790
 3104SOL     OW20773   0.235   0.057   4.349 -0.0239 -0.1262 -0.2482
 3104SOL    HW120774   0.155   0.043   4.399  0.0660  0.0957 -0.0448
 3104SOL    HW220775   0.255   4.694   4.308  4.2113  1.0491 -0.6799
 3105SOL     OW20776   2.321   1.335   0.354 -0.0418 -0.3687  0.4676
 3105SOL    HW120777   2.364   1.249   0.352  2.4481  0.9177 -0.7332
 3105SOL    HW220778   2.358   1.376   0.431  4.0819 -3.5052  0.1584
 3106SOL     OW20779   1.250   0.497   8.974  0.1551 -0.1186  0.0318
 3106SOL    HW120780   1.272   0.411   8.938  0.6447 -0.3656  0.9059
 3106SOL    HW220781   1.175   0.523   8.920 -0.8611 -1.4867  0.7492
 3107SOL     OW20782   2.508   1.581   7.660  0.2559  0.6996  0.4446
 3107SOL    HW120783   2.548   1.495   7.650  1.7402  1.3991  0.4217
 3107SOL    HW220784   2.421   1.553   7.690  0.9707 -1.1179  0.8585
 3108SOL     OW20785   3.025   3.861   0.440 -0.3583  0.1824  0.0113
 3108SOL    HW120786   3.063   3.775   0.455 -2.0939 -0.4790  0.6896
 3108SOL    HW220787   3.051   3.883   0.351  0.0608 -2.3976 -0.4914
 3109SOL     OW20788   1.379   1.384   3.097 -0.2371  0.0674  0.1543
 3109SOL    HW120789   1.398   1.461   3.150  0.9293  0.0081 -0.1874
 3109SOL    HW220790   1.439   1.398   3.024 -0.7146 -1.3120 -0.5143
 3110SOL     OW20791   1.281   1.855   8.517  0.0779  0.0614  0.3555
 3110SOL    HW120792   1.197   1.818   8.543 -0.3690 -0.0143 -1.1514
 3110SOL    HW220793   1.245   1.903   8.442  1.9170  0.8982 -0.0007
 3111SOL     OW20794   4.666   1.074  14.508  0.2411  0.2228 -0.3555
 3111SOL    HW120795   4.650   0.979  14.511  1.6670 -0.0120 -0.0640
 3111SOL    HW220796   4.635   1.109  14.424 -0.8621  1.7543  0.6887
 3112SOL     OW20797   4.039   2.113   6.549 -0.8677  0.0957 -0.0124
 3112SOL    HW120798   4.127   2.076   6.556 -0.9171  0.2991  1.5766
 3112SOL    HW220799   4.006   2.096   6.637 -2.8035 -1.2159 -1.0043
 3113SOL     OW20800   0.930   4.714   6.297  0.4561 -0.4313  0.6496
 3113SOL    HW120801   0.848   0.043   6.293  0.7643 -0.0985 -1.2682
 3113SOL    HW220802   0.908   4.629   6.259 -3.1193  0.2386  1.1670
 3114SOL     OW20803   0.679   1.554   4.133 -0.6112 -0.2875  0.3216
 3114SOL    HW120804   0.617   1.620   4.103 -2.3490 -0.5306  3.3693
 3114SOL    HW220805   0.759   1.580   4.087 -0.7495  1.1855  0.9396
 3115SOL     OW20806   3.047   3.697  12.180  0.2271 -0.4583 -0.0116
 3115SOL    HW120807   2.978   3.683  12.115 -0.2651 -0.9804  0.6178
 3115SOL    HW220808   2.998   3.730  12.255  2.7333 -0.0204  1.4366
 3116SOL     OW20809   2.845   3.910   2.720  0.0767 -0.4114  0.0530
 3116SOL    HW120810   2.903   3.982   2.743  1.5110 -1.3986 -0.4263
 3116SOL    HW220811   2.886   3.841   2.773  0.6734  2.1093  2.9028
 3117SOL     OW20812   1.839   3.694   3.099  0.5479 -0.0731 -0.3664
 3117SOL    HW120813   1.914   3.743   3.132  0.9524 -1.1801  0.3750
 3117SOL    HW220814   1.862   3.660   3.012 -0.1215 -1.1917 -0.1031
 3118SOL     OW20815   1.838   0.112  11.157 -0.2826  0.4627 -0.3489
 3118SOL    HW120816   1.911   0.125  11.218 -1.0577 -1.6930  1.0263
 3118SOL    HW220817   1.819   0.022  11.182 -0.6668  1.0414  1.4701
 3119SOL     OW20818   2.209   4.199   4.079 -0.8443 -0.0832 -0.6138
 3119SOL    HW120819   2.270   4.233   4.144 -1.2254 -1.5557  0.5157
 3119SOL    HW220820   2.194   4.111   4.114  2.5937 -1.0609 -1.6042
 3120SOL     OW20821   0.958   0.720   7.423 -0.3611 -0.2047 -0.0678
 3120SOL    HW120822   0.873   0.700   7.383  0.5181 -2.5823 -0.7530
 3120SOL    HW220823   0.953   0.680   7.510  1.6402  2.0340  1.0807
 3121SOL     OW20824   4.607   1.280   4.204 -0.2447  0.1434  0.0627
 3121SOL    HW120825   4.694   1.262   4.240  0.1567 -0.3954 -1.1931
 3121SOL    HW220826   4.555   1.273   4.285 -0.1078  1.0595  0.2259
 3122SOL     OW20827   3.398   1.879  15.004  0.0483  0.5888  0.4602
 3122SOL    HW120828   3.444   1.929  15.071  2.9423  0.4711 -1.4424
 3122SOL    HW220829   3.467   1.874  14.937  0.6496  0.2131  1.1096
 3123SOL     OW20830   0.758   3.849   2.297  0.2254  0.5396  0.1727
 3123SOL    HW120831   0.790   3.938   2.283  0.3880  0.4498 -0.0188
 3123SOL    HW220832   0.808   3.808   2.226 -0.1399  1.0004 -0.3545
 3124SOL     OW20833   0.100   2.604   8.642 -0.2478 -0.0617 -0.4590
 3124SOL    HW120834   0.123   2.696   8.659  1.2965  0.1512 -3.6335
 3124SOL    HW220835   0.187   2.581   8.675 -0.2483 -1.3701 -1.3850
 3125SOL     OW20836   0.314   0.691   8.544  0.0248  0.2950 -0.2208
 3125SOL    HW120837   0.391   0.650   8.503 -0.0163 -1.6325  1.6527
 3125SOL    HW220838   0.266   0.723   8.467 -0.6380 -0.8788 -0.2935
 3126SOL     OW20839   1.242   4.002   6.624  0.3896 -0.5601  0.0851
 3126SOL    HW120840   1.181   3.934   6.595  0.0462 -1.2686  2.5009
 3126SOL    HW220841   1.184   4.077   6.620  2.1257  0.8149  0.7241
 3127SOL     OW20842   2.546   0.748  10.405 -0.1563  0.2088  0.5658
 3127SOL    HW120843   2.548   0.679  10.338 -1.4772  1.5203 -0.8311
 3127SOL    HW220844   2.592   0.708  10.479  0.0767 -0.5732 -0.0062
 3128SOL     OW20845   1.269   0.132   4.503 -0.0352  0.3616  0.3492
 3128SOL    HW120846   1.212   0.197   4.460 -2.4962 -1.8595  0.2500
 3128SOL    HW220847   1.274   0.065   4.436  1.8626  0.7886  0.0835
 3129SOL     OW20848   3.587   4.436   5.337  0.3619  0.1908  0.0212
 3129SOL    HW120849   3.682   4.426   5.333  0.1785 -0.3879 -2.9505
 3129SOL    HW220850   3.563   4.458   5.247 -0.3873 -0.6580  0.0044
 3130SOL     OW20851   4.589   1.400   7.286  0.3383  0.0420  0.0112
 3130SOL    HW120852   4.666   1.433   7.333 -0.7929 -0.2666  2.1113
 3130SOL    HW220853   4.625   1.369   7.203  2.4944 -1.2645  1.4330
 3131SOL     OW20854   0.047   2.331  14.497  0.3606 -0.3200  0.6457
 3131SOL    HW120855   0.092   2.349  14.580 -0.8077  0.1320  1.1764
 3131SOL    HW220856   0.122   2.333  14.437 -0.0236 -2.4293  0.1058
 3132SOL     OW20857   0.201   3.418   4.654  0.8322  0.8847  0.5738
 3132SOL    HW120858   0.296   3.406   4.666  0.3140 -2.2418  1.4571
 3132SOL    HW220859   0.168   3.349   4.596 -0.2916  1.3880  0.6276
 3133SOL     OW20860   1.135   2.997   5.348  0.3277 -0.8510  0.0445
 3133SOL    HW120861   1.222   3.036   5.337 -0.0477  0.5677  2.2625
 3133SOL    HW220862   1.131   2.981   5.442 -0.2129 -0.0618  0.1566
 3134SOL     OW20863   1.560   2.830   4.356 -0.1861  0.1479  0.0054
 3134SOL    HW120864   1.649   2.846   4.327 -0.0404  1.0751  0.9772
 3134SOL    HW220865   1.527   2.770   4.289  3.5854  0.2884 -1.9837
 3135SOL     OW20866   3.616   1.807   4.739  0.1450  0.1496 -0.1791
 3135SOL    HW120867   3.561   1.774   4.668  1.3872 -2.8394  0.2245
 3135SOL    HW220868   3.683   1.855   4.690  2.1315 -2.0726  0.3173
 3136SOL     OW20869   0.739   1.768  15.883 -0.0728 -0.8722 -0.0094
 3136SOL    HW120870   0.736   1.787  15.789  1.1054  0.1863  0.1582
 3136SOL    HW220871   0.803   1.831  15.917 -1.8725 -0.2361  2.1961
 3137SOL     OW20872   4.118   1.833  13.473  0.4518 -0.2038  0.2885
 3137SOL    HW120873   4.209   1.843  13.500  0.9151 -0.3646 -1.2185
 3137SOL    HW220874   4.117   1.737  13.469  0.1425 -0.2822  2.2269
 3138SOL     OW20875   1.836   3.073   7.066  0.1237  0.4854 -0.0115
 3138SOL    HW120876   1.870   2.984   7.075  0.1169  0.5235  0.4152
 3138SOL    HW220877   1.903   3.113   7.012  1.0665 -0.9885  0.0783
 3139SOL     OW20878   4.152   0.480   8.945  0.0558  0.5838  0.1610
 3139SOL    HW120879   4.083   0.465   9.010  0.2947 -0.2876  0.2148
 3139SOL    HW220880   4.200   0.398   8.940  2.7067  2.2674 -1.7476
 3140SOL     OW20881   0.260   2.804   8.780  0.6679 -0.2675  0.2378
 3140SOL    HW120882   0.264   2.829   8.873  2.5162  0.1095  0.0732
 3140SOL    HW220883   0.290   2.713   8.785  1.1635 -0.1275 -0.1182
 3141SOL     OW20884   0.436   1.112   8.050  0.5562 -0.4993  0.0350
 3141SOL    HW120885   0.420   1.165   8.128 -1.1901  0.4816 -0.9783
 3141SOL    HW220886   0.469   1.175   7.985 -0.7321 -0.0137 -0.1454
 3142SOL     OW20887   2.980   3.624   5.250  0.0035  0.2437 -0.4001
 3142SOL    HW120888   2.926   3.547   5.232  0.1146 -0.3343  1.7504
 3142SOL    HW220889   3.029   3.632   5.168  1.3133 -2.4742  0.1095
 3143SOL     OW20890   4.575   1.962   7.047  0.8224  0.2582  0.0514
 3143SOL    HW120891   4.544   1.907   7.119 -0.8949 -0.2827 -1.0959
 3143SOL    HW220892   4.574   2.042   7.100  2.6076  0.4134 -0.1365
 3144SOL     OW20893   1.439   1.959  16.500  0.5234 -0.3477  0.5030
 3144SOL    HW120894   1.471   1.942  16.411 -1.5111 -2.6745  0.2088
 3144SOL    HW220895   1.482   1.884  16.541  2.8435  0.7255 -0.0160
 3145SOL     OW20896   0.319   2.658   4.559  0.4512 -0.1498 -0.1037
 3145SOL    HW120897   0.371   2.655   4.639 -1.0197  0.2249  0.8584
 3145SOL    HW220898   0.376   2.711   4.503 -3.0287  1.4107 -2.1714
 3146SOL     OW20899   4.056   1.005  13.347  0.3650  0.3713 -0.0659
 3146SOL    HW120900   4.151   0.994  13.354  0.3237  0.3113  0.4275
 3146SOL    HW220901   4.022   0.973  13.431  0.0255 -0.4385 -0.5151
 3147SOL     OW20902   1.941   2.832   7.071  0.2612 -0.2489 -0.1120
 3147SOL    HW120903   1.940   2.803   6.980 -0.2947  0.9912 -0.5029
 3147SOL    HW220904   1.981   2.755   7.111 -0.2453 -0.4441  0.0225
 3148SOL     OW20905   2.757   2.585   5.458  0.6429 -0.1487  0.5072
 3148SOL    HW120906   2.814   2.514   5.488 -0.2677 -1.9023 -1.9042
 3148SOL    HW220907   2.692   2.571   5.527  0.5163  2.3742  0.8930
 3149SOL     OW20908   3.041   2.901   8.086  0.4196 -0.2011  0.3760
 3149SOL    HW120909   3.092   2.881   8.008  1.7841 -2.7359  1.9169
 3149SOL    HW220910   3.045   2.995   8.097  0.5493 -0.1256 -0.2913
 3150SOL     OW20911   0.768   2.073  14.356 -0.4073 -0.3224  0.3105
 3150SOL    HW120912   0.710   2.134  14.310  0.0277 -0.4523 -0.4086
 3150SOL    HW220913   0.702   2.039  14.416  0.5414 -2.1349  0.3141
 3151SOL     OW20914   2.064   2.175   7.769  0.2632  0.1835 -0.5806
 3151SOL    HW120915   2.120   2.233   7.820 -3.2089  1.5376  1.6797
 3151SOL    HW220916   1.984   2.173   7.820  0.8677 -1.9245  0.2959
 3152SOL     OW20917   1.674   0.453   6.580 -0.0808 -0.1973 -0.6934
 3152SOL    HW120918   1.762   0.462   6.544  0.3482 -0.6947  0.2419
 3152SOL    HW220919   1.641   0.541   6.562 -2.7503 -1.4613 -1.9477
 3153SOL     OW20920   2.055   4.234   3.033 -0.5352 -0.4023 -0.0487
 3153SOL    HW120921   2.012   4.162   3.079 -1.6463 -0.5156 -1.2665
 3153SOL    HW220922   2.025   4.206   2.947 -0.0308  0.7025 -0.5826
 3154SOL     OW20923   2.447   4.467  17.162  0.0150 -0.5995 -0.5417
 3154SOL    HW120924   2.372   4.492  17.215  1.2645 -1.0697  1.4694
 3154SOL    HW220925   2.486   4.399  17.217  1.0257  0.4351  0.0274
 3155SOL     OW20926   0.947   2.863  15.030  0.2960  0.0800 -0.1036
 3155SOL    HW120927   0.864   2.860  14.981 -0.4129 -1.4207  1.1974
 3155SOL    HW220928   0.920   2.826  15.114  0.5670  0.1549  0.0144
 3156SOL     OW20929   3.088   1.223  11.240 -0.3374 -0.1635  0.8434
 3156SOL    HW120930   3.083   1.318  11.233  0.9581 -0.1141  0.6780
 3156SOL    HW220931   3.179   1.209  11.214 -0.7870 -1.1906 -0.2062
 3157SOL     OW20932   2.373   2.658   2.559 -0.3739  0.0175 -0.3861
 3157SOL    HW120933   2.428   2.601   2.505  0.0941  0.4472 -0.3570
 3157SOL    HW220934   2.407   2.632   2.645 -0.0946  0.3483 -0.3984
 3158SOL     OW20935   4.598   0.175  12.642  0.5651 -0.6255  0.1348
 3158SOL    HW120936   4.574   0.165  12.734 -0.2574  0.9921  0.0895
 3158SOL    HW220937   4.575   0.265  12.620  0.7230 -0.2341  1.6228
 3159SOL     OW20938   3.864   0.640   2.133  0.3163 -0.7219 -0.3235
 3159SOL    HW120939   3.791   0.643   2.071  0.0467  0.7262  0.0579
 3159SOL    HW220940   3.923   0.683   2.072 -0.7256  1.9880  0.5900
 3160SOL     OW20941   2.855   1.574  17.461 -0.3999  0.8349 -0.3582
 3160SOL    HW120942   2.819   1.662  17.462 -0.9992  0.5694  1.0251
 3160SOL    HW220943   2.776   1.526  17.485 -0.4411 -0.3293 -2.8447
 3161SOL     OW20944   4.569   1.756   1.614  0.1049 -0.1770  0.0708
 3161SOL    HW120945   4.519   1.773   1.694 -1.5498  0.3859 -1.0886
 3161SOL    HW220946   4.502   1.712   1.562  0.0728 -1.0958  0.8771
 3162SOL     OW20947   2.790   0.441   4.391  0.4203 -0.3964  0.0226
 3162SOL    HW120948   2.836   0.378   4.448  0.8240  0.3112  0.4864
 3162SOL    HW220949   2.742   0.381   4.335  1.1074 -0.7670 -0.1734
 3163SOL     OW20950   3.205   0.554   2.478 -0.1050 -0.2321 -0.4602
 3163SOL    HW120951   3.194   0.499   2.400  0.4876  2.2715 -2.3134
 3163SOL    HW220952   3.128   0.546   2.534  1.0418 -0.2314  1.1047
 3164SOL     OW20953   0.903   2.158   3.734  0.4702 -0.2731  0.1203
 3164SOL    HW120954   0.997   2.175   3.747  0.6880 -0.6076 -1.0523
 3164SOL    HW220955   0.869   2.238   3.774 -1.7251 -0.5498 -1.1759
 3165SOL     OW20956   2.086   1.333   1.154  0.0263  0.1038 -0.4485
 3165SOL    HW120957   2.007   1.280   1.166 -0.7336  1.6703  1.4722
 3165SOL    HW220958   2.149   1.273   1.193  0.6727  0.7811 -0.4586
 3166SOL     OW20959   1.636   0.799   3.318  0.0846  0.1316  0.0239
 3166SOL    HW120960   1.630   0.837   3.230  0.7584  0.6192  0.1895
 3166SOL    HW220961   1.728   0.774   3.325  0.0124 -0.4642 -1.1129
 3167SOL     OW20962   3.317   2.163  14.953  0.1445 -0.3518  0.2378
 3167SOL    HW120963   3.292   2.159  15.045 -2.5449  0.1817 -0.4605
 3167SOL    HW220964   3.407   2.136  14.972  0.3159  0.2149  0.2490
 3168SOL     OW20965   1.198   4.302   8.700 -0.4604 -0.0361 -0.1182
 3168SOL    HW120966   1.274   4.243   8.695  1.0747  1.9528 -0.0901
 3168SOL    HW220967   1.137   4.245   8.652  0.8383  0.4709 -2.3442
 3169SOL     OW20968   3.511   2.381   7.333 -0.0317  0.1058  0.2527
 3169SOL    HW120969   3.429   2.432   7.337 -1.8656 -2.8885  0.8370
 3169SOL    HW220970   3.567   2.458   7.330 -1.2273  1.0303  1.2700
 3170SOL     OW20971   2.229   4.311   8.200  0.5000 -0.2098  0.0598
 3170SOL    HW120972   2.137   4.301   8.223  1.0901 -2.0960  1.6185
 3170SOL    HW220973   2.232   4.256   8.122  2.3669  2.3267 -1.6629
 3171SOL     OW20974   0.672   1.104  11.358  0.0810 -0.4543 -0.1532
 3171SOL    HW120975   0.581   1.116  11.331  0.2270  1.4466  0.1892
 3171SOL    HW220976   0.711   1.060  11.283 -0.7550  0.7414 -1.2982
 3172SOL     OW20977   2.109   2.691  15.997 -0.7497 -0.1313  0.1947
 3172SOL    HW120978   2.046   2.755  15.963  0.1613  0.1595 -0.9142
 3172SOL    HW220979   2.149   2.662  15.916  0.7384  2.8388 -0.1261
 3173SOL     OW20980   3.689   2.359   0.413  0.1722  0.3254 -0.2501
 3173SOL    HW120981   3.692   2.418   0.488  2.4935  0.4037 -0.4234
 3173SOL    HW220982   3.766   2.387   0.364 -1.2228  0.2369 -2.5286
 3174SOL     OW20983   4.182   4.100   6.153 -0.0909  0.1546 -0.7259
 3174SOL    HW120984   4.265   4.137   6.185  0.5032 -1.1776 -0.7338
 3174SOL    HW220985   4.143   4.184   6.130 -0.7508  0.0931  0.1578
 3175SOL     OW20986   1.463   1.143   2.552  0.3967 -0.2019 -0.1574
 3175SOL    HW120987   1.524   1.154   2.479 -0.6348 -2.9960 -1.4248
 3175SOL    HW220988   1.467   1.231   2.590  1.2400  0.5975 -2.0833
 3176SOL     OW20989   1.646   1.942   4.055  0.3337 -0.3883  0.5177
 3176SOL    HW120990   1.576   1.929   4.118 -2.7122  2.7359 -2.1987
 3176SOL    HW220991   1.661   1.851   4.029 -0.6010  0.1444 -1.9196
 3177SOL     OW20992   1.114   2.070  16.509 -0.2612  0.8367  0.0057
 3177SOL    HW120993   1.057   2.000  16.539 -0.7623  1.9649  1.6346
 3177SOL    HW220994   1.049   2.125  16.467  1.0251  0.5448 -2.3981
 3178SOL     OW20995   4.666   1.601   8.099 -0.0622 -0.5127  0.1921
 3178SOL    HW120996   4.685   1.674   8.158 -0.0990  1.2325 -1.9463
 3178SOL    HW220997   0.027   1.586   8.052 -0.1452 -2.2405  0.5925
 3179SOL     OW20998   3.258   0.541   3.863  0.4260  0.3567  0.0548
 3179SOL    HW120999   3.216   0.461   3.896 -0.3715  0.2503 -1.2238
 3179SOL    HW221000   3.296   0.506   3.783  2.2019  0.2809  0.9068
 3180SOL     OW21001   1.838   1.802   3.046  0.7433 -0.2585  0.0778
 3180SOL    HW121002   1.775   1.832   2.981  0.3851 -0.3964  0.3600
 3180SOL    HW221003   1.791   1.808   3.129 -1.6154 -2.1838 -1.1378
 3181SOL     OW21004   1.950   4.069   4.720 -0.9931 -0.3602  0.4501
 3181SOL    HW121005   2.017   4.051   4.654 -0.2962  0.3842  0.9509
 3181SOL    HW221006   2.012   4.062   4.793 -1.4370 -1.7260  0.6914
 3182SOL     OW21007   0.857   4.554   3.961 -0.0608  0.3840 -0.7096
 3182SOL    HW121008   0.835   4.546   3.868 -0.0863 -0.7397 -0.6040
 3182SOL    HW221009   0.940   4.602   3.962 -0.4237  1.0427 -3.6514
 3183SOL     OW21010   3.206   0.108   5.673 -0.0384 -0.5456 -0.2434
 3183SOL    HW121011   3.135   0.159   5.712  0.5945  1.5844 -1.8723
 3183SOL    HW221012   3.153   0.035   5.639 -1.5555  0.1653  0.5777
 3184SOL     OW21013   0.526   0.739   3.431  0.7390 -0.4278  0.2415
 3184SOL    HW121014   0.621   0.740   3.421  0.7298  1.3719  0.3809
 3184SOL    HW221015   0.520   0.752   3.526  1.0084  0.9801  0.0570
 3185SOL     OW21016   2.612   1.250   2.634  0.3292  0.1559  0.3392
 3185SOL    HW121017   2.582   1.260   2.543 -0.7781  1.7227  0.8826
 3185SOL    HW221018   2.693   1.301   2.627  1.2350 -1.7857 -3.2587
 3186SOL     OW21019   3.308   2.727   2.970 -0.4125  0.2601  0.4411
 3186SOL    HW121020   3.387   2.758   2.927 -0.3364 -0.6274 -0.0736
 3186SOL    HW221021   3.322   2.632   2.962 -1.3171  0.2188 -0.7059
 3187SOL     OW21022   2.292   4.703  11.444 -0.6670  0.1091  0.2540
 3187SOL    HW121023   2.205   4.663  11.445  0.2717 -1.9561 -2.1202
 3187SOL    HW221024   2.341   4.632  11.403 -0.9346  0.5263 -0.7756
 3188SOL     OW21025   4.216   4.165   7.480  0.3983  0.3734  0.1149
 3188SOL    HW121026   4.285   4.151   7.545  0.5815  3.3154  0.5526
 3188SOL    HW221027   4.207   4.075   7.449 -0.3584  0.7002 -0.6295
 3189SOL     OW21028   4.133   3.597   3.932 -0.1546  0.2707  0.4317
 3189SOL    HW121029   4.102   3.687   3.938 -1.3522 -0.0941 -0.2942
 3189SOL    HW221030   4.212   3.598   3.987 -1.7408 -1.1506  2.7393
 3190SOL     OW21031   3.860   4.200   7.099 -0.7868  0.4300 -0.6895
 3190SOL    HW121032   3.900   4.281   7.130 -0.9488  0.3192 -0.1846
 3190SOL    HW221033   3.775   4.235   7.072 -0.8938 -0.6430 -1.8028
 3191SOL     OW21034   4.513   3.090   1.328 -0.0270 -0.0751  0.8164
 3191SOL    HW121035   4.563   3.127   1.255 -1.2393  3.2211  1.6290
 3191SOL    HW221036   4.579   3.081   1.396  1.6968 -1.1534 -1.0072
 3192SOL     OW21037   1.613   4.196   2.228  0.0234  0.6427  0.6876
 3192SOL    HW121038   1.680   4.259   2.200 -0.5115  0.9812  0.1850
 3192SOL    HW221039   1.539   4.254   2.213  0.5496  1.3353  0.8048
 3193SOL     OW21040   3.428   1.830  15.322  0.4698 -0.0982  0.0860
 3193SOL    HW121041   3.488   1.883  15.268 -0.5235  0.1739 -0.7470
 3193SOL    HW221042   3.461   1.844  15.410 -0.6065 -1.4832  0.7135
 3194SOL     OW21043   0.407   2.988  15.005 -0.2479 -0.3890  0.6440
 3194SOL    HW121044   0.457   2.982  15.086 -2.2152  2.3042  2.0375
 3194SOL    HW221045   0.448   3.065  14.965 -0.9757 -0.2890  0.0779
 3195SOL     OW21046   2.770   3.104  13.829  0.6342  0.1317 -0.3161
 3195SOL    HW121047   2.740   3.166  13.763 -3.7088 -1.0989  0.4968
 3195SOL    HW221048   2.863   3.128  13.820  0.1980  1.2778 -1.7097
 3196SOL     OW21049   1.772   2.999   8.390  0.3361  0.4737 -0.2526
 3196SOL    HW121050   1.828   2.963   8.459 -1.3007 -0.2867  0.6707
 3196SOL    HW221051   1.689   3.002   8.437 -0.3067  1.2113 -1.4236
 3197SOL     OW21052   3.280   0.680   9.438 -0.0012  0.1802  0.0266
 3197SOL    HW121053   3.339   0.650   9.507 -3.7690  0.2473  3.2721
 3197SOL    HW221054   3.200   0.694   9.487  0.6525 -1.9409  1.6886
 3198SOL     OW21055   0.694   1.971  12.603  0.7680  0.2747 -0.0709
 3198SOL    HW121056   0.674   1.880  12.626  0.4602  0.1776 -0.7414
 3198SOL    HW221057   0.612   2.013  12.576  0.1282 -0.5040  0.6341
 3199SOL     OW21058   3.077   3.123   3.527  0.2221 -0.3566 -0.2269
 3199SOL    HW121059   3.029   3.202   3.504  1.6754  0.8802  0.9729
 3199SOL    HW221060   3.055   3.056   3.462 -2.4202  0.8085 -0.4834
 3200SOL     OW21061   3.690   1.872  14.386  0.7482  0.1639 -0.1009
 3200SOL    HW121062   3.596   1.855  14.373  1.1878 -0.0535 -2.8640
 3200SOL    HW221063   3.712   1.786  14.421 -0.9468 -0.8526 -1.4793
 3201SOL     OW21064   1.441   0.335   5.313  0.3744 -0.1879 -0.4239
 3201SOL    HW121065   1.427   0.263   5.252  0.0669 -0.1541 -0.3939
 3201SOL    HW221066   1.523   0.373   5.282  0.7992 -2.1759 -1.7116
 3202SOL     OW21067   3.277   4.049  15.531 -0.1641 -0.0264  0.3262
 3202SOL    HW121068   3.331   3.983  15.574 -0.8435 -1.7499 -1.4625
 3202SOL    HW221069   3.331   4.065  15.454 -1.9488 -3.0509 -1.5209
 3203SOL     OW21070   2.138   1.057   6.500 -0.1343  0.0773 -0.0546
 3203SOL    HW121071   2.043   1.046   6.493 -0.1087  0.9445 -1.7057
 3203SOL    HW221072   2.139   1.069   6.595 -1.1084  2.2800 -0.3175
 3204SOL     OW21073   3.946   2.054  14.062  0.6086 -0.2084 -0.6593
 3204SOL    HW121074   3.900   2.070  14.144 -0.5651  2.0168 -1.7533
 3204SOL    HW221075   4.022   2.110  14.078 -0.7437  0.6603  2.6151
 3205SOL     OW21076   4.475   1.463  10.907 -0.7815 -0.6646  0.3196
 3205SOL    HW121077   4.534   1.538  10.913 -0.7202 -0.6676 -0.3091
 3205SOL    HW221078   4.502   1.419  10.827  1.0793 -0.0146  0.5961
 3206SOL     OW21079   0.472   1.117   5.313 -0.3323  0.3416 -0.1100
 3206SOL    HW121080   0.466   1.197   5.365  1.6313  0.1463  0.4432
 3206SOL    HW221081   0.436   1.053   5.374 -2.7822  1.7852 -0.0402
 3207SOL     OW21082   4.559   1.677   5.069 -0.4653 -0.9484 -0.0341
 3207SOL    HW121083   4.522   1.711   5.151  0.8511 -0.1008  0.2155
 3207SOL    HW221084   4.616   1.746   5.034 -0.3835  0.0377  1.9812
 3208SOL     OW21085   0.102   0.989   8.169  0.5159 -0.0492  0.4732
 3208SOL    HW121086   0.041   1.063   8.161 -1.6051 -1.9488 -0.9001
 3208SOL    HW221087   0.101   0.962   8.077  1.5700 -0.4646  0.5744
 3209SOL     OW21088   1.061   4.411  14.305  0.2658 -0.0237  0.3831
 3209SOL    HW121089   1.022   4.326  14.290 -4.3166  1.9090  1.4172
 3209SOL    HW221090   1.010   4.474  14.253  0.3122 -0.0324  0.3276
 3210SOL     OW21091   1.369   0.035   5.239  0.3224 -0.0232 -0.5597
 3210SOL    HW121092   1.376   0.072   5.327  0.0713  1.7469 -1.2745
 3210SOL    HW221093   1.330   4.671   5.255  2.4807 -1.1386 -1.2615
 3211SOL     OW21094   2.522   3.643   4.009  0.0752  0.3174  0.1562
 3211SOL    HW121095   2.560   3.670   3.926  0.6304 -1.1988 -0.0811
 3211SOL    HW221096   2.476   3.722   4.038  0.4030  0.6761 -0.2935
 3212SOL     OW21097   0.519   4.338  17.172 -0.3836 -0.1460  0.4581
 3212SOL    HW121098   0.527   4.433  17.164  1.2940 -0.3923 -0.6203
 3212SOL    HW221099   0.512   4.329  17.077  0.5266  0.5459  0.3300
 3213SOL     OW21100   3.696   1.143   2.168  0.1267 -0.4631 -0.2495
 3213SOL    HW121101   3.604   1.148   2.193  0.1478  0.5454 -0.3548
 3213SOL    HW221102   3.700   1.153   2.073 -2.2469 -0.9969 -0.3879
 3214SOL     OW21103   3.866   2.219   2.360  0.1048  0.5061 -0.2670
 3214SOL    HW121104   3.798   2.179   2.306 -0.2756 -0.8718  1.2347
 3214SOL    HW221105   3.842   2.311   2.371  0.1567  0.5273 -0.3317
 3215SOL     OW21106   4.132   3.269  11.330  0.4450 -0.8906 -0.0503
 3215SOL    HW121107   4.100   3.231  11.413  2.4697 -2.1020  0.1689
 3215SOL    HW221108   4.092   3.213  11.262 -1.0036 -1.8018  1.5334
 3216SOL     OW21109   3.229   2.655   4.585 -0.2269 -0.5983 -0.3131
 3216SOL    HW121110   3.242   2.594   4.512 -1.3156  1.3269 -2.1029
 3216SOL    HW221111   3.276   2.735   4.564  1.3231 -1.0642  1.3712
 3217SOL     OW21112   4.030   1.695   4.364 -0.0604 -0.6859 -0.3780
 3217SOL    HW121113   4.067   1.728   4.446  2.5245  0.0436 -1.8385
 3217SOL    HW221114   4.006   1.771   4.311  1.5401  0.2734  0.2694
 3218SOL     OW21115   3.238   3.155   0.623 -0.1072 -0.2926  0.7020
 3218SOL    HW121116   3.325   3.153   0.582 -0.6091 -0.1117 -0.3501
 3218SOL    HW221117   3.182   3.172   0.548  0.4519  0.7024  0.5096
 3219SOL     OW21118   0.209   4.159   5.394 -0.1301  0.6075 -0.1196
 3219SOL    HW121119   0.134   4.115   5.434  1.5100 -2.1095  0.0484
 3219SOL    HW221120   0.268   4.086   5.413 -1.5420  0.1816  2.6438
 3220SOL     OW21121   1.765   2.405   6.391  0.0016  0.8762  0.4398
 3220SOL    HW121122   1.850   2.446   6.380  0.4503  0.2414  1.5620
 3220SOL    HW221123   1.742   2.382   6.301  0.2289  1.0450  0.3385
 3221SOL     OW21124   4.706   0.754  11.590 -0.1935 -0.6969 -0.3286
 3221SOL    HW121125   0.048   0.826  11.586  1.2054 -1.9454 -0.5181
 3221SOL    HW221126   4.629   0.790  11.547 -1.9295 -0.2448  3.1358
 3222SOL     OW21127   2.325   3.671   9.254  0.0863  0.3038  0.3330
 3222SOL    HW121128   2.373   3.754   9.258  0.2209  0.2788 -0.8206
 3222SOL    HW221129   2.266   3.687   9.181 -0.7164 -0.7337  0.7516
 3223SOL     OW21130   2.966   3.157   8.145  0.5690 -0.4579 -0.5542
 3223SOL    HW121131   2.896   3.222   8.146 -0.2450 -1.3226 -1.2795
 3223SOL    HW221132   3.027   3.198   8.206 -0.3023 -0.3643  0.2442
 3224SOL     OW21133   3.402   3.743   5.781 -0.6946 -0.3323 -0.6656
 3224SOL    HW121134   3.423   3.827   5.739 -2.0913  0.2126 -0.2837
 3224SOL    HW221135   3.363   3.691   5.711  0.1796  0.3100 -1.6333
 3225SOL     OW21136   1.616   4.359  14.209  0.0617 -0.7149 -0.3828
 3225SOL    HW121137   1.646   4.296  14.144  0.3016  1.6999 -2.6016
 3225SOL    HW221138   1.662   4.332  14.288  2.8044  1.3960 -1.2711
 3226SOL     OW21139   1.989   1.867  15.441  0.7032  0.1381 -0.1471
 3226SOL    HW121140   1.958   1.933  15.379 -2.1196 -0.2808  0.8205
 3226SOL    HW221141   2.063   1.911  15.483 -0.0784  1.2474  0.0707
 3227SOL     OW21142   4.278   1.991   6.635  0.3808 -0.4148  0.5241
 3227SOL    HW121143   4.277   1.932   6.711 -2.5274  1.6368  2.1048
 3227SOL    HW221144   4.252   1.932   6.565  0.5598  1.8350 -1.4429
 3228SOL     OW21145   0.532   1.169   2.678 -0.1101 -0.0475  0.1977
 3228SOL    HW121146   0.583   1.146   2.755  1.4619  0.7039 -0.6191
 3228SOL    HW221147   0.449   1.131   2.707 -0.1213 -1.5778 -1.8124
 3229SOL     OW21148   2.721   4.687   6.203 -0.0728  0.1178  0.4262
 3229SOL    HW121149   2.804   0.005   6.177 -0.6576  0.2070 -1.2904
 3229SOL    HW221150   2.674   4.677   6.121  3.3465 -2.9620 -1.1481
 3230SOL     OW21151   3.143   1.254  10.562 -0.1745  0.1346 -1.0575
 3230SOL    HW121152   3.047   1.245  10.565 -0.4326  2.9389 -1.0837
 3230SOL    HW221153   3.150   1.331  10.505  1.7251 -1.0368 -2.4000
 3231SOL     OW21154   3.461   0.498   4.483 -0.2279  0.0412  0.2718
 3231SOL    HW121155   3.506   0.491   4.567 -2.8923 -0.4651  1.6596
 3231SOL    HW221156   3.505   0.582   4.469  1.1129 -0.7665 -0.3898
 3232SOL     OW21157   4.627   4.091   2.159 -0.2313 -0.2440 -0.0019
 3232SOL    HW121158   4.549   4.144   2.143  1.2805  1.7861 -0.6966
 3232SOL    HW221159   4.621   4.086   2.254 -2.9284  2.9143 -0.0085
 3233SOL     OW21160   3.776   3.607   2.696 -0.3984 -0.0540  0.2078
 3233SOL    HW121161   3.702   3.620   2.755  2.3092  0.3316  3.5572
 3233SOL    HW221162   3.750   3.539   2.634 -3.7244  1.5362 -0.1003
 3234SOL     OW21163   1.446   2.276  12.222  0.2136  0.1935  0.1532
 3234SOL    HW121164   1.480   2.353  12.268 -0.1041 -0.0316  0.7592
 3234SOL    HW221165   1.479   2.283  12.133 -1.4163  2.9204 -0.2353
 3235SOL     OW21166   1.922   1.969   8.781  0.6097 -0.5494  0.1176
 3235SOL    HW121167   1.957   1.951   8.694 -0.3912  2.2319 -0.8832
 3235SOL    HW221168   2.000   1.948   8.832  0.4543  0.7468  0.8975
 3236SOL     OW21169   4.616   2.828   5.995  0.3873  0.2870  0.0612
 3236SOL    HW121170   4.703   2.792   5.979  1.5877  2.1423  2.4502
 3236SOL    HW221171   4.609   2.840   6.090  0.6125 -0.4616  0.1721
 3237SOL     OW21172   4.203   3.375  10.767  0.0707 -0.9319 -0.5687
 3237SOL    HW121173   4.203   3.469  10.786 -0.1376 -1.2541  1.0242
 3237SOL    HW221174   4.245   3.373  10.682  0.1834 -2.3760 -0.4726
 3238SOL     OW21175   0.082   3.821   4.316 -0.3944 -0.2594 -0.0388
 3238SOL    HW121176   0.157   3.871   4.285  0.8173 -1.5618  0.7849
 3238SOL    HW221177   0.076   3.765   4.239  1.3798  0.0498 -0.3899
 3239SOL     OW21178   0.728   0.668   7.259  0.7681 -0.9238 -0.4844
 3239SOL    HW121179   0.703   0.729   7.190 -0.2499 -1.3102 -0.4531
 3239SOL    HW221180   0.647   0.672   7.310 -0.7139  1.4137 -3.0281
 3240SOL     OW21181   3.168   3.306   8.252  0.3942  0.0937  0.1069
 3240SOL    HW121182   3.182   3.398   8.275 -3.4860  1.4270 -2.9535
 3240SOL    HW221183   3.257   3.295   8.217  1.1492  0.6480  1.8498
 3241SOL     OW21184   1.402   1.859   4.159 -0.4520  0.0122  0.0625
 3241SOL    HW121185   1.316   1.893   4.182 -0.0368  0.2793  1.2123
 3241SOL    HW221186   1.379   1.769   4.183  1.0687 -0.1668  0.8897
 3242SOL     OW21187   0.533   2.306   4.414 -0.3085  0.1570  0.1084
 3242SOL    HW121188   0.460   2.295   4.354 -1.1759 -1.8134  1.5173
 3242SOL    HW221189   0.554   2.399   4.408  0.3879  0.0152  0.3642
 3243SOL     OW21190   4.457   4.677   7.257 -0.1243  0.1611 -0.2226
 3243SOL    HW121191   4.531   0.010   7.232 -0.5185 -0.2583 -2.3095
 3243SOL    HW221192   4.445   4.619   7.182 -2.0100  1.8125 -1.2171
 3244SOL     OW21193   0.032   2.944   3.923 -0.1049  0.6745 -0.0817
 3244SOL    HW121194   4.686   2.955   3.857  0.0970 -2.4606 -0.7696
 3244SOL    HW221195   0.084   3.012   3.879 -2.3905  2.1761 -0.4453
 3245SOL     OW21196   0.492   2.739  16.570  0.0908 -0.4728  0.3806
 3245SOL    HW121197   0.430   2.667  16.572  1.3904 -1.5459  1.4696
 3245SOL    HW221198   0.448   2.802  16.627  0.7934  0.6669 -0.3210
 3246SOL     OW21199   4.164   3.583   9.199 -0.1811  0.3170 -0.0797
 3246SOL    HW121200   4.216   3.602   9.278  1.6535 -2.0336 -0.7126
 3246SOL    HW221201   4.215   3.505   9.175  0.7724  0.4614  1.4446
 3247SOL     OW21202   0.007   2.580  16.096  0.2528  0.5084 -0.7372
 3247SOL    HW121203   0.070   2.642  16.061 -0.3395  0.4223 -1.9585
 3247SOL    HW221204   0.072   2.518  16.129 -0.9278 -0.6037 -0.4678
 3248SOL     OW21205   1.361   1.024   5.021 -0.1299  0.1545 -0.4323
 3248SOL    HW121206   1.267   1.040   5.024  0.1184  1.5107  0.1239
 3248SOL    HW221207   1.367   0.930   5.007 -1.0389  0.0361  0.0200
 3249SOL     OW21208   2.979   1.044   6.637  0.1107  0.5770  0.0474
 3249SOL    HW121209   2.988   1.063   6.731  3.0177 -0.1220 -0.1027
 3249SOL    HW221210   3.026   0.961   6.633 -1.0149 -0.0347 -0.4828
 3250SOL     OW21211   4.664   1.943   3.013  0.3497  0.3800  0.7088
 3250SOL    HW121212   4.592   1.917   3.072  0.9182 -2.1563  0.2700
 3250SOL    HW221213   4.616   1.970   2.935  0.8491  0.3534  0.3989
 3251SOL     OW21214   2.960   3.848   0.992 -0.5316 -0.2673  0.4525
 3251SOL    HW121215   2.886   3.790   0.974 -1.0164  0.7345 -0.7951
 3251SOL    HW221216   2.976   3.878   0.902 -2.0873  2.4184  1.0653
 3252SOL     OW21217   0.990   2.227   0.455  0.0900  0.3767 -0.8913
 3252SOL    HW121218   1.029   2.185   0.379  1.0018 -0.0673 -0.1825
 3252SOL    HW221219   1.007   2.167   0.528 -0.0604  1.6124  0.1796
 3253SOL     OW21220   0.095   1.029   4.870  0.1159 -0.6571 -0.4200
 3253SOL    HW121221   0.060   1.083   4.941 -0.8083  0.1938 -1.5175
 3253SOL    HW221222   0.188   1.038   4.890  0.0027  1.3739 -0.8189
 3254SOL     OW21223   2.809   0.991   6.278 -0.4925 -0.8447 -1.2362
 3254SOL    HW121224   2.796   0.910   6.327  1.4248 -0.5271 -0.2170
 3254SOL    HW221225   2.719   1.015   6.257 -0.7197  0.2250  1.0066
 3255SOL     OW21226   2.612   2.590   0.874 -0.2038  0.0458  0.2785
 3255SOL    HW121227   2.675   2.565   0.806  0.5607  1.9499  0.2877
 3255SOL    HW221228   2.594   2.682   0.856  0.1995 -0.3937 -2.4296
 3256SOL     OW21229   0.766   1.917   0.351 -0.2939 -0.0559  0.3896
 3256SOL    HW121230   0.761   1.829   0.387 -1.0023 -0.3258 -0.3692
 3256SOL    HW221231   0.858   1.926   0.330 -0.7446 -0.2642 -1.6372
 3257SOL     OW21232   3.404   1.323   5.762  0.2442 -0.2416 -0.5200
 3257SOL    HW121233   3.462   1.255   5.798  0.8714  0.6677  0.1829
 3257SOL    HW221234   3.334   1.272   5.720 -1.0530 -0.3711  1.7470
 3258SOL     OW21235   2.342   0.026   5.981  0.0020 -0.0777 -0.2528
 3258SOL    HW121236   2.278   0.038   6.052  0.1680  1.7252 -0.4167
 3258SOL    HW221237   2.319   4.660   5.951 -0.0695 -0.5681  1.2367
 3259SOL     OW21238   0.443   1.157   1.966  0.5185  0.9179 -0.4714
 3259SOL    HW121239   0.361   1.180   1.922 -1.1971  0.4297  2.4807
 3259SOL    HW221240   0.504   1.230   1.952  0.8912  0.7423  0.2220
 3260SOL     OW21241   1.791   0.852   8.912  0.2727  0.5309 -0.0684
 3260SOL    HW121242   1.764   0.933   8.867 -1.4093  1.1075  1.9827
 3260SOL    HW221243   1.709   0.833   8.958  0.5562  0.9805  0.6120
 3261SOL     OW21244   0.708   4.253   5.113 -0.6926 -0.4048  0.1604
 3261SOL    HW121245   0.692   4.198   5.036  1.8314 -1.1520  0.1868
 3261SOL    HW221246   0.618   4.270   5.140 -0.4289 -0.0029  0.8020
 3262SOL     OW21247   3.199   2.186   1.619 -0.2431 -1.0677  0.5237
 3262SOL    HW121248   3.141   2.222   1.685 -2.9662 -3.2371 -0.7061
 3262SOL    HW221249   3.210   2.265   1.565 -3.5268 -0.0546  1.3773
 3263SOL     OW21250   4.208   4.620   3.283 -0.5154 -0.2182 -0.4233
 3263SOL    HW121251   4.132   4.668   3.252 -0.1230  1.6862  1.5394
 3263SOL    HW221252   4.279   4.680   3.257  1.4203 -2.6297 -0.6461
 3264SOL     OW21253   2.256   3.055   2.798  1.0558  0.0049  0.4460
 3264SOL    HW121254   2.280   3.037   2.707  0.8835 -0.0017  0.4012
 3264SOL    HW221255   2.235   3.148   2.790 -4.3890 -1.1266  1.6591
 3265SOL     OW21256   3.390   3.291   8.481 -0.2085  0.4707  0.4014
 3265SOL    HW121257   3.463   3.344   8.514  1.4292  0.8497 -3.7568
 3265SOL    HW221258   3.428   3.253   8.401 -1.8813 -0.8549  0.2359
 3266SOL     OW21259   3.458   2.697   1.262  0.5196  0.4968  0.0762
 3266SOL    HW121260   3.532   2.754   1.245  1.3984 -0.6590  0.0413
 3266SOL    HW221261   3.492   2.613   1.232 -1.5193 -0.7365  1.2378
 3267SOL     OW21262   3.845   1.343  13.870 -0.9503 -0.0756  0.5076
 3267SOL    HW121263   3.837   1.426  13.823 -1.7569 -0.6680 -0.3998
 3267SOL    HW221264   3.915   1.295  13.825  0.0524  0.8390  1.0882
 3268SOL     OW21265   0.937   1.954  12.491  0.1914 -0.0446  0.9756
 3268SOL    HW121266   0.948   1.862  12.515  1.9326  0.4255  1.9916
 3268SOL    HW221267   0.846   1.968  12.518  0.9192 -0.2112  3.5510
 3269SOL     OW21268   3.462   2.433   4.196  0.0943 -0.0387 -0.0450
 3269SOL    HW121269   3.520   2.454   4.122  0.7407  0.7098  0.6777
 3269SOL    HW221270   3.416   2.517   4.200  0.0772 -0.0100 -0.7120
 3270SOL     OW21271   2.563   0.651   7.822 -0.1302 -0.2748 -0.5163
 3270SOL    HW121272   2.478   0.689   7.841  0.1047 -0.7301  1.3986
 3270SOL    HW221273   2.592   0.722   7.765  1.3099  0.0717  0.6388
 3271SOL     OW21274   3.071   0.328  17.510  0.2880  0.6963  0.0409
 3271SOL    HW121275   3.108   0.298  17.592  1.4191  1.6001 -0.1310
 3271SOL    HW221276   2.994   0.377  17.539 -1.2919 -1.4776 -0.4985
 3272SOL     OW21277   3.102   0.857   2.275 -0.0862 -0.5024  0.1169
 3272SOL    HW121278   3.106   0.898   2.361  0.5751  2.2020 -1.2254
 3272SOL    HW221279   3.192   0.866   2.245 -0.5253  1.0565 -0.7462
 3273SOL     OW21280   2.768   3.325   6.819 -0.3847 -0.2445 -0.0221
 3273SOL    HW121281   2.816   3.260   6.767  1.6539  1.5155 -0.3000
 3273SOL    HW221282   2.836   3.358   6.877 -1.2787 -0.0138  0.8817
 3274SOL     OW21283   0.060   3.657  17.020 -0.5389  0.0924  0.1701
 3274SOL    HW121284   0.130   3.621  17.075 -1.5487 -2.5220 -0.2575
 3274SOL    HW221285   4.712   3.595  17.039 -0.4116  0.7308  2.6784
 3275SOL     OW21286   3.419   1.198   4.139 -0.5100 -0.3920  0.1242
 3275SOL    HW121287   3.401   1.207   4.045  0.0117 -1.4120 -0.0737
 3275SOL    HW221288   3.513   1.178   4.143 -0.2866  1.0574  1.7913
 3276SOL     OW21289   1.918   0.050  14.513 -0.1842  0.0419  0.1310
 3276SOL    HW121290   1.882   0.122  14.461  2.8068  1.4533 -0.0314
 3276SOL    HW221291   1.853   4.703  14.502 -0.3510  0.0398  1.1267
 3277SOL     OW21292   4.008   0.520   0.027 -0.0127 -0.4458 -0.3505
 3277SOL    HW121293   3.957   0.491  17.642 -0.6034 -0.6954  0.1516
 3277SOL    HW221294   3.981   0.454   0.090  0.1404 -0.5436 -0.3881
 3278SOL     OW21295   3.156   1.545   5.584  0.0351 -0.3438  0.2900
 3278SOL    HW121296   3.230   1.564   5.527  0.0559 -0.7655  0.1728
 3278SOL    HW221297   3.177   1.599   5.661 -1.9749  2.5982 -1.2338
 3279SOL     OW21298   4.172   2.228  15.435  0.0264 -0.2922  0.1815
 3279SOL    HW121299   4.111   2.299  15.454  0.4730  0.2150 -0.2977
 3279SOL    HW221300   4.114   2.154  15.453  0.3600 -0.4911  0.4442
 3280SOL     OW21301   2.410   2.028   6.490 -0.3723  0.5198  0.2287
 3280SOL    HW121302   2.461   1.948   6.506 -1.0109  0.1651  0.4970
 3280SOL    HW221303   2.409   2.031   6.395 -1.2520 -0.0792  0.2157
 3281SOL     OW21304   3.313   0.648   8.112  0.5390 -0.0009 -0.0333
 3281SOL    HW121305   3.392   0.612   8.154 -0.2656 -0.2113  1.2966
 3281SOL    HW221306   3.343   0.649   8.021 -2.5379 -2.9250 -1.0571
 3282SOL     OW21307   0.516   4.713  13.736  0.3945  0.3252 -0.4279
 3282SOL    HW121308   0.546   4.660  13.809  0.3700  1.0218  0.0855
 3282SOL    HW221309   0.530   4.661  13.656  2.4568  0.6192 -0.2533
 3283SOL     OW21310   2.573   4.322  13.330 -0.6140 -0.9403  0.1474
 3283SOL    HW121311   2.611   4.329  13.242  1.9998  3.1375  1.6162
 3283SOL    HW221312   2.537   4.233  13.327 -0.5893 -1.0179  2.5649
 3284SOL     OW21313   1.897   1.228   8.295 -0.5465  0.1802 -0.0938
 3284SOL    HW121314   1.869   1.288   8.227 -0.2275 -0.2614 -0.6151
 3284SOL    HW221315   1.853   1.144   8.283 -2.5511  1.1444  0.6778
 3285SOL     OW21316   3.397   2.318   7.818 -0.4117  0.2608  0.0795
 3285SOL    HW121317   3.490   2.335   7.804 -0.5046 -0.7440 -1.8189
 3285SOL    HW221318   3.356   2.333   7.733 -1.1937 -0.4939  0.3319
 3286SOL     OW21319   2.083   1.055   2.271  0.5520  0.3984 -0.1931
 3286SOL    HW121320   2.078   0.960   2.276  3.7630  0.2115 -0.7713
 3286SOL    HW221321   2.110   1.054   2.179 -0.2690  0.8404 -0.4452
 3287SOL     OW21322   3.486   4.196   2.238  0.1365 -0.3758 -0.1064
 3287SOL    HW121323   3.509   4.237   2.155  1.7951 -0.6231  0.2285
 3287SOL    HW221324   3.572   4.184   2.277  0.0260  0.0162  0.2541
 3288SOL     OW21325   0.879   4.718   8.292  0.4358 -0.2581 -0.5967
 3288SOL    HW121326   0.912   4.628   8.283  0.8151 -0.0037 -1.6819
 3288SOL    HW221327   0.844   4.721   8.203  0.4897 -4.9811 -0.7807
 3289SOL     OW21328   3.249   0.151   4.744 -0.3042 -0.4876  0.3334
 3289SOL    HW121329   3.183   0.206   4.787  0.2392 -0.2629  0.8727
 3289SOL    HW221330   3.217   0.063   4.766 -1.1396  0.0394  1.2093
 3290SOL     OW21331   4.097   3.847  14.029  0.2585 -0.1552  0.1535
 3290SOL    HW121332   4.171   3.882  13.980  0.2425  1.1476  1.0509
 3290SOL    HW221333   4.115   3.880  14.117 -1.3135  1.8240 -0.2898
 3291SOL     OW21334   4.500   3.367   8.086  0.5334 -0.1093 -0.5485
 3291SOL    HW121335   4.424   3.415   8.119 -2.1539 -3.8521 -1.2522
 3291SOL    HW221336   4.503   3.289   8.142  1.8860  0.2172 -0.1792
 3292SOL     OW21337   0.138   0.545   7.077  0.0459 -0.8503  0.1381
 3292SOL    HW121338   0.171   0.455   7.084 -1.5938 -1.3464  1.4977
 3292SOL    HW221339   0.055   0.538   7.031 -0.6572 -0.1916  1.2896
 3293SOL     OW21340   2.783   0.220   4.598  0.1410  0.4090  0.1501
 3293SOL    HW121341   2.776   0.289   4.664  2.2682  0.7722 -0.0014
 3293SOL    HW221342   2.876   0.211   4.579  0.5878  0.7948  2.1891
 3294SOL     OW21343   3.687   3.235   0.129 -0.6940 -0.6513  0.0987
 3294SOL    HW121344   3.642   3.314   0.101  1.5649  0.2076 -1.0869
 3294SOL    HW221345   3.760   3.267   0.182 -3.1069 -1.2078  3.7589
 3295SOL     OW21346   2.796   0.497   1.882  0.8074  0.4138  0.3007
 3295SOL    HW121347   2.853   0.430   1.917  1.6627  0.0805 -1.7494
 3295SOL    HW221348   2.751   0.455   1.808 -0.9355  0.0949  1.5371
 3296SOL     OW21349   2.173   4.467   6.085 -0.3124  0.5365 -0.6223
 3296SOL    HW121350   2.188   4.378   6.117  0.5484  1.0799  0.5136
 3296SOL    HW221351   2.234   4.467   6.011 -0.0387 -3.4391 -0.4136
 3297SOL     OW21352   3.154   1.186   1.797  0.0663 -0.1408  0.7628
 3297SOL    HW121353   3.226   1.140   1.840  0.5418  0.9357  1.1183
 3297SOL    HW221354   3.196   1.272   1.795  0.9054 -0.6002 -0.6483
 3298SOL     OW21355   3.294   2.866   5.576 -0.1739  0.3520 -0.0541
 3298SOL    HW121356   3.287   2.932   5.507 -2.1732  1.1033  0.8626
 3298SOL    HW221357   3.298   2.791   5.516  0.4102 -0.2166  0.7016
 3299SOL     OW21358   2.873   1.734   3.108 -0.3480 -0.6598  0.0206
 3299SOL    HW121359   2.944   1.685   3.149  0.7203 -0.7448 -1.8908
 3299SOL    HW221360   2.930   1.775   3.043 -2.1930  0.6944 -0.7358
 3300SOL     OW21361   4.573   4.627   9.465  0.3506  0.5196  0.2164
 3300SOL    HW121362   4.523   4.680   9.402  2.4628 -0.1264 -2.0156
 3300SOL    HW221363   4.549   4.545   9.421  1.2306  0.0502  0.6084
 3301SOL     OW21364   1.773   2.444   4.346 -0.1064  0.2113  0.2574
 3301SOL    HW121365   1.735   2.476   4.264  1.8535  1.6467 -0.1127
 3301SOL    HW221366   1.702   2.414   4.403  0.6038  0.0809  1.0741
 3302SOL     OW21367   1.132   0.972   4.196  0.3158 -0.3266 -0.9788
 3302SOL    HW121368   1.074   1.042   4.224 -1.1642 -1.2908 -1.6707
 3302SOL    HW221369   1.196   1.021   4.143  1.1497  1.4581  1.6478
 3303SOL     OW21370   2.243   2.273   2.318 -0.6153  0.1219  0.0630
 3303SOL    HW121371   2.318   2.329   2.336  0.3352 -0.6979 -1.3497
 3303SOL    HW221372   2.179   2.308   2.380  1.1776 -0.6387  2.3456
 3304SOL     OW21373   2.306   3.955   1.855  0.2654 -0.3047  0.2531
 3304SOL    HW121374   2.343   3.872   1.885  0.3093 -0.7454 -1.0506
 3304SOL    HW221375   2.242   3.968   1.925  0.2884 -0.1076  0.2382
 3305SOL     OW21376   1.442   1.638   7.273  0.1210 -0.1118  0.6598
 3305SOL    HW121377   1.497   1.628   7.351  1.6982 -4.1419 -0.9525
 3305SOL    HW221378   1.355   1.603   7.295 -0.7873  2.4639  1.0995
 3306SOL     OW21379   2.374   4.508   8.650 -0.0958  0.3492  0.5032
 3306SOL    HW121380   2.331   4.432   8.611  0.1322 -0.2182  1.3666
 3306SOL    HW221381   2.443   4.469   8.703 -0.3554 -3.3535 -1.9237
 3307SOL     OW21382   1.787   4.526   4.285  0.3812 -0.2034  0.1756
 3307SOL    HW121383   1.829   4.457   4.337 -0.5307 -0.1978  0.9175
 3307SOL    HW221384   1.839   4.518   4.205 -0.4737  3.0382 -0.7177
 3308SOL     OW21385   2.572   1.315   3.976 -0.5390 -0.2840 -0.5185
 3308SOL    HW121386   2.490   1.356   4.004  0.8844  1.6027  0.9311
 3308SOL    HW221387   2.545   1.251   3.910 -0.2238 -2.1396  1.1464
 3309SOL     OW21388   0.187   2.775   2.137  0.2486 -0.4019 -0.1370
 3309SOL    HW121389   0.247   2.816   2.199 -1.2773 -1.1806  1.8399
 3309SOL    HW221390   0.115   2.740   2.190 -0.6502  0.3772 -0.8395
 3310SOL     OW21391   0.439   0.038   0.442  0.7608  0.4867  0.0325
 3310SOL    HW121392   0.506   0.009   0.380 -0.3164  1.3232 -1.5350
 3310SOL    HW221393   0.439   4.688   0.506  0.0905 -1.7143 -2.4183
 3311SOL     OW21394   0.721   2.678   3.414 -0.3096 -0.9131  0.5755
 3311SOL    HW121395   0.665   2.736   3.466  0.4271  1.4980 -1.3518
 3311SOL    HW221396   0.734   2.605   3.474  0.7694 -0.2721  1.1298
 3312SOL     OW21397   1.924   0.685   3.597  0.8420  0.0548  0.5849
 3312SOL    HW121398   1.854   0.624   3.571 -0.1411  1.1447  0.6668
 3312SOL    HW221399   1.954   0.639   3.675  3.9107  0.1565 -0.5242
 3313SOL     OW21400   1.782   2.148   0.362  0.3019 -0.7176  0.4451
 3313SOL    HW121401   1.725   2.223   0.341  0.0959 -0.5742  1.5296
 3313SOL    HW221402   1.721   2.080   0.389 -1.5723  1.2802  1.2368
 3314SOL     OW21403   3.387   0.231  15.425  0.0220  0.2514 -0.1281
 3314SOL    HW121404   3.481   0.252  15.420 -0.0107  0.4673  0.1473
 3314SOL    HW221405   3.349   0.304  15.376  0.4305  0.4823 -0.1047
 3315SOL     OW21406   4.192   0.493   4.725  0.0531  0.0900 -0.1373
 3315SOL    HW121407   4.153   0.409   4.699  2.4856 -0.6574 -1.4034
 3315SOL    HW221408   4.121   0.550   4.696  0.2106  0.9155  1.1013
 3316SOL     OW21409   0.730   2.716  12.642  0.0494  0.7771  0.4731
 3316SOL    HW121410   0.748   2.702  12.549  0.2580 -2.6056  1.0459
 3316SOL    HW221411   0.664   2.784  12.628  0.8348  1.8332  1.8794
 3317SOL     OW21412   3.460   1.357  10.894 -0.5626  0.1651  0.0039
 3317SOL    HW121413   3.390   1.402  10.848 -0.0583  0.4794 -0.4500
 3317SOL    HW221414   3.418   1.340  10.979  2.2439  1.4434  1.6493
 3318SOL     OW21415   4.717   3.547   5.308 -0.3930 -0.1413 -0.2642
 3318SOL    HW121416   0.028   3.603   5.237  1.4497  0.9440  1.4472
 3318SOL    HW221417   0.072   3.547   5.364 -0.7418 -3.6984  0.2342
 3319SOL     OW21418   0.228   3.043  15.295 -0.2876  0.5051  0.7366
 3319SOL    HW121419   0.172   3.101  15.243 -2.0412 -1.9914 -0.2054
 3319SOL    HW221420   0.171   2.966  15.290 -2.0521  1.8213  0.7658
 3320SOL     OW21421   1.594   3.373  11.266  0.3945  0.3760  0.1141
 3320SOL    HW121422   1.582   3.282  11.294  1.5540  0.7888  1.9652
 3320SOL    HW221423   1.502   3.396  11.253 -0.0880 -1.3674  0.3803
 3321SOL     OW21424   3.060   0.072  11.172  0.4078 -0.1145 -0.7350
 3321SOL    HW121425   3.073   4.710  11.128 -0.0343 -0.8711  0.5748
 3321SOL    HW221426   2.971   0.095  11.144  0.0276 -2.1999 -1.2710
 3322SOL     OW21427   0.210   3.844  10.646  0.2346  0.1101  0.7468
 3322SOL    HW121428   0.151   3.919  10.645  0.7304  0.4981  0.7813
 3322SOL    HW221429   0.221   3.839  10.741  1.6421 -0.2193  0.5617
 3323SOL     OW21430   3.203   1.127   5.343  0.1526  0.1579 -0.2020
 3323SOL    HW121431   3.223   1.041   5.306  3.2882  0.1330  1.4995
 3323SOL    HW221432   3.144   1.168   5.280  1.3326  0.4480 -1.1370
 3324SOL     OW21433   3.130   2.330   4.068 -0.1634  0.4357  0.1314
 3324SOL    HW121434   3.124   2.237   4.089 -1.4517  0.6310  0.6255
 3324SOL    HW221435   3.215   2.358   4.103  1.2186 -1.2858 -1.8468
 3325SOL     OW21436   1.235   2.331  17.074 -0.4185 -0.1456  0.4513
 3325SOL    HW121437   1.291   2.253  17.075  0.3714  0.4217 -0.0141
 3325SOL    HW221438   1.270   2.387  17.005  0.0031  0.1413  0.8952
 3326SOL     OW21439   3.860   3.849   2.593  0.2470 -0.2908  0.0761
 3326SOL    HW121440   3.817   3.763   2.599  0.8885 -0.7271 -1.5945
 3326SOL    HW221441   3.802   3.907   2.642  1.8543  0.6888  0.8050
 3327SOL     OW21442   0.726   0.486  11.281  0.1348  0.4817 -0.2140
 3327SOL    HW121443   0.689   0.398  11.275  0.4923  0.2734  0.6269
 3327SOL    HW221444   0.748   0.484  11.374  0.7775  0.6542 -0.3591
 3328SOL     OW21445   0.567   1.114   3.813 -0.1089 -0.3086  0.2478
 3328SOL    HW121446   0.484   1.074   3.839 -0.7350 -0.5792 -2.1574
 3328SOL    HW221447   0.537   1.204   3.804 -0.4859 -0.7502 -2.9762
 3329SOL     OW21448   1.195   0.943   7.648 -0.5925 -0.3253 -0.1776
 3329SOL    HW121449   1.164   0.959   7.558 -1.8111  0.6203  0.4145
 3329SOL    HW221450   1.278   0.988   7.633 -0.9163 -1.0097 -4.0136
 3330SOL     OW21451   1.903   0.720   3.328  0.3089  0.8779  0.3778
 3330SOL    HW121452   1.981   0.764   3.295 -0.2369  1.2061 -0.4831
 3330SOL    HW221453   1.927   0.715   3.421  0.3828 -1.7316  0.2096
 3331SOL     OW21454   4.579   0.551   7.289 -0.2249 -0.0151 -0.2606
 3331SOL    HW121455   4.543   0.547   7.200 -2.1062 -1.3950  0.5693
 3331SOL    HW221456   4.634   0.630   7.285 -0.9922  0.4906 -1.0925
 3332SOL     OW21457   1.731   3.965   2.504  0.4447 -0.0245  0.0118
 3332SOL    HW121458   1.755   3.938   2.416  1.2310 -0.3403  0.3327
 3332SOL    HW221459   1.774   4.047   2.529  0.4347  0.5754 -1.8990
 3333SOL     OW21460   1.138   0.780  11.760  0.2227  0.2133  0.0801
 3333SOL    HW121461   1.097   0.774  11.674  0.7721  2.0900 -0.3018
 3333SOL    HW221462   1.111   0.865  11.795  1.5875  0.9551 -0.7029
 3334SOL     OW21463   2.315   1.138   2.361  0.4130 -0.3935 -0.9928
 3334SOL    HW121464   2.240   1.104   2.313  0.2500 -1.1536 -0.2098
 3334SOL    HW221465   2.282   1.214   2.409  3.1131 -0.4772  0.9949
 3335SOL     OW21466   2.215   1.793  12.390  0.9518 -0.0424 -0.3423
 3335SOL    HW121467   2.241   1.885  12.403  0.5557 -0.0032  0.1414
 3335SOL    HW221468   2.204   1.766  12.481  0.6247  0.0995 -0.3379
 3336SOL     OW21469   0.835   1.413  17.264  0.0024 -0.1916  0.2106
 3336SOL    HW121470   0.919   1.385  17.299 -0.0051 -1.3012 -0.6668
 3336SOL    HW221471   0.854   1.480  17.199  1.9139 -2.4805 -1.5818
 3337SOL     OW21472   2.795   1.594   7.375 -0.4119 -0.3249  0.3170
 3337SOL    HW121473   2.831   1.665   7.322 -1.0983 -0.2934 -0.1038
 3337SOL    HW221474   2.867   1.531   7.381  0.9680  1.2564  0.4241
 3338SOL     OW21475   4.138   4.231   4.008 -0.0103 -0.4024 -0.7941
 3338SOL    HW121476   4.091   4.151   4.029 -0.4942  0.5487  1.6691
 3338SOL    HW221477   4.219   4.216   4.057 -1.5207  0.5752  1.9722
 3339SOL     OW21478   1.001   0.086   3.918  0.8116 -0.3162  0.1812
 3339SOL    HW121479   0.936   0.154   3.904  1.2414 -0.0616 -0.5749
 3339SOL    HW221480   1.071   0.104   3.855  1.2376 -1.1842  0.3940
 3340SOL     OW21481   0.652   2.367   5.142 -0.2436 -0.0491 -0.0381
 3340SOL    HW121482   0.713   2.301   5.111 -0.4995  0.4605 -1.6257
 3340SOL    HW221483   0.620   2.328   5.223 -2.3426  2.1004  0.2026
 3341SOL     OW21484   4.640   4.720   7.905 -0.0290 -0.2991 -0.4804
 3341SOL    HW121485   4.569   4.674   7.860  0.0251  0.7540 -1.6318
 3341SOL    HW221486   4.677   4.656   7.967 -3.6353 -0.0573  1.9077
 3342SOL     OW21487   2.660   3.167   4.578 -0.1014  0.1295  0.5531
 3342SOL    HW121488   2.705   3.084   4.566  1.3728  1.0816 -0.4376
 3342SOL    HW221489   2.666   3.206   4.491 -3.2281 -1.0583 -0.2075
 3343SOL     OW21490   3.561   1.266  12.256 -0.4688 -0.0208  0.5669
 3343SOL    HW121491   3.605   1.344  12.221  3.2031 -1.4494  1.9972
 3343SOL    HW221492   3.634   1.235  12.309  1.0450 -0.9089 -2.0593
 3344SOL     OW21493   4.161   4.570   5.900  0.5316 -0.0228  0.2290
 3344SOL    HW121494   4.206   4.525   5.828  1.9848 -2.9191  2.9613
 3344SOL    HW221495   4.095   4.616   5.848  2.1985  1.6291 -0.3988
 3345SOL     OW21496   2.828   0.822  16.909  0.1705 -0.2711 -0.1741
 3345SOL    HW121497   2.853   0.741  16.954  0.9347  0.2639  0.3584
 3345SOL    HW221498   2.878   0.823  16.828  1.4556 -1.0437  0.6081
 3346SOL     OW21499   0.018   3.120   3.467  0.1576 -0.4087 -0.2718
 3346SOL    HW121500   4.721   3.056   3.397  0.9499 -1.3089  0.3446
 3346SOL    HW221501   0.084   3.073   3.519  0.2607 -0.0125 -0.0506
 3347SOL     OW21502   1.946   1.934  14.139  0.0329  0.4139 -0.2888
 3347SOL    HW121503   1.914   1.956  14.052  2.1424 -0.3878 -1.2780
 3347SOL    HW221504   1.863   1.919  14.184 -1.1367  0.0797 -2.5703
 3348SOL     OW21505   0.185   2.417  14.727  0.4440  0.0183 -0.3083
 3348SOL    HW121506   0.168   2.388  14.816  0.0616  1.3524  0.0610
 3348SOL    HW221507   0.274   2.449  14.740  0.5945  0.1285 -1.6227
 3349SOL     OW21508   2.489   0.905   5.463 -0.3205 -0.0691  0.7890
 3349SOL    HW121509   2.474   0.996   5.490  0.5529  0.7036 -1.3342
 3349SOL    HW221510   2.489   0.915   5.368  0.2378 -1.8976  0.5991
 3350SOL     OW21511   0.868   1.363   7.281  0.3263  0.4509 -0.5632
 3350SOL    HW121512   0.867   1.415   7.362 -2.7200 -0.4869  0.0220
 3350SOL    HW221513   0.903   1.280   7.313  1.0837  1.4646  1.2686
 3351SOL     OW21514   1.145   1.127  13.194 -0.3453  0.5256  0.0273
 3351SOL    HW121515   1.076   1.062  13.183  1.7895 -1.8591  0.6460
 3351SOL    HW221516   1.220   1.068  13.205 -1.4557 -0.4811  2.2744
 3352SOL     OW21517   3.312   4.005   4.542 -0.2855  0.3876 -0.0176
 3352SOL    HW121518   3.401   4.039   4.556  0.0042  0.5032 -2.0578
 3352SOL    HW221519   3.292   4.064   4.469  1.0187 -0.7254 -1.2738
 3353SOL     OW21520   3.880   3.036   1.860  0.0955  0.1906 -0.4391
 3353SOL    HW121521   3.828   3.102   1.906  0.3023  0.2142 -0.2411
 3353SOL    HW221522   3.960   3.085   1.842 -1.0599  1.8928 -0.8850
 3354SOL     OW21523   0.598   1.441   3.219  0.2716  0.3580 -0.3094
 3354SOL    HW121524   0.587   1.346   3.222  2.1673  0.1155 -0.9759
 3354SOL    HW221525   0.564   1.468   3.134  2.4575 -1.6812 -1.8397
 3355SOL     OW21526   2.472   4.315   9.483 -0.1135 -0.4358 -0.9166
 3355SOL    HW121527   2.493   4.331   9.575  0.4640 -1.8240 -0.8120
 3355SOL    HW221528   2.377   4.319   9.479 -0.1736 -1.4721 -0.3232
 3356SOL     OW21529   1.642   2.687   5.472  0.3136  0.5565  0.4280
 3356SOL    HW121530   1.721   2.716   5.518  0.5527  0.6454 -0.0383
 3356SOL    HW221531   1.599   2.773   5.470 -1.6984 -0.4200  1.4597
 3357SOL     OW21532   2.501   1.006   5.179 -0.0314  0.1291 -0.4383
 3357SOL    HW121533   2.472   1.094   5.205 -3.5779 -0.9846 -0.6564
 3357SOL    HW221534   2.506   1.010   5.084 -0.5768 -2.1387 -0.5417
 3358SOL     OW21535   2.414   3.094   4.020 -0.1018 -0.1103 -0.0033
 3358SOL    HW121536   2.355   3.140   3.960 -3.6528 -3.1069  1.1985
 3358SOL    HW221537   2.391   3.124   4.108  0.3978 -0.4959  0.2555
 3359SOL     OW21538   4.156   0.689  17.410 -0.6054  0.6429 -0.1549
 3359SOL    HW121539   4.217   0.652  17.474 -1.4106  0.0727  0.2724
 3359SOL    HW221540   4.185   0.780  17.416 -0.4849  0.5446  0.7070
 3360SOL     OW21541   1.915   1.221  17.672 -0.0640 -0.0286  0.5095
 3360SOL    HW121542   1.844   1.216  17.608  0.1036  1.3677  0.2171
 3360SOL    HW221543   1.888   1.307   0.014  0.1649  0.3765 -0.4106
 3361SOL     OW21544   2.098   0.429   6.724 -0.1880 -0.1863 -0.2622
 3361SOL    HW121545   2.031   0.403   6.787  0.2810 -1.7654 -0.4285
 3361SOL    HW221546   2.115   0.514   6.764 -2.0668 -0.5370  1.2968
 3362SOL     OW21547   3.097   2.787   6.910  0.3626  0.3793 -0.7910
 3362SOL    HW121548   3.080   2.715   6.972  1.4794  1.8158  1.1653
 3362SOL    HW221549   3.056   2.854   6.964  2.2497  0.2835  0.7638
 3363SOL     OW21550   4.707   1.896   3.840  0.6967  0.0684 -0.3049
 3363SOL    HW121551   0.044   1.888   3.916 -0.0936  2.5378  0.5569
 3363SOL    HW221552   4.619   1.910   3.876  1.5713  2.0003  1.0772
 3364SOL     OW21553   1.578   1.580   7.810  0.2194  0.3942 -0.2967
 3364SOL    HW121554   1.592   1.672   7.787 -0.6975  0.1067 -1.9695
 3364SOL    HW221555   1.503   1.593   7.869  0.4776 -0.6882  0.2735
 3365SOL     OW21556   4.389   1.750   1.808  0.0650  0.2074 -0.3254
 3365SOL    HW121557   4.374   1.731   1.901  0.1005  1.2682 -0.0943
 3365SOL    HW221558   4.306   1.792   1.784 -0.7564 -1.8994 -1.0915
 3366SOL     OW21559   0.157   0.302   3.776  0.1809  0.3969 -0.1965
 3366SOL    HW121560   0.067   0.333   3.765  0.0818  0.2718  0.2693
 3366SOL    HW221561   0.131   0.211   3.758 -0.3583  0.3625  0.7695
 3367SOL     OW21562   3.094   2.426   1.511  0.0631 -0.1249  0.4981
 3367SOL    HW121563   3.029   2.480   1.557  0.0409 -1.5315  2.1046
 3367SOL    HW221564   3.144   2.489   1.460  0.3437  1.2962  2.5211
 3368SOL     OW21565   1.001   0.216   4.953 -0.0901 -0.0443 -0.1126
 3368SOL    HW121566   0.916   0.173   4.951 -0.7201  1.2061 -0.3996
 3368SOL    HW221567   1.031   0.194   4.865  0.3254  0.2657 -0.0513
 3369SOL     OW21568   3.553   1.610   9.312 -0.4977  0.0165  0.2299
 3369SOL    HW121569   3.640   1.605   9.352 -0.2912 -0.1215 -0.2266
 3369SOL    HW221570   3.564   1.590   9.219 -0.2416  3.5915 -0.4912
 3370SOL     OW21571   3.062   4.566   2.171  0.1872  0.4268  1.5806
 3370SOL    HW121572   3.062   4.517   2.089  2.3086  1.5480  0.8891
 3370SOL    HW221573   3.134   4.523   2.217 -0.4133  1.0521  3.1015
 3371SOL     OW21574   0.378   1.298  14.943 -0.3173 -0.1119 -0.6383
 3371SOL    HW121575   0.320   1.369  14.970  1.5237  2.0387 -2.3639
 3371SOL    HW221576   0.423   1.277  15.024 -0.9034  1.5556  0.1316
 3372SOL     OW21577   2.732   1.427  12.924  0.2192  0.3259 -0.1753
 3372SOL    HW121578   2.758   1.336  12.911  1.8983  0.4959  2.0271
 3372SOL    HW221579   2.818   1.468  12.935  0.6719 -0.7827  0.3894
 3373SOL     OW21580   3.267   0.872   5.088  0.5483 -0.0359  0.1669
 3373SOL    HW121581   3.318   0.837   5.015  1.5296 -1.7154  1.6964
 3373SOL    HW221582   3.292   0.963   5.070  0.1792 -0.3550 -2.0478
 3374SOL     OW21583   2.703   2.581   7.908 -0.1563  0.2084 -0.6434
 3374SOL    HW121584   2.753   2.614   7.833 -0.5626  0.4004 -0.8283
 3374SOL    HW221585   2.753   2.624   7.977 -0.3702 -0.3139 -0.1678
 3375SOL     OW21586   4.159   4.632   2.389 -0.3298 -0.1355  0.5017
 3375SOL    HW121587   4.138   4.720   2.357 -0.3298 -0.5882 -0.7591
 3375SOL    HW221588   4.082   4.587   2.352 -1.0700  1.4315  0.1391
 3376SOL     OW21589   2.741   3.228   3.587  0.3865  0.8528  0.2872
 3376SOL    HW121590   2.679   3.170   3.633  0.3697 -0.0600 -0.8715
 3376SOL    HW221591   2.738   3.185   3.501 -0.6989  3.1622 -0.8157
 3377SOL     OW21592   1.755   1.879   0.644  0.0873 -0.3722  0.1700
 3377SOL    HW121593   1.827   1.939   0.625 -0.9325  0.0552 -2.3016
 3377SOL    HW221594   1.727   1.881   0.736 -0.2279 -1.0973  0.0892
 3378SOL     OW21595   3.012   2.898   4.004  0.0316 -0.4949  0.1150
 3378SOL    HW121596   3.068   2.931   4.074 -1.7501  0.9146  0.8702
 3378SOL    HW221597   2.931   2.934   4.040 -0.9632 -0.0791 -2.5464
 3379SOL     OW21598   4.033   2.580   8.616 -0.2732  0.1813  0.2897
 3379SOL    HW121599   3.949   2.617   8.643  0.0322  1.5365 -0.6281
 3379SOL    HW221600   4.089   2.602   8.690 -2.2679  0.1313  1.8160
 3380SOL     OW21601   2.964   4.289   9.128  0.2941 -0.3364  0.4495
 3380SOL    HW121602   2.996   4.198   9.129 -0.2836 -0.5617 -0.9333
 3380SOL    HW221603   3.026   4.328   9.066  0.9190 -1.1846  0.5442
 3381SOL     OW21604   2.431   1.041   8.538 -0.5506  0.6515 -0.1535
 3381SOL    HW121605   2.520   1.041   8.572 -0.9922 -1.8505  0.9795
 3381SOL    HW221606   2.455   0.992   8.460 -1.4298  0.5204 -0.3372
 3382SOL     OW21607   3.802   2.659   0.844 -0.3948  0.1427  0.6310
 3382SOL    HW121608   3.896   2.643   0.848 -0.1375  2.0085  2.1077
 3382SOL    HW221609   3.791   2.754   0.832  1.1352  0.0880 -1.1709
 3383SOL     OW21610   1.686   1.235   5.003  0.4548  0.0669 -0.4475
 3383SOL    HW121611   1.764   1.190   4.969  0.8856  0.3415  0.1756
 3383SOL    HW221612   1.718   1.267   5.087 -2.6473  2.4866 -0.2028
 3384SOL     OW21613   1.520   3.671  11.383  0.2646 -0.3868 -0.1353
 3384SOL    HW121614   1.455   3.625  11.330 -0.7400  1.2922 -0.3807
 3384SOL    HW221615   1.475   3.696  11.464  1.1203 -1.2310  0.5927
 3385SOL     OW21616   4.078   2.616   8.126 -0.0675  0.1105 -0.1953
 3385SOL    HW121617   3.996   2.568   8.119  0.1637 -0.5630  1.7310
 3385SOL    HW221618   4.065   2.678   8.055 -0.1027 -0.2287 -0.4872
 3386SOL     OW21619   0.261   2.662   1.751  0.4408  0.3658  0.5467
 3386SOL    HW121620   0.231   2.745   1.788  1.3628 -0.1811  2.5381
 3386SOL    HW221621   0.247   2.600   1.823 -0.4075  1.2302  1.1192
 3387SOL     OW21622   4.573   1.526   0.086  0.7506  0.5045 -0.2239
 3387SOL    HW121623   4.618   1.605   0.118 -0.1898  0.9249  0.0606
 3387SOL    HW221624   4.634   1.491   0.021 -0.7981  0.5312 -1.7131
 3388SOL     OW21625   3.287   1.097  10.715 -0.7369  0.0982 -0.1315
 3388SOL    HW121626   3.241   1.161  10.660 -0.0110  0.1917 -0.6197
 3388SOL    HW221627   3.243   1.111  10.799 -0.4484 -1.1123  0.2153
 3389SOL     OW21628   3.643   0.948   5.323  0.0955  0.7525 -0.8045
 3389SOL    HW121629   3.573   0.890   5.293 -1.4728  2.1490  0.1630
 3389SOL    HW221630   3.720   0.891   5.317  0.6887  1.4376  0.1887
 3390SOL     OW21631   2.659   3.089  15.155 -0.4841 -0.1573  0.0853
 3390SOL    HW121632   2.708   3.060  15.231  1.2398 -1.7759 -1.6425
 3390SOL    HW221633   2.663   3.185  15.162  0.0614 -0.2763  1.3594
 3391SOL     OW21634   1.674   2.815   1.666  0.0068  0.1759 -0.6454
 3391SOL    HW121635   1.617   2.739   1.678  1.4758 -0.8513 -0.1284
 3391SOL    HW221636   1.753   2.783   1.711 -0.1184  2.8936  1.5016
 3392SOL     OW21637   0.658   2.203   9.643 -0.3477  0.2155  0.5849
 3392SOL    HW121638   0.605   2.220   9.565 -3.6003 -2.8457  2.1158
 3392SOL    HW221639   0.707   2.126   9.614 -1.0663 -0.5560  1.3903
 3393SOL     OW21640   4.103   4.442   4.182  1.0406  0.5424  0.0084
 3393SOL    HW121641   4.097   4.412   4.091  0.6252 -1.7289  0.7875
 3393SOL    HW221642   4.067   4.531   4.177  1.8433  0.6584 -3.6009
 3394SOL     OW21643   0.966   3.608   7.492  0.5885  0.0061  0.6069
 3394SOL    HW121644   0.954   3.682   7.433 -0.1186 -0.4483  0.1774
 3394SOL    HW221645   0.879   3.567   7.491  0.5789  0.0174  0.9115
 3395SOL     OW21646   0.992   3.950  15.655  0.4032  0.0723  0.1834
 3395SOL    HW121647   1.016   3.926  15.744  1.1635 -2.0160 -0.5806
 3395SOL    HW221648   0.902   3.920  15.644 -0.0658  1.5052  0.1383
 3396SOL     OW21649   0.141   3.038   4.186  0.0629 -0.0736 -0.2133
 3396SOL    HW121650   0.192   2.987   4.250 -1.9717  0.7667  2.0793
 3396SOL    HW221651   0.098   2.969   4.136  1.8197 -1.1311 -0.2588
 3397SOL     OW21652   4.444   3.801   5.115 -0.3749  1.1854  0.2257
 3397SOL    HW121653   4.362   3.816   5.068 -0.5609  0.9028  0.4560
 3397SOL    HW221654   4.494   3.767   5.041  0.7937  3.3536  0.0371
 3398SOL     OW21655   3.111   1.522  14.894  0.7575 -0.0659 -0.4294
 3398SOL    HW121656   3.051   1.501  14.965  2.3432 -2.6066  0.1405
 3398SOL    HW221657   3.090   1.614  14.879 -0.6467 -0.3523 -0.1694
 3399SOL     OW21658   1.931   4.589   1.558  0.5113  0.0527 -0.2266
 3399SOL    HW121659   1.843   4.611   1.528  0.6088  0.6480 -0.0682
 3399SOL    HW221660   1.995   4.657   1.542  0.3424  0.5253  1.1264
 3400SOL     OW21661   0.109   1.173   7.312 -0.0225 -0.7842  0.5282
 3400SOL    HW121662   0.177   1.125   7.264 -0.7573 -0.9416 -0.3534
 3400SOL    HW221663   0.155   1.240   7.362 -1.3631  1.0804 -0.7254
 3401SOL     OW21664   0.230   3.222  13.845 -0.1310  0.0367  0.7585
 3401SOL    HW121665   0.190   3.243  13.930 -2.4319 -1.7313  0.1149
 3401SOL    HW221666   0.314   3.187  13.875  0.5704  0.8663 -0.2436
 3402SOL     OW21667   2.622   1.853   8.745 -0.0078 -0.0345  0.0490
 3402SOL    HW121668   2.528   1.836   8.752  0.1429  0.1289  2.5113
 3402SOL    HW221669   2.658   1.764   8.752  1.6182  0.6826  0.9825
 3403SOL     OW21670   1.351   0.736   9.043 -0.1074  0.5095 -0.1998
 3403SOL    HW121671   1.326   0.645   9.033  0.2847  0.5261 -1.3390
 3403SOL    HW221672   1.401   0.742   8.962  1.3485  0.3860  0.6858
 3404SOL     OW21673   4.302   1.449  11.216 -1.0778  0.2928 -0.4533
 3404SOL    HW121674   4.393   1.474  11.196 -1.0172  1.1211  0.8246
 3404SOL    HW221675   4.333   1.408  11.297  0.3372  0.9779 -0.6406
 3405SOL     OW21676   3.311   0.745   3.179  0.1045 -0.1392 -0.0876
 3405SOL    HW121677   3.249   0.793   3.234 -1.9674  1.5978 -3.8941
 3405SOL    HW221678   3.327   0.667   3.232  2.2453  0.2566 -0.1931
 3406SOL     OW21679   0.378   4.246   4.051  0.4624 -0.3346 -0.2469
 3406SOL    HW121680   0.411   4.325   4.008  1.7679 -0.2603  0.8925
 3406SOL    HW221681   0.465   4.213   4.075 -0.1591 -1.0920  0.9302
 3407SOL     OW21682   4.441   0.451  12.250  0.2154 -0.4448 -0.9378
 3407SOL    HW121683   4.467   0.543  12.249  0.1934 -0.4136  1.7777
 3407SOL    HW221684   4.497   0.421  12.178 -1.6824  0.5706 -2.8507
 3408SOL     OW21685   1.646   3.235   8.679 -0.0229 -0.4404  0.0746
 3408SOL    HW121686   1.676   3.234   8.770  1.2194 -0.2888 -0.3303
 3408SOL    HW221687   1.632   3.141   8.667 -0.8920 -0.3291  0.2455
 3409SOL     OW21688   4.468   4.593   2.717 -0.4385 -0.3705 -0.0254
 3409SOL    HW121689   4.529   4.592   2.644 -0.2153 -0.0628  0.1606
 3409SOL    HW221690   4.414   4.668   2.691 -1.3283 -1.0074 -0.0434
 3410SOL     OW21691   2.055   2.427   4.878  0.4583 -0.1797 -0.3244
 3410SOL    HW121692   1.975   2.480   4.874  1.6354  1.5888 -0.3456
 3410SOL    HW221693   2.049   2.365   4.805 -2.0114  0.0529 -0.3289
 3411SOL     OW21694   4.668   3.148  17.607  0.3298  0.2592  0.2660
 3411SOL    HW121695   4.713   3.065  17.621  1.4014  0.1686 -3.4658
 3411SOL    HW221696   0.005   3.205  17.657  0.3275  0.7097 -0.2434
 3412SOL     OW21697   4.117   0.062  15.682 -0.4107  0.0785 -0.0204
 3412SOL    HW121698   4.063   0.056  15.761  0.5939  0.5135  0.6913
 3412SOL    HW221699   4.050   0.094  15.621 -0.3004 -0.6219 -0.5117
 3413SOL     OW21700   4.556   2.766  17.428 -0.4748  0.2065  0.2677
 3413SOL    HW121701   4.584   2.848  17.387 -0.0856 -0.3498 -0.5685
 3413SOL    HW221702   4.594   2.706  17.364 -0.1651  2.2220 -1.4454
 3414SOL     OW21703   2.343   2.560   4.286 -0.2223 -0.1404  0.1412
 3414SOL    HW121704   2.375   2.578   4.374  1.0836 -1.0932 -0.1292
 3414SOL    HW221705   2.416   2.597   4.236  0.1167 -2.3550 -1.0405
 3415SOL     OW21706   2.299   1.413  14.062  0.0277  0.4380  0.1663
 3415SOL    HW121707   2.382   1.454  14.089  0.0457  1.7709 -1.8917
 3415SOL    HW221708   2.241   1.487  14.045 -0.1067 -0.0214 -1.3687
 3416SOL     OW21709   3.501   0.413   7.208 -0.1610  0.6045 -0.0414
 3416SOL    HW121710   3.408   0.408   7.186 -0.3815 -0.7624  1.1575
 3416SOL    HW221711   3.498   0.394   7.302  1.2197  0.3824 -0.0320
 3417SOL     OW21712   0.118   4.322   2.885 -0.2761  0.0198  0.1502
 3417SOL    HW121713   0.095   4.299   2.975 -1.5532 -0.6553 -0.3428
 3417SOL    HW221714   0.125   4.417   2.876 -1.2724 -0.0346 -1.2781
 3418SOL     OW21715   0.026   1.999  17.650  0.2027 -0.4798 -0.4838
 3418SOL    HW121716   4.704   2.004  17.565 -1.8836 -2.1638  0.4669
 3418SOL    HW221717   0.090   1.930  17.634  1.8753  0.0785  3.6078
 3419SOL     OW21718   0.714   2.393   8.784  0.6319  0.2698 -0.3468
 3419SOL    HW121719   0.619   2.378   8.774  1.1534 -0.6345 -4.1603
 3419SOL    HW221720   0.730   2.460   8.717 -0.4833 -0.2213 -1.1264
 3420SOL     OW21721   0.143   4.386   5.240  0.0792  0.2750 -0.5557
 3420SOL    HW121722   0.180   4.319   5.298 -0.0878  1.2696  0.6928
 3420SOL    HW221723   0.050   4.363   5.231  0.3701 -0.3941 -1.8535
 3421SOL     OW21724   3.794   4.385   3.584 -0.0635 -0.2364  0.3332
 3421SOL    HW121725   3.745   4.310   3.552 -1.3675  1.7845 -2.3626
 3421SOL    HW221726   3.879   4.342   3.594  0.6541  1.0196 -0.3638
 3422SOL     OW21727   4.701   3.886  15.643 -0.0521  0.7424 -0.0528
 3422SOL    HW121728   0.060   3.837  15.628 -0.7608 -0.4640  0.0995
 3422SOL    HW221729   4.629   3.830  15.615  0.6620 -0.7469  1.1037
 3423SOL     OW21730   0.324   0.798   0.625  0.1066 -0.3762  0.7326
 3423SOL    HW121731   0.360   0.868   0.680  0.6701 -1.1858  1.3903
 3423SOL    HW221732   0.256   0.766   0.685 -0.1373 -0.4981  0.3937
 3424SOL     OW21733   1.575   4.207   1.815 -0.4477 -0.0506 -0.1253
 3424SOL    HW121734   1.566   4.290   1.862 -2.2847  0.2850 -1.0632
 3424SOL    HW221735   1.501   4.158   1.851  0.4460  2.2404  4.9034
 3425SOL     OW21736   4.345   4.613  12.643  0.3182 -0.4183  0.4714
 3425SOL    HW121737   4.400   4.575  12.711  1.4841  0.3488 -0.0447
 3425SOL    HW221738   4.393   4.693  12.620  0.4279 -0.7420 -0.4168
 3426SOL     OW21739   3.447   0.960   1.118 -0.3142  0.4124  0.3375
 3426SOL    HW121740   3.354   0.971   1.101 -1.3337 -4.3672  2.8612
 3426SOL    HW221741   3.464   1.008   1.199  0.1016  0.1163  0.4299
 3427SOL     OW21742   1.409   3.468   7.338  0.0566  0.2084  0.7160
 3427SOL    HW121743   1.328   3.439   7.380  1.3717 -4.5671  0.0015
 3427SOL    HW221744   1.450   3.384   7.316 -0.0186  0.9258 -2.1618
 3428SOL     OW21745   1.151   3.476   4.338  0.0410 -0.0831  0.2318
 3428SOL    HW121746   1.124   3.396   4.384 -1.9637  1.7446  2.2059
 3428SOL    HW221747   1.176   3.442   4.252  3.4402  0.6637  0.9255
 3429SOL     OW21748   0.833   1.487   3.593 -0.8350  0.0036  0.2610
 3429SOL    HW121749   0.810   1.440   3.673  0.6540 -0.4430  0.4374
 3429SOL    HW221750   0.798   1.571   3.623  0.4661  0.6521 -0.0030
 3430SOL     OW21751   2.261   3.563   7.615 -0.0701  0.0277 -0.0131
 3430SOL    HW121752   2.198   3.550   7.544 -1.2338 -3.7750  1.7160
 3430SOL    HW221753   2.308   3.480   7.609  0.8835  0.5908 -0.4195
 3431SOL     OW21754   0.025   3.300   9.357 -0.2082 -0.0625 -0.2274
 3431SOL    HW121755   0.083   3.339   9.291 -2.8751  3.3938 -0.5035
 3431SOL    HW221756   4.702   3.375   9.395  1.0200  0.3108  0.4654
 3432SOL     OW21757   3.402   0.816  13.436  0.0637 -0.3446  0.1858
 3432SOL    HW121758   3.353   0.898  13.445  2.4136  0.9025  1.3174
 3432SOL    HW221759   3.356   0.771  13.365  0.1813 -0.1343 -0.0241
 3433SOL     OW21760   2.799   4.667   2.121 -0.5193 -0.0288 -0.0890
 3433SOL    HW121761   2.868   4.613   2.161  0.0831  0.8780  0.0933
 3433SOL    HW221762   2.785   4.629   2.034  3.7545 -0.2540 -0.7053
 3434SOL     OW21763   1.088   0.677   0.973 -0.2628 -0.2797  0.5113
 3434SOL    HW121764   1.138   0.721   0.904 -0.5580  0.9105  1.0569
 3434SOL    HW221765   1.031   0.742   1.014 -1.1876 -0.5464 -0.3325
 3435SOL     OW21766   4.122   2.616   4.134  0.4285  0.0755  0.1071
 3435SOL    HW121767   4.152   2.620   4.224  0.0727  2.0031  0.1424
 3435SOL    HW221768   4.057   2.687   4.134 -1.0950 -1.3357 -0.0828
 3436SOL     OW21769   0.280   2.348  14.359  0.1528 -0.3279 -0.1039
 3436SOL    HW121770   0.330   2.281  14.312  0.1384 -0.2284 -0.2599
 3436SOL    HW221771   0.329   2.424  14.328  1.5601 -1.6311 -1.0347
 3437SOL     OW21772   0.290   3.554  15.278  0.2601 -0.1555  0.3335
 3437SOL    HW121773   0.289   3.458  15.284 -0.6340 -0.2054 -0.5572
 3437SOL    HW221774   0.197   3.570  15.267  0.4163  0.9334  0.5604
 3438SOL     OW21775   3.814   3.461   6.800  0.3208 -0.0331 -0.1958
 3438SOL    HW121776   3.906   3.465   6.773 -0.2009  0.6389 -1.8807
 3438SOL    HW221777   3.773   3.536   6.756  1.4154  0.9663  0.4974
 3439SOL     OW21778   3.025   0.577   7.688  0.2125 -0.4532 -0.4867
 3439SOL    HW121779   3.059   0.637   7.755 -1.1454  0.1527 -0.3300
 3439SOL    HW221780   2.931   0.580   7.703  0.2650 -0.5365 -0.1367
 3440SOL     OW21781   1.633   1.695   3.934 -0.1277 -0.2586 -0.1307
 3440SOL    HW121782   1.685   1.650   4.000  1.7030 -0.5505 -1.8014
 3440SOL    HW221783   1.699   1.720   3.870  0.1354 -0.3098  0.1217
 3441SOL     OW21784   4.523   0.710   7.722 -0.2962 -0.0308  0.0146
 3441SOL    HW121785   4.517   0.642   7.789  1.4729 -0.4698 -0.2792
 3441SOL    HW221786   4.486   0.789   7.761 -1.3054  0.3300 -1.6676
 3442SOL     OW21787   1.286   4.603   4.314  0.1310 -0.6490 -0.4989
 3442SOL    HW121788   1.236   4.522   4.301 -0.0014 -0.9517  2.0130
 3442SOL    HW221789   1.313   4.596   4.405  3.2795 -0.5736 -1.4347
 3443SOL     OW21790   3.451   2.626   7.619 -0.5502 -0.1696  0.8178
 3443SOL    HW121791   3.358   2.607   7.617  0.0012 -2.7913 -0.1839
 3443SOL    HW221792   3.451   2.663   7.531 -1.1955  1.1627  1.3835
 3444SOL     OW21793   1.638   4.418   3.863  0.3186 -0.1779  0.4762
 3444SOL    HW121794   1.656   4.486   3.928  1.6771  1.9576 -2.1499
 3444SOL    HW221795   1.688   4.341   3.892 -0.5468 -1.4380 -1.3806
 3445SOL     OW21796   2.656   0.309   3.307 -0.3350 -0.0352  0.1995
 3445SOL    HW121797   2.623   0.306   3.217 -2.3450  0.0553  0.9321
 3445SOL    HW221798   2.588   0.358   3.352 -2.8424 -1.8875 -1.5464
 3446SOL     OW21799   4.097   2.915   6.529  0.2962  0.1337  0.0913
 3446SOL    HW121800   4.100   2.993   6.473 -0.1462 -1.3408 -2.0068
 3446SOL    HW221801   4.124   2.952   6.613 -1.9059  2.8092 -0.4069
 3447SOL     OW21802   4.238   3.200   8.940 -0.7860  0.4599 -1.1654
 3447SOL    HW121803   4.263   3.112   8.967 -2.0489  0.1324 -1.1052
 3447SOL    HW221804   4.302   3.258   8.984  0.3809 -2.4696  0.9711
 3448SOL     OW21805   3.369   1.102   1.939 -0.0634  0.0400 -0.3118
 3448SOL    HW121806   3.377   1.057   2.023 -0.4055 -0.8889 -0.7742
 3448SOL    HW221807   3.430   1.174   1.956  0.7299 -1.2151  2.2030
 3449SOL     OW21808   4.564   1.301   9.928 -0.0425 -0.1030  0.5862
 3449SOL    HW121809   4.629   1.231   9.916  0.2236  0.2848 -0.1942
 3449SOL    HW221810   4.595   1.370   9.869  0.9074 -1.3521 -0.3721
 3450SOL     OW21811   2.079   3.150  10.647 -0.1421  0.2649  0.3876
 3450SOL    HW121812   2.129   3.185  10.573  0.1343 -0.1997  0.3553
 3450SOL    HW221813   2.144   3.123  10.711  1.6545  1.4481 -0.9504
 3451SOL     OW21814   4.716   2.340   8.037  0.4311  0.2978 -0.1791
 3451SOL    HW121815   0.005   2.425   8.080 -2.3147  0.4472  0.2583
 3451SOL    HW221816   4.622   2.324   8.040  0.8843 -1.9899  1.9751
 3452SOL     OW21817   3.687   1.194   8.244  0.1824  0.6597  0.0787
 3452SOL    HW121818   3.677   1.249   8.166 -2.6626 -0.7661 -0.5617
 3452SOL    HW221819   3.592   1.193   8.258  0.3855  0.5407  1.4442
 3453SOL     OW21820   3.483   0.344   0.797 -0.7855 -0.3620 -0.4069
 3453SOL    HW121821   3.562   0.392   0.772 -0.8659 -0.2250 -0.3995
 3453SOL    HW221822   3.460   0.383   0.882 -0.1798 -1.0566  0.0762
 3454SOL     OW21823   2.607   2.972   2.764 -0.1677  0.5749  0.3250
 3454SOL    HW121824   2.563   2.893   2.795  0.7737 -0.1944 -0.3187
 3454SOL    HW221825   2.551   2.991   2.688  1.5094  0.9602 -0.8162
 3455SOL     OW21826   4.555   0.119   2.472 -0.2034 -0.4619 -0.9772
 3455SOL    HW121827   4.485   0.129   2.536 -0.5480  0.2008 -1.4477
 3455SOL    HW221828   4.606   0.046   2.505  1.1959  1.4534  1.1370
 3456SOL     OW21829   3.938   3.612   6.492 -0.2284 -0.1299  0.1541
 3456SOL    HW121830   4.028   3.596   6.463 -0.3772 -0.7213  0.0313
 3456SOL    HW221831   3.952   3.612   6.587 -0.3092 -0.2382  0.1660
 3457SOL     OW21832   2.891   1.284   7.915  0.2522 -0.2847  0.5643
 3457SOL    HW121833   2.970   1.312   7.961  2.0288 -4.3541 -0.0253
 3457SOL    HW221834   2.875   1.371   7.879  1.4769 -0.1260  0.3900
 3458SOL     OW21835   3.488   3.809   2.572 -0.0913 -0.3269  0.0079
 3458SOL    HW121836   3.404   3.827   2.531 -1.1309 -0.6666  1.9559
 3458SOL    HW221837   3.530   3.738   2.524 -3.5198 -1.3952 -1.4058
 3459SOL     OW21838   4.643   0.225   3.309  0.0960  0.0137  0.1963
 3459SOL    HW121839   4.565   0.169   3.306  1.4159 -1.9081  2.5879
 3459SOL    HW221840   4.617   0.295   3.369  1.7271  0.8993 -0.1430
 3460SOL     OW21841   0.556   2.715  15.113 -0.1576  0.1981  0.2832
 3460SOL    HW121842   0.607   2.637  15.134  0.9243  0.9169  0.3068
 3460SOL    HW221843   0.475   2.709  15.164  0.0600 -1.9926  0.3851
 3461SOL     OW21844   1.551   2.023   3.401  0.3496 -0.6145  0.5468
 3461SOL    HW121845   1.488   1.959   3.369 -0.0714 -0.5996  1.3586
 3461SOL    HW221846   1.518   2.109   3.373  1.5567 -0.8063 -1.5371
 3462SOL     OW21847   1.463   2.544  15.348 -0.7458 -0.4353  0.0021
 3462SOL    HW121848   1.535   2.608  15.352 -2.7419  1.9526 -2.2068
 3462SOL    HW221849   1.394   2.608  15.332 -1.1085 -0.8310  0.0098
 3463SOL     OW21850   1.047   2.485   6.549 -0.3928  0.4945  0.0817
 3463SOL    HW121851   1.034   2.580   6.539 -1.1170  0.1142 -2.5289
 3463SOL    HW221852   1.140   2.469   6.532 -0.1574  0.9141  0.9600
 3464SOL     OW21853   0.162   1.625  12.798  0.2573  0.4196 -0.1987
 3464SOL    HW121854   0.156   1.535  12.767  0.6611 -0.0577  1.1326
 3464SOL    HW221855   0.150   1.671  12.715  1.2669 -0.3819 -0.7930
 3465SOL     OW21856   4.179   3.470  17.137  0.0600 -0.3378 -0.6347
 3465SOL    HW121857   4.153   3.485  17.046  1.9984  2.7784 -0.6780
 3465SOL    HW221858   4.093   3.444  17.169 -0.5934 -1.5721 -3.3824
 3466SOL     OW21859   0.907   1.009   8.197  0.1483  1.0194 -0.0394
 3466SOL    HW121860   0.824   1.040   8.234 -0.1764 -1.5499  1.3728
 3466SOL    HW221861   0.969   1.025   8.268  0.8838 -2.5398  0.0920
 3467SOL     OW21862   1.720   2.365  14.883  0.1848  0.7610  0.0457
 3467SOL    HW121863   1.697   2.310  14.957 -2.6416 -1.5925 -2.6023
 3467SOL    HW221864   1.769   2.437  14.923  3.4305 -0.8792 -0.9765
 3468SOL     OW21865   3.119   0.663   5.936 -0.0551 -0.6057 -0.0113
 3468SOL    HW121866   3.071   0.735   5.977 -2.6111 -1.3384 -1.7563
 3468SOL    HW221867   3.122   0.605   6.012 -0.3473 -0.0440  0.4344
 3469SOL     OW21868   4.007   2.670   0.568  0.0932  0.0488 -0.0898
 3469SOL    HW121869   4.015   2.599   0.505 -4.7056 -1.1404  0.6787
 3469SOL    HW221870   3.917   2.700   0.559  0.3758  0.7543 -0.5645
 3470SOL     OW21871   3.490   3.221  14.612  0.3484 -0.0716  0.5437
 3470SOL    HW121872   3.508   3.251  14.523  0.6047 -0.1715  0.5635
 3470SOL    HW221873   3.531   3.290  14.664  1.6604  1.3364 -2.3687
 3471SOL     OW21874   0.194   4.002   6.871  0.0349  0.5883  0.2796
 3471SOL    HW121875   0.275   3.967   6.909  0.9966  0.4808 -1.8422
 3471SOL    HW221876   0.141   4.012   6.949 -0.9170 -1.1613 -0.1456
 3472SOL     OW21877   2.725   3.369   9.845 -0.5549  0.8871  0.0521
 3472SOL    HW121878   2.753   3.460   9.833 -1.6620  1.2044 -0.0844
 3472SOL    HW221879   2.793   3.315   9.804 -1.2958  0.4839 -0.6393
 3473SOL     OW21880   0.008   3.017  16.076  0.2550 -0.4912 -0.1728
 3473SOL    HW121881   0.001   3.106  16.042  1.2850 -0.2471  0.2616
 3473SOL    HW221882   4.638   2.995  16.093 -0.2108  0.3140 -1.6287
 3474SOL     OW21883   0.580   0.351   5.638  0.0557  0.2072  0.2685
 3474SOL    HW121884   0.540   0.285   5.582  0.2317  0.4735 -0.1639
 3474SOL    HW221885   0.596   0.419   5.574  0.2824  0.7088  0.8532
 3475SOL     OW21886   4.234   1.040   2.681  0.0664  0.1044  0.2105
 3475SOL    HW121887   4.315   1.024   2.730  0.9607  0.9120 -0.9924
 3475SOL    HW221888   4.264   1.075   2.596 -0.6630 -0.9185 -0.4722
 3476SOL     OW21889   0.523   2.038   5.156  0.1452  0.1492  0.1238
 3476SOL    HW121890   0.524   2.112   5.216 -1.4287  1.4947 -1.5402
 3476SOL    HW221891   0.512   1.973   5.226  0.0005 -0.4098 -0.4101
 3477SOL     OW21892   4.373   1.387   6.665 -0.7727  0.1405 -0.1115
 3477SOL    HW121893   4.347   1.453   6.729 -1.3286 -0.7291  0.5746
 3477SOL    HW221894   4.469   1.385   6.658 -0.6501 -0.6949  1.7287
 3478SOL     OW21895   1.035   4.555   6.832  0.4378 -0.5000 -0.0423
 3478SOL    HW121896   1.125   4.527   6.847  0.9592  0.2337 -1.7655
 3478SOL    HW221897   0.988   4.471   6.841  2.5494 -1.7161 -0.4803
 3479SOL     OW21898   2.873   0.611   0.154  0.2772 -0.1319  0.0854
 3479SOL    HW121899   2.864   0.705   0.138 -1.0066 -0.5026 -1.3134
 3479SOL    HW221900   2.903   0.616   0.245  2.1372 -1.1482 -0.4722
 3480SOL     OW21901   3.133   3.725   2.760 -0.2434  0.6732 -0.2353
 3480SOL    HW121902   3.154   3.770   2.842  0.3526 -1.3628  0.7253
 3480SOL    HW221903   3.195   3.652   2.767 -2.1246 -1.0716 -1.6597
 3481SOL     OW21904   2.282   4.478   1.727  0.3176  0.0606 -0.4483
 3481SOL    HW121905   2.342   4.472   1.801  0.2089 -0.8891 -0.4309
 3481SOL    HW221906   2.202   4.437   1.761  0.4003  1.7246  1.7049
 3482SOL     OW21907   2.145   1.728   8.392  0.8442 -0.0137  0.2748
 3482SOL    HW121908   2.226   1.689   8.358  0.9186  0.2813  0.1145
 3482SOL    HW221909   2.132   1.790   8.321 -0.6156 -0.7433 -0.0993
 3483SOL     OW21910   3.985   0.554   6.735 -0.4213 -0.3402  0.8417
 3483SOL    HW121911   4.074   0.588   6.744 -1.1298  1.4802  1.1485
 3483SOL    HW221912   3.978   0.526   6.644 -1.3279  1.1411  0.4536
 3484SOL     OW21913   0.642   1.732   7.257  0.2150 -0.1050 -0.3098
 3484SOL    HW121914   0.584   1.656   7.257 -0.8728  0.7248  1.2466
 3484SOL    HW221915   0.578   1.798   7.228  0.7303  0.4138 -0.2705
 3485SOL     OW21916   4.263   2.967  10.318 -0.2062 -0.2153  0.4479
 3485SOL    HW121917   4.254   3.055  10.280 -1.0088 -0.2240  0.6347
 3485SOL    HW221918   4.193   2.920  10.272 -2.2987  2.5809  0.7507
 3486SOL     OW21919   1.555   2.327   2.502 -0.1362 -0.4276 -0.4148
 3486SOL    HW121920   1.606   2.385   2.445  0.2255  0.2603  0.6307
 3486SOL    HW221921   1.612   2.250   2.511  0.7736  0.4794  1.5732
 3487SOL     OW21922   1.410   2.907   3.669 -0.3533  0.2528 -0.1213
 3487SOL    HW121923   1.502   2.881   3.672 -0.3571  0.3301  0.5750
 3487SOL    HW221924   1.379   2.870   3.751 -1.4249  1.4028 -0.0092
 3488SOL     OW21925   3.310   1.075   1.369 -0.0252 -0.2676  0.4098
 3488SOL    HW121926   3.377   1.092   1.435 -0.9659  0.6735  1.1197
 3488SOL    HW221927   3.230   1.058   1.419 -0.4555  0.8565  0.0876
 3489SOL     OW21928   1.049   4.163   3.539 -0.0388 -0.1493 -0.0254
 3489SOL    HW121929   1.021   4.106   3.609 -1.2993  0.6261  0.0981
 3489SOL    HW221930   1.002   4.244   3.560 -0.7912 -0.6740  0.2926
 3490SOL     OW21931   0.570   1.382   7.761  0.6255 -0.2276  0.5379
 3490SOL    HW121932   0.664   1.369   7.759  0.5144 -0.9262  0.0221
 3490SOL    HW221933   0.533   1.308   7.713  1.2842 -1.2808  1.6708
 3491SOL     OW21934   3.101   0.805   4.706  0.1477  0.6765 -0.2380
 3491SOL    HW121935   3.090   0.718   4.668  0.4721  0.0514  1.0814
 3491SOL    HW221936   3.184   0.831   4.666  0.2806  0.9464  0.2115
 3492SOL     OW21937   3.761   3.564  11.721  0.1383 -0.1108  0.3062
 3492SOL    HW121938   3.775   3.648  11.765  0.8988 -0.5564  0.9129
 3492SOL    HW221939   3.697   3.595  11.656 -0.8577 -0.4014  1.1516
 3493SOL     OW21940   4.689   2.770   1.902  0.1927 -0.4227 -0.0013
 3493SOL    HW121941   4.616   2.825   1.932  0.1349 -0.3333 -0.3108
 3493SOL    HW221942   0.037   2.835   1.901 -0.8875  0.7658  1.4892
 3494SOL     OW21943   3.747   0.525   9.079 -0.5674  1.2484 -0.3775
 3494SOL    HW121944   3.710   0.536   8.991  0.0606 -1.6694 -1.0044
 3494SOL    HW221945   3.669   0.525   9.134 -2.1204 -0.9862 -2.6144
 3495SOL     OW21946   2.783   0.501   2.785 -0.1308 -0.4972 -0.1230
 3495SOL    HW121947   2.700   0.473   2.747  0.5860 -2.3208 -0.3373
 3495SOL    HW221948   2.818   0.413   2.798  0.2204 -0.2817  0.4120
 3496SOL     OW21949   0.619   4.422   7.934 -0.9016  0.5014 -0.0908
 3496SOL    HW121950   0.660   4.373   7.863 -2.6870  1.3535 -1.6969
 3496SOL    HW221951   0.547   4.364   7.959  2.1803 -2.4178  2.0519
 3497SOL     OW21952   2.307   3.426   7.023  0.0738  0.2239  0.4879
 3497SOL    HW121953   2.290   3.341   7.064  0.7696 -0.4261 -0.5610
 3497SOL    HW221954   2.250   3.487   7.070  1.4842  0.9210  1.3022
 3498SOL     OW21955   0.432   3.132   8.812  0.1285  0.1917 -0.5506
 3498SOL    HW121956   0.471   3.049   8.841 -0.8520  0.0478  0.3610
 3498SOL    HW221957   0.427   3.173   8.898 -0.4216  0.4098 -0.6850
 3499SOL     OW21958   3.502   2.768   2.082  0.5898 -0.5598  0.3456
 3499SOL    HW121959   3.412   2.797   2.097  1.3927  1.7745  0.6696
 3499SOL    HW221960   3.535   2.848   2.041  0.7393  0.6986  2.9167
 3500SOL     OW21961   2.991   0.453  16.796 -0.0455 -0.1647  0.4220
 3500SOL    HW121962   2.932   0.421  16.727  0.4419  1.2566 -0.6433
 3500SOL    HW221963   3.012   0.544  16.776 -0.9834 -0.0606 -0.1188
 3501SOL     OW21964   1.672   3.927  14.697  0.3699 -0.0473  0.4580
 3501SOL    HW121965   1.759   3.957  14.671  0.8184 -2.1444 -0.4345
 3501SOL    HW221966   1.699   3.877  14.774 -0.5787 -0.5768  0.4588
 3502SOL     OW21967   2.993   4.484   4.444  0.1280 -0.1444 -0.1401
 3502SOL    HW121968   2.928   4.447   4.384 -1.7592  0.3887  1.5642
 3502SOL    HW221969   2.939   4.509   4.519 -0.6472 -0.5905 -0.5475
 3503SOL     OW21970   4.254   3.070   1.012  0.6591  0.3062  0.5587
 3503SOL    HW121971   4.266   3.158   0.976  0.4103 -1.0385 -2.8718
 3503SOL    HW221972   4.250   3.012   0.935 -2.3216 -1.6644  2.2006
 3504SOL     OW21973   3.608   0.231  11.124  0.3421  0.0839 -0.4259
 3504SOL    HW121974   3.634   0.144  11.096 -0.1495 -0.6777  1.4957
 3504SOL    HW221975   3.647   0.287  11.056 -0.6141  2.7385  1.1871
 3505SOL     OW21976   0.896   1.504   7.528 -0.4006 -0.4724  0.0065
 3505SOL    HW121977   0.866   1.488   7.618  2.1258  0.4145  1.0032
 3505SOL    HW221978   0.986   1.524   7.553  0.2896 -2.7889 -0.6378
 3506SOL     OW21979   1.529   1.239   9.535 -0.6446 -0.2923  0.0028
 3506SOL    HW121980   1.464   1.217   9.602  0.9663  0.2604  1.7580
 3506SOL    HW221981   1.593   1.177   9.570 -1.6753 -1.6098 -0.4353
 3507SOL     OW21982   2.654   0.997   7.637 -0.1685  0.3418 -0.7168
 3507SOL    HW121983   2.735   1.045   7.655 -0.6659  0.5031  1.1131
 3507SOL    HW221984   2.627   0.977   7.727  0.5119  1.0989 -0.3490
 3508SOL     OW21985   3.632   1.151  13.972 -0.8310 -0.3961 -0.0776
 3508SOL    HW121986   3.702   1.197  13.926 -1.4861  0.1965 -0.4815
 3508SOL    HW221987   3.605   1.211  14.042 -1.8154 -0.9846  0.0474
 3509SOL     OW21988   2.428   3.719  15.677  0.5727 -0.0565 -0.0462
 3509SOL    HW121989   2.484   3.723  15.755 -0.2882 -1.0245  0.6238
 3509SOL    HW221990   2.385   3.803  15.693 -1.4209 -0.6458 -2.3513
 3510SOL     OW21991   1.811   3.443   7.470 -0.6857 -0.0490 -0.2355
 3510SOL    HW121992   1.824   3.361   7.422 -1.5181 -0.2092 -0.1819
 3510SOL    HW221993   1.829   3.408   7.557 -0.4330 -0.7466 -0.5714
 3511SOL     OW21994   2.756   4.132   7.548 -0.1132  0.1681 -0.3526
 3511SOL    HW121995   2.706   4.061   7.509  0.4270  0.1001 -0.9194
 3511SOL    HW221996   2.763   4.128   7.644  0.2479 -1.6010 -0.4670
 3512SOL     OW21997   1.181   0.448  17.642  0.2553  0.2747 -0.0449
 3512SOL    HW121998   1.272   0.452  17.669  0.6690 -4.0333 -0.9194
 3512SOL    HW221999   1.155   0.540  17.635 -0.6670 -0.0446 -0.8941
 3513SOL     OW22000   4.379   0.205   1.576  0.0574  0.4878 -0.0491
 3513SOL    HW122001   4.447   0.148   1.611 -1.9451 -2.1784 -0.4828
 3513SOL    HW222002   4.423   0.290   1.586  2.3575 -0.8017  0.7396
 3514SOL     OW22003   0.946   1.754   5.521  0.2402 -0.2616 -0.4926
 3514SOL    HW122004   0.871   1.699   5.498  1.4461 -2.0684 -0.1713
 3514SOL    HW222005   0.911   1.796   5.600  0.2441 -1.9795  0.4399
 3515SOL     OW22006   2.376   4.238   1.927 -0.3115  0.5221  0.3052
 3515SOL    HW122007   2.352   4.149   1.902  2.6559 -0.2132  0.0267
 3515SOL    HW222008   2.387   4.223   2.020  0.5444 -1.3753 -0.0904
 3516SOL     OW22009   4.156   3.133  10.052  0.2505 -0.2786  0.3646
 3516SOL    HW122010   4.187   3.174   9.971  1.1998 -0.4712  0.6263
 3516SOL    HW222011   4.165   3.047  10.012  1.6969  0.4894 -0.9920
 3517SOL     OW22012   3.507   0.646  13.623  0.8907  0.2835  0.1122
 3517SOL    HW122013   3.480   0.728  13.582  0.0330  0.8173  1.7712
 3517SOL    HW222014   3.434   0.639  13.685 -0.3277  0.2187 -1.3294
 3518SOL     OW22015   4.048   0.451   6.985 -0.8706 -0.1289 -0.2285
 3518SOL    HW122016   4.025   0.493   6.902 -0.8292  1.8506  0.7615
 3518SOL    HW222017   4.081   0.367   6.952 -0.5973  0.0832 -0.4994
 3519SOL     OW22018   3.104   1.907  10.668  0.5004  0.3503  0.0315
 3519SOL    HW122019   3.056   1.944  10.742 -0.9708  0.3923 -0.9532
 3519SOL    HW222020   3.072   1.817  10.665 -2.4291  1.3728  0.2573
 3520SOL     OW22021   3.559   0.845   6.177  0.0433 -0.2521 -0.0186
 3520SOL    HW122022   3.651   0.820   6.172  0.5860  1.2580  2.5651
 3520SOL    HW222023   3.519   0.758   6.175  0.0793 -0.2912  0.7820
 3521SOL     OW22024   3.621   1.115   5.534 -0.7724 -0.1810 -0.1794
 3521SOL    HW122025   3.632   1.062   5.455  0.3940  0.3152 -0.3416
 3521SOL    HW222026   3.556   1.177   5.501 -1.3966 -1.2746 -1.0201
 3522SOL     OW22027   4.415   4.517   2.409  0.0199  0.4999  0.2837
 3522SOL    HW122028   4.343   4.580   2.398 -0.1593  0.9226  3.7161
 3522SOL    HW222029   4.380   4.460   2.478  1.2703  0.3322  0.7675
 3523SOL     OW22030   0.771   1.249   6.829 -0.2387  0.3723  0.0108
 3523SOL    HW122031   0.709   1.296   6.885  0.8049  0.7860  0.8123
 3523SOL    HW222032   0.708   1.201   6.775 -1.6629 -0.3927  2.3691
 3524SOL     OW22033   0.785   1.684   6.794  0.5739  0.1033 -0.5053
 3524SOL    HW122034   0.690   1.677   6.780  0.9732  1.9609 -4.0592
 3524SOL    HW222035   0.814   1.605   6.750  1.7941  0.3843 -0.1936
 3525SOL     OW22036   2.729   2.502   6.185  0.3472 -0.1040 -0.0783
 3525SOL    HW122037   2.772   2.431   6.138  0.7870 -0.7193  1.2468
 3525SOL    HW222038   2.786   2.505   6.261  1.2528 -0.8144 -0.7282
 3526SOL     OW22039   1.570   3.541   3.541 -0.4079 -0.3733 -0.0207
 3526SOL    HW122040   1.608   3.459   3.509 -0.2289 -0.1107 -0.4907
 3526SOL    HW222041   1.577   3.526   3.635  0.7010  2.8735  0.4087
 3527SOL     OW22042   4.130   1.121  17.277 -0.1227  0.2862  0.2687
 3527SOL    HW122043   4.154   1.040  17.232  0.2113  0.9066 -0.6578
 3527SOL    HW222044   4.192   1.134  17.350  1.2765  2.6379 -1.3418
 3528SOL     OW22045   2.732   0.418   6.449 -0.2462  0.1484  0.0288
 3528SOL    HW122046   2.739   0.513   6.459 -1.0023  0.2456 -0.3656
 3528SOL    HW222047   2.789   0.411   6.373 -0.3361 -2.1522  0.1766
 3529SOL     OW22048   2.943   3.723   3.588  0.0074 -0.5021 -0.4601
 3529SOL    HW122049   2.964   3.688   3.675  1.5231 -2.2678 -1.5372
 3529SOL    HW222050   2.988   3.669   3.523  0.1517 -1.6454  0.5920
 3530SOL     OW22051   0.206   0.716  15.049  0.1837 -0.7556 -0.1693
 3530SOL    HW122052   0.263   0.650  15.089 -0.6693 -0.4378  1.5945
 3530SOL    HW222053   0.141   0.708  15.120  2.3987 -0.2806  1.9242
 3531SOL     OW22054   1.989   2.120   1.969 -0.2690 -0.4170 -0.1427
 3531SOL    HW122055   1.949   2.191   1.920  0.8498 -0.6340 -1.3590
 3531SOL    HW222056   2.077   2.157   1.980 -1.1749  0.2460  4.8675
 3532SOL     OW22057   1.328   3.698   9.708  0.4256  0.2523 -0.0014
 3532SOL    HW122058   1.255   3.745   9.749 -1.4780 -0.6077 -2.3915
 3532SOL    HW222059   1.377   3.661   9.781  1.2524 -2.1139 -1.7473
 3533SOL     OW22060   2.125   1.985   5.399 -0.1226  0.1554  0.1491
 3533SOL    HW122061   2.059   2.035   5.351  0.1353  0.4340  0.0860
 3533SOL    HW222062   2.204   2.037   5.386  0.0758 -0.1275  0.2182
 3534SOL     OW22063   1.908   3.814  11.309  0.4695 -0.5201 -0.2979
 3534SOL    HW122064   1.872   3.733  11.344  0.9979  0.0328  1.5134
 3534SOL    HW222065   1.857   3.877  11.359 -0.8360  1.1660 -3.7607
 3535SOL     OW22066   1.648   2.001  13.445 -0.2717  0.0403 -0.4372
 3535SOL    HW122067   1.588   2.000  13.370 -0.0867 -0.0323 -0.5844
 3535SOL    HW222068   1.706   1.925  13.436  0.2541  0.6873 -2.4949
 3536SOL     OW22069   1.311   2.787   5.963  0.7244 -0.0748 -0.3173
 3536SOL    HW122070   1.347   2.865   6.006  0.5903 -1.9937  3.2397
 3536SOL    HW222071   1.324   2.809   5.870 -0.3849 -1.0592 -0.6949
 3537SOL     OW22072   0.025   0.643   7.597  0.0775 -0.3851  0.4670
 3537SOL    HW122073   0.019   0.554   7.633  0.7128 -0.4708  0.3624
 3537SOL    HW222074   4.696   0.691   7.662  0.3315  1.7487 -0.9073
 3538SOL     OW22075   3.726   2.093  11.265 -0.4966 -0.5760  0.0109
 3538SOL    HW122076   3.740   2.023  11.202 -3.4093 -0.7279 -0.4926
 3538SOL    HW222077   3.665   2.057  11.330  1.7570 -0.4126  2.2052
 3539SOL     OW22078   2.941   3.815  14.311  0.2514 -0.4430  0.5907
 3539SOL    HW122079   2.869   3.877  14.298 -0.1858 -1.3825 -1.4561
 3539SOL    HW222080   2.946   3.772  14.226 -0.3742  2.0908 -0.7221
 3540SOL     OW22081   2.964   1.416   4.541  0.3172 -0.4547 -0.0144
 3540SOL    HW122082   2.887   1.361   4.527  1.1677 -1.2434 -1.6079
 3540SOL    HW222083   2.939   1.501   4.505  0.7419  0.4126  1.7429
 3541SOL     OW22084   2.586   4.288   1.734  0.3497 -0.2632 -0.0519
 3541SOL    HW122085   2.523   4.320   1.799 -2.4962  0.2947 -3.0823
 3541SOL    HW222086   2.537   4.253   1.660 -2.2375  1.4677  0.8567
 3542SOL     OW22087   4.047   1.547  13.121  0.2345 -0.1231 -0.0188
 3542SOL    HW122088   4.113   1.497  13.074  1.3416 -0.3331  1.7645
 3542SOL    HW222089   3.969   1.531  13.068  0.0638 -1.2594  0.5766
 3543SOL     OW22090   1.403   0.131   5.810  0.5451 -0.3819  0.1604
 3543SOL    HW122091   1.475   0.194   5.803 -0.5831  1.2483  3.3250
 3543SOL    HW222092   1.366   0.149   5.896  0.2092 -0.8924  0.1203
 3544SOL     OW22093   1.583   2.380  13.696  0.1009  0.2009  0.0274
 3544SOL    HW122094   1.655   2.405  13.754  1.2895 -2.1909 -0.3750
 3544SOL    HW222095   1.521   2.447  13.723  0.8768  2.0483 -2.7470
 3545SOL     OW22096   0.161   3.995  14.879  1.0236 -0.5096  0.6700
 3545SOL    HW122097   0.225   4.014  14.810 -0.4622  0.5904 -0.4176
 3545SOL    HW222098   0.173   3.900  14.883  2.5066 -0.4598 -2.0287
 3546SOL     OW22099   3.297   3.079   9.540 -0.4520  0.6325 -0.6827
 3546SOL    HW122100   3.279   2.996   9.496  0.3380  0.4893 -0.7382
 3546SOL    HW222101   3.326   3.062   9.630 -0.4325 -1.9617 -1.1660
 3547SOL     OW22102   1.350   0.484   9.243 -0.0528  0.9694 -0.3143
 3547SOL    HW122103   1.327   0.510   9.154  0.5903  0.1023 -0.7392
 3547SOL    HW222104   1.314   0.395   9.242 -0.2328  1.0395  0.1632
 3548SOL     OW22105   2.580   3.359   8.004  0.4331  0.0291  0.2310
 3548SOL    HW122106   2.488   3.377   7.984  0.7445  1.6564  0.2873
 3548SOL    HW222107   2.582   3.264   8.020  1.5052 -0.0119 -0.1758
 3549SOL     OW22108   2.269   1.170   1.267  0.0002  0.4156 -0.2528
 3549SOL    HW122109   2.253   1.135   1.355  0.9902  0.7903  0.0779
 3549SOL    HW222110   2.226   1.105   1.212  0.9796 -1.2496  0.9495
 3550SOL     OW22111   2.912   2.023  10.880 -0.0872  0.2762 -0.7797
 3550SOL    HW122112   2.977   2.081  10.919 -0.3073 -0.7079  1.0733
 3550SOL    HW222113   2.835   2.076  10.898 -0.0138 -0.3088  1.2914
 3551SOL     OW22114   2.159   0.464   6.355  0.0731 -0.7415 -0.2160
 3551SOL    HW122115   2.188   0.420   6.275 -0.9531 -0.3125 -0.8254
 3551SOL    HW222116   2.229   0.439   6.415 -1.2957  0.0562  1.7330
 3552SOL     OW22117   0.481   1.804  17.498  0.0165 -0.4591  0.1049
 3552SOL    HW122118   0.529   1.823  17.578 -1.2046  1.5205  0.3816
 3552SOL    HW222119   0.544   1.769  17.435 -0.5957 -0.4921 -0.4996
 3553SOL     OW22120   3.273   1.206   2.546  0.1282  0.5339 -0.4867
 3553SOL    HW122121   3.315   1.141   2.491  1.0016 -1.4258  2.4777
 3553SOL    HW222122   3.315   1.289   2.526 -1.0134  1.9534  2.9515
 3554SOL     OW22123   3.608   0.145   2.451  0.1013  0.5792 -0.2603
 3554SOL    HW122124   3.686   0.108   2.491  0.3847 -0.0623 -1.3897
 3554SOL    HW222125   3.627   0.138   2.357 -0.6076  0.0766 -0.3662
 3555SOL     OW22126   1.445   2.729   5.067 -0.2506  0.8323 -0.0709
 3555SOL    HW122127   1.376   2.786   5.099 -2.8536 -2.3524 -0.0152
 3555SOL    HW222128   1.395   2.667   5.014  1.0680  0.2669 -0.6737
 3556SOL     OW22129   2.586   0.708   4.304  0.1498  0.1974  0.1212
 3556SOL    HW122130   2.554   0.636   4.359  0.3859 -0.0062 -0.0078
 3556SOL    HW222131   2.655   0.667   4.253  0.6412  0.5327  0.5136
 3557SOL     OW22132   4.102   3.554   8.234 -0.1212  0.4391 -0.2463
 3557SOL    HW122133   4.076   3.625   8.293  0.4499 -1.7399  2.6094
 3557SOL    HW222134   4.030   3.541   8.173 -0.3510  1.5520 -0.2272
 3558SOL     OW22135   3.439   0.098   7.518 -0.4553  0.0273  0.5589
 3558SOL    HW122136   3.350   0.131   7.532 -0.3724  0.7188 -0.5830
 3558SOL    HW222137   3.491   0.179   7.519 -1.6280  0.7957 -0.4947
 3559SOL     OW22138   2.295   3.778   6.625  0.2456 -0.0759  0.0661
 3559SOL    HW122139   2.244   3.839   6.678  1.2816  0.5615  0.3343
 3559SOL    HW222140   2.287   3.700   6.679 -0.2482  0.4456  0.7396
 3560SOL     OW22141   4.385   4.017  11.141  0.5249  0.4563  0.1397
 3560SOL    HW122142   4.395   4.112  11.143 -0.6714  0.5005  3.3686
 3560SOL    HW222143   4.475   3.986  11.132  0.5667  0.3689  0.8231
 3561SOL     OW22144   3.509   2.055   5.964 -0.2440  0.3107 -0.3455
 3561SOL    HW122145   3.598   2.075   5.934 -0.2011  1.1397  0.3120
 3561SOL    HW222146   3.463   2.137   5.986 -0.0446  0.2983  0.1213
 3562SOL     OW22147   4.395   2.099   3.648  0.1165  0.0567  0.2827
 3562SOL    HW122148   4.457   2.122   3.717  0.5215 -0.6101  0.1449
 3562SOL    HW222149   4.322   2.156   3.673 -1.9684 -2.6559  0.3757
 3563SOL     OW22150   4.490   1.007   2.779  0.1898 -0.0646  0.1635
 3563SOL    HW122151   4.535   0.934   2.737  1.7018  0.1837  1.3585
 3563SOL    HW222152   4.536   1.003   2.863 -1.3189  0.4441  1.0152
 3564SOL     OW22153   4.058   3.599  13.934 -0.1715  0.0714  0.5081
 3564SOL    HW122154   4.079   3.539  14.006 -0.3034  0.6884  1.0605
 3564SOL    HW222155   4.071   3.680  13.983 -0.8480 -0.4203  1.5154
 3565SOL     OW22156   1.096   3.725   5.941 -0.1031  0.1934 -0.3787
 3565SOL    HW122157   1.176   3.678   5.964  0.2411 -0.7984 -3.6112
 3565SOL    HW222158   1.048   3.710   6.023  2.4818 -0.2307  1.0593
 3566SOL     OW22159   2.953   4.688   4.929 -0.3937  0.7947  0.4962
 3566SOL    HW122160   2.866   4.678   4.968 -1.1110  0.5014 -1.1797
 3566SOL    HW222161   2.937   0.049   4.884 -2.0519 -0.6807 -1.6127
 3567SOL     OW22162   2.854   3.617  10.182 -0.2332 -0.2100  0.2810
 3567SOL    HW122163   2.924   3.581  10.237 -1.0053  0.0669  1.4351
 3567SOL    HW222164   2.808   3.535  10.166 -2.3190  1.3801 -1.8235
 3568SOL     OW22165   1.628   1.887   2.868 -0.1769 -0.0842 -0.0408
 3568SOL    HW122166   1.650   1.924   2.782  0.5189 -0.3797  0.0064
 3568SOL    HW222167   1.578   1.954   2.914  1.2604  0.0515  1.3352
 3569SOL     OW22168   2.279   2.327   0.254  0.6765 -0.1959  0.1915
 3569SOL    HW122169   2.274   2.422   0.240  2.7311 -0.2243 -0.7423
 3569SOL    HW222170   2.275   2.315   0.349  0.0806  1.5438  0.3809
 3570SOL     OW22171   1.694   1.109   8.617  0.6863 -0.1420 -0.2588
 3570SOL    HW122172   1.708   1.136   8.526  1.2135 -2.6919 -0.9253
 3570SOL    HW222173   1.633   1.035   8.618 -1.2498  1.4612  0.3012
 3571SOL     OW22174   1.864   3.510   6.239 -0.9368 -0.6062  0.2581
 3571SOL    HW122175   1.896   3.474   6.322 -0.2481  0.1632  0.3305
 3571SOL    HW222176   1.804   3.449   6.197 -2.3001  0.1492  1.0933
 3572SOL     OW22177   1.772   1.805   8.507  1.0090  0.3070  0.3616
 3572SOL    HW122178   1.772   1.860   8.585  0.5701  0.5428  0.1988
 3572SOL    HW222179   1.773   1.716   8.541  0.6664 -0.4400 -1.5593
 3573SOL     OW22180   2.477   0.480   0.136 -0.2174 -0.2386  0.3361
 3573SOL    HW122181   2.506   0.457   0.048  1.2641  0.9977  0.5030
 3573SOL    HW222182   2.476   0.576   0.137  0.1487 -0.2228 -1.0285
 3574SOL     OW22183   1.411   0.946   3.108  0.1317  0.0822 -0.2191
 3574SOL    HW122184   1.474   1.011   3.074  0.4898  0.2461  0.7651
 3574SOL    HW222185   1.385   0.999   3.183 -0.9657 -1.1478  0.2690
 3575SOL     OW22186   4.031   3.714   2.769  0.3125 -0.1442  0.2219
 3575SOL    HW122187   3.969   3.719   2.697  0.8224  2.6791 -0.0157
 3575SOL    HW222188   3.991   3.779   2.826  2.4710  0.0973  1.4534
 3576SOL     OW22189   3.168   0.284   3.876 -0.9756  0.5125 -0.0549
 3576SOL    HW122190   3.196   0.265   3.965 -1.2209  1.7064  0.2724
 3576SOL    HW222191   3.097   0.219   3.870  0.1796 -0.7236 -0.4473
 3577SOL     OW22192   2.679   3.583   6.541  0.0088  0.5751 -0.7888
 3577SOL    HW122193   2.616   3.529   6.588  1.3156 -1.2399 -1.1366
 3577SOL    HW222194   2.682   3.656   6.603 -0.0506 -1.7884  2.0194
 3578SOL     OW22195   1.480   2.076   7.275 -0.1349 -0.3373  0.4633
 3578SOL    HW122196   1.507   2.016   7.344 -1.3962 -0.0984  1.1665
 3578SOL    HW222197   1.475   2.010   7.206  0.1889  1.4397 -1.2749
 3579SOL     OW22198   3.981   0.618   2.978 -0.2953 -0.3201 -0.1385
 3579SOL    HW122199   3.978   0.543   2.917 -0.0527 -3.2651  3.4788
 3579SOL    HW222200   3.886   0.627   2.992 -0.2695 -1.2344  0.5860
 3580SOL     OW22201   3.719   4.600   7.196 -0.3436 -0.2968 -0.4786
 3580SOL    HW122202   3.639   4.560   7.164 -0.9684  0.0007  0.6960
 3580SOL    HW222203   3.788   4.553   7.149 -0.3342 -0.8911  0.1119
 3581SOL     OW22204   3.415   0.141   5.003 -0.0256 -0.1831  0.1292
 3581SOL    HW122205   3.350   0.181   5.061 -0.8557  1.6566 -2.0305
 3581SOL    HW222206   3.419   0.204   4.931  3.0972  1.4474  1.7279
 3582SOL     OW22207   2.778   1.995   8.932  0.8656  0.4072 -0.2875
 3582SOL    HW122208   2.686   2.020   8.939  0.6274  0.0738 -2.2016
 3582SOL    HW222209   2.773   1.941   8.853 -0.7198  1.4276 -0.8819
 3583SOL     OW22210   1.703   0.405  15.496 -0.6674 -0.2606 -0.4707
 3583SOL    HW122211   1.709   0.365  15.409  1.4899 -0.5568 -0.1949
 3583SOL    HW222212   1.626   0.461  15.488 -0.0045  0.4519 -1.8595
 3584SOL     OW22213   3.679   3.925   2.289  0.1409  0.6269  0.0177
 3584SOL    HW122214   3.724   4.005   2.314  0.9163 -0.0098  0.6559
 3584SOL    HW222215   3.609   3.918   2.353  0.1096 -2.3158 -0.3216
 3585SOL     OW22216   3.794   2.372   5.123  0.6787  0.4396 -0.0036
 3585SOL    HW122217   3.760   2.449   5.077 -2.1724 -0.4589  0.5967
 3585SOL    HW222218   3.883   2.402   5.141  0.2485  1.2760  0.7290
 3586SOL     OW22219   3.803   0.446   3.586  0.0995  0.2392  0.4047
 3586SOL    HW122220   3.838   0.385   3.651 -0.0224 -2.3862 -1.9998
 3586SOL    HW222221   3.876   0.432   3.526 -0.1129  0.7891  0.0148
 3587SOL     OW22222   3.569   1.109   1.510 -0.2117 -0.3009 -0.4221
 3587SOL    HW122223   3.564   1.026   1.555  0.8194  0.7914  1.6824
 3587SOL    HW222224   3.660   1.106   1.480 -0.2688  1.8326 -0.8242
 3588SOL     OW22225   2.030   2.590   8.582  0.1952 -0.0172  0.6996
 3588SOL    HW122226   2.023   2.495   8.568 -1.0437  0.6023 -2.6458
 3588SOL    HW222227   2.111   2.595   8.634  0.7519  0.9542 -0.2829
 3589SOL     OW22228   1.733   1.458   4.823 -0.3986  0.2433 -0.3901
 3589SOL    HW122229   1.746   1.387   4.886  1.1676  0.7940 -0.0887
 3589SOL    HW222230   1.800   1.442   4.756 -1.3934  0.3298 -1.3986
 3590SOL     OW22231   1.586   4.504   9.214  0.2885 -0.2438  0.3316
 3590SOL    HW122232   1.670   4.532   9.178  0.5849 -3.0431 -1.1614
 3590SOL    HW222233   1.549   4.590   9.231  1.9239  0.7505 -1.1285
 3591SOL     OW22234   4.200   4.570   3.549  0.7690 -0.3308  0.6368
 3591SOL    HW122235   4.211   4.591   3.456  1.3054 -1.5929  0.4244
 3591SOL    HW222236   4.151   4.645   3.583 -3.6649 -2.4100 -1.0783
 3592SOL     OW22237   3.483   3.842   4.143  0.3915 -0.2757 -0.0188
 3592SOL    HW122238   3.393   3.866   4.166  0.6323 -1.0322  1.7309
 3592SOL    HW222239   3.520   3.910   4.086  0.6795  0.6431  1.2578
 3593SOL     OW22240   1.273   2.062  12.831 -0.1491  0.1143 -0.8037
 3593SOL    HW122241   1.332   2.043  12.758 -0.3319  0.4146 -1.0277
 3593SOL    HW222242   1.327   2.077  12.908 -0.6388 -0.5777 -0.3280
 3594SOL     OW22243   2.228   2.185   2.958 -0.5638 -0.7501  0.1998
 3594SOL    HW122244   2.298   2.124   2.981  1.2004  1.0743 -0.3529
 3594SOL    HW222245   2.246   2.260   3.016 -0.0110  0.0325 -0.9867
 3595SOL     OW22246   2.256   2.792  10.974  0.4646  0.1065  0.0288
 3595SOL    HW122247   2.180   2.748  10.935 -0.0309  2.1385 -1.2772
 3595SOL    HW222248   2.329   2.735  10.949  0.0066  0.0362 -1.1195
 3596SOL     OW22249   4.653   3.308   8.993 -0.2709 -0.3116  0.1755
 3596SOL    HW122250   4.587   3.374   9.015  1.5997  1.3655  0.7581
 3596SOL    HW222251   0.009   3.344   9.035  0.7378  3.1339 -4.7591
 3597SOL     OW22252   1.100   1.142   7.048 -0.0238  0.0043  0.4306
 3597SOL    HW122253   1.010   1.112   7.054 -0.5884  1.1254 -2.5880
 3597SOL    HW222254   1.135   1.062   7.008 -2.3733  0.2311 -2.0594
 3598SOL     OW22255   1.757   1.036  17.193 -0.0357 -0.2468 -0.5194
 3598SOL    HW122256   1.775   0.985  17.272 -0.1753  0.7631  0.1602
 3598SOL    HW222257   1.807   1.117  17.206 -0.9493  0.1019  0.7520
 3599SOL     OW22258   2.774   2.581   6.650  0.4141 -0.7413 -1.0335
 3599SOL    HW122259   2.697   2.543   6.608 -0.5023  0.7850 -0.7134
 3599SOL    HW222260   2.787   2.513   6.717  0.0645 -0.4881 -0.7087
 3600SOL     OW22261   0.604   0.657   4.944  0.1809  0.1721  0.5614
 3600SOL    HW122262   0.518   0.649   4.986  0.4798 -2.6550  0.6779
 3600SOL    HW222263   0.597   0.746   4.910  0.3055  0.4344  1.2169
 3601SOL     OW22264   3.930   2.773   1.976  0.0602 -0.5549  0.5968
 3601SOL    HW122265   3.986   2.712   1.927 -2.8653 -1.0226 -2.1877
 3601SOL    HW222266   3.887   2.833   1.914 -0.3605 -2.4440 -0.9609
 3602SOL     OW22267   3.900   2.225  17.228  0.5546 -0.0345 -0.1879
 3602SOL    HW122268   3.896   2.288  17.156  1.3309  2.3961  1.8676
 3602SOL    HW222269   3.991   2.207  17.249  0.6876 -2.3057 -2.7172
 3603SOL     OW22270   0.311   0.080  12.047  0.0426  0.2280 -0.7183
 3603SOL    HW122271   0.257   0.001  12.050  1.9490 -1.0333 -0.4255
 3603SOL    HW222272   0.334   0.078  12.139 -2.3134  0.3405 -0.1322
 3604SOL     OW22273   3.205   0.343   1.066 -0.3572 -0.6618 -0.6215
 3604SOL    HW122274   3.153   0.409   1.112 -0.6481  0.1922 -2.1901
 3604SOL    HW222275   3.294   0.378   1.076 -0.5373 -0.1240 -0.9115
 3605SOL     OW22276   2.290   0.493  11.979 -0.1862 -1.1104 -0.2154
 3605SOL    HW122277   2.380   0.512  11.952 -0.4980 -1.6803 -1.6722
 3605SOL    HW222278   2.286   0.536  12.064 -3.0738 -2.2822  0.2269
 3606SOL     OW22279   1.732   1.363   3.271  1.4662  0.0762 -0.5486
 3606SOL    HW122280   1.801   1.418   3.235 -0.2059  1.3312 -1.8523
 3606SOL    HW222281   1.719   1.303   3.196 -0.4747  1.3004 -1.1906
 3607SOL     OW22282   2.280   4.486   5.212 -0.4021  0.1346  0.3228
 3607SOL    HW122283   2.281   4.396   5.244  0.1199  0.1439  0.3320
 3607SOL    HW222284   2.320   4.514   5.295 -0.9216 -1.3002  1.0692
 3608SOL     OW22285   0.480   4.249   5.289 -0.2210 -0.2811 -0.1885
 3608SOL    HW122286   0.499   4.238   5.382  1.0259  0.0359 -0.4071
 3608SOL    HW222287   0.423   4.173   5.279 -2.3205  1.3160 -0.1701
 3609SOL     OW22288   2.385   0.461   9.371 -0.0327 -0.5107  0.2155
 3609SOL    HW122289   2.310   0.478   9.315 -0.6170  0.8387  1.4051
 3609SOL    HW222290   2.452   0.508   9.321  1.0259 -2.3914 -0.1323
 3610SOL     OW22291   1.962   3.660  10.012 -0.1303 -0.4488 -0.1116
 3610SOL    HW122292   1.993   3.569  10.012  2.4980  0.4328 -0.2073
 3610SOL    HW222293   1.968   3.679  10.106  0.5620  1.8136 -0.6166
 3611SOL     OW22294   2.028   3.112   6.684 -0.4842  0.6281  0.7469
 3611SOL    HW122295   2.043   3.204   6.703 -1.9554  1.2197 -0.8927
 3611SOL    HW222296   2.085   3.060   6.741  0.4322 -2.1221 -2.6395
 3612SOL     OW22297   2.147   1.090   1.748  0.2417  0.0608  0.0511
 3612SOL    HW122298   2.057   1.069   1.723  0.2910 -0.5858  0.4270
 3612SOL    HW222299   2.190   1.098   1.663 -0.4225 -0.2391 -0.3066
 3613SOL     OW22300   4.714   4.289  12.490 -0.0480 -0.5589  0.8323
 3613SOL    HW122301   0.035   4.375  12.486 -1.2196  0.0445  1.3055
 3613SOL    HW222302   4.625   4.315  12.514 -0.4296 -0.5963 -0.5557
 3614SOL     OW22303   4.480   1.795  14.628  0.2090 -0.0697  0.3805
 3614SOL    HW122304   4.426   1.739  14.571  1.3813  1.9685 -2.7462
 3614SOL    HW222305   4.415   1.842  14.679  0.4832 -1.1706  1.7347
 3615SOL     OW22306   3.293   4.615   8.292 -0.4287 -0.1060  0.0493
 3615SOL    HW122307   3.313   4.679   8.360  0.7455  0.7393 -1.1078
 3615SOL    HW222308   3.197   4.610   8.288 -0.2726 -2.7647 -0.2130
 3616SOL     OW22309   1.110   0.809  16.837  0.6509 -0.3081 -0.0093
 3616SOL    HW122310   1.024   0.803  16.879  1.8929 -0.1363  2.5536
 3616SOL    HW222311   1.149   0.733  16.879 -0.6748 -0.7964  0.3310
 3617SOL     OW22312   3.186   1.038  11.868 -0.2091  0.0982 -0.2827
 3617SOL    HW122313   3.235   0.956  11.875  0.3151  0.2903 -1.5915
 3617SOL    HW222314   3.100   0.999  11.886 -0.3659  0.8222  0.5485
 3618SOL     OW22315   4.258   3.033   5.557  0.0471  0.2005 -0.0252
 3618SOL    HW122316   4.167   3.028   5.525 -0.3574 -1.2143  1.3580
 3618SOL    HW222317   4.286   3.105   5.499  0.4888  1.0522  1.2433
 3619SOL     OW22318   2.881   2.454   4.866  0.2975 -0.1567  0.2812
 3619SOL    HW122319   2.977   2.455   4.860  0.0869 -1.3788 -3.0655
 3619SOL    HW222320   2.870   2.360   4.883  1.7140 -0.5641 -0.9984
 3620SOL     OW22321   1.026   3.919   1.865  0.5840  0.4383 -0.2063
 3620SOL    HW122322   1.040   4.003   1.822  2.2127  0.7651  0.9542
 3620SOL    HW222323   1.000   3.864   1.792  2.2869 -1.8398  0.8908
 3621SOL     OW22324   2.667   2.190   1.024 -0.2552  0.1709  0.0489
 3621SOL    HW122325   2.597   2.255   1.016 -2.4184 -2.1017  0.6724
 3621SOL    HW222326   2.660   2.137   0.945 -0.9012 -2.1487  1.6748
 3622SOL     OW22327   2.919   3.058  10.168 -0.0868 -0.4939  0.0323
 3622SOL    HW122328   2.917   2.991  10.237  0.7649 -1.7380 -1.1590
 3622SOL    HW222329   2.825   3.070  10.154  0.2231 -0.2781 -1.7986
 3623SOL     OW22330   3.928   1.071  11.220  0.3310 -0.0699  0.0553
 3623SOL    HW122331   3.904   1.044  11.308  0.8869  0.9303  0.5160
 3623SOL    HW222332   3.995   1.136  11.240 -0.5001  0.3270  1.5891
 3624SOL     OW22333   0.632   3.079  16.515  0.2134 -0.5968  0.2105
 3624SOL    HW122334   0.619   3.145  16.583  0.9848 -2.3753  2.0884
 3624SOL    HW222335   0.548   3.080  16.468 -0.4662  0.9768  1.4501
 3625SOL     OW22336   1.015   1.616   2.103  0.3105 -0.2104  0.2926
 3625SOL    HW122337   1.063   1.640   2.023  2.3087  0.5450  1.7026
 3625SOL    HW222338   0.940   1.675   2.110  0.4607  0.0154  0.0359
 3626SOL     OW22339   4.080   2.327   7.075 -0.2020  0.3058  0.3864
 3626SOL    HW122340   3.986   2.314   7.065 -0.1975  0.0846  0.6162
 3626SOL    HW222341   4.106   2.235   7.087  0.7986  0.5256 -0.1013
 3627SOL     OW22342   1.667   3.776   6.285  0.2703 -0.2371  0.3988
 3627SOL    HW122343   1.681   3.703   6.345 -0.7031 -0.1334  0.7496
 3627SOL    HW222344   1.624   3.844   6.337 -2.4390 -0.3166 -1.7225
 3628SOL     OW22345   2.535   4.566   8.410  0.4661 -0.1238  0.2663
 3628SOL    HW122346   2.552   4.573   8.504 -2.9424  1.0459  0.7803
 3628SOL    HW222347   2.443   4.591   8.417  0.7145  0.0052  3.2327
 3629SOL     OW22348   2.209   2.506  11.076 -0.3947  0.2045  0.2795
 3629SOL    HW122349   2.188   2.561  11.000  2.0877  0.5974 -0.1215
 3629SOL    HW222350   2.131   2.451  11.080  0.2321 -0.6242  1.2746
 3630SOL     OW22351   0.237   4.000   0.282  0.0681  0.2828  0.0114
 3630SOL    HW122352   0.295   3.925   0.300 -0.1807  0.1854  0.4139
 3630SOL    HW222353   0.209   4.032   0.368 -1.5090  0.7719 -0.6845
 3631SOL     OW22354   3.067   3.919   1.274 -0.4452 -1.5466  0.3032
 3631SOL    HW122355   3.066   3.991   1.210 -1.2650 -2.1943 -0.4151
 3631SOL    HW222356   3.066   3.848   1.210 -1.3291 -0.3356 -1.0453
 3632SOL     OW22357   2.956   0.139   8.486  0.0383 -0.2753 -0.1020
 3632SOL    HW122358   2.907   0.210   8.527  0.0622 -1.0805  1.3300
 3632SOL    HW222359   2.992   0.171   8.403  0.4380  0.5056  0.3776
 3633SOL     OW22360   3.988   4.670   6.821  0.0914 -0.1135  0.2248
 3633SOL    HW122361   4.067   4.621   6.842 -0.3204 -0.7952  0.1792
 3633SOL    HW222362   3.916   4.611   6.841  0.2480 -0.8698 -1.4160
 3634SOL     OW22363   2.218   3.546   3.858  0.6625 -0.2770 -0.5717
 3634SOL    HW122364   2.144   3.593   3.896  0.8816 -0.7814  0.4734
 3634SOL    HW222365   2.269   3.619   3.823  0.3434 -0.7008 -1.9329
 3635SOL     OW22366   1.549   1.632   3.136 -0.8742 -0.4826 -0.1921
 3635SOL    HW122367   1.581   1.581   3.061  1.9651 -1.4736  1.6671
 3635SOL    HW222368   1.540   1.716   3.091  0.0938 -0.1932  0.1506
 3636SOL     OW22369   2.309   2.838   3.302 -0.4299  0.1076 -0.3436
 3636SOL    HW122370   2.366   2.900   3.349 -0.4786 -0.3175  0.2777
 3636SOL    HW222371   2.367   2.780   3.252 -0.8175 -0.4944 -0.0959
 3637SOL     OW22372   4.458   0.288  10.131 -0.9035  0.0215  0.5805
 3637SOL    HW122373   4.524   0.349  10.098 -1.8336  1.9470  2.2474
 3637SOL    HW222374   4.372   0.317  10.102 -0.7704 -1.2463 -1.0458
 3638SOL     OW22375   4.634   3.090   9.139  0.1397 -0.6069 -0.2830
 3638SOL    HW122376   4.641   3.141   9.219  4.1124  0.1688 -1.1338
 3638SOL    HW222377   4.651   3.161   9.078  0.1584 -0.3523  0.0186
 3639SOL     OW22378   3.894   2.418   7.307  0.2036  0.1579 -0.4962
 3639SOL    HW122379   3.830   2.483   7.335 -0.4183  0.4255 -2.5556
 3639SOL    HW222380   3.976   2.465   7.299 -0.0513  0.6107 -0.4360
 3640SOL     OW22381   3.531   0.026   4.678 -0.1950 -0.0582  0.1303
 3640SOL    HW122382   3.548   0.104   4.624  1.9799 -1.3062 -1.0043
 3640SOL    HW222383   3.440   0.002   4.662 -0.5612 -0.6307  3.1539
 3641SOL     OW22384   3.322   4.300   6.197 -0.1077 -0.3569 -0.2171
 3641SOL    HW122385   3.394   4.362   6.197  0.1706 -0.6785 -0.1242
 3641SOL    HW222386   3.362   4.234   6.141  1.3536  0.2876  0.0611
 3642SOL     OW22387   3.237   0.328  10.933  0.0990  0.1312  0.1633
 3642SOL    HW122388   3.172   0.324  11.003  1.1128 -2.6414  0.9698
 3642SOL    HW222389   3.280   0.244  10.947 -0.5853 -0.2589 -0.0610
 3643SOL     OW22390   1.252   1.934   0.954 -0.1466  0.1309 -0.1458
 3643SOL    HW122391   1.290   2.005   1.006 -0.3077  1.0877 -1.3316
 3643SOL    HW222392   1.192   1.982   0.896 -0.3447  0.2094  0.1213
 3644SOL     OW22393   1.764   2.256   4.810 -0.0145 -0.5421  0.1711
 3644SOL    HW122394   1.763   2.345   4.775  0.6054 -0.9917 -0.9821
 3644SOL    HW222395   1.857   2.249   4.791  0.2012  3.5425 -0.3134
 3645SOL     OW22396   1.708   1.064   9.623  0.6162 -0.1068  0.4602
 3645SOL    HW122397   1.804   1.074   9.622  0.8818 -2.5558  0.1402
 3645SOL    HW222398   1.692   0.990   9.564  0.1461 -0.3568  0.9080
 3646SOL     OW22399   2.612   0.508   5.040  0.1160  0.2931 -0.1182
 3646SOL    HW122400   2.699   0.546   5.030 -0.3076  1.2080 -0.4015
 3646SOL    HW222401   2.579   0.572   5.104 -1.7211 -0.8731  0.1014
 3647SOL     OW22402   4.473   1.415   9.275 -0.4343 -0.0672  0.4044
 3647SOL    HW122403   4.509   1.357   9.343 -2.1813  1.1481  2.3870
 3647SOL    HW222404   4.469   1.350   9.205  0.7737 -2.7564  2.8262
 3648SOL     OW22405   2.765   1.672   2.143 -0.3849 -0.0296  0.2277
 3648SOL    HW122406   2.750   1.600   2.081  2.0615  0.2206 -0.6484
 3648SOL    HW222407   2.697   1.734   2.116 -1.7087 -1.3481  0.5230
 3649SOL     OW22408   1.708   2.902   6.584  0.3947 -0.2434 -0.2841
 3649SOL    HW122409   1.645   2.831   6.602 -0.4614  0.4815 -0.4252
 3649SOL    HW222410   1.721   2.878   6.492  0.8878 -0.5023 -0.1465
 3650SOL     OW22411   1.325   3.584   6.023  0.0872 -0.3369 -0.4554
 3650SOL    HW122412   1.356   3.531   5.949  2.3728  1.0864 -0.5279
 3650SOL    HW222413   1.402   3.641   6.019  0.4295 -0.5913  2.4253
 3651SOL     OW22414   2.109   3.399   5.794  0.4733 -0.1137  0.3784
 3651SOL    HW122415   2.057   3.340   5.740  0.4218  0.7037 -0.4672
 3651SOL    HW222416   2.057   3.478   5.780 -0.2346 -0.7913 -0.8128
 3652SOL     OW22417   4.084   0.165   2.247 -0.3842  0.0569 -0.4691
 3652SOL    HW122418   4.130   0.183   2.165  1.8634  0.6699  0.9263
 3652SOL    HW222419   4.005   0.219   2.247 -0.1415  0.4084 -0.2695
 3653SOL     OW22420   2.732   2.150  15.595  0.1231 -0.4995  0.3949
 3653SOL    HW122421   2.787   2.187  15.525 -0.3496 -1.6924 -0.6040
 3653SOL    HW222422   2.767   2.196  15.671  0.1108 -0.9909  0.6909
 3654SOL     OW22423   2.652   0.909   1.763 -0.0036  0.4469 -0.0409
 3654SOL    HW122424   2.566   0.866   1.765  0.5797 -0.7422 -0.4655
 3654SOL    HW222425   2.665   0.897   1.857  0.3682 -1.9974 -0.4127
 3655SOL     OW22426   0.590   2.746   0.845  1.0588  0.3021  0.4782
 3655SOL    HW122427   0.565   2.667   0.894  0.2105  2.1783  3.1019
 3655SOL    HW222428   0.525   2.810   0.876  0.2858 -1.7496  3.1453
 3656SOL     OW22429   2.104   4.407   8.883  0.2124 -0.2093 -0.2448
 3656SOL    HW122430   2.063   4.465   8.819  1.3974  1.3210  0.4096
 3656SOL    HW222431   2.146   4.344   8.824 -0.5725 -0.0412 -0.9889
 3657SOL     OW22432   0.451   1.723  11.722 -0.4576 -0.3689 -0.5271
 3657SOL    HW122433   0.519   1.678  11.773 -0.6907 -2.4053 -2.0118
 3657SOL    HW222434   0.376   1.665  11.737 -0.4358 -0.3403 -0.3146
 3658SOL     OW22435   2.762   4.111   8.738  0.3578 -0.0464 -0.4087
 3658SOL    HW122436   2.751   4.162   8.818  0.0853 -0.8510  0.0589
 3658SOL    HW222437   2.716   4.160   8.670 -1.0358 -1.8889 -0.7811
 3659SOL     OW22438   3.379   0.008   5.436 -0.7473  0.2343  0.0649
 3659SOL    HW122439   3.302   4.693   5.393 -2.4921  2.4600  1.2718
 3659SOL    HW222440   3.340   0.061   5.505 -2.1556 -0.4308 -0.2092
 3660SOL     OW22441   4.457   4.117   6.234 -0.3014  0.5849 -0.0461
 3660SOL    HW122442   4.505   4.160   6.164  3.3314 -2.3774  0.6531
 3660SOL    HW222443   4.461   4.022   6.222  1.5686  0.6110  0.3748
 3661SOL     OW22444   0.405   3.272   8.198  0.3306  0.3326 -0.2614
 3661SOL    HW122445   0.334   3.232   8.148 -1.4546  2.0305  0.9374
 3661SOL    HW222446   0.435   3.200   8.253 -0.1403 -1.6403 -2.5493
 3662SOL     OW22447   2.111   2.377  16.376 -0.3644  0.0366  0.2792
 3662SOL    HW122448   2.075   2.398  16.290 -1.9086  0.1475  0.9661
 3662SOL    HW222449   2.083   2.285  16.377  0.1753 -0.1222  0.6426
 3663SOL     OW22450   2.052   3.430   3.070 -0.0970 -0.6454  0.0683
 3663SOL    HW122451   1.972   3.432   3.123  1.5541 -1.6219  2.5700
 3663SOL    HW222452   2.127   3.440   3.128 -0.0831  0.7371 -0.1798
 3664SOL     OW22453   4.144   4.608   7.276  0.2171  0.3322  0.1977
 3664SOL    HW122454   4.239   4.607   7.282  0.2835  4.3583 -0.5292
 3664SOL    HW222455   4.121   4.579   7.365 -1.5000 -0.5667 -0.5533
 3665SOL     OW22456   3.598   0.907   9.776  0.7177 -0.1707  0.1586
 3665SOL    HW122457   3.612   0.818   9.807 -0.8438 -1.2138 -2.1473
 3665SOL    HW222458   3.660   0.958   9.829 -0.8434  2.8472 -0.8965
 3666SOL     OW22459   0.479   1.480  12.714 -1.0096 -0.3895 -0.0271
 3666SOL    HW122460   0.492   1.575  12.711  2.0328 -0.7566  1.1475
 3666SOL    HW222461   0.404   1.464  12.657 -0.5009 -2.4677 -0.1103
 3667SOL     OW22462   2.467   1.168   5.452  0.1180  0.6432  0.1878
 3667SOL    HW122463   2.392   1.212   5.411  1.4369  1.3801 -1.4136
 3667SOL    HW222464   2.472   1.219   5.532  1.4252  0.6734  0.0765
 3668SOL     OW22465   4.128   1.034   2.228  0.1132  0.5895  0.1343
 3668SOL    HW122466   4.036   1.008   2.235  0.9709 -1.2397  4.7103
 3668SOL    HW222467   4.150   1.014   2.137  2.4707 -2.2448  1.2954
 3669SOL     OW22468   1.999   2.291  15.161  0.2310  0.2569 -0.6304
 3669SOL    HW122469   2.057   2.345  15.107 -0.8361  0.6687 -1.3803
 3669SOL    HW222470   1.942   2.356  15.203 -0.1041 -1.0756  0.9463
 3670SOL     OW22471   1.847   4.646  15.763  0.1086 -0.2980  0.2213
 3670SOL    HW122472   1.785   4.696  15.817  0.1485 -2.1412  1.9989
 3670SOL    HW222473   1.889   4.717  15.715 -0.7009  0.0245 -0.0184
 3671SOL     OW22474   2.228   0.006  14.762 -0.3646  0.1949 -0.2693
 3671SOL    HW122475   2.254   0.029  14.672  3.5238  2.5045  1.4500
 3671SOL    HW222476   2.286   4.655  14.783 -0.7721  0.0780  0.4286
 3672SOL     OW22477   3.636   1.414   4.593 -0.0639  0.5869  0.2062
 3672SOL    HW122478   3.561   1.356   4.579  1.0877 -0.5981 -1.0450
 3672SOL    HW222479   3.615   1.495   4.547  0.8235  0.0725 -1.1008
 3673SOL     OW22480   0.959   3.332   8.062 -0.0327  0.0245  0.3663
 3673SOL    HW122481   1.016   3.257   8.046 -1.1925 -0.9425  0.8053
 3673SOL    HW222482   1.020   3.405   8.050  0.0034  0.1675  1.3890
 3674SOL     OW22483   3.462   2.342  15.718  0.2188 -0.2252  0.4309
 3674SOL    HW122484   3.524   2.346  15.791  1.4451 -0.4823 -0.5865
 3674SOL    HW222485   3.389   2.286  15.743 -0.1808  0.6853  1.2888
 3675SOL     OW22486   2.219   3.263  10.431 -0.0503 -0.0167  0.1196
 3675SOL    HW122487   2.307   3.264  10.393  0.1958  3.4798  0.7745
 3675SOL    HW222488   2.170   3.216  10.364  1.2378  1.4695 -1.8774
 3676SOL     OW22489   3.984   3.013   5.537  0.2398 -0.5060 -0.0114
 3676SOL    HW122490   3.905   3.042   5.583  0.9662 -1.2646  1.7064
 3676SOL    HW222491   3.993   2.918   5.547 -1.3229 -0.7176 -0.5675
 3677SOL     OW22492   0.378   0.958   3.972 -0.1273 -0.2009 -0.0278
 3677SOL    HW122493   0.413   0.953   4.061  2.5845  1.0349 -1.0323
 3677SOL    HW222494   0.317   1.031   3.987  0.2129  0.1040 -0.1359
 3678SOL     OW22495   0.450   2.188   4.718  0.3963 -0.2692 -0.3166
 3678SOL    HW122496   0.378   2.131   4.744  0.5085  0.8943  2.5501
 3678SOL    HW222497   0.424   2.204   4.628 -0.5918 -1.0828 -0.1844
 3679SOL     OW22498   4.621   2.492  16.912  0.5349  0.0553 -0.1450
 3679SOL    HW122499   4.650   2.472  16.823 -1.5774 -2.3421 -0.3059
 3679SOL    HW222500   4.528   2.514  16.908  1.2335  2.7588 -1.0819
 3680SOL     OW22501   2.618   4.425   2.441  0.0029 -0.2572  0.1393
 3680SOL    HW122502   2.701   4.462   2.471 -0.4577  0.3308  0.7125
 3680SOL    HW222503   2.608   4.349   2.497  3.2824  0.3217  1.4959
 3681SOL     OW22504   1.498   4.162  15.315 -0.2532  0.1102 -0.1463
 3681SOL    HW122505   1.470   4.088  15.369 -0.6776  0.9218  0.7477
 3681SOL    HW222506   1.554   4.209  15.378  1.1632 -1.0294 -0.5462
 3682SOL     OW22507   4.163   0.467  12.943  0.0101  0.3400  0.5706
 3682SOL    HW122508   4.075   0.503  12.956 -0.2194  1.3096 -3.7165
 3682SOL    HW222509   4.177   0.446  13.036 -0.5885 -1.9971  0.1274
 3683SOL     OW22510   1.977   2.505   3.769  0.1618 -0.0145 -0.3201
 3683SOL    HW122511   2.032   2.558   3.827  1.1655  0.6258 -1.8710
 3683SOL    HW222512   2.038   2.475   3.703 -0.7802  2.1148 -2.1594
 3684SOL     OW22513   3.717   0.286   8.370 -0.1135  0.2475  0.0611
 3684SOL    HW122514   3.635   0.265   8.326  1.0852 -1.4890 -1.3215
 3684SOL    HW222515   3.704   0.267   8.463 -0.5782  0.2906  0.0086
 3685SOL     OW22516   1.810   2.313   1.888 -0.1350  0.4272 -0.3314
 3685SOL    HW122517   1.776   2.321   1.977  0.7018 -1.4649  0.1626
 3685SOL    HW222518   1.732   2.333   1.836 -0.5317  0.3691  0.2404
 3686SOL     OW22519   3.086   4.005   7.809  0.2850  0.4996  0.7817
 3686SOL    HW122520   3.070   4.087   7.855  2.1752  1.5666 -0.4502
 3686SOL    HW222521   3.034   3.943   7.860  2.3283  1.0283  3.5300
 3687SOL     OW22522   0.160   1.956   8.466  0.3126 -0.0170  0.0305
 3687SOL    HW122523   0.105   2.013   8.412 -1.2090 -3.7100 -2.3040
 3687SOL    HW222524   0.109   1.875   8.467  0.9800 -0.4134  2.6821
 3688SOL     OW22525   1.473   0.675  11.477  0.3051  0.0942  0.5784
 3688SOL    HW122526   1.464   0.744  11.411  2.7212  1.0511  1.2430
 3688SOL    HW222527   1.561   0.700  11.506  0.7647  0.3178 -0.9836
 3689SOL     OW22528   3.129   1.987  14.788  0.6769 -0.2718 -0.2356
 3689SOL    HW122529   3.196   1.998  14.856  0.4828 -1.5554  0.1549
 3689SOL    HW222530   3.117   2.076  14.755  0.1887  0.0540  0.8106
 3690SOL     OW22531   2.891   1.788  15.033 -0.1001  0.1357  0.6827
 3690SOL    HW122532   2.961   1.826  15.087  1.3380 -3.4059  1.2963
 3690SOL    HW222533   2.819   1.851  15.036 -1.8492 -1.8177 -0.4043
 3691SOL     OW22534   1.008   3.649   6.211  0.1484  0.1950  0.1326
 3691SOL    HW122535   0.941   3.714   6.235  0.5539  0.6092  0.1434
 3691SOL    HW222536   1.051   3.641   6.296  2.7093  0.4641 -1.1503
 3692SOL     OW22537   2.047   0.596   2.961 -0.2237 -0.1670  0.1536
 3692SOL    HW122538   2.098   0.561   2.888  0.2646 -0.4459  0.6332
 3692SOL    HW222539   2.063   0.690   2.961  2.8668 -0.7006 -1.5577
 3693SOL     OW22540   1.312   1.331  13.565  0.7263  0.4180  0.1381
 3693SOL    HW122541   1.245   1.317  13.498  2.5845  2.3042 -2.0918
 3693SOL    HW222542   1.255   1.324  13.642 -0.1577  1.2629 -0.4409
 3694SOL     OW22543   2.621   1.280   1.166  0.4004 -0.5444 -0.4275
 3694SOL    HW122544   2.645   1.227   1.090 -0.6013  1.0351 -1.8467
 3694SOL    HW222545   2.704   1.287   1.214  1.3127 -1.8181 -1.8269
 3695SOL     OW22546   0.064   1.511   2.990 -0.2890  0.1880 -0.0505
 3695SOL    HW122547   0.137   1.507   2.927 -0.6441  0.5582 -0.4789
 3695SOL    HW222548   4.709   1.510   2.934 -0.3905  2.5039  0.0429
 3696SOL     OW22549   1.080   0.392   4.429  0.4012 -0.0981  0.0642
 3696SOL    HW122550   1.122   0.382   4.343  1.6900  2.5102  0.3683
 3696SOL    HW222551   1.036   0.475   4.413 -1.1307 -0.9774 -0.2273
 3697SOL     OW22552   4.692   2.859   0.052 -0.0827  0.3726 -0.2628
 3697SOL    HW122553   4.671   2.883   0.142  2.3499  0.4578  0.2833
 3697SOL    HW222554   0.063   2.837   0.063 -0.2395 -0.5681 -0.8317
 3698SOL     OW22555   1.688   0.103   3.893  0.2190  0.1321 -0.0349
 3698SOL    HW122556   1.674   0.030   3.953 -0.2295  0.1442 -0.1252
 3698SOL    HW222557   1.658   0.055   3.816  1.1843 -1.0946  0.3517
 3699SOL     OW22558   3.388   1.767   9.442 -0.5164  0.2985 -0.3643
 3699SOL    HW122559   3.361   1.705   9.509  1.1124  0.4632  0.4571
 3699SOL    HW222560   3.449   1.707   9.399  0.0093 -0.2022  1.0633
 3700SOL     OW22561   3.112   1.400  10.203  0.1806  0.2688  0.0306
 3700SOL    HW122562   3.152   1.317  10.228 -2.0614 -0.2732  1.8696
 3700SOL    HW222563   3.033   1.363  10.162  1.3511  0.8417 -2.7460
 3701SOL     OW22564   3.489   3.085   1.705 -0.3161  0.5285 -0.3961
 3701SOL    HW122565   3.422   3.152   1.687 -0.7095  0.2777  0.1277
 3701SOL    HW222566   3.449   3.007   1.666  0.1795 -0.3336  0.8542
 3702SOL     OW22567   0.865   2.763  14.283  0.2418  0.0113  0.3051
 3702SOL    HW122568   0.885   2.819  14.358  0.7097 -0.8229  0.8005
 3702SOL    HW222569   0.778   2.794  14.258  0.2888 -0.4705 -0.4475
 3703SOL     OW22570   4.087   1.416   3.666  0.3971  0.7050 -0.3738
 3703SOL    HW122571   4.182   1.411   3.654  0.5658  2.8146  0.0510
 3703SOL    HW222572   4.052   1.476   3.601 -1.2069 -0.5300 -0.6373
 3704SOL     OW22573   1.840   3.463   3.313 -0.0827  0.1994 -0.1391
 3704SOL    HW122574   1.806   3.416   3.389  0.6999 -1.6513 -0.9269
 3704SOL    HW222575   1.763   3.464   3.257 -1.7023  0.3464  2.0925
 3705SOL     OW22576   0.384   4.004   3.493 -0.5235 -0.2984 -0.1754
 3705SOL    HW122577   0.315   3.987   3.557  0.3919 -1.8984  0.4008
 3705SOL    HW222578   0.448   3.935   3.514 -0.9746  0.3537  3.3284
 3706SOL     OW22579   4.161   1.165   7.024  0.0716 -0.0353 -0.7067
 3706SOL    HW122580   4.232   1.225   7.044 -0.7014  0.8254 -0.5807
 3706SOL    HW222581   4.127   1.147   7.112  0.6898 -1.2732 -0.7145
 3707SOL     OW22582   1.317   1.686   2.574 -0.5824 -0.0824 -0.1149
 3707SOL    HW122583   1.254   1.747   2.613  0.0447 -0.0913  0.9294
 3707SOL    HW222584   1.276   1.672   2.489 -1.1927  2.3311 -0.2191
 3708SOL     OW22585   2.031   0.997   1.332  0.0438 -0.3904 -1.0608
 3708SOL    HW122586   2.058   0.912   1.297  1.2791  0.0563 -1.1895
 3708SOL    HW222587   1.956   1.010   1.274  0.9792 -1.7474 -2.5876
 3709SOL     OW22588   0.396   1.059   8.679  0.3897 -0.2238 -0.0153
 3709SOL    HW122589   0.433   1.021   8.600 -2.9705  0.6276 -2.0061
 3709SOL    HW222590   0.310   1.016   8.686  0.5034 -0.8173 -2.5349
 3710SOL     OW22591   4.509   2.317   6.667  0.3089  0.3933  0.3246
 3710SOL    HW122592   4.554   2.389   6.713  1.7783 -0.6032  0.4555
 3710SOL    HW222593   4.433   2.370   6.642 -1.9826 -3.6406 -1.1586
 3711SOL     OW22594   2.596   3.961   2.866  0.4512 -0.0149  0.0499
 3711SOL    HW122595   2.660   3.932   2.800 -0.6533  1.7168 -1.7711
 3711SOL    HW222596   2.660   3.981   2.934 -0.2237 -2.2047  1.3419
 3712SOL     OW22597   4.047   2.758  12.368  0.9061  0.3138  0.0960
 3712SOL    HW122598   4.035   2.849  12.397 -3.0111  0.3110 -1.5915
 3712SOL    HW222599   4.083   2.773  12.280  0.5347  2.9518  0.3824
 3713SOL     OW22600   2.937   0.847   0.364  0.0257  0.5437 -0.0785
 3713SOL    HW122601   2.988   0.879   0.290  2.5236  0.9084  1.8281
 3713SOL    HW222602   2.966   0.909   0.431 -0.4571  0.5368  0.1386
 3714SOL     OW22603   4.042   3.621   6.736  0.0429 -0.8596 -0.1477
 3714SOL    HW122604   4.133   3.647   6.720 -0.1397 -2.2347 -3.4353
 3714SOL    HW222605   4.019   3.669   6.816  0.6582  0.2884 -0.6534
 3715SOL     OW22606   4.224   3.902   3.726 -0.3623 -0.6918 -0.3200
 3715SOL    HW122607   4.242   3.828   3.667  1.9902 -0.6620  0.3391
 3715SOL    HW222608   4.289   3.967   3.701  0.1577 -1.1366 -0.1266
 3716SOL     OW22609   4.420   4.432   2.969  1.0471 -0.5905 -0.1241
 3716SOL    HW122610   4.385   4.348   2.939  0.8569 -1.7917  3.4737
 3716SOL    HW222611   4.427   4.483   2.888  0.4732 -1.2508 -0.5900
 3717SOL     OW22612   3.150   1.961   9.287 -0.1944 -0.3582  0.2306
 3717SOL    HW122613   3.111   1.969   9.374 -2.6089 -0.7594 -0.8227
 3717SOL    HW222614   3.074   1.999   9.243 -0.4237  1.8001  2.4192
 3718SOL     OW22615   1.616   0.944   4.522 -0.1445 -0.3547 -0.2167
 3718SOL    HW122616   1.691   0.893   4.491  1.3819  1.0797  1.1051
 3718SOL    HW222617   1.547   0.880   4.541  0.5130 -0.9803  0.0868
 3719SOL     OW22618   0.825   2.714  10.165  0.2794 -0.6358  0.4003
 3719SOL    HW122619   0.875   2.744  10.240 -0.5261 -0.5930  0.9186
 3719SOL    HW222620   0.765   2.647  10.198 -1.9458  1.7430  1.1154
 3720SOL     OW22621   1.171   4.531  12.371  0.2759 -0.0046 -0.0569
 3720SOL    HW122622   1.156   4.625  12.357  1.3038  0.0024 -1.1030
 3720SOL    HW222623   1.198   4.524  12.463  1.0475  2.3535 -0.1049
 3721SOL     OW22624   3.914   4.010   4.411  0.3987 -0.0065  0.3062
 3721SOL    HW122625   3.893   3.927   4.367 -1.3130  1.1713 -1.1005
 3721SOL    HW222626   3.997   4.032   4.368  0.1693 -0.2110 -0.2399
 3722SOL     OW22627   0.070   4.650   5.207 -0.1118  0.5751  0.1493
 3722SOL    HW122628   0.079   4.563   5.245 -2.1506 -0.1129 -0.9157
 3722SOL    HW222629   0.097   4.708   5.278 -2.7030  0.6447  1.1032
 3723SOL     OW22630   3.501   0.156   9.469 -0.2273  0.4498  0.2457
 3723SOL    HW122631   3.554   0.190   9.541 -0.2938  1.3759 -0.1349
 3723SOL    HW222632   3.410   0.176   9.493 -0.6033 -0.4752 -0.3909
 3724SOL     OW22633   0.487   4.394   2.911 -0.0250  0.4496 -0.3679
 3724SOL    HW122634   0.485   4.485   2.879 -1.0540  1.1027  1.5332
 3724SOL    HW222635   0.503   4.402   3.005  0.8301 -0.1615 -0.4694
 3725SOL     OW22636   3.719   1.644  14.552 -0.1678  0.1691  0.0479
 3725SOL    HW122637   3.690   1.553  14.541 -0.8448  0.3865 -0.0132
 3725SOL    HW222638   3.652   1.670  14.616 -0.1820 -1.4283  0.6840
 3726SOL     OW22639   2.051   4.047  13.705  0.5382 -0.0242 -0.1676
 3726SOL    HW122640   2.057   4.126  13.652 -0.4299  1.1062  1.3804
 3726SOL    HW222641   1.998   4.085  13.776 -1.4500  0.0679 -1.7291
 3727SOL     OW22642   1.736   3.602   5.252  0.1229  0.4574  0.5284
 3727SOL    HW122643   1.699   3.524   5.211  3.3102 -0.0723 -1.3260
 3727SOL    HW222644   1.660   3.629   5.305  0.6537  0.8727  1.0763
 3728SOL     OW22645   0.348   2.277   6.932 -0.3454  0.1215 -0.6699
 3728SOL    HW122646   0.321   2.272   7.024  2.7081  0.4166  0.2574
 3728SOL    HW222647   0.428   2.329   6.943 -0.2647 -0.0213 -0.5843
 3729SOL     OW22648   4.575   3.077   5.174  0.1149  0.0627  0.2674
 3729SOL    HW122649   4.553   3.070   5.267  1.7374 -0.3906  0.6190
 3729SOL    HW222650   4.498   3.029   5.142  0.6699 -0.1122 -0.8060
 3730SOL     OW22651   2.719   3.278  16.047  0.4669 -0.2358 -0.3000
 3730SOL    HW122652   2.802   3.231  16.057  0.3350 -0.6860 -1.2935
 3730SOL    HW222653   2.708   3.265  16.141 -1.5970  0.5551 -0.4361
 3731SOL     OW22654   4.054   2.422   6.770  0.0831 -0.0952 -0.2742
 3731SOL    HW122655   4.065   2.390   6.859 -0.8141  0.2580 -0.0451
 3731SOL    HW222656   3.959   2.423   6.759 -0.0546  0.4618  1.0935
 3732SOL     OW22657   3.583   1.225   8.581 -0.4305 -0.6141  0.3257
 3732SOL    HW122658   3.568   1.319   8.570  1.2443 -0.2087  1.4329
 3732SOL    HW222659   3.527   1.189   8.512  0.6645 -0.6315 -0.5655
 3733SOL     OW22660   4.651   1.135   4.644 -0.0363  0.1540 -0.2174
 3733SOL    HW122661   0.019   1.107   4.660 -0.2133  0.4543  1.3081
 3733SOL    HW222662   4.671   1.221   4.608 -1.1245  0.1673 -0.7827
 3734SOL     OW22663   2.934   0.286  11.463 -0.1185  0.5029  0.1803
 3734SOL    HW122664   2.872   0.270  11.391 -0.6196  0.9257  0.5135
 3734SOL    HW222665   3.006   0.320  11.411 -0.9835 -1.7346 -2.4693
 3735SOL     OW22666   2.590   3.905   1.225 -0.4184 -0.1857 -0.0950
 3735SOL    HW122667   2.677   3.936   1.201 -0.3089 -0.0382  0.4943
 3735SOL    HW222668   2.609   3.811   1.229  3.0551  0.3736 -2.5486
 3736SOL     OW22669   3.910   0.027   8.836 -0.2265  0.0630  0.6667
 3736SOL    HW122670   3.924   0.117   8.804  3.4276  0.2222  2.6554
 3736SOL    HW222671   3.925   0.031   8.931 -1.6758  2.8917  0.7593
 3737SOL     OW22672   4.081   2.852  16.429 -0.4993  0.6278 -0.2431
 3737SOL    HW122673   3.992   2.871  16.459 -0.8948 -2.1415  0.3388
 3737SOL    HW222674   4.055   2.798  16.354  1.5300 -0.9384  0.1879
 3738SOL     OW22675   0.092   0.094  17.454  0.0074 -0.4498 -0.0891
 3738SOL    HW122676   0.175   0.082  17.408 -0.5522  0.0509 -1.2199
 3738SOL    HW222677   0.104   0.047  17.537  0.1040  0.7282  0.5636
 3739SOL     OW22678   2.495   4.491   5.463 -0.2586 -0.3864 -0.0341
 3739SOL    HW122679   2.447   4.569   5.490 -3.0612 -2.3784  0.7501
 3739SOL    HW222680   2.450   4.425   5.517  1.7343 -0.9488  0.9702
 3740SOL     OW22681   2.051   0.244   6.139 -0.7551 -0.0203  0.3099
 3740SOL    HW122682   2.006   0.251   6.055  0.5205 -0.3772 -0.4110
 3740SOL    HW222683   1.986   0.281   6.198 -0.0994  1.5688  0.0499
 3741SOL     OW22684   3.486   1.315  17.449 -0.5423  0.5438 -0.3892
 3741SOL    HW122685   3.481   1.335  17.356  0.2239  0.4641 -0.4456
 3741SOL    HW222686   3.581   1.307  17.457 -0.4705 -1.7720 -3.5030
 3742SOL     OW22687   0.851   1.467   7.793 -0.1888  0.3357  0.3114
 3742SOL    HW122688   0.797   1.509   7.860 -0.9404 -0.2395  0.0625
 3742SOL    HW222689   0.935   1.471   7.839 -0.2803 -0.4987  0.5302
 3743SOL     OW22690   3.943   1.164  17.482  0.5019  0.0150 -0.3519
 3743SOL    HW122691   3.995   1.170  17.401 -0.3918 -0.7042 -0.9794
 3743SOL    HW222692   3.985   1.099  17.538  1.9395  1.0191 -0.2516
 3744SOL     OW22693   4.571   0.711   6.022 -1.2766 -0.4546  0.5145
 3744SOL    HW122694   4.583   0.780   6.087 -0.9623  1.5474 -1.6608
 3744SOL    HW222695   4.493   0.746   5.980  0.8241  2.4828 -0.9343
 3745SOL     OW22696   4.673   1.918   5.883  0.7136 -0.5211  0.0698
 3745SOL    HW122697   4.589   1.930   5.928  1.2429 -0.9407  1.1759
 3745SOL    HW222698   4.697   2.011   5.880  1.7867 -0.8878 -2.3862
 3746SOL     OW22699   1.142   3.250   2.827  0.2195  0.3127  0.2646
 3746SOL    HW122700   1.114   3.306   2.755 -1.0420 -2.3556 -1.3147
 3746SOL    HW222701   1.217   3.209   2.784 -1.1601 -1.1276 -0.7844
 3747SOL     OW22702   3.806   2.046   8.717 -0.1845 -0.8295 -0.1686
 3747SOL    HW122703   3.861   2.097   8.659 -0.3817  0.7257  0.9994
 3747SOL    HW222704   3.867   1.980   8.751  1.6281  0.0271 -1.7973
 3748SOL     OW22705   3.135   3.013  10.832 -0.3482 -0.1313  0.0184
 3748SOL    HW122706   3.196   3.052  10.895 -2.6239  1.7661  1.0468
 3748SOL    HW222707   3.132   3.074  10.758 -0.7476  0.8651  0.8513
 3749SOL     OW22708   2.594   3.696  14.357  0.3925  0.5021 -0.2918
 3749SOL    HW122709   2.606   3.610  14.317 -1.5445  1.0169 -1.9726
 3749SOL    HW222710   2.506   3.688  14.392  1.8273 -3.9006  2.3084
 3750SOL     OW22711   3.157   2.344   3.128 -0.4496 -0.2630 -0.0146
 3750SOL    HW122712   3.129   2.431   3.158  0.5404  0.5099 -1.3534
 3750SOL    HW222713   3.244   2.369   3.097  0.1302 -0.8863  1.0791
 3751SOL     OW22714   3.336   0.176   6.529 -0.1323 -0.1656  0.3882
 3751SOL    HW122715   3.351   0.107   6.464 -0.2778 -2.1780  2.5001
 3751SOL    HW222716   3.250   0.200   6.495 -0.6609 -0.5092  1.5056
 3752SOL     OW22717   3.692   1.066   8.762  0.5256  0.0937  0.8169
 3752SOL    HW122718   3.673   0.978   8.730 -0.7750 -0.0987  2.1525
 3752SOL    HW222719   3.658   1.120   8.690  1.3701 -0.7663 -0.2310
 3753SOL     OW22720   1.765   4.372   2.093  0.1727  0.4086  0.2594
 3753SOL    HW122721   1.730   4.460   2.077  0.6945  0.6043  0.1866
 3753SOL    HW222722   1.834   4.378   2.027 -0.8649  1.7841 -0.6984
 3754SOL     OW22723   3.586   3.185   8.288 -0.5873 -0.2005  0.2165
 3754SOL    HW122724   3.572   3.090   8.287  1.0998 -0.4397 -1.2256
 3754SOL    HW222725   3.665   3.197   8.342 -0.1531 -1.4223 -0.1360
 3755SOL     OW22726   3.632   0.431   6.988  0.5040  0.1014  0.4125
 3755SOL    HW122727   3.626   0.344   6.949 -1.8417  1.4534 -2.2693
 3755SOL    HW222728   3.570   0.433   7.061  2.1684 -0.8803  1.8570
 3756SOL     OW22729   2.686   2.318   7.740 -0.1820 -0.2412  0.1791
 3756SOL    HW122730   2.652   2.271   7.816 -2.6659  2.1592  0.5447
 3756SOL    HW222731   2.667   2.408   7.769  0.5971  0.6651 -2.0680
 3757SOL     OW22732   2.125   2.502  15.039  0.0310  0.6975 -0.5055
 3757SOL    HW122733   2.048   2.552  15.012 -0.1011  2.1007  2.5115
 3757SOL    HW222734   2.197   2.531  14.983 -0.2780  0.6496 -0.9225
 3758SOL     OW22735   2.024   4.412  11.951 -0.2461  0.0371  0.2946
 3758SOL    HW122736   2.014   4.333  12.004 -2.3933  0.8627  1.1008
 3758SOL    HW222737   2.084   4.461  12.007 -0.3701  0.8342 -0.2637
 3759SOL     OW22738   0.954   3.973   8.141  0.7855  0.3717  0.3157
 3759SOL    HW122739   0.916   3.985   8.229  1.8859  1.0771  0.6989
 3759SOL    HW222740   1.039   3.940   8.171 -0.1855 -0.0839  2.5806
 3760SOL     OW22741   4.094   1.022   8.059 -0.5677 -0.0613 -0.4622
 3760SOL    HW122742   4.060   1.086   8.122  0.3548 -2.1362  2.1627
 3760SOL    HW222743   4.076   0.941   8.107  0.0291 -0.9488 -1.7434
 3761SOL     OW22744   1.897   2.216  17.462  0.1674 -0.0808  0.7998
 3761SOL    HW122745   1.916   2.291  17.519  2.6545 -0.6419  0.7009
 3761SOL    HW222746   1.870   2.147  17.523  0.1152 -0.7108  0.0651
 3762SOL     OW22747   0.211   2.952  17.568  0.2696 -0.4837 -0.0065
 3762SOL    HW122748   0.208   2.907  17.653 -1.2823 -2.0955 -0.9270
 3762SOL    HW222749   0.194   2.879  17.509 -1.2315  0.1760 -0.3695
 3763SOL     OW22750   2.797   0.638   1.238 -0.3342 -0.6405 -0.2017
 3763SOL    HW122751   2.783   0.647   1.332  1.5832  1.4740 -0.0978
 3763SOL    HW222752   2.874   0.582   1.236  1.2627  1.6397 -2.7480
 3764SOL     OW22753   2.222   0.976  12.459 -0.3273  0.8088  0.4300
 3764SOL    HW122754   2.142   0.924  12.456 -0.8598  1.5545  2.0784
 3764SOL    HW222755   2.240   0.976  12.365  2.1928  1.8596  0.9083
 3765SOL     OW22756   0.498   3.810   2.315 -0.3388 -0.3175 -0.7464
 3765SOL    HW122757   0.474   3.900   2.336  0.0645 -0.0838 -1.2709
 3765SOL    HW222758   0.590   3.814   2.290 -0.5339  2.2384 -0.9988
 3766SOL     OW22759   0.571   3.681   5.230  0.2960 -0.0327  0.5817
 3766SOL    HW122760   0.578   3.651   5.321 -2.1118 -0.4157  0.6335
 3766SOL    HW222761   0.577   3.599   5.180 -0.1405 -0.5662  1.4089
 3767SOL     OW22762   1.558   3.017   6.887 -0.1725 -0.0562  0.3217
 3767SOL    HW122763   1.621   3.055   6.827  0.9651 -2.6311 -0.1061
 3767SOL    HW222764   1.542   3.101   6.930 -1.0178  0.0294 -0.1620
 3768SOL     OW22765   1.624   2.854  10.204  0.1195 -0.2037  0.1414
 3768SOL    HW122766   1.618   2.760  10.183 -0.0011 -0.0738 -0.4055
 3768SOL    HW222767   1.639   2.855  10.299 -1.2189 -2.1122  0.3872
 3769SOL     OW22768   0.743   1.559  12.058  0.3810 -0.1470  0.3048
 3769SOL    HW122769   0.693   1.639  12.040  0.1064 -0.5533 -0.7435
 3769SOL    HW222770   0.790   1.575  12.139 -1.8211  1.0111  1.3693
 3770SOL     OW22771   3.137   0.561  12.188 -0.1088  0.0644  0.9876
 3770SOL    HW122772   3.155   0.588  12.098 -0.8584 -0.6490  0.6263
 3770SOL    HW222773   3.067   0.622  12.214  1.3156  2.6911 -1.3240
 3771SOL     OW22774   3.650   2.626   8.503  0.9805 -0.1479  0.1211
 3771SOL    HW122775   3.695   2.567   8.442  1.4753  2.2674 -1.8687
 3771SOL    HW222776   3.712   2.699   8.500  1.4804 -0.5010  2.2601
 3772SOL     OW22777   0.880   0.846  14.702  0.6585  0.3624 -0.0176
 3772SOL    HW122778   0.797   0.891  14.718  1.2823  1.2363  0.7191
 3772SOL    HW222779   0.922   0.910  14.645 -0.3376  1.3209  0.3269
 3773SOL     OW22780   1.081   3.833   9.716  0.3433  0.0551  0.1449
 3773SOL    HW122781   1.097   3.886   9.639 -0.0460  0.6931  0.5067
 3773SOL    HW222782   1.010   3.777   9.686  1.8465 -1.4747 -0.5801
 3774SOL     OW22783   0.240   1.145  15.882  0.2821 -0.0681  0.2950
 3774SOL    HW122784   0.250   1.124  15.789  1.3113 -0.9491  0.6135
 3774SOL    HW222785   0.311   1.209  15.877 -1.3697  1.9239  1.8244
 3775SOL     OW22786   2.350   3.785   0.429  0.1333 -0.0241  0.1558
 3775SOL    HW122787   2.352   3.875   0.462  1.1982  0.8584 -2.3225
 3775SOL    HW222788   2.256   3.773   0.439  0.2112 -1.4547 -0.8544
 3776SOL     OW22789   0.035   2.324   2.184  0.3694  0.0823 -0.0430
 3776SOL    HW122790   4.684   2.263   2.197  0.6984 -0.2810  0.1303
 3776SOL    HW222791   4.710   2.390   2.134  0.7699  0.2624 -0.1781
 3777SOL     OW22792   2.729   4.317  13.104 -0.2583 -0.6059 -0.5979
 3777SOL    HW122793   2.787   4.262  13.052 -0.4323 -0.4914 -0.9123
 3777SOL    HW222794   2.738   4.397  13.052  1.0282 -1.5211 -1.7911
 3778SOL     OW22795   4.552   3.487   5.524 -0.9081  0.0748 -0.0666
 3778SOL    HW122796   4.607   3.488   5.446 -2.2089 -0.2545 -0.9986
 3778SOL    HW222797   4.462   3.472   5.495  0.2383  0.7010 -4.0213
 3779SOL     OW22798   3.434   2.675   8.669 -0.1388  0.6273 -0.0648
 3779SOL    HW122799   3.508   2.665   8.609 -0.2757  0.9734 -0.2863
 3779SOL    HW222800   3.384   2.739   8.619  0.7277  1.0101 -0.4418
 3780SOL     OW22801   2.666   0.083   2.315 -0.2444  0.3553 -0.3041
 3780SOL    HW122802   2.706   0.030   2.246 -0.1568 -1.0918  0.8604
 3780SOL    HW222803   2.729   0.155   2.324 -0.9859  0.7276  1.7395
 3781SOL     OW22804   0.006   3.741  12.004  0.0680  0.8669  0.2130
 3781SOL    HW122805   0.096   3.709  11.997 -0.4676 -0.7531  0.8318
 3781SOL    HW222806   4.706   3.681  12.076 -0.8422 -1.2967 -1.9010
 3782SOL     OW22807   4.328   0.229  11.951 -0.1050  0.6189  0.2098
 3782SOL    HW122808   4.301   0.246  11.861  0.6447  0.4914 -0.0385
 3782SOL    HW222809   4.384   0.152  11.954  0.1027  0.6799 -2.1636
 3783SOL     OW22810   0.173   0.307  11.441  0.1418 -0.1348 -0.5919
 3783SOL    HW122811   0.205   0.361  11.369  2.1198 -1.0340 -0.3804
 3783SOL    HW222812   0.115   0.366  11.489 -0.7789  0.4283 -2.4234
 3784SOL     OW22813   1.240   0.706   6.318 -0.9763 -0.8173 -0.1127
 3784SOL    HW122814   1.245   0.797   6.291 -0.0767 -0.6865  0.4931
 3784SOL    HW222815   1.159   0.685   6.271 -2.0324 -0.5001  1.5954
 3785SOL     OW22816   2.376   1.339  13.557  0.4846  0.3831  0.0952
 3785SOL    HW122817   2.462   1.307  13.532 -0.3105 -1.2992 -0.5087
 3785SOL    HW222818   2.373   1.422  13.509 -1.0929 -1.1426 -2.4688
 3786SOL     OW22819   1.451   1.548   6.853 -0.0322  0.0704 -0.0853
 3786SOL    HW122820   1.418   1.599   6.780 -0.7060 -0.1065  0.0942
 3786SOL    HW222821   1.373   1.492   6.856 -0.1143  0.1698 -0.3855
 3787SOL     OW22822   2.067   0.781   2.214 -0.7874  0.4415 -0.1933
 3787SOL    HW122823   2.023   0.698   2.196 -1.2388  0.4487  0.8468
 3787SOL    HW222824   2.143   0.771   2.158 -0.4358  0.4387  0.2840
 3788SOL     OW22825   2.991   4.315   0.607 -0.5536 -0.3187 -0.1338
 3788SOL    HW122826   3.053   4.249   0.578 -1.6899 -1.8068  0.8454
 3788SOL    HW222827   3.000   4.294   0.700 -2.3903 -0.1726  0.0833
 3789SOL     OW22828   1.753   3.367  15.646 -0.9528 -0.5274  0.4169
 3789SOL    HW122829   1.681   3.422  15.618 -0.4591 -0.5952 -1.0040
 3789SOL    HW222830   1.736   3.288  15.594  0.2622 -1.0355  0.7727
 3790SOL     OW22831   2.151   1.041   2.008  0.4976 -0.9581  0.2134
 3790SOL    HW122832   2.188   0.952   2.008 -1.7596 -1.8826  0.4891
 3790SOL    HW222833   2.151   1.064   1.915  1.1529  0.4229  0.5466
 3791SOL     OW22834   3.412   3.952   2.910  0.2693  0.5132 -0.2070
 3791SOL    HW122835   3.385   3.982   2.824  0.7503 -0.2056 -0.6136
 3791SOL    HW222836   3.507   3.946   2.894  0.5270  3.1169  0.4398
 3792SOL     OW22837   1.881   3.906   6.894 -0.0572  0.0676  0.1502
 3792SOL    HW122838   1.851   3.912   6.803  1.2413 -0.5485 -0.3139
 3792SOL    HW222839   1.828   3.833   6.925  1.5698 -0.5761  1.4409
 3793SOL     OW22840   1.024   1.533  16.053 -0.4838 -0.2048  0.4443
 3793SOL    HW122841   1.064   1.490  16.128 -1.9986  0.2120  1.5008
 3793SOL    HW222842   1.031   1.621  16.091 -0.4600 -0.8407  1.8953
 3794SOL     OW22843   1.604   1.320   6.504 -0.3083 -0.4978  0.0193
 3794SOL    HW122844   1.563   1.235   6.520  1.3988 -1.2399  0.4296
 3794SOL    HW222845   1.620   1.341   6.596  0.3100 -0.3163 -0.1282
 3795SOL     OW22846   0.885   2.202   8.671 -0.2695 -0.2536  0.1175
 3795SOL    HW122847   0.849   2.273   8.724 -1.8751  0.4256 -1.8907
 3795SOL    HW222848   0.805   2.152   8.652  0.1215 -0.5680 -0.6793
 3796SOL     OW22849   2.795   3.631   4.415 -0.3874 -0.4572  0.1154
 3796SOL    HW122850   2.702   3.650   4.420 -0.6169 -1.8745  1.3785
 3796SOL    HW222851   2.795   3.600   4.324 -1.1959  2.2276 -0.7803
 3797SOL     OW22852   1.135   1.285   3.427 -0.0021 -0.2783 -0.1480
 3797SOL    HW122853   1.107   1.376   3.441 -1.7002 -1.1088  1.9137
 3797SOL    HW222854   1.061   1.249   3.377 -1.5381 -0.4160  2.1968
 3798SOL     OW22855   0.275   3.868  13.354 -0.2604 -0.9454  0.7475
 3798SOL    HW122856   0.327   3.904  13.283  0.6368 -0.0798  1.8497
 3798SOL    HW222857   0.280   3.772  13.350  2.5758 -0.7224 -0.4627
 3799SOL     OW22858   0.477   0.765   5.770 -0.4100  0.2650  0.3047
 3799SOL    HW122859   0.399   0.809   5.736 -1.3782 -1.6085  0.0798
 3799SOL    HW222860   0.552   0.777   5.712 -1.0351 -0.1719 -0.5981
 3800SOL     OW22861   0.020   4.313  14.285 -0.2265 -0.1843 -0.0516
 3800SOL    HW122862   4.694   4.239  14.323  1.0238 -0.2009  1.4649
 3800SOL    HW222863   0.037   4.375  14.355  1.4656  1.9638 -2.3879
 3801SOL     OW22864   4.074   2.969   4.124 -0.2585  0.5517  0.1909
 3801SOL    HW122865   4.105   2.988   4.213 -0.1872 -2.0282  0.7297
 3801SOL    HW222866   3.978   2.964   4.130 -0.3730 -0.2145 -2.6079
 3802SOL     OW22867   3.155   3.153  10.553 -0.0928 -0.9558 -0.1764
 3802SOL    HW122868   3.131   3.244  10.568  0.7159 -0.7693 -0.0512
 3802SOL    HW222869   3.204   3.164  10.472 -0.4971  0.6218 -0.1989
 3803SOL     OW22870   2.467   4.538   1.983 -0.4005  0.3176  0.1641
 3803SOL    HW122871   2.452   4.575   2.070  0.4532 -1.1418  0.9179
 3803SOL    HW222872   2.448   4.446   2.000 -0.4754  0.0384 -1.4529
 3804SOL     OW22873   0.754   3.814  14.324 -0.4886 -0.0681 -0.2800
 3804SOL    HW122874   0.782   3.862  14.245 -2.0085 -2.0861 -2.0467
 3804SOL    HW222875   0.837   3.774  14.350  0.6587  1.4367 -1.6056
 3805SOL     OW22876   3.974   2.509  11.424  0.2925 -0.8008  0.1180
 3805SOL    HW122877   3.953   2.546  11.510  1.9614  0.4429 -0.0233
 3805SOL    HW222878   4.062   2.481  11.449  0.8517 -0.8061 -1.8493
 3806SOL     OW22879   2.986   0.820   5.164  0.0147  0.5011 -0.1656
 3806SOL    HW122880   2.943   0.905   5.150  0.7611  0.4734 -2.6643
 3806SOL    HW222881   3.076   0.838   5.136  0.4856 -1.9089 -0.1605
 3807SOL     OW22882   3.166   2.004   7.104 -0.3168 -0.1632  0.5238
 3807SOL    HW122883   3.170   1.917   7.065 -0.2089 -0.0278  0.2314
 3807SOL    HW222884   3.200   1.985   7.191  1.9325  0.6928 -0.1803
 3808SOL     OW22885   3.372   1.771  13.621  0.2554 -0.0897  0.4379
 3808SOL    HW122886   3.428   1.848  13.622 -0.3824  0.3857 -0.0421
 3808SOL    HW222887   3.289   1.817  13.607  0.3616  0.0935  0.4082
 3809SOL     OW22888   4.048   4.191  13.016 -0.2726 -0.7827 -0.6378
 3809SOL    HW122889   3.957   4.211  12.993  0.6835  1.9854 -2.0284
 3809SOL    HW222890   4.094   4.217  12.936  0.9142 -1.3906 -0.1438
 3810SOL     OW22891   0.085   3.391  14.605  0.4258 -0.0937 -0.1532
 3810SOL    HW122892   0.126   3.415  14.522  0.4869 -1.2849 -0.4559
 3810SOL    HW222893   0.083   3.296  14.607  1.4038 -0.1052  0.3486
 3811SOL     OW22894   4.055   0.003  16.714  0.4667  0.1860 -0.4966
 3811SOL    HW122895   3.984   4.660  16.707 -0.1327  0.7498  0.3795
 3811SOL    HW222896   4.131   4.678  16.680 -0.3076  0.0816 -2.1030
 3812SOL     OW22897   3.264   0.532  10.756 -0.1354 -0.3326 -0.6245
 3812SOL    HW122898   3.230   0.491  10.676 -2.9858  0.1070  0.3673
 3812SOL    HW222899   3.266   0.458  10.816 -0.8244  0.0202 -0.1662
 3813SOL     OW22900   4.315   3.626   5.275 -0.4314 -0.4299  0.1550
 3813SOL    HW122901   4.267   3.666   5.202 -1.3728  0.6187  1.3283
 3813SOL    HW222902   4.398   3.671   5.260 -1.1488  0.7173 -0.3660
 3814SOL     OW22903   0.127   3.876   7.721  0.3005  0.1210  0.1315
 3814SOL    HW122904   0.143   3.958   7.768 -0.7212 -1.1616  2.7074
 3814SOL    HW222905   0.215   3.838   7.717 -0.3137 -1.2500 -0.3115
 3815SOL     OW22906   3.786   2.478   8.091 -0.5413 -0.2464  0.0326
 3815SOL    HW122907   3.797   2.473   8.186 -1.5434 -3.0707  0.0038
 3815SOL    HW222908   3.691   2.467   8.087 -0.6772  0.4542  1.3499
 3816SOL     OW22909   0.081   2.339   7.790  0.1976 -0.1653 -0.2536
 3816SOL    HW122910   0.148   2.402   7.814  3.3069 -3.5411 -0.0004
 3816SOL    HW222911   0.048   2.315   7.877 -0.6498  0.2555 -0.4607
 3817SOL     OW22912   0.614   3.589   3.983 -0.3477 -0.3134 -0.2234
 3817SOL    HW122913   0.599   3.515   4.042  0.3291  0.3024  0.7199
 3817SOL    HW222914   0.611   3.550   3.896  0.3832  0.0733 -0.4235
 3818SOL     OW22915   2.490   4.060   0.290  0.8742  0.4314 -0.2246
 3818SOL    HW122916   2.519   4.020   0.209  1.1721  1.7370 -0.7674
 3818SOL    HW222917   2.570   4.112   0.299  0.1793  1.3584  0.5576
 3819SOL     OW22918   3.329   0.033  13.877 -0.4306  0.0808 -0.2868
 3819SOL    HW122919   3.380   4.703  13.816  1.4558  2.0208 -0.3491
 3819SOL    HW222920   3.304   0.107  13.821 -1.7245 -1.4029 -1.6548
 3820SOL     OW22921   1.322   3.342   3.852  0.2678 -0.7118  0.1764
 3820SOL    HW122922   1.416   3.356   3.841 -0.2808  0.6840 -2.7652
 3820SOL    HW222923   1.299   3.285   3.779 -1.4125  0.4720 -0.2223
 3821SOL     OW22924   4.697   2.952  15.449 -0.3403  0.2565 -0.1940
 3821SOL    HW122925   4.665   3.021  15.390 -1.1655 -2.2906 -2.7129
 3821SOL    HW222926   4.720   2.889  15.381  0.0209  1.1206 -0.8759
 3822SOL     OW22927   1.897   0.356   6.894  0.4197 -0.3626 -0.0679
 3822SOL    HW122928   1.847   0.281   6.862 -0.3412 -0.0395  0.3549
 3822SOL    HW222929   1.895   0.332   6.987  2.3335 -0.9637 -0.1987
 3823SOL     OW22930   3.923   4.433   4.621  0.2571  0.1418 -0.1808
 3823SOL    HW122931   3.935   4.379   4.543 -1.4705  0.2470 -0.5352
 3823SOL    HW222932   3.838   4.477   4.611  0.7760  1.1725 -0.0721
 3824SOL     OW22933   2.055   3.699   2.534 -0.5526 -0.4314  0.0464
 3824SOL    HW122934   1.963   3.701   2.560 -0.8843  0.2677 -1.1749
 3824SOL    HW222935   2.057   3.769   2.469 -0.2583  0.3754  0.9280
 3825SOL     OW22936   4.337   1.705  12.719 -0.3034 -0.0514  0.4073
 3825SOL    HW122937   4.398   1.704  12.645 -2.9232  0.2036 -1.7495
 3825SOL    HW222938   4.396   1.755  12.775  0.5648  1.8883 -2.2680
 3826SOL     OW22939   3.503   4.363   8.681 -0.1056 -0.0671  0.1192
 3826SOL    HW122940   3.592   4.391   8.701  0.1928 -1.0804  0.2340
 3826SOL    HW222941   3.516   4.268   8.691 -0.5585 -0.1544 -0.0885
 3827SOL     OW22942   2.527   1.391   8.546 -0.1149 -0.3319 -0.3012
 3827SOL    HW122943   2.561   1.302   8.533  0.8099  0.0124 -0.2469
 3827SOL    HW222944   2.432   1.385   8.534 -0.3408  1.4558  0.5723
 3828SOL     OW22945   2.774   1.542  12.429 -0.4917  0.1696  0.0061
 3828SOL    HW122946   2.748   1.585  12.347  1.0671  1.2601  0.0811
 3828SOL    HW222947   2.831   1.613  12.457  0.6722  0.5001 -3.1880
 3829SOL     OW22948   3.263   1.074  14.446 -0.4094 -0.6088 -0.0763
 3829SOL    HW122949   3.205   1.113  14.512  0.5501  0.0483  0.3887
 3829SOL    HW222950   3.220   1.091  14.362  1.5578  1.1263 -0.7433
 3830SOL     OW22951   4.549   1.219   7.551 -0.0829 -0.0086 -0.0815
 3830SOL    HW122952   4.599   1.292   7.516  1.6410 -1.4716 -0.6924
 3830SOL    HW222953   4.581   1.222   7.642 -0.4650 -1.2018  0.0954
 3831SOL     OW22954   3.012   0.772  13.440 -0.4496  0.6677 -0.0711
 3831SOL    HW122955   3.008   0.722  13.521 -0.5218 -1.4366 -1.3736
 3831SOL    HW222956   3.066   0.850  13.452 -1.2331  1.4157 -1.4489
 3832SOL     OW22957   0.768   2.409   5.761  0.5629  0.3316  0.7001
 3832SOL    HW122958   0.793   2.350   5.832 -1.5671 -1.7875 -0.3314
 3832SOL    HW222959   0.855   2.445   5.746  0.2762  0.7394  0.0258
 3833SOL     OW22960   3.273   3.630   7.901 -0.2448  0.2505 -0.0849
 3833SOL    HW122961   3.318   3.547   7.884  1.0164  1.1199 -1.0992
 3833SOL    HW222962   3.332   3.664   7.968  2.0450  0.8536 -2.3510
 3834SOL     OW22963   1.444   0.379   6.382 -0.3032  0.3543  0.0977
 3834SOL    HW122964   1.361   0.365   6.427  0.1407  1.9602  1.3684
 3834SOL    HW222965   1.506   0.399   6.452  0.3061 -1.3341  0.0421
 3835SOL     OW22966   4.000   2.092  17.593 -0.4978 -0.3358  0.3688
 3835SOL    HW122967   4.085   2.048  17.596 -0.2326  0.0820 -0.8564
 3835SOL    HW222968   3.940   2.031  17.550 -2.6203  1.1100  1.3319
 3836SOL     OW22969   4.687   3.865  14.539 -0.2930  0.1778  0.3938
 3836SOL    HW122970   4.686   3.932  14.471 -2.3070 -0.8306 -0.5691
 3836SOL    HW222971   4.602   3.821  14.537 -0.5426  0.6302  1.0574
 3837SOL     OW22972   4.032   0.389   3.453 -0.7163 -0.0168  0.2655
 3837SOL    HW122973   4.098   0.410   3.519 -0.1116 -0.2292 -0.2761
 3837SOL    HW222974   4.061   0.426   3.370 -2.4466 -0.4369 -0.5213
 3838SOL     OW22975   4.200   1.282   5.236 -0.3096 -0.2396 -0.8100
 3838SOL    HW122976   4.106   1.264   5.236 -0.1590 -1.0482 -0.4379
 3838SOL    HW222977   4.220   1.215   5.171  1.4344  1.0762 -1.6178
 3839SOL     OW22978   0.232   0.555   3.449  0.1068  0.5378 -0.0150
 3839SOL    HW122979   0.193   0.468   3.454 -0.6134  0.9270  1.2606
 3839SOL    HW222980   0.168   0.586   3.513  0.4619 -0.2176  0.7060
 3840SOL     OW22981   2.792   3.214   8.745 -0.1136 -0.0716  0.1092
 3840SOL    HW122982   2.855   3.217   8.816 -1.0677 -0.2496  0.9602
 3840SOL    HW222983   2.719   3.172   8.790  0.3136  1.5614  2.3118
 3841SOL     OW22984   1.555   3.566   2.285  0.5504 -1.0492  0.4041
 3841SOL    HW122985   1.479   3.552   2.229  1.0320  0.5728 -0.6556
 3841SOL    HW222986   1.622   3.582   2.218 -2.2028  1.5467 -1.7160
 3842SOL     OW22987   1.504   2.333   4.216  0.4817 -0.0935 -0.4073
 3842SOL    HW122988   1.539   2.305   4.131  0.0891 -1.5565 -0.0835
 3842SOL    HW222989   1.557   2.273   4.268  0.2356 -1.3777 -1.6330
 3843SOL     OW22990   2.824   3.378   0.381  0.5998  0.4428  0.1344
 3843SOL    HW122991   2.785   3.462   0.406 -1.5639 -0.6154  0.3666
 3843SOL    HW222992   2.906   3.379   0.431  0.9964  2.6460 -0.5563
 3844SOL     OW22993   0.476   2.193   2.597  0.0502  0.1837  0.5819
 3844SOL    HW122994   0.479   2.181   2.692 -1.0426 -0.9786  0.4710
 3844SOL    HW222995   0.413   2.263   2.611 -0.7238 -0.5329  0.6477
 3845SOL     OW22996   4.421   1.048   1.393  0.1263  0.1004 -0.2816
 3845SOL    HW122997   4.492   0.989   1.370 -0.4698 -0.7713  0.1205
 3845SOL    HW222998   4.481   1.112   1.430  0.1413 -0.8446  1.3222
 3846SOL     OW22999   2.724   1.067   6.615 -0.4808  0.3585  0.4772
 3846SOL    HW123000   2.691   1.035   6.699  0.5407 -3.0834 -0.4478
 3846SOL    HW223001   2.818   1.050   6.613 -0.4367  0.6093  0.3664
 3847SOL     OW23002   3.113   3.241  10.267  0.6552 -0.1522 -0.0444
 3847SOL    HW123003   3.034   3.205  10.228  0.6789  0.3953 -0.5882
 3847SOL    HW223004   3.100   3.335  10.261 -0.3239 -0.4046 -1.7781
 3848SOL     OW23005   3.462   1.119   2.900 -0.0842 -0.3676  0.2652
 3848SOL    HW123006   3.515   1.089   2.827  0.2389 -1.2084  0.8574
 3848SOL    HW223007   3.391   1.159   2.849  3.1949  2.0920 -2.3674
 3849SOL     OW23008   2.951   2.534   5.738  0.1295 -0.0360  0.3386
 3849SOL    HW123009   3.021   2.497   5.684  1.1714 -1.3528  2.5843
 3849SOL    HW223010   2.891   2.460   5.744  2.0336 -1.6063  0.0264
 3850SOL     OW23011   3.119   3.828   8.997  0.1990 -0.1914  0.2433
 3850SOL    HW123012   3.070   3.767   9.051 -0.9273 -0.1428 -0.7121
 3850SOL    HW223013   3.050   3.851   8.934  0.2704 -1.4666 -0.3074
 3851SOL     OW23014   0.711   4.590   7.109 -0.0378  0.3093  0.0892
 3851SOL    HW123015   0.789   4.534   7.098 -0.7219 -0.7019  0.4171
 3851SOL    HW223016   0.749   4.676   7.088 -0.6304  0.6027  0.2279
 3852SOL     OW23017   2.264   3.671   9.652 -0.3836  0.0364  0.3570
 3852SOL    HW123018   2.285   3.593   9.600 -0.4260  0.6437 -0.5756
 3852SOL    HW223019   2.310   3.648   9.733 -1.4689  0.0271  0.9735
 3853SOL     OW23020   2.864   1.488   6.139 -0.4605  0.0616 -0.1035
 3853SOL    HW123021   2.874   1.432   6.062  2.2362  2.3137 -1.4021
 3853SOL    HW223022   2.880   1.424   6.208 -2.3924  0.3480  0.6365
 3854SOL     OW23023   2.081   3.356   4.780 -0.3519 -0.6007 -0.2203
 3854SOL    HW123024   2.082   3.272   4.826  0.2614  0.4009  1.6128
 3854SOL    HW223025   2.110   3.338   4.691  2.6579  0.7453  0.4924
 3855SOL     OW23026   4.070   0.002   4.151 -0.4173  0.2791 -0.2504
 3855SOL    HW123027   4.129   0.064   4.106  0.0965 -1.2412 -1.6678
 3855SOL    HW223028   4.018   4.692   4.078  0.8065 -0.0292 -0.9971
 3856SOL     OW23029   1.484   2.231   5.795  0.3839 -0.0053  0.1657
 3856SOL    HW123030   1.453   2.211   5.883 -0.8685 -2.3796 -0.8058
 3856SOL    HW223031   1.542   2.158   5.773  0.5019 -0.3727  1.6670
 3857SOL     OW23032   3.929   1.590   5.957 -0.2716  0.3827 -0.0662
 3857SOL    HW123033   3.905   1.673   5.916 -0.7946 -1.0007 -2.5974
 3857SOL    HW223034   3.902   1.607   6.047 -2.9820  0.4751 -0.8979
 3858SOL     OW23035   2.654   1.770  14.351 -0.7092 -0.5727 -0.3950
 3858SOL    HW123036   2.688   1.855  14.379 -0.8920 -1.2649  1.9047
 3858SOL    HW223037   2.712   1.758  14.275 -1.7627 -0.0678 -1.2850
 3859SOL     OW23038   4.386   0.723   7.486  0.5573  0.4124  0.1268
 3859SOL    HW123039   4.434   0.737   7.568  0.3465 -1.3615  0.5406
 3859SOL    HW223040   4.447   0.660   7.449 -3.2047 -1.6501 -2.4905
 3860SOL     OW23041   4.000   2.150  16.269  0.0275  0.2338  0.5817
 3860SOL    HW123042   4.020   2.071  16.218  0.5102  1.5222 -1.2157
 3860SOL    HW223043   4.035   2.217  16.211 -1.9553  0.6936 -0.1045
 3861SOL     OW23044   0.294   2.309   4.266  0.6648 -0.5795  0.1320
 3861SOL    HW123045   0.205   2.296   4.296  0.4569  1.9586  0.6178
 3861SOL    HW223046   0.320   2.237   4.209  2.4247 -1.0917  1.5826
 3862SOL     OW23047   4.110   2.193  15.991  0.0706 -0.3758 -0.0179
 3862SOL    HW123048   4.046   2.248  15.947 -0.5220  0.8398  2.3509
 3862SOL    HW223049   4.193   2.233  15.964  1.4353 -2.3002  1.3101
 3863SOL     OW23050   3.496   3.306   5.545  0.6485  0.4432 -0.1378
 3863SOL    HW123051   3.435   3.320   5.618  0.4552 -0.9637 -0.0150
 3863SOL    HW223052   3.434   3.314   5.473 -0.3761 -1.3226  0.5458
 3864SOL     OW23053   2.474   3.913   8.064 -0.2490 -0.0988 -0.0462
 3864SOL    HW123054   2.521   3.856   8.003 -0.7939 -0.3121 -0.2679
 3864SOL    HW223055   2.449   3.850   8.132 -0.7669 -0.9592 -1.0414
 3865SOL     OW23056   3.260   0.590  13.750  0.4812 -0.1460  0.1074
 3865SOL    HW123057   3.168   0.602  13.728  1.0105  0.6003 -1.6946
 3865SOL    HW223058   3.270   0.610  13.843 -1.6362  1.5498 -0.0465
 3866SOL     OW23059   1.257   0.355   8.210  0.5198 -0.4406 -0.0665
 3866SOL    HW123060   1.170   0.378   8.177  0.7837  0.2038 -0.2898
 3866SOL    HW223061   1.294   0.316   8.131 -2.5059 -0.2735 -1.5459
 3867SOL     OW23062   0.648   3.885   5.534  0.0352  0.7708 -0.0034
 3867SOL    HW123063   0.740   3.864   5.554  0.4163  3.9510  1.5662
 3867SOL    HW223064   0.627   3.929   5.616 -0.6487 -2.1649  1.3972
 3868SOL     OW23065   0.015   1.245   8.279  0.2832  0.5296  0.1412
 3868SOL    HW123066   0.105   1.220   8.302  0.0358  1.3288  1.9920
 3868SOL    HW223067   4.690   1.265   8.360  3.2967  0.5907  1.8944
 3869SOL     OW23068   1.459   4.655   6.380  0.0854 -0.2223 -0.4332
 3869SOL    HW123069   1.470   4.719   6.310 -3.6928 -0.7602 -1.4928
 3869SOL    HW223070   1.552   4.651   6.404 -0.5264  1.7786  2.1622
 3870SOL     OW23071   3.417   2.329   7.016 -0.5399  0.0060 -0.4304
 3870SOL    HW123072   3.460   2.310   6.933  1.6757 -0.4307  0.8142
 3870SOL    HW223073   3.470   2.283   7.081  0.1465  0.3852 -0.7224
 3871SOL     OW23074   2.701   1.553   6.502 -0.3919 -0.4890  0.1063
 3871SOL    HW123075   2.722   1.494   6.575  0.3804 -0.3803 -0.0268
 3871SOL    HW223076   2.635   1.498   6.459 -1.2081  0.9659 -0.4852
 3872SOL     OW23077   1.922   0.317   9.232  0.2013 -0.3775 -0.6314
 3872SOL    HW123078   1.976   0.241   9.251 -0.8135 -1.5613 -2.4644
 3872SOL    HW223079   1.966   0.387   9.281 -0.8845  0.1226 -0.3808
 3873SOL     OW23080   2.548   1.911   8.194  0.1025  0.2948  0.7349
 3873SOL    HW123081   2.642   1.898   8.179  0.6734  4.1651  0.7637
 3873SOL    HW223082   2.543   1.900   8.289 -1.1996  1.4020  0.7917
 3874SOL     OW23083   2.831   4.616   7.975  0.2079  0.4079 -0.3383
 3874SOL    HW123084   2.770   4.620   8.049 -0.6263 -1.0454 -0.9488
 3874SOL    HW223085   2.817   4.699   7.930  2.3351  0.6663 -0.5128
 3875SOL     OW23086   1.449   3.615   8.324 -0.1665  0.5430 -0.4579
 3875SOL    HW123087   1.432   3.615   8.418 -0.0652  0.6751 -0.4402
 3875SOL    HW223088   1.544   3.622   8.310  0.0733 -2.0060 -0.2217
 3876SOL     OW23089   0.867   2.441  14.092  0.2172 -0.6466 -0.3529
 3876SOL    HW123090   0.779   2.477  14.085  0.8000  1.3880  2.5220
 3876SOL    HW223091   0.896   2.442  14.000 -0.7499 -0.5413 -0.6518
 3877SOL     OW23092   0.868   0.588  15.702  0.4636  0.3641 -0.1539
 3877SOL    HW123093   0.892   0.680  15.703 -0.6308  0.6421  0.4018
 3877SOL    HW223094   0.775   0.584  15.680  1.2435 -2.4343 -2.8607
 3878SOL     OW23095   2.664   0.223   5.017 -0.1297  0.7591  0.3434
 3878SOL    HW123096   2.632   0.312   5.026 -2.0602 -0.1943  2.7935
 3878SOL    HW223097   2.650   0.194   5.107  1.1836  0.1478  0.3581
 3879SOL     OW23098   1.816   3.489  11.218 -0.0345 -0.2011  0.0333
 3879SOL    HW123099   1.804   3.540  11.298 -1.2764 -0.8897  0.2835
 3879SOL    HW223100   1.741   3.432  11.231  1.9291 -2.6368  0.5138
 3880SOL     OW23101   4.293   3.084   5.893 -0.1438 -0.0966 -0.8892
 3880SOL    HW123102   4.356   3.083   5.821 -0.6853 -1.0136 -1.3516
 3880SOL    HW223103   4.218   3.134   5.860 -0.3569  0.4587  0.4341
 3881SOL     OW23104   1.617   0.694   6.544  0.0787 -0.1674  0.4816
 3881SOL    HW123105   1.581   0.748   6.473  1.9584 -0.5637 -0.7574
 3881SOL    HW223106   1.603   0.748   6.622  0.7628 -1.6585  1.6196
 3882SOL     OW23107   4.132   4.130  13.729 -0.8621  0.1348 -0.2837
 3882SOL    HW123108   4.085   4.157  13.808 -1.2495 -1.2898 -0.0311
 3882SOL    HW223109   4.061   4.104  13.671 -1.7839 -0.1741  0.9966
 3883SOL     OW23110   1.365   1.741   5.353  0.0273 -0.2278  0.2985
 3883SOL    HW123111   1.324   1.744   5.440 -2.9085  2.4051 -1.1657
 3883SOL    HW223112   1.297   1.715   5.291  0.3304  2.1652 -1.0204
 3884SOL     OW23113   4.115   0.558  13.432 -0.3351 -0.8511 -0.2052
 3884SOL    HW123114   4.068   0.624  13.381  1.9021  0.8602 -0.0782
 3884SOL    HW223115   4.194   0.606  13.460 -1.4700 -0.0276  1.6290
 3885SOL     OW23116   3.048   0.989   4.089 -0.0777 -0.2041 -0.2973
 3885SOL    HW123117   3.094   0.983   4.005 -0.3909  1.6401 -0.6090
 3885SOL    HW223118   3.009   1.075   4.075  0.2196 -0.2293 -1.3102
 3886SOL     OW23119   2.800   4.447   5.445  0.7023  0.3164 -0.2337
 3886SOL    HW123120   2.806   4.419   5.537  1.7196  0.2825 -0.3121
 3886SOL    HW223121   2.706   4.452   5.427  1.0877 -0.9586 -2.5168
 3887SOL     OW23122   2.416   1.984   2.962  0.1263  0.3948  0.5366
 3887SOL    HW123123   2.409   1.901   3.009 -0.6316  0.5761  0.7349
 3887SOL    HW223124   2.352   1.965   2.893  0.8020 -0.2048  0.0739
 3888SOL     OW23125   0.026   4.048   8.534 -0.3181  0.0341  0.3832
 3888SOL    HW123126   0.023   3.955   8.554  0.0959 -0.3293 -1.2353
 3888SOL    HW223127   4.698   4.076   8.611  1.2521 -0.6771  1.6473
 3889SOL     OW23128   0.592   0.622  12.479 -0.1520  0.7142  0.0452
 3889SOL    HW123129   0.587   0.693  12.415  1.5952  1.5653  0.8583
 3889SOL    HW223130   0.505   0.585  12.466 -0.2709  0.9316  0.2076
 3890SOL     OW23131   3.608   4.391  11.288 -0.3330  0.8376 -0.4331
 3890SOL    HW123132   3.634   4.340  11.364 -1.7856  2.2314  0.9910
 3890SOL    HW223133   3.672   4.462  11.293  1.1659 -0.6505  1.1199
 3891SOL     OW23134   4.397   3.451   3.890  0.2838 -0.0940  0.7150
 3891SOL    HW123135   4.326   3.460   3.827  0.1590 -0.5666  0.7895
 3891SOL    HW223136   4.455   3.387   3.850 -1.1036 -0.0264 -1.3809
 3892SOL     OW23137   1.936   3.622   5.857  0.1006 -0.3950 -0.0943
 3892SOL    HW123138   1.878   3.682   5.809 -2.8169 -0.1944  3.6964
 3892SOL    HW223139   1.931   3.659   5.945  2.0218 -1.1263  0.3144
 3893SOL     OW23140   1.640   3.442  11.744  0.2801  0.0767  0.4567
 3893SOL    HW123141   1.719   3.466  11.794  1.6333 -1.6315 -0.8451
 3893SOL    HW223142   1.595   3.379  11.800  1.8819 -0.6277  0.9527
 3894SOL     OW23143   3.721   1.511   8.090 -1.0555  0.3291 -0.0216
 3894SOL    HW123144   3.809   1.547   8.077 -1.2789  1.1451  0.7741
 3894SOL    HW223145   3.695   1.548   8.175 -0.2435  0.4447  0.1764
 3895SOL     OW23146   2.183   2.941   7.590 -0.4475  0.0545 -0.2259
 3895SOL    HW123147   2.243   2.907   7.524 -2.5704  0.7355 -2.5054
 3895SOL    HW223148   2.206   2.887   7.665  0.7921  0.1712 -0.5221
 3896SOL     OW23149   1.686   3.733   0.143  0.0181  0.3959 -0.7175
 3896SOL    HW123150   1.772   3.741   0.101 -0.0643  3.2402 -0.3232
 3896SOL    HW223151   1.635   3.785   0.081 -0.5229  0.3721 -0.2922
 3897SOL     OW23152   1.020   2.285  12.931  0.2511 -0.0049  0.0316
 3897SOL    HW123153   1.017   2.347  13.004  0.3575  1.1768 -0.9465
 3897SOL    HW223154   1.023   2.201  12.975 -2.9907  0.8217  1.8107
 3898SOL     OW23155   0.455   4.694  10.776 -0.2809  0.6310 -0.2018
 3898SOL    HW123156   0.448   0.062  10.810  2.5933  0.3419  1.1517
 3898SOL    HW223157   0.538   4.689  10.729 -1.3626 -1.2828 -1.8880
 3899SOL     OW23158   0.767   2.487   8.275  0.1653 -0.0620 -0.2656
 3899SOL    HW123159   0.684   2.451   8.242 -0.2472  0.3216  0.3561
 3899SOL    HW223160   0.768   2.466   8.368 -0.6997  2.4298  0.3087
 3900SOL     OW23161   2.621   0.304  13.147  0.4741 -0.4506  0.4130
 3900SOL    HW123162   2.686   0.367  13.117 -0.8424  0.6502 -0.0657
 3900SOL    HW223163   2.620   0.327  13.240  1.7130 -0.9369  0.5556
 3901SOL     OW23164   3.818   4.563   5.698 -0.5861  0.1579  0.3444
 3901SOL    HW123165   3.899   4.613   5.710 -0.1774 -0.2648 -0.6158
 3901SOL    HW223166   3.852   4.523   5.618 -1.1012  0.5279 -0.0608
 3902SOL     OW23167   3.674   4.339   5.814 -0.1410  0.4239 -0.3671
 3902SOL    HW123168   3.704   4.418   5.769 -2.8210  1.5058 -0.2531
 3902SOL    HW223169   3.579   4.347   5.803 -0.8696 -3.0417  3.5743
 3903SOL     OW23170   2.304   3.289   2.330 -0.1931  0.4733  0.1390
 3903SOL    HW123171   2.287   3.202   2.366  1.5422 -0.3385 -0.9966
 3903SOL    HW223172   2.214   3.321   2.338  0.0728  1.3406 -0.3292
 3904SOL     OW23173   2.372   3.154   5.927 -0.6612 -0.2030 -0.0780
 3904SOL    HW123174   2.456   3.113   5.907 -0.0094  1.3727 -0.5836
 3904SOL    HW223175   2.353   3.123   6.015 -1.0474 -0.6570 -0.3137
 3905SOL     OW23176   0.417   1.361  11.361 -0.1278  0.0640  0.3442
 3905SOL    HW123177   0.459   1.445  11.341  0.2185 -0.3560 -0.7543
 3905SOL    HW223178   0.389   1.360  11.452  3.6959  0.0802  1.5172
 3906SOL     OW23179   1.342   1.397   5.411  0.1168  0.4075  0.4819
 3906SOL    HW123180   1.288   1.473   5.388  1.8019  1.5724  0.4214
 3906SOL    HW223181   1.328   1.399   5.506 -0.3261 -2.2191  0.4769
 3907SOL     OW23182   2.710   1.778   6.278  0.3037 -0.6308 -0.0214
 3907SOL    HW123183   2.679   1.702   6.328  0.3400  0.4240  1.5908
 3907SOL    HW223184   2.629   1.811   6.241  1.8720  0.2975 -2.6216
 3908SOL     OW23185   4.526   4.191   7.435  0.0500  0.0338 -0.9618
 3908SOL    HW123186   4.551   4.204   7.527 -0.3940 -0.5142 -0.7626
 3908SOL    HW223187   4.565   4.272   7.402  2.5237 -0.6013  0.3306
 3909SOL     OW23188   1.452   0.146   6.227 -0.1743  0.5026  0.4923
 3909SOL    HW123189   1.507   0.213   6.268  3.2193 -1.6397 -0.5488
 3909SOL    HW223190   1.366   0.188   6.229 -1.0154 -1.0896 -2.4552
 3910SOL     OW23191   1.711   1.075  11.788  0.2794  0.1571 -0.0162
 3910SOL    HW123192   1.644   1.141  11.807  2.0695  1.5827  1.3785
 3910SOL    HW223193   1.660   0.997  11.768 -0.3890  0.5790  0.0585
 3911SOL     OW23194   1.932   4.650   7.846  0.4935  0.0876 -0.1991
 3911SOL    HW123195   1.995   4.578   7.856  0.9641  1.2221  4.6406
 3911SOL    HW223196   1.985   0.006   7.862  0.9694 -0.0027 -1.3484
 3912SOL     OW23197   1.578   2.082   4.641 -0.0075 -0.2832  0.3577
 3912SOL    HW123198   1.524   2.131   4.703 -1.1408 -2.3884  1.0534
 3912SOL    HW223199   1.664   2.106   4.676  1.1217 -2.3294 -0.9776
 3913SOL     OW23200   3.350   1.922   7.316  0.1946  0.3195  0.0846
 3913SOL    HW123201   3.326   1.871   7.394 -1.0163 -0.9257 -1.1056
 3913SOL    HW223202   3.433   1.881   7.290  0.4736  0.7145  0.3343
 3914SOL     OW23203   2.969   1.222   3.278  0.4086  0.8819  0.4667
 3914SOL    HW123204   2.918   1.184   3.350 -1.9562 -0.2503 -1.8065
 3914SOL    HW223205   2.905   1.275   3.230 -0.6861  1.1134  2.1855
 3915SOL     OW23206   2.081   2.023   6.985 -0.0885 -0.3581 -0.2362
 3915SOL    HW123207   2.132   1.944   7.005  0.8797  0.3000 -0.0557
 3915SOL    HW223208   2.156   2.077   6.960 -1.4328  0.7695 -1.8041
 3916SOL     OW23209   0.686   3.023   2.704  0.0433 -0.4317  0.2890
 3916SOL    HW123210   0.745   2.983   2.768  2.0480  0.2233 -1.1472
 3916SOL    HW223211   0.645   2.942   2.674  0.4997  0.2814 -2.1781
 3917SOL     OW23212   3.530   0.292  10.731  0.3096 -0.0739  0.2689
 3917SOL    HW123213   3.565   0.345  10.803  0.6782  1.7826 -1.2528
 3917SOL    HW223214   3.481   0.228  10.782 -0.5645 -0.1927 -0.7270
 3918SOL     OW23215   2.885   4.415   7.792 -0.0386  0.1412 -0.0469
 3918SOL    HW123216   2.802   4.383   7.757 -0.5642  0.9528  0.4508
 3918SOL    HW223217   2.854   4.500   7.823  2.1232  1.2509 -0.9076
 3919SOL     OW23218   2.942   4.373   6.169 -0.1649 -0.5521  1.0588
 3919SOL    HW123219   2.849   4.351   6.161 -0.4909  1.1581  0.1828
 3919SOL    HW223220   2.931   4.388   6.263  1.6268  2.2487  0.8229
 3920SOL     OW23221   1.398   1.100  13.868 -0.6294  0.6270  0.7137
 3920SOL    HW123222   1.423   1.180  13.913  0.9769  0.4416  0.1692
 3920SOL    HW223223   1.454   1.031  13.905 -1.2524 -1.1480 -1.6487
 3921SOL     OW23224   4.448   4.554  17.282  0.2269  0.0085  0.0666
 3921SOL    HW123225   4.356   4.537  17.300  0.2818  1.3191  1.5966
 3921SOL    HW223226   4.493   4.474  17.311 -0.8120  0.6194  3.3675
 3922SOL     OW23227   4.244   1.641   3.577 -0.3620  0.1016 -0.5572
 3922SOL    HW123228   4.275   1.625   3.666 -1.4534 -1.7605 -0.5129
 3922SOL    HW223229   4.326   1.654   3.528  0.1915  0.0105  0.3435
 3923SOL     OW23230   3.689   0.249   7.459  0.4951 -0.6256  0.1820
 3923SOL    HW123231   3.725   0.224   7.374  1.2719 -0.2299  0.3926
 3923SOL    HW223232   3.726   0.176   7.508  2.3848 -1.3668 -2.3687
 3924SOL     OW23233   4.049   2.892   5.146 -0.7348  0.0643  0.0168
 3924SOL    HW123234   4.052   2.859   5.056 -0.3350 -1.9182  0.7571
 3924SOL    HW223235   4.006   2.821   5.194  1.0399 -0.7044  0.4446
 3925SOL     OW23236   1.804   3.153  10.587  0.4157  0.1472  0.5969
 3925SOL    HW123237   1.898   3.168  10.597  0.6419 -2.1942  1.8334
 3925SOL    HW223238   1.796   3.071  10.634 -1.1992  0.1682  0.3507
 3926SOL     OW23239   0.708   3.175   3.940 -0.2484 -0.1288 -0.6015
 3926SOL    HW123240   0.720   3.228   4.019  2.4161 -2.1759  0.3614
 3926SOL    HW223241   0.799   3.153   3.923  0.4466  2.6522 -0.5890
 3927SOL     OW23242   2.554   0.461  14.931 -0.3456  0.5225  0.1371
 3927SOL    HW123243   2.564   0.471  15.025  0.0481  1.7363 -0.0368
 3927SOL    HW223244   2.575   0.369  14.914 -0.9456  0.4326 -0.1172
 3928SOL     OW23245   3.738   3.428  11.340 -0.6379  0.7308  0.3733
 3928SOL    HW123246   3.799   3.497  11.366  1.4554 -0.9800 -0.0019
 3928SOL    HW223247   3.722   3.382  11.423 -3.1427 -1.6411 -1.3986
 3929SOL     OW23248   1.626   1.303   7.789 -0.0683 -0.9020  0.4075
 3929SOL    HW123249   1.613   1.397   7.775  0.8390 -0.6440  1.2991
 3929SOL    HW223250   1.654   1.277   7.702 -1.4790 -0.7846 -0.0847
 3930SOL     OW23251   0.069   3.329  12.021 -0.3709  0.9507 -0.1816
 3930SOL    HW123252   0.154   3.364  11.995 -0.7504  2.7961  1.0265
 3930SOL    HW223253   0.096   3.283  12.100 -2.4130 -0.9992 -0.6184
 3931SOL     OW23254   2.513   0.720   5.184 -0.0794  0.3287  0.2987
 3931SOL    HW123255   2.419   0.705   5.182  0.2555 -1.9329  1.3667
 3931SOL    HW223256   2.511   0.815   5.189  0.5116  0.4002 -0.7581
 3932SOL     OW23257   0.410   4.474  12.147  0.3909  0.3651 -0.3468
 3932SOL    HW123258   0.441   4.487  12.057 -0.4005  1.5476 -0.4488
 3932SOL    HW223259   0.326   4.519  12.154  0.2773 -0.0991  1.1165
 3933SOL     OW23260   0.467   2.063  12.467  0.3794  0.0145 -0.3190
 3933SOL    HW123261   0.417   2.116  12.405 -2.1415 -1.9799 -0.0119
 3933SOL    HW223262   0.399   2.004  12.499 -0.1020  1.5771  1.5351
 3934SOL     OW23263   3.200   4.322   4.532 -0.1482 -0.3215 -0.3726
 3934SOL    HW123264   3.227   4.286   4.447 -0.4297  1.1156 -1.0682
 3934SOL    HW223265   3.142   4.393   4.505 -0.0816  0.3073  1.1569
 3935SOL     OW23266   4.600   4.707  12.958 -0.1610  0.2496 -0.8528
 3935SOL    HW123267   4.638   4.648  12.893 -2.8378 -1.5375 -0.8207
 3935SOL    HW223268   4.511   4.671  12.957  0.1009 -0.3892 -1.1155
 3936SOL     OW23269   2.067   3.836   9.567  0.2644  0.1544  1.0378
 3936SOL    HW123270   2.129   3.772   9.600  0.3882  0.8739  2.1999
 3936SOL    HW223271   1.994   3.809   9.623 -0.4145  0.2068  0.1825
 3937SOL     OW23272   3.772   0.385   2.523  0.4285  0.2488 -0.0380
 3937SOL    HW123273   3.684   0.349   2.530 -0.2304  1.9655  0.5206
 3937SOL    HW223274   3.749   0.466   2.479  0.6568 -0.8915 -2.2346
 3938SOL     OW23275   0.640   0.052   4.064 -0.3140 -0.1918 -0.1864
 3938SOL    HW123276   0.707   4.714   4.096  0.6768  1.1684  0.2890
 3938SOL    HW223277   0.597   0.065   4.148  2.9845  1.0498  1.3136
 3939SOL     OW23278   1.064   3.098   4.139  0.3787  0.5100  0.0014
 3939SOL    HW123279   1.026   3.114   4.225 -2.1977  0.1247 -1.0553
 3939SOL    HW223280   1.055   3.003   4.131 -1.0793  0.6407  0.1070
 3940SOL     OW23281   3.790   1.767   3.277  0.4486  0.0044 -0.5165
 3940SOL    HW123282   3.783   1.850   3.325  0.3294  0.1624 -0.8122
 3940SOL    HW223283   3.727   1.707   3.317 -1.1169  0.4856 -2.2695
 3941SOL     OW23284   2.535   0.093   8.739  0.1652  0.1724  0.3827
 3941SOL    HW123285   2.552   0.168   8.795  0.3393 -0.0800  0.6700
 3941SOL    HW223286   2.489   0.040   8.805 -0.5373  0.1177 -0.1493
 3942SOL     OW23287   2.025   2.989   7.935 -0.1315  0.2315  0.3252
 3942SOL    HW123288   1.965   2.999   8.008  1.6355  1.9763  1.5329
 3942SOL    HW223289   2.103   2.967   7.987  0.3207 -0.5008 -0.6415
 3943SOL     OW23290   4.676   1.838   6.168  0.2394  0.3447 -0.5262
 3943SOL    HW123291   4.670   1.743   6.176  0.1360  0.5333  1.7067
 3943SOL    HW223292   0.015   1.844   6.094 -0.6278 -1.1146 -1.3480
 3944SOL     OW23293   1.223   4.163   2.696 -0.7212  0.0332  0.1142
 3944SOL    HW123294   1.292   4.180   2.759 -2.5720 -0.0473  2.1646
 3944SOL    HW223295   1.168   4.240   2.711  0.2947  0.9407 -0.8764
 3945SOL     OW23296   3.147   4.383   4.159  0.1912  0.2236 -0.2991
 3945SOL    HW123297   3.067   4.335   4.181 -0.0266  0.2960 -0.9429
 3945SOL    HW223298   3.113   4.457   4.109 -0.6653 -0.1942 -0.3460
 3946SOL     OW23299   1.687   1.309   5.738 -0.1538  0.0163 -0.4801
 3946SOL    HW123300   1.703   1.252   5.812 -0.6747 -0.1292 -0.4796
 3946SOL    HW223301   1.657   1.252   5.667  1.7928 -0.9160 -0.5441
 3947SOL     OW23302   3.501   2.843   9.636  0.6600 -0.2020  0.3194
 3947SOL    HW123303   3.490   2.933   9.668  1.7818  0.3218 -0.7428
 3947SOL    HW223304   3.496   2.854   9.541 -1.4436 -0.9761  0.3496
 3948SOL     OW23305   1.589   2.419   5.443  0.6172  0.5411 -0.1780
 3948SOL    HW123306   1.671   2.381   5.472  0.3839  0.9778  1.0318
 3948SOL    HW223307   1.604   2.514   5.447  0.8387  0.4468  0.9436
 3949SOL     OW23308   3.183   0.570   7.445 -0.3365 -0.4120 -0.1885
 3949SOL    HW123309   3.136   0.595   7.524  1.4876  0.5768  0.5717
 3949SOL    HW223310   3.252   0.510   7.472  0.6690  1.6556  1.7632
 3950SOL     OW23311   2.416   4.480   2.242  0.6139 -0.3427  0.6556
 3950SOL    HW123312   2.378   4.394   2.262 -1.9022  0.0514 -2.5621
 3950SOL    HW223313   2.498   4.461   2.287  0.8325  1.3791  0.9791
 3951SOL     OW23314   4.712   2.050   7.863  0.5773  0.1616 -0.0225
 3951SOL    HW123315   0.028   2.096   7.788 -2.3897  3.7565  0.7208
 3951SOL    HW223316   4.622   2.082   7.854  1.2089  1.4412 -1.8990
 3952SOL     OW23317   2.700   3.806   7.321  0.1488 -0.3014 -0.0820
 3952SOL    HW123318   2.719   3.717   7.351 -1.5418 -0.4531  0.5389
 3952SOL    HW223319   2.790   3.838   7.310  0.7208 -2.0808 -0.5554
 3953SOL     OW23320   2.761   3.196  14.861  0.4826 -0.1483 -0.0693
 3953SOL    HW123321   2.760   3.206  14.766  1.8519 -0.8684 -0.1640
 3953SOL    HW223322   2.758   3.101  14.869 -0.5530 -0.2943 -2.3981
 3954SOL     OW23323   1.389   1.309   8.840 -0.1743  0.3577  0.1641
 3954SOL    HW123324   1.417   1.335   8.752 -0.3539 -1.2726 -0.3800
 3954SOL    HW223325   1.433   1.373   8.896  0.9502  0.6387 -1.0187
 3955SOL     OW23326   0.632   1.670  16.236  0.3921  0.4792  0.1147
 3955SOL    HW123327   0.643   1.589  16.186 -0.5801  1.2968 -1.4448
 3955SOL    HW223328   0.606   1.726  16.162  2.6101  0.0627 -0.9908
 3956SOL     OW23329   0.299   4.361  11.547  0.4194  0.6484  0.5019
 3956SOL    HW123330   0.313   4.455  11.560 -2.0301  1.3334 -1.7015
 3956SOL    HW223331   0.218   4.334  11.590 -0.8503  0.9462 -1.6827
 3957SOL     OW23332   4.604   2.503   5.687  0.0559  0.1041  0.2937
 3957SOL    HW123333   4.568   2.436   5.628  1.2862  0.3402 -0.7295
 3957SOL    HW223334   4.630   2.442   5.756 -0.8015  0.0127  0.5404
 3958SOL     OW23335   2.125   1.438   7.227 -0.1044 -0.4028 -0.3090
 3958SOL    HW123336   2.185   1.448   7.301  1.6095  0.1917 -1.7608
 3958SOL    HW223337   2.042   1.441   7.273 -1.1141 -0.6078 -2.1140
 3959SOL     OW23338   2.329   3.559   6.770  0.0936 -0.2320 -0.1690
 3959SOL    HW123339   2.418   3.532   6.748 -0.3429  0.9364 -3.3939
 3959SOL    HW223340   2.327   3.514   6.854  0.7155  2.1289  1.1022
 3960SOL     OW23341   3.915   0.604  10.486 -0.7328 -0.1643  0.2061
 3960SOL    HW123342   3.966   0.685  10.478  0.0469 -0.7748 -0.9991
 3960SOL    HW223343   3.978   0.533  10.472 -1.6016 -0.9654  0.3953
 3961SOL     OW23344   1.515   1.983  12.308  0.1279  0.2897  0.3024
 3961SOL    HW123345   1.599   2.025  12.325  0.2813 -0.2389  0.8353
 3961SOL    HW223346   1.526   1.908  12.366  0.9356  0.2116  0.0510
 3962SOL     OW23347   1.141   4.350   4.122 -0.0588  0.0946 -0.0671
 3962SOL    HW123348   1.059   4.371   4.078  0.9372  1.3101 -1.3273
 3962SOL    HW223349   1.109   4.331   4.210 -0.3737 -0.3074 -0.2694
 3963SOL     OW23350   2.287   3.146   8.922 -0.3015  0.4345  0.5005
 3963SOL    HW123351   2.362   3.095   8.950 -0.3265  0.0032 -0.2199
 3963SOL    HW223352   2.245   3.169   9.005 -2.0569 -1.4622  0.1468
 3964SOL     OW23353   1.707   3.535   8.675  0.1781 -0.0335  0.4661
 3964SOL    HW123354   1.668   3.543   8.588  1.1715  0.8951  0.0924
 3964SOL    HW223355   1.721   3.440   8.678 -2.1127 -0.4100 -0.9589
 3965SOL     OW23356   0.558   3.398   6.901  0.3115 -0.1071  0.1197
 3965SOL    HW123357   0.588   3.316   6.940 -1.0179 -0.2937  0.7478
 3965SOL    HW223358   0.469   3.369   6.883  0.8305 -0.9595 -1.0324
 3966SOL     OW23359   0.582   2.689   5.259  0.0019 -0.1491  0.3053
 3966SOL    HW123360   0.516   2.621   5.276  0.8413 -0.9283  0.5002
 3966SOL    HW223361   0.520   2.755   5.231 -1.0258 -1.8518 -1.4074
 3967SOL     OW23362   4.037   1.367  12.598  0.0866 -0.2856 -0.2769
 3967SOL    HW123363   4.132   1.357  12.594  0.5139  3.0299  1.5196
 3967SOL    HW223364   4.035   1.461  12.616 -1.5468 -0.5198  0.7927
 3968SOL     OW23365   0.803   2.156  12.159  0.3545  0.4148 -0.0556
 3968SOL    HW123366   0.849   2.214  12.098  0.5858 -1.8059 -1.9763
 3968SOL    HW223367   0.733   2.217  12.183 -2.0702 -1.9984 -0.9546
 3969SOL     OW23368   3.162   0.183   7.505  0.3114 -0.1974  0.1756
 3969SOL    HW123369   3.099   0.181   7.433 -1.8530 -2.0603  2.1390
 3969SOL    HW223370   3.102   0.203   7.577  0.9725 -2.1497  1.2487
 3970SOL     OW23371   4.660   0.147   6.993 -0.5473  0.3712  0.4560
 3970SOL    HW123372   4.668   0.055   6.967 -0.1679 -0.0289  2.0024
 3970SOL    HW223373   4.624   0.190   6.915 -1.6883 -0.2018  0.6478
 3971SOL     OW23374   0.289   0.344   7.937 -0.0939 -0.0523  0.0366
 3971SOL    HW123375   0.302   0.249   7.936 -0.8455 -0.1162 -3.1055
 3971SOL    HW223376   0.194   0.347   7.947 -0.1027  1.4267 -0.5819
 3972SOL     OW23377   2.744   3.372   1.879 -0.0836 -0.3037 -0.0923
 3972SOL    HW123378   2.795   3.453   1.879  1.4983 -1.3077 -0.2895
 3972SOL    HW223379   2.661   3.406   1.845  0.4791  0.7259 -0.4323
 3973SOL     OW23380   3.352   3.893   8.877 -0.8413 -0.8747 -0.0798
 3973SOL    HW123381   3.298   3.884   8.799 -1.0660  0.4174 -0.0799
 3973SOL    HW223382   3.279   3.873   8.935 -1.0754 -0.8511 -0.3684
 3974SOL     OW23383   0.013   1.910  14.620  0.3726  0.1945  0.1456
 3974SOL    HW123384   0.028   1.835  14.564 -1.9330 -0.1737  0.0013
 3974SOL    HW223385   4.640   1.909  14.635  0.1864  2.5168 -0.7962
 3975SOL     OW23386   3.743   1.654   4.422 -0.4154  0.1286 -0.7480
 3975SOL    HW123387   3.738   1.738   4.468  0.7242  1.2451 -2.6657
 3975SOL    HW223388   3.833   1.651   4.391 -0.3631  0.6362 -0.6403
 3976SOL     OW23389   0.817   0.494  11.525  0.1757  0.4918 -0.0743
 3976SOL    HW123390   0.789   0.539  11.605  1.0049  1.4694 -0.3365
 3976SOL    HW223391   0.909   0.520  11.524 -0.1434  1.6834  1.0108
 3977SOL     OW23392   4.094   3.122   7.280  0.9385  0.0034  0.5431
 3977SOL    HW123393   4.092   3.199   7.224 -2.9034 -1.1380 -0.9297
 3977SOL    HW223394   4.008   3.111   7.321  0.7123  0.0541  0.0835
 3978SOL     OW23395   4.265   2.423   6.595 -0.3647  0.2658  0.0606
 3978SOL    HW123396   4.240   2.499   6.543 -1.7453  1.2354  2.1143
 3978SOL    HW223397   4.194   2.426   6.659  1.2517 -0.2913  1.8788
 3979SOL     OW23398   4.477   0.356   6.742  0.0470  0.1181  0.0765
 3979SOL    HW123399   4.516   0.285   6.692 -0.3073 -0.4135  0.5534
 3979SOL    HW223400   4.408   0.382   6.681 -0.5987 -2.1528 -0.1776
 3980SOL     OW23401   2.016   0.566  12.953  0.1542  0.0543 -0.1277
 3980SOL    HW123402   1.955   0.542  13.022  2.5994 -0.1097  1.9863
 3980SOL    HW223403   2.068   0.631  13.000  1.1942  0.0871 -1.3328
 3981SOL     OW23404   2.899   1.298   9.556 -0.7079 -0.3503  0.3221
 3981SOL    HW123405   2.889   1.255   9.640 -0.6604  0.6985  0.8637
 3981SOL    HW223406   2.990   1.325   9.551 -0.2031 -2.0473  0.7430
 3982SOL     OW23407   0.623   3.491   5.030  0.5078 -0.1929  0.0935
 3982SOL    HW123408   0.704   3.472   5.076 -0.2337  0.9649  1.8553
 3982SOL    HW223409   0.610   3.409   4.983  1.5366 -0.2384 -0.1025
 3983SOL     OW23410   4.501   1.619   2.896 -0.5756  0.3514  0.4441
 3983SOL    HW123411   4.500   1.642   2.803  1.6304  1.6547  0.7753
 3983SOL    HW223412   4.431   1.671   2.936 -2.1956 -2.0709  0.7923
 3984SOL     OW23413   2.422   2.988  12.516  0.0528 -0.3622  0.2836
 3984SOL    HW123414   2.329   2.971  12.506 -0.2194  1.1466  0.3004
 3984SOL    HW223415   2.459   2.900  12.505  0.6937 -0.2231  1.3090
 3985SOL     OW23416   1.477   4.633   2.793 -0.0320  0.0937 -0.1642
 3985SOL    HW123417   1.384   4.628   2.814  0.0861 -1.9023 -0.1409
 3985SOL    HW223418   1.488   0.004   2.771 -0.7715  0.5561  1.3744
 3986SOL     OW23419   3.095   4.036   9.176 -0.9568 -0.2880  0.2739
 3986SOL    HW123420   3.188   4.059   9.177 -0.7110 -1.4395  3.4046
 3986SOL    HW223421   3.106   3.973   9.104  1.8318  0.9963 -0.4212
 3987SOL     OW23422   1.413   3.886   3.576 -0.5148  0.5004 -0.0975
 3987SOL    HW123423   1.443   3.959   3.521  3.0586 -0.3834  0.7505
 3987SOL    HW223424   1.439   3.924   3.660 -0.6355 -2.6235  1.3697
 3988SOL     OW23425   0.454   1.518   5.904  0.0181 -0.0847  0.2113
 3988SOL    HW123426   0.521   1.559   5.959  0.1108 -0.4514  0.3731
 3988SOL    HW223427   0.375   1.569   5.921  0.6639  1.2867 -0.9001
 3989SOL     OW23428   4.059   0.209   9.676  0.1314 -0.1845 -0.5434
 3989SOL    HW123429   4.035   0.196   9.767  0.0306  1.1907 -0.3714
 3989SOL    HW223430   4.138   0.157   9.661 -1.2227 -2.6120  0.6115
 3990SOL     OW23431   3.003   2.769  12.863 -0.6409  0.3806  0.2434
 3990SOL    HW123432   3.041   2.803  12.944 -2.8979  0.8268  1.1363
 3990SOL    HW223433   3.038   2.827  12.796 -0.7527 -1.4195 -1.3540
 3991SOL     OW23434   1.701   0.187  17.662 -0.1543  0.3574 -0.1461
 3991SOL    HW123435   1.754   0.238   0.034  1.1157 -3.7070  2.1697
 3991SOL    HW223436   1.770   0.142  17.613  0.3128  0.4254  0.4433
 3992SOL     OW23437   2.531   2.490  13.860  0.1552 -0.1619 -0.3801
 3992SOL    HW123438   2.446   2.509  13.821  0.6437  2.6912 -0.0237
 3992SOL    HW223439   2.580   2.499  13.778  0.6393 -0.0545 -0.0741
 3993SOL     OW23440   1.263   1.325   6.023  0.6365  0.0063  0.0090
 3993SOL    HW123441   1.185   1.325   5.967  1.5429 -2.3861 -1.2555
 3993SOL    HW223442   1.308   1.244   5.996  3.8662  1.8912 -0.2166
 3994SOL     OW23443   3.590   1.506   4.187 -0.4734  0.2843 -0.2754
 3994SOL    HW123444   3.544   1.474   4.109 -0.3746  0.5633 -0.4462
 3994SOL    HW223445   3.676   1.465   4.182 -0.9439 -0.5386 -1.6724
 3995SOL     OW23446   1.789   3.021   3.402  0.3402 -0.0815  0.5177
 3995SOL    HW123447   1.847   2.948   3.423  0.1409 -1.3482 -3.3920
 3995SOL    HW223448   1.707   2.981   3.429  0.5074 -0.1766  0.8852
 3996SOL     OW23449   0.391   2.662  14.139 -0.2287  0.1571  0.0609
 3996SOL    HW123450   0.311   2.612  14.125 -0.0801 -0.0392 -0.0873
 3996SOL    HW223451   0.412   2.641  14.230  1.4571 -0.7452 -0.5362
 3997SOL     OW23452   3.057   4.245   7.940  0.1127 -0.1894 -0.6791
 3997SOL    HW123453   2.989   4.278   7.881 -1.5724  1.5271  2.2552
 3997SOL    HW223454   3.115   4.320   7.926 -0.5513  0.2769 -0.9319
 3998SOL     OW23455   3.731   2.176  16.162 -0.5630  0.0459  0.3806
 3998SOL    HW123456   3.717   2.238  16.234  0.4613 -1.0855  1.5654
 3998SOL    HW223457   3.826   2.186  16.154 -0.6574 -0.8830 -1.7008
 3999SOL     OW23458   0.505   3.798  17.669  0.1118 -0.3774 -0.7861
 3999SOL    HW123459   0.597   3.823  17.662 -0.1724  0.9939  0.5345
 3999SOL    HW223460   0.476   3.826  17.582  2.2631  0.1372 -1.3302
 4000SOL     OW23461   1.765   4.591  14.183 -0.3603 -0.4325 -0.1719
 4000SOL    HW123462   1.680   4.622  14.216 -0.4141  1.2603 -1.8905
 4000SOL    HW223463   1.739   4.500  14.176 -0.6727 -0.3540 -0.0351
 4001SOL     OW23464   3.752   0.780  10.633 -0.3508 -0.6554 -0.0052
 4001SOL    HW123465   3.813   0.718  10.595 -0.6826  0.3557 -2.2165
 4001SOL    HW223466   3.696   0.720  10.683  1.4302 -1.3117  1.1806
 4002SOL     OW23467   2.909   2.536   6.408  0.8051  0.1603  0.1550
 4002SOL    HW123468   2.941   2.446   6.399 -0.7898 -0.4554  0.6751
 4002SOL    HW223469   2.889   2.539   6.502  0.8895  2.4383  0.0903
 4003SOL     OW23470   2.388   4.518  14.865 -0.4188  0.1732  0.3846
 4003SOL    HW123471   2.475   4.558  14.860 -1.2725  1.8454 -1.0657
 4003SOL    HW223472   2.405   4.434  14.823  1.9793  0.0040  1.6747
 4004SOL     OW23473   4.588   1.771   6.528  0.4076  0.0958 -0.3901
 4004SOL    HW123474   4.619   1.799   6.614  3.0958 -0.1372 -1.2995
 4004SOL    HW223475   4.598   1.677   6.535  0.9021  0.3333  2.0513
 4005SOL     OW23476   0.876   1.053   8.881 -0.4903  0.7541 -0.4676
 4005SOL    HW123477   0.962   1.068   8.840  1.2271 -1.5040  2.2796
 4005SOL    HW223478   0.838   1.137   8.908 -0.4509  0.7097 -0.2681
 4006SOL     OW23479   2.311   1.939   5.705 -0.1894  0.3054 -0.1303
 4006SOL    HW123480   2.400   1.905   5.704 -0.1754  0.3627 -1.0586
 4006SOL    HW223481   2.256   1.878   5.656  1.7745 -1.5108 -0.0498
 4007SOL     OW23482   1.220   0.036   2.671  0.3988  0.6006  0.5018
 4007SOL    HW123483   1.133   0.030   2.710  0.5860 -0.2976  0.7814
 4007SOL    HW223484   1.264   0.068   2.750  0.6555 -0.3231  0.7429
 4008SOL     OW23485   3.615   4.721  10.711  0.6978  0.2323 -0.5001
 4008SOL    HW123486   3.703   0.013  10.744  0.1999  2.9709 -0.2725
 4008SOL    HW223487   3.581   4.671  10.785 -2.7003  0.8257 -1.6068
 4009SOL     OW23488   2.103   1.861   2.949  0.5356  0.1469 -0.2551
 4009SOL    HW123489   2.152   1.914   3.011  0.4488 -0.6984  0.5498
 4009SOL    HW223490   2.016   1.840   2.984 -1.1586  2.3845 -3.0965
 4010SOL     OW23491   3.827   3.775   8.617 -0.3833 -0.5768 -0.6400
 4010SOL    HW123492   3.817   3.870   8.621 -0.1173 -0.6575  1.8687
 4010SOL    HW223493   3.787   3.745   8.699  0.9953 -1.2573 -0.2267
 4011SOL     OW23494   2.970   0.751  12.268 -0.0036 -0.9017  0.7128
 4011SOL    HW123495   2.888   0.780  12.307 -0.6576 -0.4887 -0.9917
 4011SOL    HW223496   3.031   0.824  12.284 -1.2710  0.6959 -1.7855
 4012SOL     OW23497   3.791   0.100   4.254  0.4320  0.0500  0.4982
 4012SOL    HW123498   3.816   0.059   4.336  0.7112 -0.1038  0.3361
 4012SOL    HW223499   3.870   0.086   4.202  0.1286  0.9616 -0.2181
 4013SOL     OW23500   1.891   1.037   7.874  0.1970 -0.2431 -0.2012
 4013SOL    HW123501   1.864   0.961   7.822 -0.9152  1.4384 -2.1174
 4013SOL    HW223502   1.815   1.041   7.931 -0.7983  1.0035 -1.6023
 4014SOL     OW23503   1.331   1.109   3.330  0.4123  0.6456 -0.2001
 4014SOL    HW123504   1.250   1.155   3.351 -0.2242 -1.3862  1.8333
 4014SOL    HW223505   1.379   1.135   3.409  2.4281  2.1896 -1.9136
 4015SOL     OW23506   4.185   0.582   8.690  0.7531 -0.0516  0.6327
 4015SOL    HW123507   4.265   0.633   8.676 -1.3619  3.5273  1.6281
 4015SOL    HW223508   4.199   0.538   8.774  0.6321 -2.7261 -0.7523
 4016SOL     OW23509   3.701   4.046   4.159  0.2658 -0.7760 -0.0347
 4016SOL    HW123510   3.677   4.088   4.241  1.0166 -0.6822  0.1324
 4016SOL    HW223511   3.629   4.071   4.101 -1.0299 -0.2364  1.8042
 4017SOL     OW23512   1.721   1.747   4.720 -0.0239 -0.5461 -0.0372
 4017SOL    HW123513   1.757   1.692   4.791  1.5732 -0.2073 -0.5835
 4017SOL    HW223514   1.733   1.688   4.646  2.1337 -2.3612  1.7437
 4018SOL     OW23515   2.894   1.680  14.548 -0.2062  0.0937  0.5893
 4018SOL    HW123516   2.799   1.688  14.546 -0.2020 -0.7617 -2.4864
 4018SOL    HW223517   2.922   1.714  14.633  0.6900  2.1909 -0.5481
 4019SOL     OW23518   4.336   3.175   8.273  0.4915  0.0501  0.1408
 4019SOL    HW123519   4.336   3.138   8.361 -0.5672  0.2746  0.2253
 4019SOL    HW223520   4.332   3.094   8.222  0.3784 -0.2047  0.5512
 4020SOL     OW23521   0.005   3.959   1.800 -0.9258  0.1815  0.4941
 4020SOL    HW123522   0.091   3.991   1.829 -0.3842  1.5827 -2.6630
 4020SOL    HW223523   4.721   3.996   1.712  3.2331 -0.3517 -0.0367
 4021SOL     OW23524   3.922   1.920   9.531 -0.4250 -0.0206 -0.5470
 4021SOL    HW123525   3.974   1.844   9.505  2.8616  1.0026  2.9402
 4021SOL    HW223526   3.907   1.946   9.441 -0.9565 -2.8345 -1.2720
 4022SOL     OW23527   1.669   0.077   5.450 -0.3339 -0.0066 -0.3099
 4022SOL    HW123528   1.608   0.046   5.517 -0.2733  0.6333  0.0397
 4022SOL    HW223529   1.683   4.721   5.396  2.5439 -0.4898  1.1517
 4023SOL     OW23530   2.346   3.241   3.526  0.1582 -0.4900  0.7490
 4023SOL    HW123531   2.319   3.208   3.440 -1.0337  2.2798  0.0572
 4023SOL    HW223532   2.341   3.337   3.527  2.6853 -0.3619 -0.5077
 4024SOL     OW23533   0.971   0.851   3.686  0.1784  0.3762  0.1732
 4024SOL    HW123534   0.933   0.917   3.744 -1.0659  2.8324 -3.4370
 4024SOL    HW223535   1.036   0.910   3.648  0.6847  0.9317  1.9127
 4025SOL     OW23536   0.454   4.178   0.198  0.0235 -0.0438 -0.0124
 4025SOL    HW123537   0.411   4.202   0.116 -1.2879  0.6214  0.8726
 4025SOL    HW223538   0.386   4.137   0.252  0.5423 -0.7543  0.0881
 4026SOL     OW23539   1.906   2.685   7.735  0.0762  0.1219  0.3060
 4026SOL    HW123540   1.912   2.621   7.805  0.7593 -1.8107 -1.5341
 4026SOL    HW223541   1.823   2.660   7.694  1.0258 -1.0647 -0.9216
 4027SOL     OW23542   0.705   2.993   8.167 -0.3234  0.3108 -0.0014
 4027SOL    HW123543   0.679   2.904   8.146  1.6446 -0.1962 -0.2825
 4027SOL    HW223544   0.644   3.040   8.109  0.3989 -0.3321 -1.2683
 4028SOL     OW23545   2.986   1.059   3.080 -0.0483  0.2867 -0.0809
 4028SOL    HW123546   2.983   1.105   3.163  1.0960  1.5887 -0.7662
 4028SOL    HW223547   3.075   1.030   3.102  0.0993  0.6564 -0.1943
 4029SOL     OW23548   2.899   4.666  13.594 -0.1332 -0.4755  0.3724
 4029SOL    HW123549   2.860   4.605  13.531 -1.2049  4.0736 -3.4529
 4029SOL    HW223550   2.971   4.606  13.610  1.9431  1.7513 -0.6450
 4030SOL     OW23551   3.925   0.919   2.352 -0.5360  0.2596  0.0775
 4030SOL    HW123552   3.927   0.870   2.435  0.9558 -0.2988 -0.2863
 4030SOL    HW223553   3.846   0.971   2.365 -0.0957  1.0569 -0.4363
 4031SOL     OW23554   2.976   3.941   0.706  1.1516  0.3112 -0.3344
 4031SOL    HW123555   2.998   3.908   0.618  0.3016  2.4762 -1.3613
 4031SOL    HW223556   2.890   3.983   0.698  0.9765  0.0124 -0.0257
 4032SOL     OW23557   0.454   0.681  10.593 -0.5326 -0.1714  0.0697
 4032SOL    HW123558   0.378   0.715  10.640  1.0419  0.2928  2.2733
 4032SOL    HW223559   0.422   0.674  10.502  0.8588  1.8093 -0.5718
 4033SOL     OW23560   0.411   0.224   6.573 -0.7185 -0.3188 -0.4586
 4033SOL    HW123561   0.418   0.252   6.664  1.9230 -1.2229 -0.3725
 4033SOL    HW223562   0.452   0.296   6.526 -0.7389  0.8958  1.3863
 4034SOL     OW23563   3.690   2.839   5.367  0.0853  0.2119 -0.5241
 4034SOL    HW123564   3.689   2.928   5.332 -2.1915  1.6017  3.0968
 4034SOL    HW223565   3.779   2.817   5.337  0.3536  0.3805  0.1492
 4035SOL     OW23566   2.530   0.926   5.740  0.0310 -0.4490  0.2465
 4035SOL    HW123567   2.534   0.845   5.790 -0.5948 -1.1093 -0.7827
 4035SOL    HW223568   2.529   0.890   5.651  3.1573  2.5841 -1.0368
 4036SOL     OW23569   0.125   4.373   5.590 -0.0372  0.3437 -0.6552
 4036SOL    HW123570   0.195   4.436   5.570 -0.1553  0.7596  0.2440
 4036SOL    HW223571   0.132   4.313   5.517 -1.1177 -0.7981  0.1910
 4037SOL     OW23572   4.632   0.188  15.637  0.0535  0.1292 -0.0254
 4037SOL    HW123573   4.657   0.147  15.720  0.4529  0.0127 -0.1988
 4037SOL    HW223574   4.537   0.189  15.646 -0.0241  0.0793 -0.8246
 4038SOL     OW23575   0.378   0.793  13.918  0.4535 -0.2791 -0.3622
 4038SOL    HW123576   0.387   0.778  14.012  0.5465 -1.8577 -0.6239
 4038SOL    HW223577   0.453   0.752  13.875 -0.3931 -1.8528 -0.3547
 4039SOL     OW23578   0.843   1.266   3.344  0.4134  0.2410  0.3137
 4039SOL    HW123579   0.799   1.191   3.383 -2.7724  1.1270 -1.5941
 4039SOL    HW223580   0.809   1.341   3.393  1.6869 -0.6130  2.5380
 4040SOL     OW23581   4.048   3.210   1.713 -0.1846  0.8546  0.0210
 4040SOL    HW123582   4.047   3.306   1.720  0.0355  0.8016  0.8708
 4040SOL    HW223583   4.123   3.207   1.654  2.7505  0.6193  3.7358
 4041SOL     OW23584   1.179   0.776  10.071  0.0627 -0.5025  0.0194
 4041SOL    HW123585   1.200   0.859  10.114  0.0497  0.8346 -2.5885
 4041SOL    HW223586   1.209   0.713  10.137  2.4830 -1.1820 -1.7278
 4042SOL     OW23587   1.265   4.241   7.527 -0.1045 -0.7210  0.4286
 4042SOL    HW123588   1.255   4.177   7.598 -1.8157 -1.8259 -0.8250
 4042SOL    HW223589   1.294   4.183   7.456  2.7224  0.1345  0.8538
 4043SOL     OW23590   4.672   3.045   4.912  0.3052  0.2558 -0.3839
 4043SOL    HW123591   4.644   3.132   4.883 -0.7466 -0.3997 -1.3160
 4043SOL    HW223592   4.642   3.059   5.002 -0.5139 -0.2865 -0.5770
 4044SOL     OW23593   2.480   1.460  15.119  0.6077 -0.9456  0.0214
 4044SOL    HW123594   2.514   1.481  15.032  0.2847 -1.9980 -0.3602
 4044SOL    HW223595   2.385   1.476  15.122  0.4321 -1.7338 -1.3119
 4045SOL     OW23596   3.966   1.323  14.743 -0.1331 -0.4412 -0.3162
 4045SOL    HW123597   4.023   1.397  14.763 -0.6792 -0.0504 -0.2401
 4045SOL    HW223598   3.947   1.337  14.650  0.1484 -1.0027 -0.4669
 4046SOL     OW23599   3.171   4.130   3.940  0.4853 -0.1902  0.0799
 4046SOL    HW123600   3.115   4.199   3.904 -0.5217 -1.3387 -0.5841
 4046SOL    HW223601   3.200   4.084   3.861  1.5465  0.3724  0.1508
 4047SOL     OW23602   4.154   3.272  15.019  0.0571 -0.2338  0.1992
 4047SOL    HW123603   4.175   3.365  15.014  2.3997 -0.6770  2.1012
 4047SOL    HW223604   4.063   3.270  14.989 -0.3982  1.2854  1.5445
 4048SOL     OW23605   3.616   3.917  11.013 -0.0554 -0.0285 -0.2170
 4048SOL    HW123606   3.605   4.012  11.013 -1.1046 -0.1450  0.5773
 4048SOL    HW223607   3.600   3.906  10.920 -0.4082  1.5869 -0.3461
 4049SOL     OW23608   0.155   1.028   6.968  0.2174 -0.3160  0.4312
 4049SOL    HW123609   0.105   1.027   6.886 -0.2707 -1.6690  0.7625
 4049SOL    HW223610   0.096   0.971   7.017 -2.1591  0.0728 -1.9438
 4050SOL     OW23611   4.106   3.962  17.009  0.0196  0.1282  0.0560
 4050SOL    HW123612   4.036   4.026  16.996 -0.3784 -0.4632 -0.6862
 4050SOL    HW223613   4.051   3.884  17.012  2.4052 -1.4599  1.7507
 4051SOL     OW23614   3.233   4.083   6.806 -0.2112 -0.0532  0.6956
 4051SOL    HW123615   3.317   4.069   6.762  0.1289  2.3264  0.6067
 4051SOL    HW223616   3.267   4.138   6.877  0.7727 -0.7695  0.7991
 4052SOL     OW23617   4.177   1.795   1.608 -0.7381 -0.0774  0.5262
 4052SOL    HW123618   4.218   1.710   1.623  1.4527  0.6784 -1.2713
 4052SOL    HW223619   4.182   1.802   1.513  1.7023 -0.6529  0.6304
 4053SOL     OW23620   1.163   3.099   5.952  0.2344 -0.2740 -0.1812
 4053SOL    HW123621   1.212   3.065   6.027  1.4655  0.9095 -0.4636
 4053SOL    HW223622   1.075   3.092   5.989  1.2107 -1.3523  1.9319
 4054SOL     OW23623   0.381   0.678   5.357 -0.1280 -0.0129 -0.6144
 4054SOL    HW123624   0.312   0.615   5.379  1.1134 -1.1500  0.0310
 4054SOL    HW223625   0.452   0.623   5.324  1.7355  2.6666 -1.0461
 4055SOL     OW23626   3.918   1.092  14.476  1.0538  0.0901 -0.7067
 4055SOL    HW123627   3.871   1.010  14.460  0.9954  0.0846 -0.5106
 4055SOL    HW223628   3.887   1.113  14.564  1.9327  1.6672 -0.7749
 4056SOL     OW23629   2.381   3.519   5.609  0.0197  0.2421 -0.3347
 4056SOL    HW123630   2.391   3.520   5.704 -0.1231  0.8812 -0.3268
 4056SOL    HW223631   2.288   3.517   5.588  0.0184  0.1878 -0.3236
 4057SOL     OW23632   3.746   0.085   2.924 -0.5450 -0.2816  0.2740
 4057SOL    HW123633   3.783   0.121   2.843 -0.3398 -2.0988 -0.4511
 4057SOL    HW223634   3.737   0.162   2.980 -0.0163 -1.3585  1.8280
 4058SOL     OW23635   4.567   1.207  17.106 -0.5717  0.4942  0.0216
 4058SOL    HW123636   4.544   1.131  17.159 -0.1724  0.9237  0.8149
 4058SOL    HW223637   4.564   1.168  17.019 -3.2969 -1.0698  0.8384
 4059SOL     OW23638   0.267   4.490   3.110 -0.1399  0.1122  0.0881
 4059SOL    HW123639   0.201   4.476   3.178  1.6695 -1.4028  1.5142
 4059SOL    HW223640   0.328   4.550   3.153  0.1984 -0.2235  0.0722
 4060SOL     OW23641   0.576   1.364  15.128 -0.4281  0.3816 -0.5790
 4060SOL    HW123642   0.617   1.330  15.049 -2.4640 -2.0450 -0.5860
 4060SOL    HW223643   0.542   1.449  15.099 -1.0212  0.3150 -0.0923
 4061SOL     OW23644   4.277   1.339   0.402  0.1570 -0.0051 -0.2920
 4061SOL    HW123645   4.355   1.390   0.422  0.7260  0.6857 -4.2378
 4061SOL    HW223646   4.274   1.344   0.307  0.9451 -0.4989 -0.3410
 4062SOL     OW23647   2.947   3.859   7.542 -0.6405  0.3098  0.1955
 4062SOL    HW123648   2.993   3.854   7.458  0.9716 -1.6724  1.1922
 4062SOL    HW223649   2.999   3.915   7.600  0.3060 -2.0874  1.6754
 4063SOL     OW23650   4.404   2.714   4.775  0.2532 -0.3814  0.3955
 4063SOL    HW123651   4.335   2.649   4.779 -0.0480 -0.0893 -0.1303
 4063SOL    HW223652   4.403   2.766   4.856 -3.5344 -1.4855  1.0577
 4064SOL     OW23653   2.997   0.466   7.270 -0.2440 -0.1694 -1.0588
 4064SOL    HW123654   2.968   0.385   7.313  0.9123  0.0912  0.2199
 4064SOL    HW223655   3.046   0.513   7.338  0.8875 -1.7870 -0.7419
 4065SOL     OW23656   3.654   0.244   8.886  0.2824 -0.2156 -0.1552
 4065SOL    HW123657   3.666   0.338   8.901  1.2483 -0.1362 -1.4112
 4065SOL    HW223658   3.732   0.232   8.833  0.9976 -0.5166  0.9584
 4066SOL     OW23659   3.614   1.260   0.572  0.0868  0.2629 -0.1728
 4066SOL    HW123660   3.697   1.256   0.524  1.2095  0.1958  1.7725
 4066SOL    HW223661   3.549   1.254   0.502  0.7596  0.5160 -0.8192
 4067SOL     OW23662   0.310   1.177   4.127  0.2096  0.4007 -0.1605
 4067SOL    HW123663   0.366   1.254   4.125 -0.6248  1.0003 -0.5067
 4067SOL    HW223664   0.246   1.201   4.194 -1.3510 -0.2920 -1.4044
 4068SOL     OW23665   3.374   3.387   7.884 -0.0711 -0.0965  0.1708
 4068SOL    HW123666   3.389   3.325   7.813  1.3416  1.5029 -0.9351
 4068SOL    HW223667   3.415   3.347   7.960 -0.6313 -0.3378  0.3437
 4069SOL     OW23668   3.598   0.180   7.933  0.0724 -0.2658 -0.4997
 4069SOL    HW123669   3.687   0.188   7.966 -0.6742  0.5800  1.3102
 4069SOL    HW223670   3.600   0.106   7.873  4.3723 -1.4454  1.0478
 4070SOL     OW23671   1.637   1.713  16.821 -0.3850  0.0443 -0.6677
 4070SOL    HW123672   1.567   1.778  16.821 -0.3088  0.1255  2.2878
 4070SOL    HW223673   1.583   1.635  16.809  0.6131 -0.5905 -1.0292
 4071SOL     OW23674   2.123   4.164  16.830  0.7601  0.4087 -0.0551
 4071SOL    HW123675   2.044   4.112  16.815  1.0363 -0.4585  1.4890
 4071SOL    HW223676   2.132   4.228  16.759 -1.5201 -0.4866 -1.1417
 4072SOL     OW23677   3.137   3.042   9.988  0.4930 -0.0134 -0.1117
 4072SOL    HW123678   3.061   3.037  10.046 -0.5584 -0.1861 -1.5073
 4072SOL    HW223679   3.112   2.985   9.916 -0.8681  2.1826 -1.3800
 4073SOL     OW23680   1.529   0.192  14.139  0.0519  0.1049  0.4810
 4073SOL    HW123681   1.545   0.282  14.167 -1.4259  0.5136  0.0360
 4073SOL    HW223682   1.534   0.203  14.044 -2.0227 -1.2075  0.2225
 4074SOL     OW23683   0.655   2.016   8.438  0.3287 -0.3264 -0.1066
 4074SOL    HW123684   0.665   2.085   8.373  2.4682 -2.2342 -1.8287
 4074SOL    HW223685   0.608   2.051   8.513 -2.1635 -1.1158 -1.3145
 4075SOL     OW23686   4.609   4.142   4.612  0.2554  0.0058 -0.6148
 4075SOL    HW123687   4.638   4.184   4.693  0.1345 -0.0235 -0.5562
 4075SOL    HW223688   4.522   4.181   4.601 -0.7493 -1.3019  2.8931
 4076SOL     OW23689   1.089   2.902   7.704 -0.0684  0.7046 -0.0894
 4076SOL    HW123690   1.013   2.844   7.712 -0.1326  1.2584  3.5454
 4076SOL    HW223691   1.107   2.910   7.798 -2.4459 -1.6473  0.5805
 4077SOL     OW23692   3.647   4.200   3.416  0.1268 -0.2982 -0.2621
 4077SOL    HW123693   3.652   4.206   3.321 -0.6251 -1.4318 -0.3745
 4077SOL    HW223694   3.573   4.142   3.435 -0.2241  0.4003  0.5652
 4078SOL     OW23695   0.494   2.870   6.510  0.0589 -0.0171 -0.1712
 4078SOL    HW123696   0.559   2.827   6.454  0.3669  1.7346 -1.1868
 4078SOL    HW223697   0.472   2.948   6.458  0.9015 -0.0138 -0.5142
 4079SOL     OW23698   0.778   1.709  11.695  0.1678 -0.3274  0.2203
 4079SOL    HW123699   0.722   1.635  11.717  1.7413 -1.6471 -0.2177
 4079SOL    HW223700   0.788   1.751  11.781 -1.9111  0.6785 -0.0153
 4080SOL     OW23701   0.828   2.646   5.148  0.0818 -0.4901 -0.2829
 4080SOL    HW123702   0.739   2.675   5.169  0.0144  0.4235 -1.8249
 4080SOL    HW223703   0.851   2.601   5.229  0.2564 -0.9118 -0.5639
 4081SOL     OW23704   0.209   1.279   1.783 -0.3990 -0.5387  0.3884
 4081SOL    HW123705   0.128   1.328   1.766  0.3199  0.5736  0.2028
 4081SOL    HW223706   0.268   1.348   1.754  0.3606 -1.3031  0.1537
 4082SOL     OW23707   1.944   2.427  17.083  0.4154 -0.2497 -0.2752
 4082SOL    HW123708   2.020   2.385  17.123 -0.9001 -0.3954  2.0507
 4082SOL    HW223709   1.878   2.374  17.127  0.3583 -0.8928 -1.1225
 4083SOL     OW23710   1.481   0.519   4.072  0.0529 -0.1550 -0.0623
 4083SOL    HW123711   1.537   0.536   3.996  0.9575  2.1116  1.0964
 4083SOL    HW223712   1.473   0.425   4.056 -1.0513 -0.4936  2.4857
 4084SOL     OW23713   1.457   4.671   2.331  0.0182  0.0813 -0.2740
 4084SOL    HW123714   1.501   4.700   2.251  1.9062  2.9399  1.8098
 4084SOL    HW223715   1.517   4.702   2.399 -0.7306 -1.3794  1.0533
 4085SOL     OW23716   2.262   1.252   2.931 -0.3939 -0.5551 -0.0731
 4085SOL    HW123717   2.338   1.305   2.906 -1.4900 -0.1353 -2.5355
 4085SOL    HW223718   2.268   1.182   2.867 -1.9617  1.3986 -2.3337
 4086SOL     OW23719   3.202   0.174  14.526 -0.0560  0.0365  0.1816
 4086SOL    HW123720   3.218   0.104  14.463  0.9890  0.3044  0.1459
 4086SOL    HW223721   3.282   0.171  14.579  0.3895  0.8478 -0.4492
 4087SOL     OW23722   4.570   2.208   7.226  0.5278 -0.0119  0.1324
 4087SOL    HW123723   4.657   2.214   7.186  0.7607 -0.2177  0.6039
 4087SOL    HW223724   4.560   2.293   7.269 -0.9408 -1.0059  1.7844
 4088SOL     OW23725   3.582   4.602   2.906 -0.0323  0.2576  0.8400
 4088SOL    HW123726   3.628   4.542   2.965 -1.3508 -0.3213  1.2604
 4088SOL    HW223727   3.642   4.677   2.910  0.9928 -0.5197  0.1207
 4089SOL     OW23728   3.123   4.136   3.138 -0.2593 -0.2700 -0.0168
 4089SOL    HW123729   3.207   4.150   3.182  0.8888 -0.9730 -1.9927
 4089SOL    HW223730   3.067   4.130   3.215 -0.1880 -2.8829 -0.1814
 4090SOL     OW23731   4.242   0.712  14.809 -0.3000  0.1322  0.2324
 4090SOL    HW123732   4.280   0.635  14.766 -1.5082 -0.2552 -0.1776
 4090SOL    HW223733   4.165   0.720  14.752  1.2587  0.7004 -1.7678
 4091SOL     OW23734   0.717   3.208  13.226  0.6092 -0.4721  0.5905
 4091SOL    HW123735   0.661   3.283  13.249 -0.3926 -0.6994 -1.0994
 4091SOL    HW223736   0.668   3.172  13.152  0.6814 -1.2867  0.9440
 4092SOL     OW23737   4.391   2.643   0.557  0.5475  0.6963  0.2533
 4092SOL    HW123738   4.324   2.709   0.539  0.1964  1.2557  3.7128
 4092SOL    HW223739   4.390   2.582   0.482  0.4930  3.8185 -2.2880
 4093SOL     OW23740   3.892   2.452  16.040 -0.2283 -0.3179  0.3977
 4093SOL    HW123741   3.919   2.499  16.119  1.3147  3.9781 -2.6517
 4093SOL    HW223742   3.959   2.474  15.976  0.0684  1.6040  1.3580
 4094SOL     OW23743   1.851   1.685  15.607  0.3442  0.3087  0.3455
 4094SOL    HW123744   1.865   1.762  15.551 -1.1431 -0.2295 -0.7780
 4094SOL    HW223745   1.760   1.673  15.579  0.0104  1.7173  0.8401
 4095SOL     OW23746   2.133   3.824   0.177  0.0233 -0.2329  0.1173
 4095SOL    HW123747   2.220   3.787   0.163 -0.3024 -1.1927  0.6067
 4095SOL    HW223748   2.077   3.778   0.115 -0.1590  1.7455 -1.1957
 4096SOL     OW23749   2.376   3.156  10.016 -0.5543  0.3998 -0.6672
 4096SOL    HW123750   2.418   3.207   9.947  0.5109  0.1239 -0.2245
 4096SOL    HW223751   2.443   3.168  10.083 -0.9022  3.1340 -0.8078
 4097SOL     OW23752   3.455   2.587   7.034  0.0418 -0.5823  0.2061
 4097SOL    HW123753   3.420   2.498   7.042 -1.2443  0.0840  2.0693
 4097SOL    HW223754   3.408   2.624   6.959 -2.7249  1.2934  2.8271
 4098SOL     OW23755   2.006   4.717   4.354  0.2052  0.0513  0.5583
 4098SOL    HW123756   2.018   0.089   4.366  0.8746 -0.1382  1.3117
 4098SOL    HW223757   1.910   4.708   4.355  0.1407  0.8577  1.7128
 4099SOL     OW23758   4.041   3.780   5.701  0.1863  0.1505  0.1413
 4099SOL    HW123759   4.098   3.750   5.631 -0.8187  1.3047 -1.1579
 4099SOL    HW223760   3.974   3.711   5.709  1.7175 -1.1537  1.6818
 4100SOL     OW23761   2.608   1.797  12.513  0.0764  0.6426 -0.8242
 4100SOL    HW123762   2.691   1.757  12.486  1.2125  2.5254 -0.0779
 4100SOL    HW223763   2.544   1.735  12.477 -2.4942  2.7180  0.2562
 4101SOL     OW23764   2.321   3.882   3.799 -0.3379 -0.2593  0.1255
 4101SOL    HW123765   2.373   3.943   3.747  2.3281 -0.0499  3.0763
 4101SOL    HW223766   2.363   3.893   3.883  0.6750  1.3035 -0.5865
 4102SOL     OW23767   1.789   2.319  14.624  0.0140  0.0459  0.1420
 4102SOL    HW123768   1.774   2.236  14.578 -0.3851  0.4797 -0.5097
 4102SOL    HW223769   1.747   2.310  14.709 -0.4649  2.1349  0.1121
 4103SOL     OW23770   4.175   1.098   0.481 -0.8791  0.1555  0.4202
 4103SOL    HW123771   4.103   1.086   0.418  0.0854  0.1005 -0.6815
 4103SOL    HW223772   4.211   1.183   0.456 -1.7497  1.2647  3.0252
 4104SOL     OW23773   2.115   1.102   6.767  0.2948 -0.8431  0.2094
 4104SOL    HW123774   2.203   1.125   6.799  0.9974  0.5927 -2.7485
 4104SOL    HW223775   2.071   1.187   6.770  1.0843 -0.4291  0.0530
 4105SOL     OW23776   3.947   0.284   8.803 -0.0095 -0.2358  0.2970
 4105SOL    HW123777   3.947   0.376   8.778 -1.6754 -0.9567 -2.3840
 4105SOL    HW223778   4.031   0.275   8.849 -0.6028  1.8046  1.7641
 4106SOL     OW23779   1.406   1.930  13.916  0.0004  0.0911  0.4981
 4106SOL    HW123780   1.317   1.895  13.925  0.1177 -0.3912 -0.2227
 4106SOL    HW223781   1.432   1.927  14.008  0.3180 -2.1322  0.3492
 4107SOL     OW23782   4.219   2.423   1.421  0.4043  0.3804  0.1200
 4107SOL    HW123783   4.187   2.419   1.511 -2.5769 -0.8272 -0.9953
 4107SOL    HW223784   4.250   2.513   1.414  2.5130 -0.2123  1.7799
 4108SOL     OW23785   4.344   1.456   4.942  0.2213  0.2891 -0.5597
 4108SOL    HW123786   4.288   1.395   4.894  3.2132 -1.9909 -1.1593
 4108SOL    HW223787   4.420   1.405   4.970 -0.9594 -0.8685  0.5521
 4109SOL     OW23788   1.174   0.917   9.117 -0.1108 -0.0136 -0.3474
 4109SOL    HW123789   1.227   0.842   9.092 -0.9513 -1.4202  2.0622
 4109SOL    HW223790   1.176   0.967   9.035 -0.0730  0.2501 -0.1864
 4110SOL     OW23791   4.677   2.169   4.943  0.1317  0.2270 -0.3735
 4110SOL    HW123792   4.714   2.255   4.922  1.7579 -0.3661  0.0665
 4110SOL    HW223793   4.618   2.146   4.871  0.9746  1.3637 -1.4438
 4111SOL     OW23794   3.872   2.837   7.179 -0.3410  0.3106  0.0238
 4111SOL    HW123795   3.874   2.874   7.267 -1.4510  1.0078 -0.2495
 4111SOL    HW223796   3.825   2.905   7.130 -1.0402  0.9023  1.5325
 4112SOL     OW23797   0.298   0.133   1.693 -0.2205  0.0459 -0.2765
 4112SOL    HW123798   0.309   0.103   1.603  0.4366  1.9461 -0.8309
 4112SOL    HW223799   0.267   0.223   1.682  0.2277  0.5496  2.6395
 4113SOL     OW23800   0.884   1.634   8.538  0.6600  0.3274 -0.1576
 4113SOL    HW123801   0.907   1.685   8.460 -0.4765  1.1824  0.0601
 4113SOL    HW223802   0.955   1.645   8.601  1.4571 -1.3376 -0.7661
 4114SOL     OW23803   2.322   2.230   4.103 -0.5092  0.1895  0.1626
 4114SOL    HW123804   2.318   2.134   4.108  0.4488  0.1924  0.9687
 4114SOL    HW223805   2.371   2.238   4.021 -0.0688  1.9716  0.6134
 4115SOL     OW23806   2.355   2.950   4.901  0.1816  0.0373 -0.0507
 4115SOL    HW123807   2.327   2.964   4.811  0.2113 -0.2997 -0.1108
 4115SOL    HW223808   2.439   2.904   4.894  0.3469  0.3877 -0.3842
 4116SOL     OW23809   3.111   4.279   8.509 -0.0815 -0.4256 -0.1136
 4116SOL    HW123810   3.065   4.363   8.521  0.1693 -0.3642  0.4085
 4116SOL    HW223811   3.037   4.222   8.489 -1.4866  1.1104  0.6726
 4117SOL     OW23812   0.440   0.405   1.977  0.0107 -0.2860  0.0507
 4117SOL    HW123813   0.399   0.319   1.967 -1.3292  0.1332  1.9084
 4117SOL    HW223814   0.518   0.388   2.031  1.2916  2.5115 -0.9363
 4118SOL     OW23815   1.121   3.101   6.638 -0.4764  0.3150 -0.0643
 4118SOL    HW123816   1.036   3.069   6.668 -0.6678  0.3424 -0.5675
 4118SOL    HW223817   1.179   3.032   6.669 -0.5232 -0.3913 -1.5594
 4119SOL     OW23818   0.511   1.423   8.026 -0.1231 -0.4078 -0.1168
 4119SOL    HW123819   0.435   1.480   8.040 -0.7749 -0.5501 -3.1871
 4119SOL    HW223820   0.527   1.429   7.932 -1.6841 -2.3550 -0.4992
 4120SOL     OW23821   4.039   1.017   7.240  0.4947  0.3059  0.7838
 4120SOL    HW123822   4.008   0.944   7.186  0.2878  0.3663  0.8191
 4120SOL    HW223823   3.958   1.039   7.286 -0.3253 -3.8230  1.3231
 4121SOL     OW23824   0.664   0.576   3.795 -0.0158  0.1238 -0.0630
 4121SOL    HW123825   0.652   0.653   3.851 -0.9560 -0.6902  0.8601
 4121SOL    HW223826   0.573   0.546   3.784 -0.4996  1.5417  0.0532
 4122SOL     OW23827   4.204   1.894   9.145 -0.5804  0.4074  0.3801
 4122SOL    HW123828   4.133   1.944   9.106 -0.6434 -0.3652 -0.5143
 4122SOL    HW223829   4.239   1.850   9.067 -1.8416 -1.8105  1.0474
 4123SOL     OW23830   1.401   2.636   5.316  0.6560  0.7668 -0.1218
 4123SOL    HW123831   1.437   2.649   5.228  0.0630 -1.6729 -0.7344
 4123SOL    HW223832   1.479   2.629   5.371  0.3706  0.0711  0.1879
 4124SOL     OW23833   3.786   3.309  10.834  0.1809  0.3423  0.1275
 4124SOL    HW123834   3.764   3.261  10.914 -1.1595 -1.6311 -1.4231
 4124SOL    HW223835   3.849   3.244  10.804  1.4508  1.8534 -0.4975
 4125SOL     OW23836   0.307   3.986   2.712 -0.5606  0.0942  0.3243
 4125SOL    HW123837   0.242   3.917   2.701 -1.5399  0.9728  0.6615
 4125SOL    HW223838   0.282   4.035   2.790  2.9237  1.4577  0.5816
 4126SOL     OW23839   3.631   2.427   3.695  0.1061 -0.1632  0.3537
 4126SOL    HW123840   3.646   2.410   3.602  1.0781 -0.2524  0.5182
 4126SOL    HW223841   3.574   2.354   3.720 -1.4371  1.3383  1.1876
 4127SOL     OW23842   2.000   1.942   9.600  0.2142  0.2024 -0.5186
 4127SOL    HW123843   2.067   2.010   9.609  0.5924  0.1114 -2.4790
 4127SOL    HW223844   2.030   1.904   9.517  2.9589  0.9446  0.1140
 4128SOL     OW23845   2.519   4.519  12.121 -0.0402 -0.1446 -0.1845
 4128SOL    HW123846   2.603   4.559  12.145 -0.4916  0.2400  0.7517
 4128SOL    HW223847   2.518   4.534  12.027  0.4889 -0.4100 -0.2350
 4129SOL     OW23848   3.859   4.041   8.367  0.4055  0.2620  0.2354
 4129SOL    HW123849   3.839   4.052   8.460 -1.5177  1.4483 -0.3416
 4129SOL    HW223850   3.834   4.127   8.333 -0.4762  0.2841  0.9349
 4130SOL     OW23851   4.322   1.452   0.837  0.4305 -0.2646 -0.1061
 4130SOL    HW123852   4.244   1.504   0.819  0.0361 -2.2306 -3.8722
 4130SOL    HW223853   4.290   1.364   0.822 -0.7435  0.0624  0.5129
 4131SOL     OW23854   4.547   0.018   2.151 -0.1829  0.0628 -0.3012
 4131SOL    HW123855   4.519   0.013   2.060  2.6547  0.7178 -1.2128
 4131SOL    HW223856   4.511   0.101   2.180  1.4135  0.0184  1.8395
 4132SOL     OW23857   3.792   0.122   6.236 -0.0237  0.3972  0.6784
 4132SOL    HW123858   3.885   0.103   6.224  0.4773  1.8600  2.2691
 4132SOL    HW223859   3.750   0.120   6.149  2.0832  0.5799 -0.3330
 4133SOL     OW23860   1.401   3.113   5.343 -0.5954 -0.3199  0.7209
 4133SOL    HW123861   1.423   3.111   5.250 -1.6695 -0.1029  0.4665
 4133SOL    HW223862   1.432   3.195   5.381 -2.8089 -0.5439  3.0125
 4134SOL     OW23863   3.410   0.410   7.515  0.1407  0.3580 -0.0794
 4134SOL    HW123864   3.379   0.414   7.606 -4.0631 -0.4295 -1.4589
 4134SOL    HW223865   3.495   0.449   7.535  1.4054 -2.0043 -0.9968
 4135SOL     OW23866   0.679   0.864   2.597 -0.0098 -0.4151  0.3752
 4135SOL    HW123867   0.676   0.958   2.579 -1.3145 -0.6361 -0.5135
 4135SOL    HW223868   0.772   0.845   2.585 -0.1462 -0.2256 -0.9182
 4136SOL     OW23869   3.802   0.601   5.386 -0.4604 -0.3784 -0.3548
 4136SOL    HW123870   3.780   0.626   5.296  0.1928  0.8441 -0.1733
 4136SOL    HW223871   3.720   0.562   5.417 -0.7026  0.3691 -0.0705
 4137SOL     OW23872   4.190   1.840   0.210  0.0152 -0.7290 -0.4454
 4137SOL    HW123873   4.202   1.825   0.304  0.4476  0.4047 -0.3153
 4137SOL    HW223874   4.097   1.861   0.206  0.0613 -0.3160  0.5792
 4138SOL     OW23875   2.225   4.437   7.704 -0.5827  0.6615  0.2232
 4138SOL    HW123876   2.207   4.362   7.647 -2.1213  0.1917  1.3388
 4138SOL    HW223877   2.160   4.424   7.773 -3.0878 -0.9022 -2.4074
 4139SOL     OW23878   2.123   1.510   2.317  0.3531  0.1348  0.3690
 4139SOL    HW123879   2.052   1.454   2.286 -1.6425  3.6969 -1.5835
 4139SOL    HW223880   2.085   1.598   2.327  0.9400 -0.0593  4.3100
 4140SOL     OW23881   2.787   1.002   7.059 -0.0393 -0.4192  0.3378
 4140SOL    HW123882   2.848   0.936   7.092  0.1796 -0.6734 -0.5695
 4140SOL    HW223883   2.712   0.955   7.096 -0.0068  0.9334  2.1201
 4141SOL     OW23884   4.605   4.121  14.941  0.0245 -0.6685  0.0215
 4141SOL    HW123885   4.622   4.204  14.986  1.4075 -0.6249 -0.5946
 4141SOL    HW223886   4.689   4.081  14.917  0.7109  1.7900 -1.6977
 4142SOL     OW23887   3.500   3.645   5.116  0.4019 -0.6008  0.0037
 4142SOL    HW123888   3.545   3.570   5.153 -1.7789 -0.6248  2.5321
 4142SOL    HW223889   3.456   3.609   5.039  1.8776  2.7606 -2.4204
 4143SOL     OW23890   4.170   0.863   9.898 -0.0290 -0.2275 -0.2307
 4143SOL    HW123891   4.077   0.841   9.893 -0.0341 -0.2523 -0.0144
 4143SOL    HW223892   4.207   0.775   9.908  0.0192 -0.1860 -0.0528
 4144SOL     OW23893   3.813   1.208  11.442  0.0804  0.1365 -0.0191
 4144SOL    HW123894   3.870   1.226  11.517  0.1885  0.9957 -0.3055
 4144SOL    HW223895   3.831   1.286  11.389 -2.6824 -1.0092 -2.6703
 4145SOL     OW23896   4.632   3.796   7.102 -0.0774 -0.1740 -0.4237
 4145SOL    HW123897   4.710   3.851   7.095  0.6215 -1.0053  0.8146
 4145SOL    HW223898   4.672   3.713   7.076 -1.7010 -1.5557  1.4695
 4146SOL     OW23899   3.140   1.181  14.234  0.6934 -0.0458  0.8208
 4146SOL    HW123900   3.051   1.168  14.267  0.3647  1.3330  0.4647
 4146SOL    HW223901   3.120   1.259  14.182  1.6583  0.3353  1.0281
 4147SOL     OW23902   4.469   3.878   9.707 -0.1534 -0.2021 -0.6209
 4147SOL    HW123903   4.543   3.911   9.656  1.5454  0.7919  2.4673
 4147SOL    HW223904   4.406   3.873   9.635 -0.5649  1.9702 -0.4206
 4148SOL     OW23905   0.424   3.799  17.174  0.2246  0.0406  0.5263
 4148SOL    HW123906   0.440   3.758  17.089  2.6544  0.6707  0.6713
 4148SOL    HW223907   0.362   3.867  17.150 -0.6195  0.3706  3.6226
 4149SOL     OW23908   4.353   0.800   5.879 -0.4033 -0.1827 -0.0227
 4149SOL    HW123909   4.325   0.888   5.857 -1.9770  0.1464  3.1418
 4149SOL    HW223910   4.291   0.747   5.829 -0.8764  0.6674 -0.3223
 4150SOL     OW23911   0.010   0.192   8.719  0.3937 -0.4489  0.1934
 4150SOL    HW123912   4.641   0.164   8.729  0.1024 -0.0755 -1.3525
 4150SOL    HW223913   0.059   0.126   8.669  0.9701 -0.9456  1.4201
 4151SOL     OW23914   4.499   2.098   0.677  0.8817 -0.3932  0.4840
 4151SOL    HW123915   4.466   2.175   0.724 -0.4958 -0.8383  0.2351
 4151SOL    HW223916   4.437   2.080   0.606  1.6872  0.8727 -0.5454
 4152SOL     OW23917   3.337   4.573   5.968 -0.0521 -0.1960  0.8540
 4152SOL    HW123918   3.384   4.551   6.048  0.4007 -1.2444  0.2973
 4152SOL    HW223919   3.364   4.509   5.902 -1.4366  0.3732 -0.2655
 4153SOL     OW23920   1.943   1.714  16.589 -0.2117 -0.3062 -0.1919
 4153SOL    HW123921   1.919   1.645  16.651  1.9861 -1.2604 -0.3969
 4153SOL    HW223922   1.894   1.683  16.513  1.7456 -0.6350 -1.3365
 4154SOL     OW23923   4.289   3.122  11.967  0.3190  0.5754 -0.6924
 4154SOL    HW123924   4.317   3.153  11.882  1.1545 -1.3887 -1.1297
 4154SOL    HW223925   4.378   3.098  11.994 -0.2032 -1.6224 -0.9148
 4155SOL     OW23926   4.360   0.752   9.444 -0.0464 -0.8581 -0.0272
 4155SOL    HW123927   4.295   0.687   9.471 -1.2363  1.7932  3.4690
 4155SOL    HW223928   4.320   0.831   9.481  0.6304 -1.3449  1.7278
 4156SOL     OW23929   2.087   2.384   0.564  0.4125 -0.8395  0.3848
 4156SOL    HW123930   2.037   2.460   0.535  0.2049 -0.9584  0.4264
 4156SOL    HW223931   2.124   2.414   0.647  1.3977 -0.2035 -0.2870
 4157SOL     OW23932   0.580   1.178  15.541  0.0783 -0.0816 -0.3373
 4157SOL    HW123933   0.511   1.114  15.519 -0.4429  0.2665  0.3046
 4157SOL    HW223934   0.547   1.245  15.481  1.5892 -0.3628 -1.4792
 4158SOL     OW23935   4.416   4.317  15.062 -0.0344 -0.1039  0.1520
 4158SOL    HW123936   4.493   4.373  15.069 -2.1386  2.6911  0.9889
 4158SOL    HW223937   4.444   4.229  15.035 -0.0241 -0.5744  1.7112
 4159SOL     OW23938   3.732   2.052   0.408 -0.2093 -0.3072  0.0466
 4159SOL    HW123939   3.643   2.018   0.395 -0.2481  0.0610 -0.6279
 4159SOL    HW223940   3.710   2.145   0.410 -0.0021 -0.2312 -1.5453
 4160SOL     OW23941   3.877   1.399  16.199  0.5859 -0.0046  0.0217
 4160SOL    HW123942   3.787   1.430  16.211  0.6936 -0.3846  1.8431
 4160SOL    HW223943   3.923   1.456  16.260  1.3497 -1.3633  0.7184
 4161SOL     OW23944   2.844   0.472  17.617 -0.0430 -0.5909  0.0820
 4161SOL    HW123945   2.855   0.527   0.005 -1.6649 -2.4605  1.6378
 4161SOL    HW223946   2.750   0.472  17.603 -0.2577 -2.2188  1.5346
 4162SOL     OW23947   2.125   4.387   1.482  0.7804 -0.2534 -0.1726
 4162SOL    HW123948   2.154   4.428   1.563  0.3222 -0.3727  0.0511
 4162SOL    HW223949   2.060   4.450   1.452 -0.2886 -1.9189 -1.3874
 4163SOL     OW23950   0.206   0.431   8.261 -0.6319 -0.9487 -0.5141
 4163SOL    HW123951   0.173   0.426   8.351 -0.1118 -1.6869 -0.3713
 4163SOL    HW223952   0.231   0.340   8.244 -1.2913 -0.8268 -2.1796
 4164SOL     OW23953   3.907   1.249  12.786  0.3440  0.1547  0.3496
 4164SOL    HW123954   3.939   1.298  12.710 -0.0906 -0.7747 -0.4344
 4164SOL    HW223955   3.988   1.216  12.826 -0.4360 -1.1185  0.8878
 4165SOL     OW23956   4.394   2.289   0.816  0.5300 -0.4131  0.4016
 4165SOL    HW123957   4.432   2.376   0.801 -0.0741 -0.0271  1.1332
 4165SOL    HW223958   4.427   2.267   0.903 -1.3717  1.3715  1.5799
 4166SOL     OW23959   1.184   3.753   5.701 -0.2059  0.0923 -0.5241
 4166SOL    HW123960   1.127   3.751   5.778 -0.6504  0.2203 -0.8545
 4166SOL    HW223961   1.180   3.662   5.672  1.5075 -0.5837  1.3628
 4167SOL     OW23962   0.685   4.154   6.892  0.0888 -0.6232  0.3238
 4167SOL    HW123963   0.731   4.228   6.854  0.7448 -1.5384 -0.6636
 4167SOL    HW223964   0.631   4.205   6.952  0.2315  0.3923 -0.4177
 4168SOL     OW23965   3.964   3.796   8.083  0.3649 -0.0516 -0.2595
 4168SOL    HW123966   3.928   3.708   8.080 -0.0614  0.1356 -0.5349
 4168SOL    HW223967   4.005   3.785   8.169  1.8650  1.9049 -0.7331
 4169SOL     OW23968   3.201   1.249   2.828  0.5293 -0.1161  0.1880
 4169SOL    HW123969   3.127   1.189   2.816  1.0939 -0.3292 -2.1990
 4169SOL    HW223970   3.225   1.259   2.736  0.9289 -0.0430  0.3022
 4170SOL     OW23971   2.268   4.582   8.108  0.3326  0.2565  0.0521
 4170SOL    HW123972   2.245   4.500   8.152  1.7990  0.5849  1.4504
 4170SOL    HW223973   2.275   4.643   8.181 -1.5838  1.2611 -0.5966
 4171SOL     OW23974   1.747   1.518   4.165 -0.4850  0.1076  0.2248
 4171SOL    HW123975   1.703   1.563   4.237 -1.6759  1.3350 -1.2572
 4171SOL    HW223976   1.710   1.430   4.178  2.1587 -1.1180 -0.4964
 4172SOL     OW23977   2.928   2.045   0.834  0.5494  0.6653 -0.0537
 4172SOL    HW123978   2.835   2.068   0.828  0.1443 -1.1213 -0.7965
 4172SOL    HW223979   2.937   1.972   0.895 -0.9415 -1.3135 -2.1886
 4173SOL     OW23980   2.746   1.725   4.929 -0.2279  0.0768  0.1599
 4173SOL    HW123981   2.708   1.726   4.842  2.8377  0.6545 -1.1859
 4173SOL    HW223982   2.829   1.684   4.907  0.7075  1.5598  0.8757
 4174SOL     OW23983   0.404   3.921  13.923  0.1993  0.0286  0.2269
 4174SOL    HW123984   0.370   3.939  13.835  1.5582 -0.0897 -0.3177
 4174SOL    HW223985   0.331   3.967  13.966 -1.1603 -2.0610  0.1464
 4175SOL     OW23986   0.564   1.576  13.194 -0.4089  0.0360 -0.2477
 4175SOL    HW123987   0.588   1.664  13.222 -0.3456  0.3098 -1.1837
 4175SOL    HW223988   0.618   1.529  13.258  0.1218 -0.9023 -1.3698
 4176SOL     OW23989   1.752   2.574   6.646  0.2419  0.3151 -0.3644
 4176SOL    HW123990   1.740   2.493   6.596 -0.6992  0.7838 -0.9090
 4176SOL    HW223991   1.846   2.592   6.642  0.1676  0.8296  0.2546
 4177SOL     OW23992   1.361   1.893   6.009 -0.4283  0.1854 -0.2234
 4177SOL    HW123993   1.317   1.808   6.006 -0.4808  0.0799  3.0564
 4177SOL    HW223994   1.449   1.873   6.041 -0.7013  0.9614  1.0127
 4178SOL     OW23995   1.480   4.021   6.889  0.9257  0.3507  0.5775
 4178SOL    HW123996   1.486   3.961   6.963  3.1513 -2.0441 -1.5211
 4178SOL    HW223997   1.392   4.059   6.893  0.6695 -0.2377  0.6284
 4179SOL     OW23998   2.085   4.186   5.606  0.2680  0.4754  0.6734
 4179SOL    HW123999   2.108   4.101   5.641 -1.7399 -0.8213 -1.1542
 4179SOL    HW224000   2.019   4.208   5.672  0.5792 -0.2781  1.2268
 4180SOL     OW24001   2.528   1.062  15.045  0.6640 -0.0481 -0.1028
 4180SOL    HW124002   2.563   1.130  14.987  0.7779 -0.0191  0.0001
 4180SOL    HW224003   2.525   0.988  14.984  0.1447 -2.3560  2.7192
 4181SOL     OW24004   0.434   1.735   0.615  0.2345  0.2477 -0.0913
 4181SOL    HW124005   0.510   1.755   0.669  0.5874 -1.9494  0.2244
 4181SOL    HW224006   0.384   1.673   0.668  0.8605  1.1136  1.5175
 4182SOL     OW24007   0.756   1.395   3.837 -0.1285  0.3030  0.4926
 4182SOL    HW124008   0.766   1.361   3.926  1.1351 -1.0064 -0.1485
 4182SOL    HW224009   0.661   1.391   3.824 -0.0772 -1.5774  0.6657
 4183SOL     OW24010   2.605   2.878   8.679  0.3020  0.4716  0.1878
 4183SOL    HW124011   2.663   2.891   8.754 -1.3671 -0.0606  1.5769
 4183SOL    HW224012   2.611   2.783   8.669 -0.0708  0.4111  0.5158
 4184SOL     OW24013   4.273   2.120   4.162  0.6266 -0.4543 -0.1641
 4184SOL    HW124014   4.325   2.193   4.127  0.6033 -0.6045 -0.5048
 4184SOL    HW224015   4.222   2.176   4.221  1.3179  0.6703 -0.6296
 4185SOL     OW24016   2.252   3.612   6.214  0.5982  0.2939  0.0209
 4185SOL    HW124017   2.339   3.611   6.255  0.5377  0.5742  0.1576
 4185SOL    HW224018   2.238   3.521   6.189 -1.3018  0.1306  1.6515
 4186SOL     OW24019   0.142   1.046  11.400  0.4142  0.0372  0.7735
 4186SOL    HW124020   0.145   1.014  11.490 -1.0928  0.3995  0.9532
 4186SOL    HW224021   0.214   0.996  11.362  1.3378  3.7705 -2.3816
 4187SOL     OW24022   1.598   3.149   9.687  0.9566 -0.0543 -0.4862
 4187SOL    HW124023   1.663   3.090   9.725  1.9278  0.9501 -0.5862
 4187SOL    HW224024   1.610   3.226   9.743 -0.6772  0.1051 -0.3434
 4188SOL     OW24025   0.850   4.051   6.532 -0.2304  0.0055 -0.2706
 4188SOL    HW124026   0.770   4.036   6.582 -0.0368 -0.3299 -0.0597
 4188SOL    HW224027   0.908   3.991   6.578 -0.9420 -1.1744 -0.8963
 4189SOL     OW24028   0.376   3.207   7.451 -0.2159 -0.0418  0.4104
 4189SOL    HW124029   0.446   3.145   7.432 -0.1811  0.0081  0.3756
 4189SOL    HW224030   0.331   3.208   7.366  1.5965  1.3892 -0.5398
 4190SOL     OW24031   1.005   0.202  15.383  0.1994  0.2667 -0.3385
 4190SOL    HW124032   1.074   0.143  15.415 -1.6731 -1.7550 -0.0521
 4190SOL    HW224033   0.944   0.136  15.350  1.2117 -0.1483 -1.3650
 4191SOL     OW24034   3.730   0.426   6.306  0.2537 -0.2744  0.6827
 4191SOL    HW124035   3.637   0.447   6.321  0.1261  0.3146 -0.9434
 4191SOL    HW224036   3.737   0.332   6.323 -3.0224 -0.6490  0.0189
 4192SOL     OW24037   4.513   2.871   1.002 -0.1534  0.1246  0.3927
 4192SOL    HW124038   4.444   2.827   1.052  0.2910 -0.2714  0.6549
 4192SOL    HW224039   4.588   2.870   1.062 -1.1221  0.1144  1.6022
 4193SOL     OW24040   4.422   3.562   6.223 -0.2167  0.2533  0.1871
 4193SOL    HW124041   4.474   3.482   6.212  0.4815  1.3770 -4.6049
 4193SOL    HW224042   4.357   3.555   6.153  0.2108 -0.7207 -0.1181
 4194SOL     OW24043   0.958   3.459   7.173 -0.2930  0.0858 -0.1471
 4194SOL    HW124044   0.871   3.457   7.214 -1.0055 -1.4228 -1.6930
 4194SOL    HW224045   0.975   3.364   7.174  0.7531  0.2544 -1.6695
 4195SOL     OW24046   3.019   3.441  11.079 -0.0536  0.0518 -0.6707
 4195SOL    HW124047   3.039   3.385  11.004  0.4229  2.4696 -2.3345
 4195SOL    HW224048   3.093   3.501  11.077 -1.1588  1.4725  1.3956
 4196SOL     OW24049   1.894   1.690   6.153  0.4302  0.1725 -0.2748
 4196SOL    HW124050   1.820   1.659   6.206  0.1263  1.2622 -0.0609
 4196SOL    HW224051   1.949   1.726   6.222  2.8787  1.4618 -2.9009
 4197SOL     OW24052   1.770   3.616  13.648  0.1990 -0.8097 -0.3784
 4197SOL    HW124053   1.796   3.568  13.570  0.3549 -2.9156  0.9817
 4197SOL    HW224054   1.689   3.573  13.675 -0.6902  0.5413 -0.8385
 4198SOL     OW24055   2.908   3.001  11.018  0.4968 -0.0947 -0.2338
 4198SOL    HW124056   2.960   3.003  11.098  0.4325 -1.0086 -0.1739
 4198SOL    HW224057   2.977   2.990  10.954  1.2381 -0.1028  0.5589
 4199SOL     OW24058   2.747   4.498  10.811  0.0695  0.7270 -0.0944
 4199SOL    HW124059   2.708   4.585  10.821 -3.4224 -0.6348 -1.9095
 4199SOL    HW224060   2.729   4.454  10.893  0.6237  1.5803  0.4849
 4200SOL     OW24061   1.010   3.256   8.787 -1.0467 -0.4384  0.4104
 4200SOL    HW124062   0.916   3.236   8.781 -0.8288 -1.4125  0.3596
 4200SOL    HW224063   1.012   3.288   8.878  1.7938 -0.5328  0.3683
 4201SOL     OW24064   3.976   1.630   8.185 -0.3478  0.2577  0.0108
 4201SOL    HW124065   3.994   1.722   8.202  0.5713  0.0967 -0.1141
 4201SOL    HW224066   4.054   1.599   8.139 -0.6195 -1.0800  0.4483
 4202SOL     OW24067   0.273   0.757   9.608 -0.2814  0.0446  0.3869
 4202SOL    HW124068   0.205   0.814   9.643  0.6804  0.5195  1.5161
 4202SOL    HW224069   0.349   0.811   9.630  1.1205 -0.9474 -2.1271
 4203SOL     OW24070   0.228   0.190   4.740  0.2014 -0.5571 -0.7592
 4203SOL    HW124071   0.186   0.182   4.826  1.0637 -0.2049 -0.3102
 4203SOL    HW224072   0.249   0.099   4.718  3.2215 -0.1830  0.5220
 4204SOL     OW24073   4.300   0.996   5.652  0.5604  0.5044 -0.5204
 4204SOL    HW124074   4.259   0.916   5.619 -3.9644  2.3514  0.5857
 4204SOL    HW224075   4.334   1.028   5.568 -0.4521  1.3982 -0.5895
 4205SOL     OW24076   4.033   2.635   9.176 -0.6661 -0.6804  0.0564
 4205SOL    HW124077   4.028   2.699   9.246 -0.9707 -2.1893  1.4226
 4205SOL    HW224078   4.026   2.693   9.100  1.5520  1.0465  1.1663
 4206SOL     OW24079   2.578   0.461   8.301 -0.6005  0.1112  0.7287
 4206SOL    HW124080   2.578   0.497   8.212  1.3592 -1.9540 -0.1282
 4206SOL    HW224081   2.671   0.436   8.308  0.2507  2.6432 -1.2812
 4207SOL     OW24082   0.272   2.863   6.169  0.2475 -0.1663 -0.3995
 4207SOL    HW124083   0.186   2.838   6.204 -1.0752  1.2943 -2.5616
 4207SOL    HW224084   0.286   2.795   6.103  1.3654 -0.6248  0.3237
 4208SOL     OW24085   2.983   2.961   5.240 -0.0054 -0.4997  0.4373
 4208SOL    HW124086   2.918   3.025   5.211  1.8076  0.7918 -0.7897
 4208SOL    HW224087   2.920   2.889   5.250 -1.2112  0.0119 -3.2958
 4209SOL     OW24088   4.716   0.317   8.434 -0.3900 -0.1413 -0.0316
 4209SOL    HW124089   4.630   0.279   8.452 -0.9591  0.1117 -2.3176
 4209SOL    HW224090   0.046   0.237   8.426  0.5534  0.8286 -3.4446
 4210SOL     OW24091   0.847   3.488  12.632 -0.1301 -0.2799 -0.4664
 4210SOL    HW124092   0.832   3.581  12.616  0.3039 -0.2952 -0.9794
 4210SOL    HW224093   0.880   3.485  12.722  0.2686 -1.0797 -0.6408
 4211SOL     OW24094   3.278   1.468   1.887  0.1118  0.3251 -0.1134
 4211SOL    HW124095   3.242   1.557   1.889  0.2064  0.2896  2.7184
 4211SOL    HW224096   3.327   1.476   1.805  1.9616  1.7073  1.1504
 4212SOL     OW24097   0.478   3.823   3.027  0.2709 -0.0747  0.0571
 4212SOL    HW124098   0.506   3.771   2.951 -1.1065  0.9258 -1.1541
 4212SOL    HW224099   0.395   3.785   3.055  0.3018  1.2089  1.8771
 4213SOL     OW24100   4.517   0.262   9.180  0.2669  0.2845  0.4040
 4213SOL    HW124101   4.581   0.251   9.250  1.8769  1.6416 -0.8550
 4213SOL    HW224102   4.543   0.194   9.117 -0.9460  0.4143 -0.2351
 4214SOL     OW24103   2.283   0.520  16.909  0.6756  0.6424 -0.0198
 4214SOL    HW124104   2.341   0.538  16.984  0.8916 -0.8760  0.2010
 4214SOL    HW224105   2.321   0.593  16.861  0.9649  0.0787 -0.6501
 4215SOL     OW24106   4.463   1.547   5.877 -0.2482 -0.6433 -0.0277
 4215SOL    HW124107   4.385   1.496   5.896 -0.5820  0.4098  1.4217
 4215SOL    HW224108   4.424   1.625   5.836 -1.6081 -1.0570  0.5000
 4216SOL     OW24109   0.155   0.368   5.718  0.5436  0.8382 -0.2622
 4216SOL    HW124110   0.110   0.305   5.774  0.1727  2.2041  0.9683
 4216SOL    HW224111   0.153   0.444   5.775 -2.1868 -0.3234  1.2174
 4217SOL     OW24112   2.978   0.265  13.001 -0.4665  0.0833  0.2397
 4217SOL    HW124113   2.910   0.332  13.017 -0.9193 -0.9407  2.6865
 4217SOL    HW224114   2.963   0.225  12.916 -0.4290  1.7628 -0.5507
 4218SOL     OW24115   0.175   4.011   2.353  0.2638  0.1493 -0.5306
 4218SOL    HW124116   0.182   4.101   2.322 -0.0080  1.0387  1.9801
 4218SOL    HW224117   0.263   3.996   2.389  1.0351  3.1794 -1.1800
 4219SOL     OW24118   0.741   1.704   2.063 -0.2277  0.1327 -0.7141
 4219SOL    HW124119   0.659   1.664   2.092 -0.3631  0.5378 -0.5414
 4219SOL    HW224120   0.729   1.722   1.970  0.5641  1.3167 -0.5824
 4220SOL     OW24121   3.443   0.542  16.585 -0.3944  0.2365 -0.0181
 4220SOL    HW124122   3.442   0.474  16.652 -0.7119  0.8741  0.6332
 4220SOL    HW224123   3.509   0.605  16.613 -0.2308 -0.1945  0.5628
 4221SOL     OW24124   3.997   4.321   7.461 -0.3408 -0.1924 -0.6549
 4221SOL    HW124125   3.931   4.254   7.474  1.4528 -1.6411  0.8567
 4221SOL    HW224126   4.084   4.283   7.472 -0.3341  0.1132  0.3330
 4222SOL     OW24127   4.331   1.871   5.930  0.6782  0.3359 -0.5651
 4222SOL    HW124128   4.327   1.831   5.843  2.2014  1.5704 -1.1839
 4222SOL    HW224129   4.239   1.869   5.959  0.8082 -1.1950 -0.2494
 4223SOL     OW24130   3.259   0.704  15.809  0.4922 -0.1352  0.0643
 4223SOL    HW124131   3.175   0.659  15.820 -0.8178  1.8845 -1.7762
 4223SOL    HW224132   3.291   0.725  15.897 -0.9447 -1.5740  0.9492
 4224SOL     OW24133   3.773   0.369   4.264 -0.2037 -0.0619  0.5945
 4224SOL    HW124134   3.766   0.274   4.259  0.9847 -0.2129  1.7513
 4224SOL    HW224135   3.859   0.380   4.305 -1.2313  1.9995  2.2322
 4225SOL     OW24136   2.063   0.121   1.777 -0.1856  0.1296  0.3996
 4225SOL    HW124137   2.008   0.081   1.844 -0.7001  2.0968  1.1342
 4225SOL    HW224138   2.137   0.065   1.801  0.8330  1.4909  0.4430
 4226SOL     OW24139   1.616   4.556   5.808 -0.2407  0.6737 -0.2230
 4226SOL    HW124140   1.640   4.622   5.873 -0.3664  0.1648  0.3361
 4226SOL    HW224141   1.533   4.591   5.776 -0.3169  0.4412 -0.2794
 4227SOL     OW24142   3.370   1.419   8.961 -0.3052  0.5962 -0.2737
 4227SOL    HW124143   3.433   1.412   9.033 -0.9598 -2.0401  0.0480
 4227SOL    HW224144   3.364   1.333   8.920  1.1002  0.4001 -0.0513
 4228SOL     OW24145   0.790   3.467  10.441 -0.1083  0.3961 -0.6718
 4228SOL    HW124146   0.698   3.480  10.421 -0.7565 -0.3933  1.8411
 4228SOL    HW224147   0.813   3.387  10.393  0.6266  1.9312 -2.8543
 4229SOL     OW24148   0.037   0.674  15.571 -0.0431 -0.1775  0.0779
 4229SOL    HW124149   4.677   0.721  15.586  0.8337 -0.0178  4.3491
 4229SOL    HW224150   0.010   0.586  15.600  2.4673 -1.0561 -0.2157
 4230SOL     OW24151   3.299   4.519   3.086  0.5719  0.1227  0.0990
 4230SOL    HW124152   3.348   4.579   3.029  1.6763 -1.7664 -0.9295
 4230SOL    HW224153   3.366   4.502   3.152 -1.1810 -0.1400  1.7679
 4231SOL     OW24154   2.232   0.499   1.458 -0.3289  0.3558  0.0573
 4231SOL    HW124155   2.182   0.525   1.535 -1.5148 -1.8814  0.0122
 4231SOL    HW224156   2.229   0.405   1.475  0.1362  0.6491  1.7647
 4232SOL     OW24157   1.525   1.959  16.234  0.1135  0.2774 -0.2292
 4232SOL    HW124158   1.498   1.978  16.144 -1.1573  1.9443  0.5125
 4232SOL    HW224159   1.567   2.042  16.256  0.1032 -0.6166  3.1337
 4233SOL     OW24160   4.422   3.695  13.998  0.4961 -0.3469  0.4211
 4233SOL    HW124161   4.501   3.749  13.994  1.7837 -2.3955 -1.6444
 4233SOL    HW224162   4.360   3.759  13.961  2.6894  1.4273 -0.1926
 4234SOL     OW24163   3.369   2.627   7.364 -0.1415 -0.3999  0.3031
 4234SOL    HW124164   3.281   2.592   7.354  0.5770 -1.7808 -1.2359
 4234SOL    HW224165   3.372   2.702   7.306  0.2613 -1.7366 -1.4154
 4235SOL     OW24166   3.295   1.159   3.368 -0.5861  0.0159  0.1577
 4235SOL    HW124167   3.311   1.098   3.296 -1.4922 -0.6998  0.5480
 4235SOL    HW224168   3.241   1.099   3.420 -3.1172  1.3666 -0.9111
 4236SOL     OW24169   0.778   1.191  14.787 -0.0383 -0.2198 -0.0140
 4236SOL    HW124170   0.816   1.187  14.699  1.5657 -0.5074  0.6883
 4236SOL    HW224171   0.709   1.124  14.777 -0.7329  0.6043 -0.7242
 4237SOL     OW24172   3.175   3.024   3.819  0.3264 -0.0035 -0.0890
 4237SOL    HW124173   3.096   3.015   3.872 -0.0193 -1.0058 -0.7975
 4237SOL    HW224174   3.149   3.049   3.730 -0.2793  0.9386  0.3552
 4238SOL     OW24175   2.110   2.930  16.232  0.2561 -0.0196 -0.0582
 4238SOL    HW124176   2.088   2.937  16.139 -0.6097  2.5187  0.3043
 4238SOL    HW224177   2.156   2.847  16.238 -0.3030 -0.2897  0.4533
 4239SOL     OW24178   0.059   4.229   2.615  0.0235 -0.5495 -0.2756
 4239SOL    HW124179   0.146   4.201   2.584 -0.1028  0.8548 -1.9151
 4239SOL    HW224180   0.085   4.262   2.701 -2.3077  0.9176 -0.1509
 4240SOL     OW24181   2.261   4.420   5.588 -0.6655  0.2188 -0.2081
 4240SOL    HW124182   2.185   4.470   5.559  0.4383  1.0424 -1.6462
 4240SOL    HW224183   2.220   4.334   5.604  0.8574 -0.4770 -0.0761
 4241SOL     OW24184   0.376   1.807  15.498 -0.3776  1.0032  0.1799
 4241SOL    HW124185   0.330   1.876  15.547  0.0823 -0.5522  2.7680
 4241SOL    HW224186   0.303   1.754  15.466  0.3268 -0.3383  0.8228
 4242SOL     OW24187   3.675   4.627   8.095 -0.7581 -0.0426  0.1180
 4242SOL    HW124188   3.719   4.608   8.012  2.0011 -1.9557  2.0164
 4242SOL    HW224189   3.689   4.542   8.137  1.6814 -0.0508 -0.7191
 4243SOL     OW24190   1.962   2.970   7.375 -0.0280  0.2326 -0.3956
 4243SOL    HW124191   2.028   3.021   7.327  0.9986 -2.4535 -1.8082
 4243SOL    HW224192   2.013   2.916   7.436 -2.6861 -2.6521 -0.7295
 4244SOL     OW24193   2.525   2.418  11.055 -0.0070  0.3194  0.2132
 4244SOL    HW124194   2.581   2.484  11.097 -0.9424  1.0993  0.2158
 4244SOL    HW224195   2.468   2.461  10.992 -1.1048  1.1113  1.7610
 4245SOL     OW24196   4.366   3.976   4.426 -0.0286 -0.6178 -0.4060
 4245SOL    HW124197   4.372   3.890   4.466  3.0309  0.5039  1.5349
 4245SOL    HW224198   4.453   3.979   4.386 -1.0966 -0.4382 -2.7464
 4246SOL     OW24199   2.561   0.182   2.037 -0.0958  0.2016 -0.2765
 4246SOL    HW124200   2.566   0.269   2.078  1.4179 -0.4303  0.8691
 4246SOL    HW224201   2.498   0.137   2.093 -1.1337 -0.5950 -2.0727
 4247SOL     OW24202   2.351   2.743   6.416  0.0530  0.9143  0.1468
 4247SOL    HW124203   2.407   2.820   6.413  0.3027  0.6973 -0.6783
 4247SOL    HW224204   2.368   2.700   6.332 -1.2632 -0.3217  0.4985
 4248SOL     OW24205   3.704   2.071   7.860  0.4391  0.3424  0.1202
 4248SOL    HW124206   3.769   2.003   7.879  2.0609  2.1143  0.9724
 4248SOL    HW224207   3.624   2.020   7.874  0.1419  0.9804  0.7322
 4249SOL     OW24208   2.040   1.896  12.157  0.2731  0.4000 -0.5910
 4249SOL    HW124209   2.065   1.988  12.156 -1.2992  0.8403 -0.0854
 4249SOL    HW224210   2.095   1.857  12.225  0.2177 -2.6143 -2.2511
 4250SOL     OW24211   1.550   3.185   2.869 -0.0884 -0.1496  0.2140
 4250SOL    HW124212   1.579   3.187   2.960  2.7163  0.5624 -0.6839
 4250SOL    HW224213   1.470   3.133   2.877  0.9333 -1.4929  1.5255
 4251SOL     OW24214   0.831   4.335   6.778  0.6767 -0.1098  0.1060
 4251SOL    HW124215   0.879   4.342   6.695  0.5891  1.6107  0.1933
 4251SOL    HW224216   0.778   4.415   6.771  0.0001 -0.6159 -0.5171
 4252SOL     OW24217   1.172   0.361   2.672 -0.2359  0.7774 -0.2366
 4252SOL    HW124218   1.142   0.285   2.722 -0.5769  0.2747 -1.2140
 4252SOL    HW224219   1.263   0.369   2.702 -0.6998  1.6956  0.9434
 4253SOL     OW24220   1.972   1.095   9.615 -0.2974  0.0863 -0.0808
 4253SOL    HW124221   2.013   1.069   9.698 -3.8291 -1.0046  1.3081
 4253SOL    HW224222   1.992   1.019   9.561  1.4425  1.4838 -1.3922
 4254SOL     OW24223   4.206   3.437  11.060 -0.0596  0.0669  0.0688
 4254SOL    HW124224   4.199   3.361  11.117 -2.8001  2.0219  2.3307
 4254SOL    HW224225   4.207   3.399  10.972 -1.5541  1.1218 -0.3974
 4255SOL     OW24226   0.294   0.762   7.204  0.2830 -0.4058  0.1448
 4255SOL    HW124227   0.251   0.846   7.187 -0.4275 -0.3364  2.3112
 4255SOL    HW224228   0.235   0.689   7.185 -0.4925  0.4638 -0.7904
 4256SOL     OW24229   4.306   3.938   8.150  0.5779 -0.2875  0.2037
 4256SOL    HW124230   4.390   3.982   8.163  1.1268 -1.0319 -0.8479
 4256SOL    HW224231   4.309   3.893   8.066  0.5545 -0.6058  0.3706
 4257SOL     OW24232   0.475   1.218  12.417 -0.3121 -0.1557 -0.2609
 4257SOL    HW124233   0.387   1.229  12.453 -0.3428  1.5349 -0.8524
 4257SOL    HW224234   0.513   1.182  12.497  0.4727 -1.2156 -1.1249
 4258SOL     OW24235   3.342   1.614   2.316  0.3278  0.1535  0.2868
 4258SOL    HW124236   3.326   1.667   2.394  0.9081 -0.7147  0.9882
 4258SOL    HW224237   3.375   1.673   2.248  0.8539  0.6214  0.9508
 4259SOL     OW24238   1.502   3.092  14.992 -0.4200 -0.3113  0.6817
 4259SOL    HW124239   1.487   3.049  14.908  1.3112 -0.8624  0.6498
 4259SOL    HW224240   1.422   3.143  14.998 -1.2302 -1.3259 -1.4226
 4260SOL     OW24241   3.507   4.623  13.716  0.0831 -0.4389 -0.3651
 4260SOL    HW124242   3.491   4.687  13.646 -0.3298 -0.4679 -0.3004
 4260SOL    HW224243   3.551   4.556  13.666  2.1293 -0.2271  1.1671
 4261SOL     OW24244   2.339   0.024  13.378  0.1624 -0.0692  0.1464
 4261SOL    HW124245   2.346   0.085  13.305 -0.5355 -0.4293 -0.2218
 4261SOL    HW224246   2.249   0.046  13.400 -0.0997 -0.4238 -0.5631
 4262SOL     OW24247   2.946   3.366   3.368 -0.1290  0.3342  0.3324
 4262SOL    HW124248   3.019   3.411   3.410  1.7290 -1.4966 -0.9551
 4262SOL    HW224249   2.885   3.438   3.354  1.1769  1.5060  0.7535
 4263SOL     OW24250   2.726   0.283  11.280 -0.4870  0.5158 -0.4596
 4263SOL    HW124251   2.686   0.321  11.202 -0.2571  2.6844  0.4770
 4263SOL    HW224252   2.654   0.222  11.297 -0.4583  0.9678  1.3453
 4264SOL     OW24253   1.418   3.648   8.596 -0.2277 -0.0944  0.0671
 4264SOL    HW124254   1.439   3.565   8.639  1.1711 -0.8458 -2.0658
 4264SOL    HW224255   1.323   3.640   8.605 -0.3805  0.3538 -1.1923
 4265SOL     OW24256   3.234   2.256  14.720  0.2554  0.1567 -0.8956
 4265SOL    HW124257   3.312   2.247  14.665  0.9399  0.1463  0.0977
 4265SOL    HW224258   3.263   2.216  14.801 -2.8975 -0.6200 -0.1185
 4266SOL     OW24259   0.425   4.390   5.813  0.0026  0.7953  0.2723
 4266SOL    HW124260   0.334   4.366   5.834 -0.0134  0.2600 -0.3994
 4266SOL    HW224261   0.444   4.332   5.739 -2.1900 -1.1577  1.2070
 4267SOL     OW24262   4.047   2.036   8.053 -0.0066 -0.2816  0.1276
 4267SOL    HW124263   4.111   1.995   7.995  0.9055 -1.0285  1.6781
 4267SOL    HW224264   4.036   1.980   8.129  0.4989 -0.5211  0.0223
 4268SOL     OW24265   0.459   1.378  15.367  0.2400 -0.5525 -0.1437
 4268SOL    HW124266   0.408   1.459  15.362  0.0201 -0.8083 -1.8414
 4268SOL    HW224267   0.483   1.363  15.276  3.6839 -0.1676  0.6744
 4269SOL     OW24268   2.421   4.208   3.512 -0.1412 -0.3343 -1.0053
 4269SOL    HW124269   2.367   4.278   3.476 -0.0132  0.4212  0.2459
 4269SOL    HW224270   2.464   4.174   3.434  0.8698 -1.9757  0.2428
 4270SOL     OW24271   2.608   1.103   6.132  0.4013  0.1165 -0.3498
 4270SOL    HW124272   2.619   1.124   6.040  1.8664 -0.7455 -0.3671
 4270SOL    HW224273   2.524   1.056   6.129  1.1836 -1.4008  1.5661
 4271SOL     OW24274   4.345   3.693   5.762  0.5391  0.0305  0.2964
 4271SOL    HW124275   4.425   3.745   5.757 -0.2193  1.4394  3.2036
 4271SOL    HW224276   4.292   3.733   5.830  0.4404  1.2295 -0.4849
 4272SOL     OW24277   1.108   2.903   4.375 -0.2572 -0.1261 -0.3023
 4272SOL    HW124278   1.184   2.953   4.406  0.8886 -1.3401 -1.1102
 4272SOL    HW224279   1.140   2.826   4.328  2.1194  1.4549 -1.3169
 4273SOL     OW24280   2.855   4.617   7.253 -0.6350 -0.1603 -0.1135
 4273SOL    HW124281   2.802   4.664   7.189  0.6672  0.9103 -0.4074
 4273SOL    HW224282   2.787   4.574   7.305 -0.6847 -1.8151 -1.5735
 4274SOL     OW24283   2.164   0.835   7.251  0.2843 -0.0036 -0.1544
 4274SOL    HW124284   2.245   0.884   7.239  0.8784 -0.8150  0.5607
 4274SOL    HW224285   2.146   0.860   7.342 -1.0669 -2.5197  0.2883
 4275SOL     OW24286   0.072   3.239   5.245  0.7928 -0.1521 -0.4628
 4275SOL    HW124287   4.717   3.185   5.227  1.3667 -1.5228  1.2276
 4275SOL    HW224288   0.031   3.304   5.302  0.0785 -0.8219 -0.2111
 4276SOL     OW24289   3.633   4.117   9.465  0.4731 -0.8609 -0.2100
 4276SOL    HW124290   3.595   4.060   9.532  0.5593 -0.5059  0.1450
 4276SOL    HW224291   3.685   4.170   9.526  1.4032  0.2615 -1.9585
 4277SOL     OW24292   0.051   2.053   7.480  0.2502 -0.1127  0.0485
 4277SOL    HW124293   0.139   2.044   7.444 -0.3741 -1.8731 -1.0303
 4277SOL    HW224294   0.015   2.138   7.454  0.6852  0.7800  2.3640
 4278SOL     OW24295   2.023   0.854   2.946  0.1082  0.2564 -0.0731
 4278SOL    HW124296   2.068   0.875   2.864 -2.0812 -0.3483 -1.4181
 4278SOL    HW224297   2.034   0.938   2.991 -0.7720  0.5750 -0.4572
 4279SOL     OW24298   3.965   2.254   3.905  0.0143  0.5932  0.2873
 4279SOL    HW124299   4.045   2.202   3.898  2.1067  3.6987  1.6087
 4279SOL    HW224300   3.899   2.185   3.895  1.5445 -0.8880  0.3302
 4280SOL     OW24301   1.742   3.094  16.382  0.3873 -0.3792 -0.0166
 4280SOL    HW124302   1.738   3.118  16.474  1.2935  2.9160 -0.8526
 4280SOL    HW224303   1.647   3.096  16.370  0.6005  1.8321 -1.2838
 4281SOL     OW24304   2.503   2.706  11.891 -0.1047  0.1240  0.0377
 4281SOL    HW124305   2.504   2.748  11.977  0.7189  0.1727  0.0113
 4281SOL    HW224306   2.481   2.613  11.901 -1.9042  0.5380 -0.1804
 4282SOL     OW24307   0.390   2.077   1.958  0.0886  0.0623 -0.1517
 4282SOL    HW124308   0.376   1.983   1.948 -0.5476  0.0568  0.8280
 4282SOL    HW224309   0.420   2.098   1.869  0.5132  3.1801  0.7167
 4283SOL     OW24310   3.419   1.275  14.615  0.2309  0.2835 -0.0105
 4283SOL    HW124311   3.330   1.308  14.614 -0.5059 -1.7307  0.7684
 4283SOL    HW224312   3.469   1.347  14.654  0.6180  0.3372 -0.5987
 4284SOL     OW24313   1.974   4.428   2.817  0.0746 -0.7334 -0.2193
 4284SOL    HW124314   2.020   4.414   2.734 -1.0236 -0.1859 -0.9354
 4284SOL    HW224315   1.887   4.464   2.796 -0.5248 -1.8146  0.3817
 4285SOL     OW24316   1.991   2.246   3.415 -0.1092 -0.2251 -0.0662
 4285SOL    HW124317   1.900   2.220   3.423  0.2945 -0.9648  2.1897
 4285SOL    HW224318   2.020   2.252   3.506 -0.3127  1.3864 -0.1163
 4286SOL     OW24319   0.426   1.351   8.485  0.6485  0.8753  0.1423
 4286SOL    HW124320   0.448   1.376   8.575  1.1157 -2.3824  0.9261
 4286SOL    HW224321   0.496   1.393   8.435  0.4010  0.9192 -0.1661
 4287SOL     OW24322   4.514   3.798   6.328  0.3050  0.3484 -0.0634
 4287SOL    HW124323   4.480   3.715   6.295 -0.2050 -0.1324  1.6660
 4287SOL    HW224324   4.594   3.769   6.370 -0.2992  0.9461  1.5077
 4288SOL     OW24325   3.407   3.429   7.397 -0.4445  0.1376 -0.3354
 4288SOL    HW124326   3.356   3.476   7.463  0.9908  0.9459  0.1910
 4288SOL    HW224327   3.363   3.465   7.320 -1.8886  1.6995  1.2296
 4289SOL     OW24328   0.580   1.772   8.615 -0.0125  0.1776  0.4389
 4289SOL    HW124329   0.634   1.826   8.558  1.0446  0.4841  1.7341
 4289SOL    HW224330   0.529   1.836   8.666 -0.2668 -0.1725  0.6270
 4290SOL     OW24331   3.175   0.998   3.824 -0.0655 -0.0321  0.5399
 4290SOL    HW124332   3.230   0.924   3.800  1.4411  0.0016  3.8280
 4290SOL    HW224333   3.104   0.999   3.760  1.1827 -0.5856 -0.8574
 4291SOL     OW24334   1.398   0.940   2.013  0.0351  0.0179 -0.5584
 4291SOL    HW124335   1.353   0.923   2.096 -0.1701 -0.8925 -0.8626
 4291SOL    HW224336   1.475   0.885   2.026 -1.8104 -2.4987 -0.2802
 4292SOL     OW24337   0.115   0.931  10.080  0.1286  0.4189  0.0680
 4292SOL    HW124338   0.028   0.954  10.113  0.3099  0.3677  0.5803
 4292SOL    HW224339   0.156   1.017  10.072 -2.4391  1.7264  0.7676
 4293SOL     OW24340   0.902   0.861   1.042 -0.0293  0.4902  0.0128
 4293SOL    HW124341   0.912   0.945   0.996  0.1409  0.3900 -0.1313
 4293SOL    HW224342   0.807   0.856   1.040 -0.0139 -0.5493  1.5447
 4294SOL     OW24343   0.204   4.623   7.918 -0.1588 -0.2046  0.4096
 4294SOL    HW124344   0.165   4.536   7.924 -0.6654 -0.0331 -0.3542
 4294SOL    HW224345   0.157   4.653   7.840  1.9079  1.0350 -0.3454
 4295SOL     OW24346   1.102   1.609  15.511 -0.1986 -0.7855  0.2093
 4295SOL    HW124347   1.107   1.605  15.607 -0.5181  1.3300  0.3319
 4295SOL    HW224348   1.027   1.669  15.505 -1.2518 -2.2440 -0.9714
 4296SOL     OW24349   2.849   4.349   2.037 -0.5109 -0.0684 -0.0464
 4296SOL    HW124350   2.764   4.387   2.013 -1.0520 -0.8313  0.6896
 4296SOL    HW224351   2.856   4.264   1.993  3.8504  0.6911 -0.8373
 4297SOL     OW24352   3.979   2.866   2.214 -0.4247  0.4695 -0.0928
 4297SOL    HW124353   3.967   2.848   2.120  2.0162  0.7266 -0.4569
 4297SOL    HW224354   3.886   2.880   2.230 -0.7931 -2.2038  0.1116
 4298SOL     OW24355   1.119   2.964   4.672 -0.6354  0.1066 -0.1001
 4298SOL    HW124356   1.150   2.878   4.699  0.4633  0.7026  0.5726
 4298SOL    HW224357   1.165   2.965   4.588  0.8861 -0.4133  0.7198
 4299SOL     OW24358   3.612   3.816   7.458  0.1939 -0.6208  0.1907
 4299SOL    HW124359   3.610   3.796   7.552 -0.7768 -1.0211  0.0866
 4299SOL    HW224360   3.548   3.887   7.458  1.2793  0.3626 -1.3473
 4300SOL     OW24361   3.472   0.719   2.447  0.5493 -0.2733 -0.1321
 4300SOL    HW124362   3.442   0.773   2.374  1.1818 -0.5192 -0.5759
 4300SOL    HW224363   3.387   0.677   2.455 -0.6577  2.3028  0.5535
 4301SOL     OW24364   1.166   1.712  16.724  0.1047 -0.7834 -0.2300
 4301SOL    HW124365   1.175   1.734  16.631 -5.8696  0.7610 -0.4386
 4301SOL    HW224366   1.073   1.689  16.734 -0.0291 -0.0920  0.0799
 4302SOL     OW24367   2.395   1.479   3.332 -0.1749 -0.2253  0.0055
 4302SOL    HW124368   2.421   1.465   3.241  0.7258  0.1731  0.2018
 4302SOL    HW224369   2.310   1.436   3.337 -0.7405  0.7068 -1.6666
 4303SOL     OW24370   3.537   4.017   7.922  0.1646  0.4729 -0.8167
 4303SOL    HW124371   3.486   4.019   8.003 -0.5198  0.1446 -1.2435
 4303SOL    HW224372   3.528   4.108   7.893 -0.9140  0.3665 -0.7807
 4304SOL     OW24373   0.478   1.900   3.711 -0.3058 -0.0183  0.1547
 4304SOL    HW124374   0.531   1.871   3.637  2.3497  0.9999  1.6911
 4304SOL    HW224375   0.387   1.883   3.686  0.1145 -2.0581  0.0242
 4305SOL     OW24376   4.341   1.031  13.362  0.3927 -0.0304 -0.2134
 4305SOL    HW124377   4.399   1.083  13.417  0.2150 -0.9661  0.8718
 4305SOL    HW224378   4.381   1.034  13.276 -0.3049  0.9904 -0.5097
 4306SOL     OW24379   1.614   3.792   7.669  0.0217  0.3558 -0.4978
 4306SOL    HW124380   1.613   3.697   7.657 -2.2348  0.1745  1.1620
 4306SOL    HW224381   1.595   3.833   7.584  0.6293 -1.6170 -1.5772
 4307SOL     OW24382   0.172   1.601  17.685 -0.1550 -0.0383  0.3247
 4307SOL    HW124383   0.182   1.565   0.084  0.2806 -0.5251  0.0814
 4307SOL    HW224384   0.104   1.541  17.654  0.0211 -0.9027  1.6200
 4308SOL     OW24385   0.675   4.432   2.273  0.4163 -0.4167 -0.3968
 4308SOL    HW124386   0.595   4.387   2.299 -1.6225  3.6371  0.3348
 4308SOL    HW224387   0.675   4.412   2.179 -0.3025  0.9210 -0.6853
 4309SOL     OW24388   0.811   3.463   7.795 -0.1198 -0.4523  0.3868
 4309SOL    HW124389   0.779   3.471   7.885 -2.5472 -1.7891 -0.3628
 4309SOL    HW224390   0.885   3.520   7.817 -1.1647  1.1898 -0.4047
 4310SOL     OW24391   0.250   2.717   5.501 -0.7494  0.2240  0.1429
 4310SOL    HW124392   0.223   2.692   5.589 -1.4649  2.0100  0.4270
 4310SOL    HW224393   0.173   2.758   5.461 -1.1209 -1.5424 -0.9235
 4311SOL     OW24394   0.352   3.856   4.798 -0.0094 -0.1096  0.1900
 4311SOL    HW124395   0.379   3.766   4.820  1.8017  0.3020 -0.3788
 4311SOL    HW224396   0.355   3.862   4.703  0.0207  1.7212  0.3188
 4312SOL     OW24397   1.466   3.982  11.053  0.2537  0.4279  0.9959
 4312SOL    HW124398   1.476   3.888  11.043 -0.5305  0.4773 -0.2983
 4312SOL    HW224399   1.379   4.001  11.018 -0.0351 -2.5172  0.1443
 4313SOL     OW24400   1.147   3.295   6.180  0.0280  0.3015 -0.2282
 4313SOL    HW124401   1.154   3.241   6.259 -1.7795  1.0897  0.4569
 4313SOL    HW224402   1.230   3.345   6.181  0.4231 -0.3279 -2.6409
 4314SOL     OW24403   0.064   3.302   6.974  0.2827  0.1896  0.1480
 4314SOL    HW124404   4.692   3.318   6.980  0.3250  0.2981  0.5236
 4314SOL    HW224405   0.074   3.243   7.049 -0.2544 -1.1566 -0.8455
 4315SOL     OW24406   3.104   3.210   7.032 -0.0935 -0.1777  0.3603
 4315SOL    HW124407   3.145   3.194   6.948  2.3927 -0.3738  1.6171
 4315SOL    HW224408   3.047   3.133   7.037  2.0340 -1.6967  1.2449
 4316SOL     OW24409   3.406   4.633   2.691  0.0510 -0.1496 -0.3701
 4316SOL    HW124410   3.460   4.614   2.768  0.5840  0.0960 -0.6815
 4316SOL    HW224411   3.427   4.553   2.641  1.8742 -0.0910  0.3232
 4317SOL     OW24412   4.178   0.219   9.252  0.3009 -0.5743 -0.0526
 4317SOL    HW124413   4.104   0.280   9.252  0.7520 -0.0240  1.2298
 4317SOL    HW224414   4.228   0.257   9.324  2.8794  0.0673 -2.1647
 4318SOL     OW24415   2.180   1.349   2.573 -0.1629  0.2444  0.1210
 4318SOL    HW124416   2.165   1.427   2.521  0.3026 -0.0800 -0.4989
 4318SOL    HW224417   2.203   1.389   2.657 -0.8068  0.2200  0.3141
 4319SOL     OW24418   2.183   2.696   4.990 -0.5566 -0.1671  0.7171
 4319SOL    HW124419   2.146   2.609   4.985 -0.0491 -0.2210 -1.9580
 4319SOL    HW224420   2.182   2.726   4.899  0.9012 -1.2696  0.3315
 4320SOL     OW24421   0.402   3.764   8.031 -0.1952  0.2153  0.0818
 4320SOL    HW124422   0.378   3.848   8.071 -0.3065 -0.5351  1.6115
 4320SOL    HW224423   0.320   3.716   8.044  0.2133 -0.3004  0.7615
 4321SOL     OW24424   3.114   3.172   9.204  0.0129  0.1978  0.5918
 4321SOL    HW124425   3.113   3.266   9.222 -2.2850  0.4532 -0.8963
 4321SOL    HW224426   3.097   3.140   9.292  2.4313 -0.0881  0.9561
 4322SOL     OW24427   0.436   0.378   7.278  0.1660  0.3117  0.2218
 4322SOL    HW124428   0.356   0.386   7.330  1.9266  0.9877  2.8027
 4322SOL    HW224429   0.399   0.412   7.196  1.2669 -0.7340 -0.7079
 4323SOL     OW24430   2.580   0.056   5.890  0.5633  0.2077 -0.1064
 4323SOL    HW124431   2.488   0.036   5.908  1.1150  0.4866  2.9360
 4323SOL    HW224432   2.572   0.151   5.895 -1.0711 -0.0717  2.4189
 4324SOL     OW24433   0.976   0.047   7.824  0.8739  1.0826  0.0248
 4324SOL    HW124434   1.068   0.073   7.816  0.9539  0.4775 -1.0807
 4324SOL    HW224435   0.982   4.718   7.905 -0.3556  0.4869 -0.2640
 4325SOL     OW24436   3.587   2.219  17.096  0.0359 -0.2898  0.3985
 4325SOL    HW124437   3.604   2.179  17.011 -0.0922 -3.1059  1.6938
 4325SOL    HW224438   3.617   2.308  17.080  0.6619 -0.6168 -0.2266
 4326SOL     OW24439   3.607   3.172  14.870  0.1475  0.0810  0.0312
 4326SOL    HW124440   3.583   3.204  14.957 -0.1316  1.1361 -0.4302
 4326SOL    HW224441   3.648   3.087  14.887 -0.1067  0.4170  2.3847
 4327SOL     OW24442   3.632   1.283   0.876  0.3861  0.3004 -0.3623
 4327SOL    HW124443   3.688   1.351   0.913  2.3727 -0.7542 -1.4492
 4327SOL    HW224444   3.662   1.277   0.786 -0.5046  2.1393 -0.7862
 4328SOL     OW24445   0.072   2.885   0.369 -0.2592 -0.5415 -0.6479
 4328SOL    HW124446   0.056   2.976   0.396 -1.2427 -0.2523 -2.2432
 4328SOL    HW224447   0.014   2.832   0.424  2.9043 -0.3633  2.8929
 4329SOL     OW24448   2.008   4.058   8.019 -0.1043  0.4633 -0.6528
 4329SOL    HW124449   2.037   4.012   7.940  0.9216 -1.1459  0.6599
 4329SOL    HW224450   2.065   4.024   8.088  1.5202 -0.0629 -2.2622
 4330SOL     OW24451   0.603   3.052   3.435 -0.3908 -0.3874 -0.6627
 4330SOL    HW124452   0.685   3.030   3.391  0.2469  0.3255  0.1689
 4330SOL    HW224453   0.622   3.145   3.449 -1.5282 -0.5306  1.7340
 4331SOL     OW24454   3.003   3.349   7.916  0.1498 -0.1241  0.0536
 4331SOL    HW124455   3.046   3.421   7.960  1.1365  0.0773 -1.2536
 4331SOL    HW224456   3.014   3.283   7.984  0.9632 -1.0961 -1.0232
 4332SOL     OW24457   2.762   3.790   5.586  0.4144  0.0062  0.3399
 4332SOL    HW124458   2.740   3.698   5.576 -1.6206  0.4904  0.2269
 4332SOL    HW224459   2.842   3.794   5.534  0.3739  0.7327  0.3282
 4333SOL     OW24460   1.829   1.254  12.388  0.1354 -0.7918  0.7116
 4333SOL    HW124461   1.918   1.249  12.425  1.5384  2.1807 -2.2840
 4333SOL    HW224462   1.786   1.197  12.452  0.9847  0.2900  2.2684
 4334SOL     OW24463   4.297   4.418  12.463 -0.1643 -0.7229 -0.1317
 4334SOL    HW124464   4.331   4.464  12.540  0.6931 -0.8760 -0.4229
 4334SOL    HW224465   4.336   4.331  12.474  3.0047  0.7579  0.4193
 4335SOL     OW24466   2.221   2.587  13.260  0.4590 -0.6080  0.0374
 4335SOL    HW124467   2.291   2.575  13.324  2.1071  1.7200 -1.3025
 4335SOL    HW224468   2.275   2.597  13.181 -1.3098 -0.3610 -1.1349
 4336SOL     OW24469   1.323   0.597   1.669  0.0241 -0.2732  1.0354
 4336SOL    HW124470   1.309   0.588   1.763 -0.9823 -0.0760  0.8978
 4336SOL    HW224471   1.235   0.611   1.635  0.7811 -1.2558 -1.2937
 4337SOL     OW24472   3.065   1.920   2.343  0.2964  0.2783  0.1139
 4337SOL    HW124473   3.072   2.012   2.317 -0.1668  0.4852  0.7421
 4337SOL    HW224474   3.075   1.928   2.438  1.5918 -2.5785  0.2023
 4338SOL     OW24475   2.582   1.549   6.197 -0.3530  0.2113 -1.0239
 4338SOL    HW124476   2.670   1.553   6.160  0.3515 -0.6752  0.5716
 4338SOL    HW224477   2.575   1.458   6.225 -2.8236  0.8496  0.4122
 4339SOL     OW24478   3.763   3.396   4.631  0.0892 -0.2000  0.0335
 4339SOL    HW124479   3.796   3.485   4.619 -0.9842  0.3357  1.0276
 4339SOL    HW224480   3.687   3.407   4.574 -0.6563  1.6287  1.3790
 4340SOL     OW24481   1.418   3.516   4.070  0.0068  0.2581  0.0769
 4340SOL    HW124482   1.475   3.553   4.002  1.9067 -0.1048  1.4855
 4340SOL    HW224483   1.376   3.445   4.022  2.3823 -0.9163 -0.2046
 4341SOL     OW24484   2.366   1.089  14.298  0.1400 -0.4098 -0.2307
 4341SOL    HW124485   2.344   0.999  14.324 -0.3583  0.5821  2.7816
 4341SOL    HW224486   2.280   1.116  14.265 -0.3366 -0.7731  0.6992
 4342SOL     OW24487   3.704   4.224  12.503  0.1274 -0.0328 -0.5032
 4342SOL    HW124488   3.732   4.276  12.428 -0.6252  1.8531  0.5170
 4342SOL    HW224489   3.675   4.141  12.467 -1.2274  0.6639 -1.0439
 4343SOL     OW24490   2.385   1.130   5.869 -0.1976 -0.0390 -0.1093
 4343SOL    HW124491   2.360   1.079   5.946  0.3022  0.3368  0.3043
 4343SOL    HW224492   2.396   1.059   5.806  0.0991 -1.3384  1.3891
 4344SOL     OW24493   0.197   0.471  10.749 -0.2353 -0.8052 -0.5047
 4344SOL    HW124494   0.223   0.466  10.657  2.4124  1.6132  0.1194
 4344SOL    HW224495   0.105   0.497  10.744 -0.3813 -0.9774  1.1749
 4345SOL     OW24496   4.709   1.682   7.292 -0.1552  0.8306 -0.3086
 4345SOL    HW124497   4.622   1.718   7.271  1.0645  2.6478 -2.2812
 4345SOL    HW224498   4.710   1.698   7.386  1.5593 -2.0974  0.1736
 4346SOL     OW24499   1.943   3.248   8.880 -0.4560 -0.0358  0.4920
 4346SOL    HW124500   1.861   3.273   8.923  0.5044  0.2098  2.1647
 4346SOL    HW224501   1.984   3.205   8.955  0.6043 -1.5119 -0.9328
 4347SOL     OW24502   2.834   1.183   4.315  0.0560 -0.2199  0.4403
 4347SOL    HW124503   2.915   1.138   4.338  1.7918  1.1126 -3.0137
 4347SOL    HW224504   2.777   1.106   4.312 -1.8858  1.2305  0.8042
 4348SOL     OW24505   1.002   0.426   5.900 -0.2924  0.0674  0.2329
 4348SOL    HW124506   1.050   0.483   5.840  0.4478 -1.1113 -0.3007
 4348SOL    HW224507   0.947   0.380   5.835 -1.1386 -0.4642  1.3233
 4349SOL     OW24508   4.299   1.154   6.785 -0.0646  0.4141  0.5475
 4349SOL    HW124509   4.227   1.170   6.846  0.3787 -2.1140  1.7050
 4349SOL    HW224510   4.303   1.234   6.732 -2.3803  1.0348  1.3188
 4350SOL     OW24511   4.069   4.367  14.176  0.3855  0.3590  0.1395
 4350SOL    HW124512   4.133   4.296  14.184 -0.3344 -0.4559 -1.3062
 4350SOL    HW224513   3.999   4.324  14.227 -0.2839 -2.1237 -2.8646
 4351SOL     OW24514   3.237   4.320   1.573  0.0414 -0.4875  0.0681
 4351SOL    HW124515   3.249   4.246   1.514 -1.5260 -1.2787  0.7392
 4351SOL    HW224516   3.171   4.365   1.522 -0.2022 -1.6709 -0.6479
 4352SOL     OW24517   2.351   0.983   6.090 -0.1569  0.1031  0.1857
 4352SOL    HW124518   2.373   0.911   6.150 -0.9294 -0.7728 -0.5917
 4352SOL    HW224519   2.267   1.010   6.126 -0.1058  2.7315 -1.6736
 4353SOL     OW24520   4.688   0.123  13.829  0.5064  0.5078 -0.4385
 4353SOL    HW124521   4.695   0.218  13.838 -1.2383  0.5541  0.4949
 4353SOL    HW224522   0.053   0.101  13.797  1.6622 -0.5143  3.3482
 4354SOL     OW24523   0.503   0.054  13.352  0.8696 -0.4165  0.0967
 4354SOL    HW124524   0.469   4.697  13.395  2.6861 -1.3116 -0.0953
 4354SOL    HW224525   0.525   0.113  13.424 -0.1026  0.3836 -0.2717
 4355SOL     OW24526   3.160   1.401   3.411  0.8753  0.2700 -0.7600
 4355SOL    HW124527   3.139   1.443   3.327  2.3621  3.2360  0.3259
 4355SOL    HW224528   3.185   1.315   3.376  1.8133 -0.1481  0.9457
 4356SOL     OW24529   3.825   2.524   6.374 -0.0606 -0.0190  0.6380
 4356SOL    HW124530   3.857   2.614   6.373  0.9226 -0.3828 -1.8570
 4356SOL    HW224531   3.815   2.511   6.468  0.9573 -2.1272  0.4620
 4357SOL     OW24532   2.732   2.222   9.193 -0.5520  0.3067  0.4247
 4357SOL    HW124533   2.755   2.264   9.110 -1.9655  1.1342  0.4382
 4357SOL    HW224534   2.760   2.293   9.251 -1.4112  0.3096  0.8358
 4358SOL     OW24535   3.717   2.407   9.929  0.2321 -0.1083  0.6011
 4358SOL    HW124536   3.670   2.429  10.009  0.1323  0.0762  0.4902
 4358SOL    HW224537   3.735   2.497   9.902 -1.0710  0.2348  0.8973
 4359SOL     OW24538   2.559   2.341  11.683  0.2444 -0.1853  0.1810
 4359SOL    HW124539   2.575   2.309  11.594 -2.6792  1.4146 -0.9164
 4359SOL    HW224540   2.517   2.422  11.655  0.4439 -0.6341 -1.4430
 4360SOL     OW24541   2.344   2.568   7.470 -0.1154  0.1421  0.1970
 4360SOL    HW124542   2.275   2.545   7.532  0.2538 -0.8787  0.2343
 4360SOL    HW224543   2.409   2.608   7.527 -0.5008 -0.6929  1.2098
 4361SOL     OW24544   4.642   1.385   2.228  0.0292 -0.2687 -0.2256
 4361SOL    HW124545   4.668   1.476   2.238 -0.4141 -0.1453 -0.2029
 4361SOL    HW224546   4.575   1.388   2.296  0.3190  0.0865  0.0456
 4362SOL     OW24547   3.878   0.836   6.588 -0.0713 -0.8625 -0.7359
 4362SOL    HW124548   3.898   0.899   6.656  2.3054 -1.0535 -1.2617
 4362SOL    HW224549   3.964   0.831   6.546 -1.1282 -1.3832 -2.8530
 4363SOL     OW24550   4.399   1.047   1.712  0.4385 -0.5387  0.1666
 4363SOL    HW124551   4.490   1.074   1.707  0.0973  0.6425  0.2454
 4363SOL    HW224552   4.360   1.132   1.735  1.4948  0.1766 -0.6551
 4364SOL     OW24553   1.909   4.619  15.171 -0.3144  0.4035  0.0508
 4364SOL    HW124554   1.856   4.558  15.121  2.2683  0.9814 -3.3678
 4364SOL    HW224555   1.979   4.628  15.106 -0.9249  0.8469 -0.5432
 4365SOL     OW24556   4.044   1.876   8.256  0.1572 -0.2672  0.0372
 4365SOL    HW124557   4.119   1.857   8.312  0.9261 -0.8175 -1.1765
 4365SOL    HW224558   3.971   1.899   8.313  0.6839 -0.1671  0.6694
 4366SOL     OW24559   2.079   4.008   4.978  0.4633  0.3166  0.3303
 4366SOL    HW124560   2.157   4.061   4.995 -0.9956  2.3754  0.7232
 4366SOL    HW224561   2.059   3.960   5.058  0.7587 -0.1051  0.1511
 4367SOL     OW24562   4.192   1.808   1.339 -0.5659 -0.2425 -0.1449
 4367SOL    HW124563   4.163   1.736   1.283 -0.3296 -0.4178 -0.0435
 4367SOL    HW224564   4.265   1.846   1.291 -0.4376 -0.0896  0.1731
 4368SOL     OW24565   1.863   2.358   8.583  0.2711  0.0723  0.3282
 4368SOL    HW124566   1.815   2.295   8.637  0.2956 -0.2818 -0.0629
 4368SOL    HW224567   1.811   2.436   8.604  0.1562  0.5434 -1.6693
 4369SOL     OW24568   2.036   3.406   6.448 -0.1011 -0.4128  0.4579
 4369SOL    HW124569   2.061   3.498   6.438 -2.0370  0.2241  1.4884
 4369SOL    HW224570   2.037   3.391   6.543  1.0531 -0.4794  0.4280
 4370SOL     OW24571   4.042   0.280  12.734 -0.0077  0.0461 -0.3112
 4370SOL    HW124572   4.052   0.361  12.783  1.0160 -1.2510  1.6275
 4370SOL    HW224573   4.134   0.258  12.716 -0.1246 -1.3838  0.8203
 4371SOL     OW24574   3.858   3.549   8.108  0.1671  0.3237  0.0347
 4371SOL    HW124575   3.772   3.560   8.148 -0.4045  1.5445 -1.5682
 4371SOL    HW224576   3.839   3.478   8.048  1.2161 -1.1231  1.3945
 4372SOL     OW24577   2.482   1.472   7.009  0.0929 -0.0942 -0.7379
 4372SOL    HW124578   2.471   1.533   7.082  3.5663 -1.0302  0.5588
 4372SOL    HW224579   2.534   1.399   7.041 -0.8543 -0.4228  0.0643
 4373SOL     OW24580   1.770   1.603   0.371 -0.0236  0.2005 -0.6686
 4373SOL    HW124581   1.831   1.675   0.356  0.6466 -0.8561 -3.0477
 4373SOL    HW224582   1.822   1.568   0.444 -1.0526 -0.8032 -0.4226
 4374SOL     OW24583   0.481   2.282  16.960  0.1799  0.3748 -0.5273
 4374SOL    HW124584   0.568   2.260  16.994 -0.4691 -0.2267  0.7542
 4374SOL    HW224585   0.420   2.271  17.033 -0.6886  1.8698 -1.0584
 4375SOL     OW24586   0.546   1.641  15.600 -0.2589 -0.1133  0.0722
 4375SOL    HW124587   0.480   1.698  15.561  0.6292  0.4817 -0.5584
 4375SOL    HW224588   0.516   1.626  15.690 -0.5993 -0.5432 -0.1147
 4376SOL     OW24589   2.447   2.304  13.606  0.5608 -0.3547 -0.1898
 4376SOL    HW124590   2.409   2.387  13.635 -1.4633 -1.0471 -0.8601
 4376SOL    HW224591   2.519   2.336  13.551 -2.1096  0.0515 -3.4848
 4377SOL     OW24592   1.540   4.443  10.549  0.1608  0.3076  0.3903
 4377SOL    HW124593   1.602   4.497  10.499 -0.5262  1.3407  0.6670
 4377SOL    HW224594   1.538   4.483  10.636 -0.7900  0.9262  0.0784
 4378SOL     OW24595   4.168   3.272   8.672  0.5929 -0.2281 -0.0661
 4378SOL    HW124596   4.218   3.354   8.674  3.0200 -1.7557  1.6068
 4378SOL    HW224597   4.160   3.243   8.763 -0.5365  1.3696  0.3415
 4379SOL     OW24598   2.759   4.709   5.710 -0.3374  0.1583  0.1233
 4379SOL    HW124599   2.703   0.018   5.782  0.9738 -1.8358  2.0006
 4379SOL    HW224600   2.791   4.626   5.745  0.7022  0.6698  0.3940
 4380SOL     OW24601   1.264   4.207  15.152 -0.2056 -0.0822 -0.0920
 4380SOL    HW124602   1.322   4.208  15.228  1.1905 -0.4318 -1.1348
 4380SOL    HW224603   1.328   4.193  15.082  0.2645 -1.0367  0.5293
 4381SOL     OW24604   0.174   4.194   6.469  1.0551  0.1176 -0.7936
 4381SOL    HW124605   0.143   4.284   6.474 -1.0243 -0.6910  0.8175
 4381SOL    HW224606   0.186   4.182   6.375 -1.9399 -0.5306 -1.1161
 4382SOL     OW24607   0.499   0.544   8.382 -0.5138  0.2620  0.1769
 4382SOL    HW124608   0.583   0.498   8.380  0.1817  1.6672 -2.6973
 4382SOL    HW224609   0.438   0.486   8.337 -0.9151  0.2208  0.7806
 4383SOL     OW24610   3.315   0.825  11.771 -0.2895  1.0308 -0.1334
 4383SOL    HW124611   3.404   0.860  11.771 -0.1771  0.7495 -0.1341
 4383SOL    HW224612   3.298   0.814  11.677  2.2596 -1.6208 -0.2935
 4384SOL     OW24613   2.732   2.864   6.047 -0.3497  0.5848 -0.0732
 4384SOL    HW124614   2.725   2.796   5.981  0.8242 -0.5458  0.9577
 4384SOL    HW224615   2.825   2.858   6.070 -0.0565  1.6167 -0.9714
 4385SOL     OW24616   2.167   3.914   4.156 -0.0713 -0.0593  0.1635
 4385SOL    HW124617   2.099   3.856   4.187  0.5146 -0.5819  0.4660
 4385SOL    HW224618   2.240   3.891   4.213 -0.2145  1.4531  0.9582
 4386SOL     OW24619   4.390   1.233   7.164  0.1410  0.1933 -0.4984
 4386SOL    HW124620   4.466   1.286   7.189 -0.7703  0.2910  2.1390
 4386SOL    HW224621   4.397   1.159   7.224 -0.5483 -0.5065 -1.2988
 4387SOL     OW24622   4.312   2.099   8.751  0.0579 -0.2494  0.7216
 4387SOL    HW124623   4.405   2.111   8.765  0.0190  0.2562  0.5656
 4387SOL    HW224624   4.276   2.174   8.798 -1.5439 -1.2448  1.0840
 4388SOL     OW24625   3.112   4.037   8.143  0.3384  0.0225 -0.7301
 4388SOL    HW124626   3.040   4.004   8.196  0.9051 -1.8131 -1.1071
 4388SOL    HW224627   3.056   4.077   8.077 -1.3719 -0.2305  0.5655
 4389SOL     OW24628   1.790   1.602   2.735 -0.0525 -0.0941 -0.0201
 4389SOL    HW124629   1.782   1.637   2.824  2.9289  1.2787 -0.3101
 4389SOL    HW224630   1.786   1.507   2.752 -2.9827  0.1237  0.4954
 4390SOL     OW24631   0.210   0.011   8.585 -0.0947  0.1577  0.5774
 4390SOL    HW124632   0.251   4.647   8.572 -0.0274  0.2082  0.4629
 4390SOL    HW224633   0.281   0.072   8.564 -1.7114  2.6319  2.3579
 4391SOL     OW24634   2.569   1.296   8.103 -0.1763 -1.0443 -0.0997
 4391SOL    HW124635   2.649   1.249   8.128  0.7971  2.0364  2.7551
 4391SOL    HW224636   2.511   1.224   8.082  0.7842 -0.9346 -3.1250
 4392SOL     OW24637   3.037   2.056   5.685  0.0587  0.1583 -0.0852
 4392SOL    HW124638   2.972   1.991   5.710 -1.8358  1.7413 -0.9321
 4392SOL    HW224639   3.123   2.030   5.719  1.1199  0.7409 -2.3364
 4393SOL     OW24640   0.487   2.368   6.671 -0.1899  0.2865 -0.0513
 4393SOL    HW124641   0.449   2.451   6.642 -0.3957 -0.6408 -2.4353
 4393SOL    HW224642   0.437   2.299   6.627  0.2230 -0.1970  0.2395
 4394SOL     OW24643   2.983   1.593  12.930 -0.5739 -0.3296 -0.0754
 4394SOL    HW124644   3.010   1.501  12.927  0.0743 -0.1953  1.4576
 4394SOL    HW224645   3.010   1.617  13.019 -3.3677  0.4637  0.5537
 4395SOL     OW24646   1.323   1.602   5.922 -0.0954  0.3085  0.0509
 4395SOL    HW124647   1.376   1.559   5.855 -1.2062 -1.7994  0.5323
 4395SOL    HW224648   1.318   1.530   5.985  0.2260  0.2765  0.0396
 4396SOL     OW24649   1.456   3.608   0.254 -0.4089  0.4266 -0.1805
 4396SOL    HW124650   1.537   3.647   0.220  1.1667 -1.3784  1.4876
 4396SOL    HW224651   1.379   3.648   0.213 -0.5449  1.5640  1.1685
 4397SOL     OW24652   3.959   0.505   6.146  0.6639 -0.0840 -0.2023
 4397SOL    HW124653   3.916   0.477   6.065 -0.9500  1.3094  0.1849
 4397SOL    HW224654   3.883   0.490   6.203  0.8112 -0.4664 -0.1046
 4398SOL     OW24655   1.906   0.327   7.525  0.6285  0.4588  0.5196
 4398SOL    HW124656   1.949   0.406   7.559  1.8925 -0.5278  1.2362
 4398SOL    HW224657   1.815   0.346   7.548  0.4050 -0.6050  0.4926
 4399SOL     OW24658   3.934   0.372   4.906  0.3157 -0.3710 -0.2511
 4399SOL    HW124659   3.889   0.289   4.926 -2.9614  1.1848 -1.2474
 4399SOL    HW224660   3.909   0.368   4.814 -1.4010 -0.3939  0.2202
 4400SOL     OW24661   4.066   3.622   1.158  0.2941 -0.1209  0.3639
 4400SOL    HW124662   4.024   3.705   1.181  1.0817  0.8838 -1.8701
 4400SOL    HW224663   4.057   3.576   1.241 -1.7148 -0.8024 -0.2427
 4401SOL     OW24664   0.643   2.981  16.193  0.5382  0.0908  0.5038
 4401SOL    HW124665   0.700   2.918  16.236  0.8503  0.0698  0.0620
 4401SOL    HW224666   0.581   2.996  16.264 -2.2974 -1.3539 -1.6831
 4402SOL     OW24667   1.981   3.516   8.792 -0.1596  0.5334  0.0652
 4402SOL    HW124668   1.898   3.553   8.760  0.3678 -1.6447 -3.8095
 4402SOL    HW224669   1.941   3.438   8.830 -0.7336  0.6551 -0.2912
 4403SOL     OW24670   2.860   2.050   8.422  0.6710  0.3427  0.6366
 4403SOL    HW124671   2.825   2.122   8.475 -2.1126 -0.5639  0.0659
 4403SOL    HW224672   2.802   1.975   8.439  0.0986  0.8003  0.6899
 4404SOL     OW24673   2.945   4.512   5.808  0.4421  0.1983 -0.1569
 4404SOL    HW124674   2.981   4.456   5.876 -1.9018 -0.2963  0.6708
 4404SOL    HW224675   3.025   4.519   5.756  0.6839  0.6301  0.2675
 4405SOL     OW24676   3.227   0.179   4.123 -0.1434 -0.0816 -0.3013
 4405SOL    HW124677   3.293   0.181   4.192 -1.1572  1.1544  0.6375
 4405SOL    HW224678   3.141   0.171   4.164  0.3501 -2.2983  0.3189
 4406SOL     OW24679   1.822   1.964   6.840  0.2857 -0.2490  0.0191
 4406SOL    HW124680   1.825   2.034   6.774  1.6449 -0.7734 -0.4629
 4406SOL    HW224681   1.914   1.970   6.864  0.4965  0.2182 -0.8758
 4407SOL     OW24682   2.679   2.836  10.253  0.2485  0.6829  0.5173
 4407SOL    HW124683   2.705   2.803  10.339  0.1581  0.6064  0.5162
 4407SOL    HW224684   2.590   2.801  10.248 -0.3919  2.0770  2.3358
 4408SOL     OW24685   1.107   1.261  15.894 -0.2856 -0.6055  0.4670
 4408SOL    HW124686   1.099   1.308  15.976 -0.5571  0.3852 -0.1291
 4408SOL    HW224687   1.020   1.242  15.858  0.2890  1.6549 -2.0989
 4409SOL     OW24688   1.644   3.687   8.078 -0.4559  0.0037  0.5666
 4409SOL    HW124689   1.702   3.706   8.004 -1.2191  1.7831  0.4155
 4409SOL    HW224690   1.659   3.594   8.092 -0.7063  0.0832  1.3952
 4410SOL     OW24691   3.342   1.943   2.634  0.3287  0.4871  0.0599
 4410SOL    HW124692   3.346   2.014   2.570 -1.0283  2.3473  2.0726
 4410SOL    HW224693   3.436   1.922   2.634 -0.1751 -1.8115  0.3775
 4411SOL     OW24694   2.675   4.644   9.035  0.1023  0.3870 -0.3590
 4411SOL    HW124695   2.581   4.629   9.034 -0.0843  1.5695  0.5663
 4411SOL    HW224696   2.678   0.005   9.081  2.7172 -0.2265  0.5726
 4412SOL     OW24697   3.488   2.061  16.083  0.2892  0.1998 -1.1552
 4412SOL    HW124698   3.437   2.142  16.090 -1.3491 -1.0017  0.7751
 4412SOL    HW224699   3.576   2.099  16.095  0.3741 -0.4576  0.3016
 4413SOL     OW24700   4.296   2.936  12.961 -0.3373 -0.2610  0.3045
 4413SOL    HW124701   4.327   2.962  12.874 -1.0624 -1.4005 -0.3030
 4413SOL    HW224702   4.352   2.966  13.033 -0.6341  0.2428  0.3197
 4414SOL     OW24703   0.319   3.574  17.516 -0.0595  0.1475  0.5661
 4414SOL    HW124704   0.379   3.509  17.551  3.0690  2.2303 -0.9955
 4414SOL    HW224705   0.383   3.627  17.469  1.5613 -1.0526  1.4497
 4415SOL     OW24706   2.774   3.630   0.660 -0.4040  0.2264  0.6176
 4415SOL    HW124707   2.760   3.678   0.741  2.7531 -1.2785  2.0421
 4415SOL    HW224708   2.762   3.692   0.588 -1.9113 -0.9579 -0.1613
 4416SOL     OW24709   1.010   1.870  15.881  0.1151 -0.0946  0.2604
 4416SOL    HW124710   1.021   1.780  15.852  0.6186  0.1335 -0.2628
 4416SOL    HW224711   0.980   1.905  15.797 -0.1586 -0.2591  0.2919
 4417SOL     OW24712   0.860   4.023   7.090  0.1290  0.0955 -0.2820
 4417SOL    HW124713   0.796   4.064   7.031  2.0315  1.7132 -1.2020
 4417SOL    HW224714   0.913   4.099   7.111 -0.8551 -0.0205  2.6318
 4418SOL     OW24715   0.336   0.025  14.035  0.1067  0.1566 -0.4395
 4418SOL    HW124716   0.399   4.689  14.080  0.2260  0.5155 -0.1456
 4418SOL    HW224717   0.263   4.685  14.025  0.1968 -0.2946  1.5933
 4419SOL     OW24718   1.142   2.124   9.919  0.0092 -0.1621  0.4087
 4419SOL    HW124719   1.072   2.167   9.869 -0.5503  0.2045  1.5130
 4419SOL    HW224720   1.220   2.136   9.865  1.1014 -2.8496  1.4015
 4420SOL     OW24721   0.090   1.292  11.739  0.4473  0.2242 -0.4093
 4420SOL    HW124722   0.018   1.338  11.696 -1.4001 -2.1426  0.1677
 4420SOL    HW224723   0.110   1.341  11.819  0.9660 -1.0603  0.2360
 4421SOL     OW24724   3.183   3.975  14.382 -0.0456 -0.3179 -0.3737
 4421SOL    HW124725   3.099   3.943  14.349 -0.5803  0.5220  0.1754
 4421SOL    HW224726   3.179   4.064  14.349 -1.2994 -0.1237  0.2931
 4422SOL     OW24727   4.567   2.155   8.744 -0.0552 -0.0434 -0.3042
 4422SOL    HW124728   4.595   2.152   8.652 -1.1999 -1.9299 -0.6015
 4422SOL    HW224729   4.617   2.226   8.784 -0.4442 -0.6255  1.1973
 4423SOL     OW24730   0.170   3.368   6.055 -0.5973  0.2529 -0.0896
 4423SOL    HW124731   0.171   3.358   6.150  2.2732 -0.8825 -0.2326
 4423SOL    HW224732   0.138   3.283   6.027  1.1010 -0.9202  1.5196
 4424SOL     OW24733   0.013   0.232   1.819 -0.8594 -0.2967 -0.3942
 4424SOL    HW124734   4.701   0.169   1.756  0.9887 -3.5184  1.8170
 4424SOL    HW224735   0.040   0.305   1.763 -3.6361  1.3560  0.4223
 4425SOL     OW24736   3.292   3.922   1.805 -0.3725  0.3328 -0.3399
 4425SOL    HW124737   3.295   3.838   1.759  1.2022  0.4168 -0.3939
 4425SOL    HW224738   3.335   3.900   1.887  0.5257  0.3660 -0.8009
 4426SOL     OW24739   3.844   0.978  12.161  0.0939 -0.2186 -0.5179
 4426SOL    HW124740   3.821   1.047  12.099  0.1899 -0.9617 -1.3866
 4426SOL    HW224741   3.905   1.036  12.207 -1.7140  1.7275 -0.6085
 4427SOL     OW24742   0.634   0.031  16.840 -0.5109  0.1717 -0.0087
 4427SOL    HW124743   0.648   4.663  16.813  0.4248  0.0356  0.9174
 4427SOL    HW224744   0.665   0.029  16.931  1.3494  0.2773 -0.6493
 4428SOL     OW24745   2.325   4.493   6.767 -0.5208 -0.2957  0.3792
 4428SOL    HW124746   2.392   4.476   6.701 -0.1158 -0.1668  0.7558
 4428SOL    HW224747   2.251   4.531   6.719  0.8054  1.4047 -0.3159
 4429SOL     OW24748   3.283   1.544  14.477  1.1693  0.0872 -0.5812
 4429SOL    HW124749   3.237   1.487  14.540  3.2284  0.4311  1.2417
 4429SOL    HW224750   3.227   1.621  14.491 -2.1214 -2.6963  1.7959
 4430SOL     OW24751   3.794   0.777  13.774 -0.6078  0.1444 -1.0031
 4430SOL    HW124752   3.712   0.742  13.739 -0.5739 -2.1499  1.1901
 4430SOL    HW224753   3.775   0.779  13.868  1.7140 -3.7450 -0.4395
 4431SOL     OW24754   1.404   2.199   2.240  0.0934  0.2668  0.0422
 4431SOL    HW124755   1.354   2.247   2.307  0.5123  0.9610 -0.1369
 4431SOL    HW224756   1.353   2.219   2.162 -3.4069  1.0196  2.4867
 4432SOL     OW24757   0.028   2.771   8.069 -0.3950  0.0133  0.0141
 4432SOL    HW124758   0.089   2.843   8.082 -0.7367  0.5286 -1.2220
 4432SOL    HW224759   0.090   2.702   8.046 -1.3069 -1.6003  2.3202
 4433SOL     OW24760   1.346   4.577   4.563  0.4538 -0.4358  0.3966
 4433SOL    HW124761   1.405   4.512   4.600 -0.6311 -1.6425  0.0435
 4433SOL    HW224762   1.294   4.598   4.640  0.5963 -3.1856  1.2182
 4434SOL     OW24763   2.811   4.104   4.881 -0.3024 -0.0701 -0.3681
 4434SOL    HW124764   2.760   4.184   4.891  0.1702  0.2596 -0.5810
 4434SOL    HW224765   2.883   4.152   4.839 -0.7750  2.9023  2.2442
 4435SOL     OW24766   0.511   4.522   4.047  0.7749  0.4910  0.5462
 4435SOL    HW124767   0.512   4.616   4.027 -1.4917  0.1863 -0.9664
 4435SOL    HW224768   0.496   4.522   4.141  2.6743 -1.4549  0.8591
 4436SOL     OW24769   3.499   1.626   5.514  0.0095  0.0115 -0.2123
 4436SOL    HW124770   3.498   1.612   5.609  0.4770 -0.6386 -0.3017
 4436SOL    HW224771   3.586   1.656   5.487  0.4027  0.2214  1.2695
 4437SOL     OW24772   4.382   2.432   0.035  0.1670 -0.2833  0.1113
 4437SOL    HW124773   4.462   2.470   0.071  0.6686 -0.5874 -0.6893
 4437SOL    HW224774   4.349   2.507  17.674  0.7785 -0.6583 -0.8431
 4438SOL     OW24775   4.020   3.811   4.188 -0.6094  0.2698 -0.4010
 4438SOL    HW124776   4.081   3.798   4.260 -0.9656  2.2327  0.2639
 4438SOL    HW224777   3.993   3.720   4.173  0.5681 -0.6067  2.7964
 4439SOL     OW24778   3.010   2.278   5.301 -0.2828  0.2880 -0.0352
 4439SOL    HW124779   3.025   2.205   5.241 -0.5083 -0.0457  0.3083
 4439SOL    HW224780   3.098   2.301   5.328 -0.5833  1.2636  0.1214
 4440SOL     OW24781   0.636   2.039   4.433 -0.2094 -0.1700 -0.3141
 4440SOL    HW124782   0.707   2.056   4.494 -1.7677  1.1711  1.1283
 4440SOL    HW224783   0.599   2.124   4.410 -0.0065  0.2017  0.7688
 4441SOL     OW24784   4.119   1.550  14.815  0.2652 -0.1614 -0.2973
 4441SOL    HW124785   4.129   1.638  14.778  0.5411 -0.8250 -1.8271
 4441SOL    HW224786   4.163   1.566  14.898 -0.0188 -0.7036 -0.0426
 4442SOL     OW24787   2.927   0.942   8.561  0.2725 -0.1319  0.7303
 4442SOL    HW124788   2.846   0.892   8.569  0.1515 -0.0878 -0.2901
 4442SOL    HW224789   2.996   0.876   8.562  0.1487 -0.2617  0.5097
 4443SOL     OW24790   2.940   4.397  17.607  0.1843 -0.3417 -0.3915
 4443SOL    HW124791   2.879   4.353  17.666  1.6114  1.3263  2.2725
 4443SOL    HW224792   2.942   4.340  17.529 -1.2685  1.0620 -1.4579
 4444SOL     OW24793   3.044   2.712   4.267  0.0607 -0.3395  0.0492
 4444SOL    HW124794   3.073   2.803   4.272 -0.8576 -0.0458  0.0123
 4444SOL    HW224795   3.115   2.655   4.297  1.3025  0.4679 -1.3733
 4445SOL     OW24796   4.074   0.576  14.480 -0.5323  0.1571 -0.6167
 4445SOL    HW124797   3.984   0.544  14.472 -0.2553 -1.0309  1.2187
 4445SOL    HW224798   4.062   0.654  14.534 -2.3794 -0.4892 -0.0961
 4446SOL     OW24799   1.662   3.505   4.292 -0.0282 -0.5356 -0.5608
 4446SOL    HW124800   1.594   3.441   4.270 -0.3889 -0.2628 -0.2225
 4446SOL    HW224801   1.735   3.444   4.284  0.0071 -0.5218 -0.3300
 4447SOL     OW24802   2.528   0.630   5.519 -0.5955  0.5582  0.3747
 4447SOL    HW124803   2.490   0.713   5.490 -1.7436  0.4509  1.5878
 4447SOL    HW224804   2.506   0.581   5.439 -1.6796  1.2147  0.2699
 4448SOL     OW24805   0.692   1.239   8.619 -0.1829  0.3268 -0.0607
 4448SOL    HW124806   0.645   1.200   8.693 -1.3449 -1.8113 -1.9221
 4448SOL    HW224807   0.692   1.332   8.639  2.4028  0.7559 -2.1156
 4449SOL     OW24808   2.603   0.232   7.943 -0.1716 -0.3335 -0.0768
 4449SOL    HW124809   2.517   0.196   7.919 -0.7535 -0.0682  1.6146
 4449SOL    HW224810   2.659   0.197   7.875  1.6951 -0.3822  1.4843
 4450SOL     OW24811   1.411   1.540  15.445 -0.1426  0.4817 -0.3386
 4450SOL    HW124812   1.446   1.578  15.525 -0.3854  1.2681 -0.6062
 4450SOL    HW224813   1.368   1.608  15.393 -1.1510  1.1915  1.4270
 4451SOL     OW24814   2.085   0.550   7.579  0.3486 -0.1859  0.4725
 4451SOL    HW124815   2.109   0.568   7.669  3.2916 -0.0079 -0.3508
 4451SOL    HW224816   2.173   0.572   7.548  0.2237 -0.3350 -0.0013
 4452SOL     OW24817   1.938   3.737   8.600 -0.5507 -0.1680 -0.0164
 4452SOL    HW124818   1.977   3.752   8.514 -1.1350 -1.7288 -0.5499
 4452SOL    HW224819   1.885   3.817   8.608  0.2952  0.5294 -1.4085
 4453SOL     OW24820   0.039   1.300   4.930 -0.2082 -0.6834 -0.0473
 4453SOL    HW124821   4.709   1.273   4.855  2.5519  1.9162 -2.8913
 4453SOL    HW224822   4.698   1.331   4.995  0.6762 -3.3566  2.0839
 4454SOL     OW24823   0.302   2.407  10.905 -0.0224 -0.3431  0.1805
 4454SOL    HW124824   0.393   2.378  10.903 -0.2032 -0.8961 -0.0712
 4454SOL    HW224825   0.315   2.483  10.962  1.3430 -0.7536  0.4247
 4455SOL     OW24826   4.239   3.569   7.984 -0.5013  0.1553  0.3612
 4455SOL    HW124827   4.228   3.587   8.078  2.4775 -2.0592  1.1144
 4455SOL    HW224828   4.285   3.649   7.958 -0.7082 -0.8060 -3.0061
 4456SOL     OW24829   1.263   0.605   6.566  0.7180 -0.1134  0.4849
 4456SOL    HW124830   1.268   0.638   6.476  0.0744 -0.6404  0.2574
 4456SOL    HW224831   1.231   0.518   6.543  1.1742  0.1315 -1.1138
 4457SOL     OW24832   0.429   3.910  14.428 -0.4649  0.4386  0.1492
 4457SOL    HW124833   0.514   3.886  14.464 -0.2588  0.6761 -0.1814
 4457SOL    HW224834   0.435   3.870  14.342 -3.1676  0.1290  0.0847
 4458SOL     OW24835   3.610   0.846   2.191 -0.6342 -0.2995  0.0132
 4458SOL    HW124836   3.634   0.765   2.147 -0.3085  0.7830 -1.8330
 4458SOL    HW224837   3.682   0.904   2.164 -0.9397  0.9346  1.8953
 4459SOL     OW24838   3.424   1.274   5.430  0.1411 -0.0737  0.0759
 4459SOL    HW124839   3.368   1.276   5.508 -0.1281  1.5110 -0.1574
 4459SOL    HW224840   3.372   1.214   5.377  0.0396 -0.6463  0.8233
 4460SOL     OW24841   0.356   4.508  14.810 -0.3692  0.2460 -0.1678
 4460SOL    HW124842   0.409   4.429  14.805  2.3003  2.0894 -0.6535
 4460SOL    HW224843   0.406   4.577  14.766  0.4407  0.0121  0.3989
 4461SOL     OW24844   4.375   2.049   0.419 -0.9705  0.0327 -0.0639
 4461SOL    HW124845   4.339   1.965   0.447 -0.0953 -0.2507  0.2017
 4461SOL    HW224846   4.306   2.096   0.372  0.4443  1.2572 -0.9166
 4462SOL     OW24847   4.277   4.609  16.624 -0.2847 -0.6608  0.0335
 4462SOL    HW124848   4.312   4.520  16.621  0.1443 -0.4203 -2.3319
 4462SOL    HW224849   4.347   4.646  16.677 -0.8942  0.8093 -0.1794
 4463SOL     OW24850   0.810   3.742   8.794  0.1279 -0.0917  0.0225
 4463SOL    HW124851   0.746   3.728   8.724  0.9057  1.4416 -0.9966
 4463SOL    HW224852   0.814   3.659   8.842  1.4071 -0.5018 -0.7784
 4464SOL     OW24853   4.603   4.278   1.722  0.4678 -0.1622 -0.2243
 4464SOL    HW124854   4.661   4.293   1.797  1.0798 -0.1721 -0.6998
 4464SOL    HW224855   4.665   4.228   1.669 -0.4686 -1.3108 -0.2304
 4465SOL     OW24856   2.860   1.368   4.988 -0.0805  0.3984 -0.3954
 4465SOL    HW124857   2.847   1.287   4.939  1.0901  0.4157 -0.7325
 4465SOL    HW224858   2.790   1.352   5.051  1.2311  0.3847  1.0763
 4466SOL     OW24859   1.531   4.316   5.913 -0.0201 -0.4061  0.1305
 4466SOL    HW124860   1.523   4.320   6.009  3.4691  0.6549  0.3604
 4466SOL    HW224861   1.545   4.403   5.877 -2.1569 -0.4871 -0.8901
 4467SOL     OW24862   4.698   0.835   4.727 -0.0607  0.5984  0.0320
 4467SOL    HW124863   4.611   0.873   4.713 -0.7946 -1.5266 -1.2390
 4467SOL    HW224864   0.023   0.902   4.776  2.0925 -1.6395  1.0433
 4468SOL     OW24865   0.055   0.050   7.430  0.4223  0.5112 -0.4763
 4468SOL    HW124866   0.134   0.046   7.375  0.0940  1.7885 -1.0451
 4468SOL    HW224867   0.008   0.127   7.398  1.4999  0.2717 -2.6400
 4469SOL     OW24868   1.724   3.454   5.778  0.1016  0.0088  0.1923
 4469SOL    HW124869   1.746   3.458   5.685  1.8334  0.8061  0.6336
 4469SOL    HW224870   1.809   3.486   5.809  0.1989  0.6344 -0.7359
 4470SOL     OW24871   4.569   2.718   8.982  1.0424  0.1863 -0.6276
 4470SOL    HW124872   4.566   2.628   8.949  1.2504  0.2121 -0.7129
 4470SOL    HW224873   4.506   2.728   9.053 -0.6009  1.8510 -2.3149
 4471SOL     OW24874   0.298   2.088   6.739  0.4888  0.1297  0.2859
 4471SOL    HW124875   0.373   2.100   6.680  1.2504  0.7829  1.3981
 4471SOL    HW224876   0.319   2.150   6.808  1.6552 -0.4996  0.4920
 4472SOL     OW24877   1.834   4.138   5.038 -0.0485  0.2934  0.1192
 4472SOL    HW124878   1.909   4.100   4.993 -0.5094 -2.0608  1.3441
 4472SOL    HW224879   1.764   4.074   5.033  1.3800 -1.2602 -0.1531
 4473SOL     OW24880   2.206   3.325   9.752 -0.4962 -0.6192  0.8424
 4473SOL    HW124881   2.220   3.364   9.666  0.6296  0.8108  1.6813
 4473SOL    HW224882   2.292   3.284   9.752 -1.0581 -1.8123 -0.5964
 4474SOL     OW24883   0.687   3.466   7.528  0.3681 -0.1035 -0.1537
 4474SOL    HW124884   0.719   3.490   7.615 -0.6993 -1.0590  0.5042
 4474SOL    HW224885   0.716   3.375   7.526  3.5393  0.8987 -0.3586
 4475SOL     OW24886   3.934   0.895   7.025  0.0733 -0.0556 -0.1272
 4475SOL    HW124887   3.915   0.961   6.959 -3.1458 -0.4656  0.3649
 4475SOL    HW224888   3.883   0.820   6.995  0.8339 -0.0069 -1.5278
 4476SOL     OW24889   0.607   1.629   5.645  0.5471  0.1218  0.3213
 4476SOL    HW124890   0.577   1.556   5.699  0.1569 -0.5424 -0.7925
 4476SOL    HW224891   0.550   1.700   5.675  2.4777  0.5330  3.0375
 4477SOL     OW24892   0.257   3.704  13.084 -0.0299  0.2494 -0.5508
 4477SOL    HW124893   0.297   3.789  13.067 -1.2308  1.2651  1.7020
 4477SOL    HW224894   0.180   3.706  13.027 -0.5493  0.2761  0.1484
 4478SOL     OW24895   1.420   4.408  10.282 -0.4074 -0.5070  0.1539
 4478SOL    HW124896   1.468   4.325  10.291 -1.3975 -0.8673  2.0917
 4478SOL    HW224897   1.467   4.456  10.350  0.5969  0.2277 -1.0678
 4479SOL     OW24898   0.508   3.092   5.063  0.8209 -0.4820  0.9653
 4479SOL    HW124899   0.471   3.050   5.141 -0.0364 -0.5407  0.5231
 4479SOL    HW224900   0.534   3.020   5.006  0.5331 -0.2052  0.4871
 4480SOL     OW24901   1.038   3.243   4.450  0.0082  0.8462  0.0127
 4480SOL    HW124902   1.050   3.278   4.538  0.9346 -1.2297  0.7143
 4480SOL    HW224903   1.068   3.152   4.449  2.0518  1.5127  0.3351
 4481SOL     OW24904   4.379   4.410  13.982 -0.1844 -0.0275 -0.1422
 4481SOL    HW124905   4.404   4.324  14.016 -1.1305 -0.3323 -0.2301
 4481SOL    HW224906   4.373   4.386  13.889  1.0099 -1.3602  0.1318
 4482SOL     OW24907   4.689   4.607   6.915 -0.0278  0.7165 -0.4014
 4482SOL    HW124908   4.636   4.536   6.879  1.5733 -0.3367 -0.6545
 4482SOL    HW224909   0.054   4.570   6.928 -0.7000 -0.4530  0.8672
 4483SOL     OW24910   3.788   0.959   8.346 -0.2752  0.1148 -0.2066
 4483SOL    HW124911   3.763   0.938   8.256  2.2159 -0.9187 -0.6512
 4483SOL    HW224912   3.740   1.042   8.354  1.1657  1.0162 -1.0614
 4484SOL     OW24913   2.649   1.547   3.590 -0.1934  0.1342 -0.3685
 4484SOL    HW124914   2.602   1.611   3.536  0.8060  2.9115  2.0316
 4484SOL    HW224915   2.719   1.520   3.530  2.2210  1.3650  1.8944
 4485SOL     OW24916   0.207   1.096   4.554 -0.2849 -0.2744  0.4557
 4485SOL    HW124917   0.231   1.176   4.601 -0.9723 -0.2291  0.7194
 4485SOL    HW224918   0.273   1.035   4.588 -1.2970 -1.2758  0.6197
 4486SOL     OW24919   2.370   1.934  10.565 -0.1463  0.5349 -0.5420
 4486SOL    HW124920   2.363   2.029  10.578 -1.0680  0.4489 -0.3969
 4486SOL    HW224921   2.380   1.912  10.657 -0.8542 -2.1631 -1.1227
 4487SOL     OW24922   2.853   3.334   7.270 -0.4586  0.2000 -0.6479
 4487SOL    HW124923   2.834   3.339   7.364  1.0208 -1.7653 -0.2308
 4487SOL    HW224924   2.891   3.246   7.265 -0.7763  0.0702 -0.7954
 4488SOL     OW24925   0.836   1.381  12.358 -0.1162  0.8494 -0.1623
 4488SOL    HW124926   0.921   1.415  12.387 -0.1463  0.1724  0.7070
 4488SOL    HW224927   0.785   1.383  12.438  2.0081 -1.8606  1.2581
 4489SOL     OW24928   1.315   1.117   4.351  0.1578  0.5910  0.5172
 4489SOL    HW124929   1.313   1.199   4.302  0.1787  0.6144  0.5556
 4489SOL    HW224930   1.376   1.144   4.419  0.5764 -2.5786  1.4016
 4490SOL     OW24931   1.985   2.160   6.179 -0.1138  0.2310 -0.3440
 4490SOL    HW124932   1.977   2.129   6.088 -1.1544 -2.2353  0.5943
 4490SOL    HW224933   1.912   2.221   6.186  0.2843  0.5849  0.7347
 4491SOL     OW24934   3.589   3.700   1.717 -0.0607  0.0009  0.2066
 4491SOL    HW124935   3.494   3.701   1.731 -0.2044 -4.2341 -0.4510
 4491SOL    HW224936   3.609   3.701   1.811 -1.2662  0.3304  0.4616
 4492SOL     OW24937   2.509   1.775  15.640 -0.2278 -0.0040  0.0090
 4492SOL    HW124938   2.574   1.726  15.690  0.9491  1.6354  0.1146
 4492SOL    HW224939   2.531   1.749  15.550 -1.4366  0.0987 -0.3163
 4493SOL     OW24940   3.448   3.779  17.279  0.0335 -0.1371 -0.0124
 4493SOL    HW124941   3.408   3.838  17.215  1.4261 -1.1929 -1.8346
 4493SOL    HW224942   3.412   3.804  17.364  0.4674 -1.7856  0.6643
 4494SOL     OW24943   4.290   2.682   1.372  0.3149  0.0591  0.2153
 4494SOL    HW124944   4.375   2.698   1.414  0.7164 -0.8733 -0.2460
 4494SOL    HW224945   4.307   2.754   1.311  1.9110 -0.2065  0.3531
 4495SOL     OW24946   0.317   1.001   2.745  0.5048  0.4091  0.0759
 4495SOL    HW124947   0.265   0.980   2.667  1.2211 -1.1842  0.0078
 4495SOL    HW224948   0.259   1.061   2.791 -0.0810  0.4198 -0.6812
 4496SOL     OW24949   1.672   0.318   7.312  0.0729  0.8011 -0.5792
 4496SOL    HW124950   1.654   0.263   7.389 -1.7215  1.8073 -0.2741
 4496SOL    HW224951   1.652   0.404   7.349 -1.2496  1.2345 -2.2943
 4497SOL     OW24952   2.260   1.508   0.862  0.3572 -0.3229 -0.1619
 4497SOL    HW124953   2.254   1.590   0.813 -0.3255 -0.3114 -0.0570
 4497SOL    HW224954   2.177   1.466   0.838  0.0511 -0.2922  0.8400
 4498SOL     OW24955   0.497   0.999   8.439  0.1073  0.2210 -0.0256
 4498SOL    HW124956   0.526   0.923   8.388  1.1429  0.6950 -0.1519
 4498SOL    HW224957   0.566   1.060   8.412  1.5691 -2.5502 -2.5663
 4499SOL     OW24958   2.871   4.237  13.345 -0.1974 -0.8072 -0.0386
 4499SOL    HW124959   2.878   4.330  13.322  1.7996 -0.8046  0.5694
 4499SOL    HW224960   2.878   4.200  13.257  0.8207  2.6519 -1.4122
 4500SOL     OW24961   3.695   3.920   3.751  0.1611 -0.2787  0.0726
 4500SOL    HW124962   3.778   3.966   3.741  1.0337 -1.3362  2.4035
 4500SOL    HW224963   3.722   3.838   3.793  0.7146 -1.1639 -2.0076
 4501SOL     OW24964   0.702   1.753  16.698  0.4328 -0.0025  0.1365
 4501SOL    HW124965   0.652   1.719  16.773 -0.0429 -1.8283 -1.0032
 4501SOL    HW224966   0.633   1.762  16.632  1.0454  0.9843 -0.3679
 4502SOL     OW24967   1.882   3.313   2.647 -0.0216 -0.0801 -0.4580
 4502SOL    HW124968   1.876   3.218   2.633  1.5078 -0.1190 -0.8637
 4502SOL    HW224969   1.878   3.345   2.557  1.9338  0.3320 -0.4104
 4503SOL     OW24970   0.992   0.517   3.136 -0.0991 -0.1750  0.3512
 4503SOL    HW124971   1.082   0.552   3.136  0.7418 -2.3208  1.1548
 4503SOL    HW224972   1.001   0.429   3.173  0.0734 -0.3149 -0.0228
 4504SOL     OW24973   4.219   2.026   9.581  0.1513  0.8277  0.0282
 4504SOL    HW124974   4.295   2.044   9.636 -0.0222  0.7905  0.2767
 4504SOL    HW224975   4.152   2.035   9.648 -0.5069 -1.6429 -0.3095
 4505SOL     OW24976   2.398   1.481   2.247 -0.1931 -0.0647  0.1742
 4505SOL    HW124977   2.401   1.515   2.158  1.0673 -0.4282  0.0704
 4505SOL    HW224978   2.305   1.484   2.270 -0.7745 -1.6254 -1.9617
 4506SOL     OW24979   1.761   2.199   8.787  0.0616 -0.6410  0.0266
 4506SOL    HW124980   1.828   2.131   8.796  1.1416  0.2099 -1.5778
 4506SOL    HW224981   1.695   2.145   8.832  0.2268 -0.9341 -0.0818
 4507SOL     OW24982   1.734   3.000   2.779 -0.9709 -0.8046 -0.7049
 4507SOL    HW124983   1.714   2.924   2.834  1.6256 -1.0370 -0.1021
 4507SOL    HW224984   1.646   3.037   2.771 -1.4891 -1.7583  0.6139
 4508SOL     OW24985   4.424   1.182   9.135 -0.2218  0.0751  0.4781
 4508SOL    HW124986   4.493   1.143   9.081  0.3885  2.4827 -0.4557
 4508SOL    HW224987   4.375   1.101   9.154  0.8951 -0.3148  1.6889
 4509SOL     OW24988   3.827   4.002   7.999  0.2032  0.1492  0.2435
 4509SOL    HW124989   3.735   3.992   7.975  0.2364 -0.5356  0.4044
 4509SOL    HW224990   3.854   3.924   8.048  0.3026 -0.1887 -0.3533
 4510SOL     OW24991   1.023   2.147   8.236 -0.1183  0.6118  0.1484
 4510SOL    HW124992   1.000   2.211   8.303 -0.2645 -1.1985  1.8329
 4510SOL    HW224993   0.950   2.176   8.182  0.7465  1.3423 -0.6203
 4511SOL     OW24994   3.653   1.299   6.791 -0.0898 -0.9383 -0.6041
 4511SOL    HW124995   3.704   1.262   6.720  2.9094  2.4674 -0.2174
 4511SOL    HW224996   3.630   1.390   6.770  1.7459 -0.6164 -1.1423
 4512SOL     OW24997   3.037   1.516  10.429  0.2050  0.7217  0.4035
 4512SOL    HW124998   2.979   1.440  10.432  0.6208  0.4924  2.2963
 4512SOL    HW224999   3.068   1.509  10.339 -1.6184  2.3185 -0.3627
 4513SOL     OW25000   3.026   1.179   8.521  0.4937 -0.6936  0.0575
 4513SOL    HW125001   2.987   1.092   8.527  1.7300 -1.0549  2.5777
 4513SOL    HW225002   3.072   1.172   8.604 -2.0610 -2.5142  1.3129
 4514SOL     OW25003   1.818   1.067  12.151  0.7423 -0.7977  0.3608
 4514SOL    HW125004   1.778   1.105  12.073  0.7746  1.6340  1.5453
 4514SOL    HW225005   1.845   1.135  12.212 -1.5080 -1.3753  2.0227
 4515SOL     OW25006   2.614   4.629   6.767  0.2076 -0.0400 -0.2925
 4515SOL    HW125007   2.701   4.663   6.786 -0.1958  0.8488 -0.0080
 4515SOL    HW225008   2.644   4.547   6.729 -1.6209  0.4311 -2.7296
 4516SOL     OW25009   1.310   0.350   7.258  0.4890  0.1529  0.5125
 4516SOL    HW125010   1.301   0.256   7.272 -0.9431  0.5124  1.8986
 4516SOL    HW225011   1.368   0.342   7.182 -2.3462  1.3699 -1.7665
 4517SOL     OW25012   3.211   1.600   7.259 -0.0765 -0.6014  0.2028
 4517SOL    HW125013   3.136   1.543   7.272  0.1888 -1.2344 -1.1061
 4517SOL    HW225014   3.191   1.660   7.332  0.4999 -1.5630  1.1458
 4518SOL     OW25015   2.589   3.165   8.904  0.0290  0.0673  0.4065
 4518SOL    HW125016   2.597   3.156   8.999  1.7550 -1.5014  0.1190
 4518SOL    HW225017   2.562   3.256   8.897  0.5810  0.0822 -1.5262
 4519SOL     OW25018   1.839   1.300   2.710  0.4541  0.0933 -0.1650
 4519SOL    HW125019   1.755   1.255   2.720  0.3064  0.8779  2.1546
 4519SOL    HW225020   1.882   1.251   2.639  1.1083 -0.1780  0.4160
 4520SOL     OW25021   1.129   4.053   7.697  0.0317 -0.4812  0.0609
 4520SOL    HW125022   1.081   4.089   7.771 -0.7712 -1.8820  0.2268
 4520SOL    HW225023   1.208   4.024   7.740 -0.3170 -1.9958 -0.3109
 4521SOL     OW25024   3.949   4.023   3.776 -0.6726 -0.0039 -0.4296
 4521SOL    HW125025   3.949   4.019   3.871  0.5625 -1.4721 -0.4792
 4521SOL    HW225026   4.026   3.972   3.751 -0.3659 -0.0772  0.6881
 4522SOL     OW25027   3.277   2.208  14.366  0.3208 -0.5120  0.4120
 4522SOL    HW125028   3.271   2.131  14.422  1.0144 -0.6188  0.3443
 4522SOL    HW225029   3.349   2.184  14.309  0.0480  0.0833 -0.1842
 4523SOL     OW25030   4.015   2.145   5.922 -0.0073 -0.2926 -0.0604
 4523SOL    HW125031   4.029   2.174   5.832 -0.0034 -0.3296 -0.0718
 4523SOL    HW225032   3.921   2.160   5.922  0.2823  1.4613  0.4906
 4524SOL     OW25033   2.299   2.950   9.179 -0.3478 -0.4120  0.2444
 4524SOL    HW125034   2.205   2.932   9.184 -0.6768  1.3209  0.2468
 4524SOL    HW225035   2.327   2.875   9.126  3.0276  1.6414 -0.8694
 4525SOL     OW25036   1.580   3.257  11.937  0.0329 -0.4879 -0.1111
 4525SOL    HW125037   1.617   3.297  12.016  1.4503  1.1639 -1.6016
 4525SOL    HW225038   1.629   3.175  11.930  0.8402  0.1868 -2.5793
 4526SOL     OW25039   4.021   2.726   1.376  0.1464  0.5208  0.8247
 4526SOL    HW125040   4.115   2.719   1.388  0.3560 -0.6311 -1.6615
 4526SOL    HW225041   4.024   2.772   1.292 -1.4899  1.2450  1.1436
 4527SOL     OW25042   2.821   0.341   2.274 -0.4176  0.1824 -0.1599
 4527SOL    HW125043   2.777   0.423   2.254  0.0214  0.6268  0.6830
 4527SOL    HW225044   2.811   0.322   2.368  0.2116  0.0437 -0.1217
 4528SOL     OW25045   4.068   4.476   6.400  0.0190  0.5424 -0.6222
 4528SOL    HW125046   4.086   4.504   6.310  0.2680  1.0077 -0.4304
 4528SOL    HW225047   4.156   4.447   6.421 -0.4687 -1.0969 -0.8120
 4529SOL     OW25048   2.522   3.641   3.601  0.1967  0.1412  0.4675
 4529SOL    HW125049   2.431   3.633   3.574  1.0829 -2.2357 -1.7653
 4529SOL    HW225050   2.555   3.717   3.553  2.0862 -0.0413  1.4801
 4530SOL     OW25051   0.936   3.130   6.114  0.2815 -0.0709 -0.6536
 4530SOL    HW125052   0.857   3.182   6.101  0.4095  0.3075  0.1075
 4530SOL    HW225053   1.005   3.191   6.139 -1.0986  1.3644 -0.3887
 4531SOL     OW25054   4.237   0.792  12.921  0.0788  0.1105 -1.2647
 4531SOL    HW125055   4.261   0.699  12.914  0.8938  0.3394 -1.4962
 4531SOL    HW225056   4.183   0.803  12.842  0.4578  1.3712 -1.3461
 4532SOL     OW25057   3.502   0.521   8.279  0.2807 -0.2376  0.1139
 4532SOL    HW125058   3.451   0.503   8.358 -1.5877  1.0021 -0.8136
 4532SOL    HW225059   3.530   0.431   8.261  2.1498  0.2373  0.6724
 4533SOL     OW25060   4.205   1.859   6.394 -0.1013 -0.3230 -0.2627
 4533SOL    HW125061   4.128   1.875   6.339 -1.2093 -1.4557  0.9913
 4533SOL    HW225062   4.272   1.831   6.331  1.6265 -1.6519  2.1881
 4534SOL     OW25063   2.234   4.132   3.304 -0.1451 -0.1275 -0.0667
 4534SOL    HW125064   2.266   4.163   3.219 -1.4186 -0.7686 -0.7922
 4534SOL    HW225065   2.188   4.207   3.343  2.9298  1.3994  0.6108
 4535SOL     OW25066   0.740   1.198   8.364 -0.2691  0.0650  0.0745
 4535SOL    HW125067   0.701   1.283   8.345 -0.4847 -0.0464  0.0178
 4535SOL    HW225068   0.732   1.195   8.459 -0.1592  2.5701  0.1707
 4536SOL     OW25069   2.901   1.170  17.304  0.2809 -0.1845  0.2332
 4536SOL    HW125070   2.988   1.178  17.264  1.8659 -3.6064  2.9636
 4536SOL    HW225071   2.860   1.137  17.224 -0.5478  3.5569 -0.9046
 4537SOL     OW25072   4.378   1.944   0.909 -0.3398 -0.1097 -0.3894
 4537SOL    HW125073   4.449   1.922   0.848  0.0730 -2.0924  0.8097
 4537SOL    HW225074   4.306   1.912   0.855 -1.1723 -0.2474  0.8173
 4538SOL     OW25075   1.673   3.289   3.455  0.1802  0.1757 -0.0977
 4538SOL    HW125076   1.730   3.213   3.458 -0.5132 -0.2382  2.0994
 4538SOL    HW225077   1.594   3.251   3.417 -0.2165  0.9931 -0.0913
 4539SOL     OW25078   2.710   0.942  15.294 -0.1323 -0.4384  0.5391
 4539SOL    HW125079   2.615   0.951  15.304  0.1960  1.9380  1.3483
 4539SOL    HW225080   2.723   0.877  15.225 -0.4654  0.2014 -0.1205
 4540SOL     OW25081   3.674   2.123   0.118 -0.4028 -0.3418 -0.1540
 4540SOL    HW125082   3.608   2.080   0.173  1.1086 -1.3221  0.8912
 4540SOL    HW225083   3.619   2.121   0.039  0.2630 -0.4180 -0.6099
 4541SOL     OW25084   3.680   1.435   0.172 -0.1715 -0.1134 -0.0341
 4541SOL    HW125085   3.634   1.400   0.249  0.8034 -1.7136 -0.1624
 4541SOL    HW225086   3.614   1.432   0.103  1.0514 -1.8542 -1.1133
 4542SOL     OW25087   2.364   0.870   3.140 -0.8310  0.4893  0.0702
 4542SOL    HW125088   2.400   0.952   3.172  1.6308 -0.2661 -0.7699
 4542SOL    HW225089   2.347   0.882   3.046 -2.3458  1.9321  0.5294
 4543SOL     OW25090   3.973   0.372  11.356 -0.2680  0.5764  0.0737
 4543SOL    HW125091   3.986   0.362  11.450  0.6452  3.2056  0.2392
 4543SOL    HW225092   4.029   0.449  11.345  0.5369  0.1464  1.1998
 4544SOL     OW25093   1.360   3.268  11.074 -0.4712  0.2246 -0.2284
 4544SOL    HW125094   1.269   3.238  11.066 -0.9786  1.6369  0.1838
 4544SOL    HW225095   1.365   3.351  11.123  1.4545  1.2376 -2.1154
 4545SOL     OW25096   1.316   1.930  13.463 -0.4045  0.3021 -0.4015
 4545SOL    HW125097   1.354   2.016  13.481  1.0608 -0.1940 -1.1366
 4545SOL    HW225098   1.357   1.911  13.378 -0.9298 -2.0104 -0.1399
 4546SOL     OW25099   2.816   0.459   4.035 -0.3578  0.5152  0.2457
 4546SOL    HW125100   2.854   0.377   4.003  2.6171  2.1202 -0.3073
 4546SOL    HW225101   2.757   0.424   4.102 -0.5112  1.1244  0.4296
 4547SOL     OW25102   4.474   1.266   0.087 -0.1886 -0.6442 -0.0960
 4547SOL    HW125103   4.475   1.361   0.086  0.8504 -0.6583  0.0815
 4547SOL    HW225104   4.564   1.255   0.117  0.1703  0.0042 -0.9875
 4548SOL     OW25105   1.429   1.876   7.079 -0.0255 -0.2416 -0.5590
 4548SOL    HW125106   1.381   1.886   6.997 -0.2200  0.5993 -0.3430
 4548SOL    HW225107   1.425   1.782   7.100  1.3547 -0.4570 -1.2859
 4549SOL     OW25108   2.883   3.624   9.305  0.2015 -0.1372  0.5296
 4549SOL    HW125109   2.809   3.685   9.299  0.9845  0.4418 -3.9002
 4549SOL    HW225110   2.874   3.615   9.399  0.3468 -2.3266  0.3198
 4550SOL     OW25111   2.939   3.643   9.848 -0.1828 -0.0629  0.0047
 4550SOL    HW125112   2.958   3.733   9.821 -1.4927  0.1692 -0.1577
 4550SOL    HW225113   2.944   3.649   9.943 -0.6182 -3.1843  0.2383
 4551SOL     OW25114   0.667   3.181   7.935  0.1451  0.5124  0.3629
 4551SOL    HW125115   0.663   3.247   8.004  1.5003  0.5186  0.4446
 4551SOL    HW225116   0.750   3.212   7.898  0.9894 -0.7232  1.1996
 4552SOL     OW25117   1.592   3.352   3.777 -0.3341 -0.2865 -0.5832
 4552SOL    HW125118   1.677   3.389   3.803 -0.2388  2.7018 -5.2444
 4552SOL    HW225119   1.622   3.264   3.757 -0.3170 -0.2819 -0.5781
 4553SOL     OW25120   3.679   4.357   6.096 -0.3146  0.0662  0.6060
 4553SOL    HW125121   3.682   4.366   6.001 -1.5617 -1.8541  0.3951
 4553SOL    HW225122   3.619   4.284   6.110  0.1635 -0.0756  1.9100
 4554SOL     OW25123   2.939   3.350  15.708  0.2884 -0.8646  0.0829
 4554SOL    HW125124   2.961   3.259  15.726  0.6096 -0.9974 -0.9521
 4554SOL    HW225125   2.909   3.343  15.617  0.2756 -0.7211  0.0766
 4555SOL     OW25126   0.796   4.182   6.275  0.4246  0.2228 -0.2633
 4555SOL    HW125127   0.834   4.135   6.350 -2.6774 -0.6058  0.8136
 4555SOL    HW225128   0.712   4.209   6.313  0.0407  1.6941 -2.2120
 4556SOL     OW25129   0.387   2.341   5.847 -0.4760 -0.1834 -0.5516
 4556SOL    HW125130   0.447   2.365   5.918 -0.5523 -0.4292 -0.4059
 4556SOL    HW225131   0.332   2.280   5.895 -1.2631 -0.4450 -1.7968
 4557SOL     OW25132   1.532   1.420   2.869 -0.3205 -0.1074 -0.1615
 4557SOL    HW125133   1.512   1.442   2.778  0.4805 -1.1024 -0.5771
 4557SOL    HW225134   1.567   1.332   2.854 -1.0009 -0.5731  1.0074
 4558SOL     OW25135   4.321   4.007  16.770  0.4233 -0.0341 -0.0331
 4558SOL    HW125136   4.385   4.020  16.700  1.7813  0.7669  1.3742
 4558SOL    HW225137   4.248   3.985  16.712 -0.7886 -0.4958  1.6469
 4559SOL     OW25138   3.910   3.402  17.147 -0.1102 -0.1896  0.1395
 4559SOL    HW125139   3.937   3.335  17.209  0.4713  0.1511  0.2521
 4559SOL    HW225140   3.842   3.441  17.202 -0.3519 -1.0865  0.4747
 4560SOL     OW25141   2.852   3.306  17.114 -0.1835  0.0719  0.4394
 4560SOL    HW125142   2.781   3.249  17.144 -0.9893 -0.3340 -2.1875
 4560SOL    HW225143   2.884   3.345  17.195 -2.1589  2.0187  0.2662
 4561SOL     OW25144   4.192   0.964   9.486  0.0104  0.3662 -0.2100
 4561SOL    HW125145   4.207   1.054   9.455  0.1939  0.9914  1.6818
 4561SOL    HW225146   4.101   0.965   9.515  0.2377 -0.0830  0.5213
 4562SOL     OW25147   0.935   3.570   3.281 -0.1225 -0.4505 -0.2244
 4562SOL    HW125148   1.000   3.619   3.231  0.1878  0.0253  0.6540
 4562SOL    HW225149   0.876   3.543   3.210  0.2458 -0.5697 -0.4810
 4563SOL     OW25150   3.132   4.091   2.050  0.2163 -0.1096  0.0769
 4563SOL    HW125151   3.104   4.148   1.978  0.2369  2.0291  1.7334
 4563SOL    HW225152   3.053   4.105   2.102 -1.0950  0.9249 -2.1994
 4564SOL     OW25153   4.624   0.132  17.247  0.3660  0.4341  0.1577
 4564SOL    HW125154   4.690   0.174  17.191  1.2168 -0.1631  0.7050
 4564SOL    HW225155   4.680   0.097  17.316  0.4882 -0.1364 -0.2253
 4565SOL     OW25156   0.197   1.973  12.429  0.1611  0.2992 -0.0509
 4565SOL    HW125157   0.116   2.022  12.439 -0.8241 -1.6113  1.3030
 4565SOL    HW225158   0.214   1.962  12.336  1.0318  0.3006  0.1018
 4566SOL     OW25159   0.461   0.805   0.141  0.2977  0.1278 -0.4763
 4566SOL    HW125160   0.384   0.827   0.193  0.6541  0.3520 -0.0421
 4566SOL    HW225161   0.432   0.732   0.087  0.1104 -1.2286  1.4471
 4567SOL     OW25162   2.101   3.850   6.203  0.1141  0.5779  0.4057
 4567SOL    HW125163   2.024   3.815   6.157  0.4443  0.6382 -0.1895
 4567SOL    HW225164   2.150   3.768   6.208 -1.7250 -0.4109  2.2463
 4568SOL     OW25165   0.892   0.520   4.215 -0.3213 -0.4353 -0.1399
 4568SOL    HW125166   0.900   0.615   4.204  0.1890 -0.4375  0.2103
 4568SOL    HW225167   0.928   0.479   4.137 -0.1007  0.5018 -0.5397
 4569SOL     OW25168   1.425   1.671   6.611  0.6145 -0.4302  0.4337
 4569SOL    HW125169   1.479   1.744   6.581  0.0480 -0.0381  0.3731
 4569SOL    HW225170   1.428   1.624   6.527  2.4771  0.5901 -0.0654
 4570SOL     OW25171   2.231   2.858   0.510 -0.7668 -0.3665 -0.2295
 4570SOL    HW125172   2.236   2.947   0.546 -0.7760 -0.3638 -0.2347
 4570SOL    HW225173   2.289   2.814   0.573  1.4813  1.6435 -0.8734
 4571SOL     OW25174   4.486   1.832   4.695 -0.5710 -0.6117 -0.2598
 4571SOL    HW125175   4.507   1.755   4.748  1.6430 -0.1873 -0.5090
 4571SOL    HW225176   4.580   1.848   4.684 -0.5342 -0.7102 -0.0899
 4572SOL     OW25177   0.716   1.829   2.660  0.2301 -0.2183  0.4483
 4572SOL    HW125178   0.784   1.889   2.689 -1.4987  0.8466  2.2694
 4572SOL    HW225179   0.702   1.788   2.746  2.6383 -2.7041 -0.3279
 4573SOL     OW25180   3.077   0.589   5.300 -0.4522  0.3777  0.3055
 4573SOL    HW125181   3.156   0.602   5.352 -0.8702 -1.1441  1.2990
 4573SOL    HW225182   3.040   0.677   5.287  0.8774  0.9778  0.5430
 4574SOL     OW25183   3.945   1.472   8.674  0.2945  0.0120 -0.1833
 4574SOL    HW125184   3.880   1.424   8.726 -0.2271  2.1714  1.1779
 4574SOL    HW225185   3.901   1.557   8.672  1.3354  0.6255  2.5935
 4575SOL     OW25186   3.727   2.959   2.224  0.3644  0.0867  0.5062
 4575SOL    HW125187   3.704   3.019   2.152 -2.2174 -0.6575  0.7015
 4575SOL    HW225188   3.641   2.950   2.266  0.4013  0.6028  0.6925
 4576SOL     OW25189   0.438   3.472  11.654  0.5599  0.0970  0.3115
 4576SOL    HW125190   0.491   3.478  11.733  0.6208 -0.5723  0.3141
 4576SOL    HW225191   0.454   3.385  11.618  0.1829 -0.0630  0.5308
 4577SOL     OW25192   0.168   1.882   4.033  0.6006 -0.4195  0.0802
 4577SOL    HW125193   0.250   1.919   3.999  0.0770  1.7779  1.1568
 4577SOL    HW225194   0.143   1.929   4.113  0.2547  0.6895 -0.6721
 4578SOL     OW25195   2.616   3.927   2.572 -0.4561  0.6060 -0.5088
 4578SOL    HW125196   2.641   3.896   2.485  1.0657  0.6431 -0.0949
 4578SOL    HW225197   2.700   3.918   2.618 -0.6392 -0.0018 -0.3021
 4579SOL     OW25198   2.916   1.521  15.078 -0.2939  0.3289 -0.0231
 4579SOL    HW125199   2.904   1.616  15.065 -0.9491  0.6950  3.3953
 4579SOL    HW225200   2.842   1.501  15.135 -1.6034  0.5746 -1.6393
 4580SOL     OW25201   0.247   3.307   6.316  0.2764  0.4494  0.0910
 4580SOL    HW125202   0.330   3.260   6.316 -1.0037 -1.8009  1.6043
 4580SOL    HW225203   0.183   3.259   6.369 -0.2378  0.6056 -0.3840
 4581SOL     OW25204   0.567   1.253  16.202  0.5606  0.1738 -0.1114
 4581SOL    HW125205   0.645   1.307  16.192 -0.3588  1.1349 -1.9164
 4581SOL    HW225206   0.555   1.208  16.118 -0.7941  3.0536 -1.4484
 4582SOL     OW25207   0.688   4.701  10.207 -0.0973  0.2178  0.1949
 4582SOL    HW125208   0.633   0.050  10.173 -2.3460 -1.5053  0.2268
 4582SOL    HW225209   0.703   4.650  10.128 -1.2409 -0.3363  0.3325
 4583SOL     OW25210   2.793   1.195  11.111  0.4695 -0.2414  0.4272
 4583SOL    HW125211   2.827   1.285  11.115  3.1155 -1.3067  2.3460
 4583SOL    HW225212   2.824   1.168  11.025 -2.1365 -1.6588 -0.0696
 4584SOL     OW25213   0.849   0.519   7.629 -0.7705 -0.2030  0.8978
 4584SOL    HW125214   0.789   0.496   7.558 -1.1807 -0.0863  1.2104
 4584SOL    HW225215   0.834   0.438   7.678  0.4764 -1.5493 -0.9312
 4585SOL     OW25216   1.505   0.783  14.908  0.7745  0.2902  0.2590
 4585SOL    HW125217   1.554   0.800  14.988 -1.6026 -0.7277  1.9488
 4585SOL    HW225218   1.465   0.867  14.889 -2.3918 -0.8819  1.6937
 4586SOL     OW25219   4.696   3.111   8.470  0.6705  0.1760  0.2630
 4586SOL    HW125220   4.659   3.198   8.479 -0.8240 -0.6730  2.6212
 4586SOL    HW225221   4.669   3.074   8.386  0.1560  0.0895  0.4645
 4587SOL     OW25222   1.042   2.698   2.878  0.3799 -0.3721 -0.1829
 4587SOL    HW125223   1.046   2.624   2.817 -2.6864 -1.1244  0.5289
 4587SOL    HW225224   0.978   2.653   2.933 -1.8242  1.9875 -0.8148
 4588SOL     OW25225   3.954   3.324  10.117 -0.6306 -0.6081  0.3103
 4588SOL    HW125226   4.018   3.254  10.104 -0.4644 -0.5337  0.7288
 4588SOL    HW225227   3.912   3.351  10.036 -0.3674  1.6503  0.9345
 4589SOL     OW25228   1.195   1.693   3.770 -0.0803 -0.1272  0.2714
 4589SOL    HW125229   1.236   1.640   3.701  0.7188 -2.3643  2.5030
 4589SOL    HW225230   1.259   1.763   3.784 -0.7839  0.5453  0.1110
 4590SOL     OW25231   2.972   3.589   4.067 -0.2498 -0.7910  0.0043
 4590SOL    HW125232   2.885   3.573   4.102 -0.4217  0.9153  0.3688
 4590SOL    HW225233   3.011   3.654   4.126 -0.1841 -0.2679 -0.6187
 4591SOL     OW25234   2.457   0.199   7.643 -0.0458  0.0993  0.1730
 4591SOL    HW125235   2.399   0.127   7.667 -1.3642  0.8330 -0.7692
 4591SOL    HW225236   2.510   0.142   7.587 -0.0170 -1.5024  1.8251
 4592SOL     OW25237   1.060   4.602   3.628  0.0427  0.2422 -0.2991
 4592SOL    HW125238   1.085   4.691   3.650  0.9372 -0.7775  2.7419
 4592SOL    HW225239   1.066   4.609   3.533  1.8606  1.8054 -0.0636
 4593SOL     OW25240   3.432   1.200   2.229  1.3039  0.5502 -0.8073
 4593SOL    HW125241   3.460   1.254   2.303 -0.9685 -0.1002  0.5471
 4593SOL    HW225242   3.369   1.267   2.201  0.3480 -0.8642 -2.0071
 4594SOL     OW25243   0.225   3.949   6.603 -0.0271 -0.1944  0.3584
 4594SOL    HW125244   0.176   4.026   6.574 -2.0873 -1.7050 -0.2096
 4594SOL    HW225245   0.218   3.952   6.698 -2.4505 -0.6104  0.1995
 4595SOL     OW25246   1.723   1.456   9.239  0.2382 -0.3510  0.5464
 4595SOL    HW125247   1.743   1.362   9.245 -0.1877 -0.4079  1.0584
 4595SOL    HW225248   1.771   1.481   9.318 -0.5262  0.7474  0.6695
 4596SOL     OW25249   2.527   1.587   7.401  0.2111  0.0437  0.2054
 4596SOL    HW125250   2.536   1.594   7.496  0.3601  1.3561  0.0895
 4596SOL    HW225251   2.620   1.581   7.384  0.7192  1.9891  2.2298
 4597SOL     OW25252   1.732   0.845   5.248  0.7463 -0.4374  0.4309
 4597SOL    HW125253   1.691   0.798   5.176  0.0079 -1.9175  1.8260
 4597SOL    HW225254   1.755   0.767   5.299 -1.9541 -1.4918  0.0156
 4598SOL     OW25255   0.125   3.810  14.285  0.4640 -0.3094 -0.3292
 4598SOL    HW125256   0.203   3.846  14.327 -0.3058 -0.1256  0.9165
 4598SOL    HW225257   0.127   3.719  14.313  3.0025  0.0176  0.5902
 4599SOL     OW25258   1.616   1.714  12.787 -0.0095 -0.2009 -0.1626
 4599SOL    HW125259   1.696   1.668  12.815 -0.0303 -0.0817  0.0896
 4599SOL    HW225260   1.647   1.773  12.718 -2.8277 -1.5344 -2.6000
 4600SOL     OW25261   2.217   1.197  13.895 -0.4971 -0.0925  0.0517
 4600SOL    HW125262   2.272   1.258  13.943 -0.2600 -0.7756  0.6435
 4600SOL    HW225263   2.135   1.203  13.944 -0.7012 -0.7932 -0.2015
 4601SOL     OW25264   4.008   0.752   1.934 -0.3909  0.4465  0.2583
 4601SOL    HW125265   3.938   0.778   1.874 -0.4706  0.3570  0.3137
 4601SOL    HW225266   4.084   0.785   1.886 -1.4236  0.9362 -1.0331
 4602SOL     OW25267   2.456   3.053   0.435 -0.2790 -0.1440  0.7350
 4602SOL    HW125268   2.423   3.143   0.437  2.2283  0.7128  2.5162
 4602SOL    HW225269   2.469   3.042   0.529 -0.7175 -0.2120  0.7866
 4603SOL     OW25270   1.498   0.400  16.000 -0.4611  0.3389 -0.4741
 4603SOL    HW125271   1.574   0.437  15.955 -0.9505  0.5588 -1.1172
 4603SOL    HW225272   1.437   0.388  15.927  0.3017 -0.6895 -0.9320
 4604SOL     OW25273   3.167   2.363  14.184  0.2309  0.3623  0.3825
 4604SOL    HW125274   3.228   2.419  14.231 -0.9122  1.9746 -0.0528
 4604SOL    HW225275   3.195   2.289  14.239 -0.0754  1.8823  2.5944
 4605SOL     OW25276   0.349   1.969   2.378 -0.4162  0.2183 -0.0459
 4605SOL    HW125277   0.430   2.006   2.344 -1.7335  1.3061 -2.0062
 4605SOL    HW225278   0.294   1.975   2.300  0.0573 -1.0160 -0.4740
 4606SOL     OW25279   0.753   3.530   3.071  0.4329  0.3091  0.0792
 4606SOL    HW125280   0.671   3.504   3.112 -0.8263  1.7780 -1.5125
 4606SOL    HW225281   0.723   3.572   2.990  2.3344 -0.0299 -0.8057
 4607SOL     OW25282   0.847   3.998   7.601 -0.0405  0.0439 -0.0372
 4607SOL    HW125283   0.874   3.983   7.510 -0.8391 -1.4019 -0.0359
 4607SOL    HW225284   0.932   3.981   7.642  1.1333  1.1206 -2.0301
 4608SOL     OW25285   2.782   2.736   5.786  0.7788 -0.1395 -0.1930
 4608SOL    HW125286   2.828   2.666   5.740  0.1507  0.6041 -1.9654
 4608SOL    HW225287   2.763   2.802   5.719 -3.0486 -1.1450 -0.0959
 4609SOL     OW25288   3.950   0.131  14.168  0.0878 -0.1626 -0.4057
 4609SOL    HW125289   4.028   0.077  14.161  0.9799  1.2319 -1.0057
 4609SOL    HW225290   3.911   0.111  14.083  0.1151  0.2544 -0.5131
 4610SOL     OW25291   3.069   1.391  17.367  0.3757 -0.3199 -0.5236
 4610SOL    HW125292   3.002   1.459  17.373  0.3563 -0.5841  2.3528
 4610SOL    HW225293   3.009   1.316  17.360 -0.0992 -0.0297  0.4096
 4611SOL     OW25294   0.655   0.624   5.235  0.2291 -0.1674  0.3816
 4611SOL    HW125295   0.685   0.645   5.146 -0.5073 -0.6237  0.0237
 4611SOL    HW225296   0.669   0.710   5.275  0.7682  0.8731 -2.0029
 4612SOL     OW25297   1.930   0.453   3.791  0.0099  0.1194  0.1767
 4612SOL    HW125298   1.954   0.371   3.834  0.7191  0.6277  0.7637
 4612SOL    HW225299   1.897   0.499   3.868 -1.9199  0.3163 -0.7879
 4613SOL     OW25300   0.243   4.026   3.263  0.6122 -0.3173  0.2271
 4613SOL    HW125301   0.300   4.005   3.337 -0.3841 -0.5914  0.9140
 4613SOL    HW225302   0.302   4.030   3.188  1.4876  0.5517  0.9646
 4614SOL     OW25303   2.959   1.326  13.146  0.0860  0.1440  0.1778
 4614SOL    HW125304   3.011   1.382  13.202  1.5360 -1.8559  0.8483
 4614SOL    HW225305   3.020   1.313  13.073 -0.4800  3.4623 -0.8759
 4615SOL     OW25306   3.721   1.390   8.880 -0.4076  0.5521  0.2723
 4615SOL    HW125307   3.689   1.315   8.831 -1.2545 -1.3006  3.6072
 4615SOL    HW225308   3.749   1.354   8.964 -2.0566  0.1987  0.6656
 4616SOL     OW25309   2.094   0.883   7.518  0.3605 -0.6425 -0.4623
 4616SOL    HW125310   2.025   0.833   7.475 -1.4109  0.9893  0.5151
 4616SOL    HW225311   2.087   0.845   7.605  0.0747 -0.3184 -0.3476
 4617SOL     OW25312   3.372   3.593   4.205  0.6607 -0.0651 -0.3090
 4617SOL    HW125313   3.345   3.566   4.293  1.5545 -0.1513 -0.0608
 4617SOL    HW225314   3.406   3.683   4.206  0.8881 -0.1320 -2.7424
 4618SOL     OW25315   1.215   0.146   7.762 -0.0156  0.0594  0.4214
 4618SOL    HW125316   1.270   0.072   7.737 -1.4001 -0.4917 -0.9634
 4618SOL    HW225317   1.199   0.182   7.675  1.2919  0.2161  0.2462
 4619SOL     OW25318   3.371   2.862   8.048 -0.1160 -0.2902  0.3874
 4619SOL    HW125319   3.420   2.795   8.001 -2.3192 -2.8529  1.7321
 4619SOL    HW225320   3.306   2.892   7.984  0.9569  2.5269  0.6224
 4620SOL     OW25321   3.259   3.581   5.573  0.2231 -0.6102 -0.1469
 4620SOL    HW125322   3.272   3.639   5.498  0.2184  0.3330  0.5786
 4620SOL    HW225323   3.249   3.496   5.532  0.0387 -2.3546  3.4822
 4621SOL     OW25324   3.403   3.423  11.005  0.4000  0.6122 -0.0716
 4621SOL    HW125325   3.484   3.467  10.980 -1.2770  3.4531 -0.4328
 4621SOL    HW225326   3.334   3.489  11.002 -0.1881  0.0771  2.1402
 4622SOL     OW25327   0.520   0.528   5.939 -0.0382 -0.2615 -0.3766
 4622SOL    HW125328   0.505   0.601   5.879  0.4989  0.1011 -0.0689
 4622SOL    HW225329   0.463   0.456   5.910 -0.2532 -0.2573  0.0285
 4623SOL     OW25330   4.288   4.025   6.936 -0.3240  0.4683 -0.3514
 4623SOL    HW125331   4.194   4.024   6.916 -0.5439  3.4041  0.6089
 4623SOL    HW225332   4.306   3.932   6.952  1.0792  1.1163  1.8686
 4624SOL     OW25333   2.479   2.377   7.286 -0.0245 -0.0908  0.4502
 4624SOL    HW125334   2.495   2.308   7.349  1.0560 -0.2701 -0.0280
 4624SOL    HW225335   2.418   2.435   7.334 -0.8407 -0.0027 -0.6860
 4625SOL     OW25336   1.748   1.570   0.816  0.1878 -1.0033  0.2106
 4625SOL    HW125337   1.676   1.624   0.783  1.6474  2.9303  3.3867
 4625SOL    HW225338   1.710   1.513   0.882  0.6340 -0.9242  0.5357
 4626SOL     OW25339   0.865   1.832  17.156 -0.2007  0.3009  0.0767
 4626SOL    HW125340   0.818   1.773  17.215 -3.4087  3.2883  0.4878
 4626SOL    HW225341   0.804   1.863  17.089 -1.3427 -4.0454 -0.9233
 4627SOL     OW25342   3.118   4.596   2.708 -0.2967 -0.5416  0.2584
 4627SOL    HW125343   3.214   4.605   2.705 -0.4752  1.4986  0.9515
 4627SOL    HW225344   3.096   4.630   2.794 -0.3765 -1.0814  0.4525
 4628SOL     OW25345   2.868   3.920  15.278 -0.2608  0.0413 -0.0294
 4628SOL    HW125346   2.815   3.866  15.219  0.6259 -0.1771 -0.6172
 4628SOL    HW225347   2.901   3.994  15.228  1.1707  0.1180  1.0390
 4629SOL     OW25348   1.419   2.481   7.368  0.3655 -0.3538 -0.5832
 4629SOL    HW125349   1.325   2.474   7.380  0.5001 -1.6086 -0.3488
 4629SOL    HW225350   1.453   2.568   7.391 -2.3310  0.6465 -0.3805
 4630SOL     OW25351   2.116   0.415   0.240  0.2619  0.2609 -0.2032
 4630SOL    HW125352   2.118   0.510   0.241  1.5645  0.2160  0.2409
 4630SOL    HW225353   2.023   0.401   0.222  0.6289 -2.5157 -0.0192
 4631SOL     OW25354   2.279   2.428   5.752  0.4241  0.4009 -0.1099
 4631SOL    HW125355   2.340   2.356   5.739  1.5617  1.2532  0.5457
 4631SOL    HW225356   2.293   2.452   5.844 -1.0108 -1.9051  0.7469
 4632SOL     OW25357   0.967   2.375   9.273  0.2406 -0.0854 -0.0137
 4632SOL    HW125358   0.875   2.370   9.246 -0.0747  2.3143  0.6171
 4632SOL    HW225359   0.978   2.465   9.240 -1.5928  1.0764  2.5606
 4633SOL     OW25360   3.468   4.400   8.203 -0.3110 -0.2176 -0.1556
 4633SOL    HW125361   3.400   4.345   8.164 -0.4314 -0.6962  0.7212
 4633SOL    HW225362   3.416   4.474   8.234  0.6362 -0.0171  0.9170
 4634SOL     OW25363   0.430   3.390   5.919 -0.0036 -0.4075  0.1952
 4634SOL    HW125364   0.339   3.412   5.940 -0.2030 -1.8262  0.8362
 4634SOL    HW225365   0.476   3.445   5.982  3.0092 -0.8219 -1.6776
 4635SOL     OW25366   2.101   0.820   6.821  0.2633 -0.0276  0.6897
 4635SOL    HW125367   2.023   0.796   6.771  0.6381 -0.0596  0.1259
 4635SOL    HW225368   2.094   0.911   6.793  2.0104  0.4451  1.8181
 4636SOL     OW25369   3.819   2.685   8.799 -0.7745 -0.3314 -0.0087
 4636SOL    HW125370   3.753   2.750   8.822 -1.6000 -1.3191  0.4408
 4636SOL    HW225371   3.895   2.704   8.854 -0.3266 -1.9393 -0.0547
 4637SOL     OW25372   0.165   2.137   4.748 -0.1929 -0.3911  0.5482
 4637SOL    HW125373   0.168   2.195   4.672 -1.3938 -0.2456  0.5986
 4637SOL    HW225374   0.152   2.197   4.822  0.8784  0.2613  0.2093
 4638SOL     OW25375   2.430   3.521   2.173 -0.0459 -0.0943 -0.2988
 4638SOL    HW125376   2.461   3.433   2.149  1.2020  0.4886 -0.8316
 4638SOL    HW225377   2.366   3.495   2.239 -2.6309 -0.1534 -2.8032
 4639SOL     OW25378   4.622   1.514   6.683 -0.1749 -0.6601  0.0461
 4639SOL    HW125379   4.634   1.568   6.761 -0.5328 -0.7540  0.1684
 4639SOL    HW225380   4.677   1.437   6.695  1.9445  0.9098  0.4016
 4640SOL     OW25381   3.554   2.336  14.220  0.5671  0.5964  0.6972
 4640SOL    HW125382   3.513   2.421  14.235  1.9794  1.1898  1.1456
 4640SOL    HW225383   3.598   2.322  14.304  0.9247  2.3484  0.7790
 4641SOL     OW25384   2.584   1.024  11.247  0.4763 -0.1045 -0.0254
 4641SOL    HW125385   2.642   1.087  11.290  1.9178 -0.3342 -1.6067
 4641SOL    HW225386   2.601   1.059  11.159  0.1582 -4.0670 -1.6682
 4642SOL     OW25387   3.458   4.431   3.293  0.0664 -0.0033 -0.0197
 4642SOL    HW125388   3.404   4.442   3.371  2.2720  1.5496  1.2735
 4642SOL    HW225389   3.541   4.456   3.333 -0.2600  1.5199 -0.3164
 4643SOL     OW25390   3.839   2.476   5.590 -0.3124  0.2075 -0.3930
 4643SOL    HW125391   3.807   2.393   5.556 -3.9214  1.5929 -0.2989
 4643SOL    HW225392   3.838   2.469   5.685  0.2983 -2.2577 -0.5600
 4644SOL     OW25393   2.485   3.717   7.510  0.1780 -0.1294  0.0012
 4644SOL    HW125394   2.410   3.664   7.538 -0.1845  0.1738 -0.3843
 4644SOL    HW225395   2.448   3.805   7.511  0.5275  0.0392 -1.8446
 4645SOL     OW25396   1.765   1.908  12.675 -0.1034 -0.2096  0.1393
 4645SOL    HW125397   1.838   1.935  12.620  0.9839  0.4714  1.8832
 4645SOL    HW225398   1.789   1.962  12.751  3.6294 -1.4061 -0.1835
 4646SOL     OW25399   1.106   2.432   4.431 -0.1681  0.0940 -0.1304
 4646SOL    HW125400   1.013   2.415   4.446 -0.3254 -0.1481 -1.3285
 4646SOL    HW225401   1.142   2.353   4.390 -1.2289  0.0870 -1.0666
 4647SOL     OW25402   0.172   1.442   2.744 -0.1732  0.0159  0.1358
 4647SOL    HW125403   0.118   1.483   2.676 -0.3982  1.9744  1.4734
 4647SOL    HW225404   0.254   1.439   2.694 -0.2645 -0.1804  0.0020
 4648SOL     OW25405   2.424   3.782   5.158  0.1576 -0.1313 -0.0929
 4648SOL    HW125406   2.520   3.775   5.164 -0.1168 -0.8690  3.6028
 4648SOL    HW225407   2.424   3.710   5.221 -2.5634 -1.1046 -1.2578
 4649SOL     OW25408   1.100   1.240  13.731  0.1267 -0.1735 -0.3047
 4649SOL    HW125409   1.142   1.200  13.807 -2.5107  0.7026  1.5978
 4649SOL    HW225410   1.020   1.273  13.771  1.6447  3.3551 -0.1912
 4650SOL     OW25411   3.234   1.970   7.629 -0.1227  0.2085 -0.5623
 4650SOL    HW125412   3.309   1.928   7.672 -0.1549 -0.3912 -1.0913
 4650SOL    HW225413   3.264   2.057   7.605  2.9152 -0.8874 -0.7250
 4651SOL     OW25414   0.891   0.277   7.968  0.5869  0.1174 -0.5050
 4651SOL    HW125415   0.802   0.298   7.996  1.1912  2.4540 -0.3533
 4651SOL    HW225416   0.872   0.192   7.929 -2.8979  0.5550  0.2340
 4652SOL     OW25417   2.946   3.712   7.075 -0.4090  0.1804 -0.0600
 4652SOL    HW125418   2.928   3.618   7.063  0.0264 -0.1377  1.8107
 4652SOL    HW225419   2.996   3.722   6.995  0.0978  0.5390  0.3076
 4653SOL     OW25420   2.489   4.460   0.975 -0.2568  0.6628  0.0385
 4653SOL    HW125421   2.452   4.544   0.946 -1.1658 -1.0019 -3.7264
 4653SOL    HW225422   2.513   4.412   0.895  1.9958 -0.1123  1.1819
 4654SOL     OW25423   3.288   0.034   9.261  0.3664  0.1260  0.1653
 4654SOL    HW125424   3.257   0.041   9.351 -0.6563  2.7747 -0.3703
 4654SOL    HW225425   3.256   4.669   9.237 -2.9671  1.8866 -1.7960
 4655SOL     OW25426   3.108   4.428   8.965 -0.1120 -0.1135  0.3949
 4655SOL    HW125427   3.174   4.393   8.905 -0.7998 -2.1753  0.8514
 4655SOL    HW225428   3.039   4.467   8.911 -0.0739  0.5000  0.7886
 4656SOL     OW25429   1.369   3.394   9.325 -0.2873  0.1077 -0.1005
 4656SOL    HW125430   1.391   3.331   9.393  1.4261  2.0892  1.1948
 4656SOL    HW225431   1.288   3.435   9.358  0.0108 -0.3441  1.1725
 4657SOL     OW25432   4.130   3.479   0.295  0.0109 -0.2489 -0.1251
 4657SOL    HW125433   4.124   3.474   0.390 -0.5046 -0.4248 -0.1681
 4657SOL    HW225434   4.209   3.533   0.302  0.4105 -0.9517  0.7892
 4658SOL     OW25435   1.737   3.691   6.944  0.3065  0.2715 -0.0921
 4658SOL    HW125436   1.708   3.629   7.011 -1.8145  0.2996 -1.0003
 4658SOL    HW225437   1.658   3.739   6.920 -1.2931 -1.7004  1.3351
 4659SOL     OW25438   1.413   0.627  10.269  0.8489 -0.0023  0.5796
 4659SOL    HW125439   1.407   0.591  10.181 -0.1986  1.6337 -0.0196
 4659SOL    HW225440   1.328   0.605  10.307  0.6900  1.1482  0.8953
 4660SOL     OW25441   1.973   1.729   2.586 -0.0595 -0.0570 -0.1277
 4660SOL    HW125442   1.903   1.692   2.640  1.7076 -0.4395  1.9084
 4660SOL    HW225443   1.923   1.741   2.506  1.1582 -0.0074 -0.8732
 4661SOL     OW25444   4.632   0.674   3.332 -0.0303 -0.4476  0.1443
 4661SOL    HW125445   4.666   0.732   3.400  0.0612  0.1715 -0.4246
 4661SOL    HW225446   4.712   0.672   3.280 -1.2861 -4.1592 -1.6425
 4662SOL     OW25447   4.558   1.484  11.212 -0.3877 -0.0214 -0.1137
 4662SOL    HW125448   4.555   1.461  11.119  1.3129 -0.3256 -0.0915
 4662SOL    HW225449   4.638   1.536  11.204 -0.1034 -0.7471 -1.9911
 4663SOL     OW25450   3.358   3.933   6.497 -0.2429 -0.5604 -0.3455
 4663SOL    HW125451   3.423   3.964   6.560 -2.1938  0.6425  1.0722
 4663SOL    HW225452   3.281   3.981   6.528  0.2548 -1.0013  1.5950
 4664SOL     OW25453   4.671   1.653   8.958  0.4279 -0.2233 -0.0113
 4664SOL    HW125454   0.037   1.666   8.921  0.1772 -0.6802 -0.7654
 4664SOL    HW225455   4.626   1.591   8.900  0.0998 -1.3342  1.4449
 4665SOL     OW25456   0.526   1.284   5.550 -0.1734  0.2048 -0.3720
 4665SOL    HW125457   0.452   1.292   5.611  0.4617  2.6119  0.0797
 4665SOL    HW225458   0.597   1.313   5.607 -1.5578  2.3189  0.3048
 4666SOL     OW25459   1.133   2.264   9.454  0.4697 -0.0193 -0.5240
 4666SOL    HW125460   1.065   2.293   9.393  1.3234 -0.1297 -1.5161
 4666SOL    HW225461   1.215   2.277   9.407  0.6431 -1.6022 -0.6600
 4667SOL     OW25462   3.761   4.018  16.116 -0.6003 -0.3012  1.0640
 4667SOL    HW125463   3.699   4.071  16.166  0.4101  0.7828  1.1821
 4667SOL    HW225464   3.702   3.954  16.078 -0.7420 -0.5113  1.6472
 4668SOL     OW25465   1.779   1.547   3.563  0.2742 -0.0795 -0.6879
 4668SOL    HW125466   1.783   1.632   3.605 -0.0447 -0.5825  0.3572
 4668SOL    HW225467   1.735   1.571   3.481 -2.4960 -0.7648  0.6119
 4669SOL     OW25468   1.678   3.241   6.278  0.2686 -0.0266  0.1851
 4669SOL    HW125469   1.756   3.196   6.309  0.2125 -1.9704 -2.5204
 4669SOL    HW225470   1.638   3.189   6.208  0.2091  0.4676 -0.1499
 4670SOL     OW25471   3.794   0.521   8.188 -0.4338 -0.3094  0.4967
 4670SOL    HW125472   3.844   0.531   8.269  0.1342  1.6045 -0.0896
 4670SOL    HW225473   3.768   0.429   8.198 -0.3187 -0.5037 -1.0150
 4671SOL     OW25474   2.796   0.535   7.055 -0.2799 -0.0503 -0.5353
 4671SOL    HW125475   2.813   0.450   7.013 -0.0948 -1.6624  2.8028
 4671SOL    HW225476   2.832   0.526   7.143 -0.6544  1.1431 -0.2675
 4672SOL     OW25477   2.671   1.575   8.397 -0.2454 -0.7126 -0.2814
 4672SOL    HW125478   2.634   1.487   8.402  0.0736 -0.9149 -1.6042
 4672SOL    HW225479   2.730   1.564   8.323 -1.4283  0.2230 -1.3661
 4673SOL     OW25480   4.228   1.948  17.653 -0.1903  0.4843  0.2091
 4673SOL    HW125481   4.294   2.015  17.674 -0.1643  1.4295 -2.9062
 4673SOL    HW225482   4.209   1.917   0.052 -0.2841  1.3154  0.4820
 4674SOL     OW25483   1.930   4.189   9.008 -0.2898  0.3296  0.0506
 4674SOL    HW125484   1.987   4.265   8.995  0.5890 -0.5780 -1.4348
 4674SOL    HW225485   1.996   4.123   9.026  0.3297  1.2637  1.1439
 4675SOL     OW25486   1.398   1.269   8.363  0.4594 -0.4023  0.0386
 4675SOL    HW125487   1.306   1.283   8.342  0.0635 -1.0237  1.3727
 4675SOL    HW225488   1.431   1.238   8.278  2.6978 -0.7728  1.0400
 4676SOL     OW25489   3.765   4.560   5.109 -0.3640 -0.2643 -0.3731
 4676SOL    HW125490   3.709   4.587   5.036 -0.4246  2.5635  0.7022
 4676SOL    HW225491   3.731   4.614   5.180 -1.1816 -0.1555 -0.8427
 4677SOL     OW25492   1.941   2.861   0.673  0.2711 -0.2336 -0.5480
 4677SOL    HW125493   2.001   2.933   0.658  0.9154 -0.8502 -0.9232
 4677SOL    HW225494   1.867   2.887   0.619 -0.4903  0.9135  1.0666
 4678SOL     OW25495   2.263   0.341   2.341 -0.6276  0.7196  0.1621
 4678SOL    HW125496   2.234   0.250   2.334  3.7902 -0.6404  0.0230
 4678SOL    HW225497   2.192   0.387   2.385 -1.2441  2.2319 -2.4214
 4679SOL     OW25498   3.468   1.292   0.349 -0.5279 -0.1116 -0.1183
 4679SOL    HW125499   3.483   1.217   0.292 -0.2190 -0.6440  0.6598
 4679SOL    HW225500   3.373   1.297   0.338 -0.6921 -0.8766  0.9818
 4680SOL     OW25501   4.210   0.209   8.972  0.0455 -0.1948  0.0087
 4680SOL    HW125502   4.217   0.115   8.952  2.3355 -0.3734  1.5803
 4680SOL    HW225503   4.215   0.198   9.067  1.4198 -2.1720 -0.2813
 4681SOL     OW25504   1.235   3.082  10.113 -0.1146 -0.5413 -0.2655
 4681SOL    HW125505   1.301   3.133  10.066 -0.7068  0.7405  0.3207
 4681SOL    HW225506   1.287   3.016  10.160 -0.6458 -2.1177 -1.8816
 4682SOL     OW25507   3.325   1.441   7.569 -0.0249 -0.1876  0.1170
 4682SOL    HW125508   3.377   1.365   7.598 -0.0272 -0.9550 -1.8371
 4682SOL    HW225509   3.342   1.428   7.475  1.4601  1.7506  0.1097
 4683SOL     OW25510   4.466   1.694   9.259  0.4139  0.2604 -0.4288
 4683SOL    HW125511   4.470   1.725   9.350 -0.9480 -0.3517 -0.1710
 4683SOL    HW225512   4.460   1.599   9.267  1.2368  0.0714 -1.9848
 4684SOL     OW25513   2.881   2.570   0.115  0.7115  0.9690 -0.2986
 4684SOL    HW125514   2.972   2.594   0.102  0.9180  1.2436  1.5957
 4684SOL    HW225515   2.836   2.632   0.057  1.1821  0.4416 -1.2199
 4685SOL     OW25516   2.896   3.494  15.994  0.5684 -0.2791 -0.7900
 4685SOL    HW125517   2.952   3.416  15.993 -0.6302 -1.1444  0.2059
 4685SOL    HW225518   2.813   3.456  16.022  1.8120  0.2764  3.7302
 4686SOL     OW25519   3.224   4.125  14.645 -0.2945  0.1098  0.0042
 4686SOL    HW125520   3.157   4.159  14.586  0.1769  0.0475 -0.5707
 4686SOL    HW225521   3.186   4.046  14.682 -0.8112  0.6475  0.6266
 4687SOL     OW25522   3.860   2.533   1.752 -0.4284  0.3693 -0.1883
 4687SOL    HW125523   3.779   2.570   1.716 -0.1815  1.1692  0.0878
 4687SOL    HW225524   3.874   2.452   1.703  1.6802  1.0546 -0.7542
 4688SOL     OW25525   0.278   4.580   5.504  0.4758 -0.3980 -0.1526
 4688SOL    HW125526   0.367   4.562   5.473 -0.1822 -1.7050 -1.2678
 4688SOL    HW225527   0.265   4.657   5.448  0.2415 -0.1623  0.2254
 4689SOL     OW25528   4.661   3.351  17.407  0.1242  0.2737 -0.4308
 4689SOL    HW125529   4.671   3.297  17.485 -1.0074  1.7900  0.7632
 4689SOL    HW225530   4.715   3.426  17.430  1.2055 -0.8703  0.7528
 4690SOL     OW25531   0.290   0.610   9.354  0.3073 -0.1959 -0.4520
 4690SOL    HW125532   0.363   0.549   9.364 -0.0038 -0.7445 -1.5326
 4690SOL    HW225533   0.286   0.654   9.439  2.8065  0.8579 -0.8911
 4691SOL     OW25534   3.304   3.749   3.503 -0.1321 -0.0788  0.3497
 4691SOL    HW125535   3.324   3.756   3.409 -0.2405  1.3184  0.4330
 4691SOL    HW225536   3.384   3.709   3.537 -0.0088 -1.8411 -1.9851
 4692SOL     OW25537   0.529   1.467   2.947 -0.0818  0.0044 -0.8228
 4692SOL    HW125538   0.487   1.546   2.911  0.5671 -0.1112 -1.8565
 4692SOL    HW225539   0.618   1.485   2.916  0.6473 -1.9338  0.1542
 4693SOL     OW25540   3.518   4.290   7.858  0.0713  0.3059  0.0681
 4693SOL    HW125541   3.463   4.254   7.788 -0.3468  1.1224 -0.0158
 4693SOL    HW225542   3.478   4.377   7.858  1.2731  0.8422  1.5676
 4694SOL     OW25543   0.410   3.943  13.130  0.1897  0.4322 -0.3885
 4694SOL    HW125544   0.335   3.993  13.098 -0.5147 -1.4438 -1.6675
 4694SOL    HW225545   0.464   3.927  13.052  1.9217 -1.1690  1.1476
 4695SOL     OW25546   3.114   3.221   0.337  0.1617 -0.7548 -0.9744
 4695SOL    HW125547   3.091   3.235   0.245  1.2213 -0.5870 -1.2187
 4695SOL    HW225548   3.067   3.293   0.380  0.6033  0.0225 -1.7921
 4696SOL     OW25549   0.898   0.043   0.509 -0.1002 -0.0936 -0.0384
 4696SOL    HW125550   0.962   4.713   0.460  1.4129 -0.0815  1.9199
 4696SOL    HW225551   0.895   0.121   0.454 -0.7836  0.2148  0.4384
 4697SOL     OW25552   3.210   4.294   8.175  0.1044  0.9034 -0.4598
 4697SOL    HW125553   3.144   4.266   8.112  0.7623 -1.4904 -0.0906
 4697SOL    HW225554   3.159   4.297   8.256  0.7247 -1.1733 -0.0057
 4698SOL     OW25555   2.969   2.234   7.895  0.4966 -0.0292 -0.7663
 4698SOL    HW125556   2.888   2.209   7.939  1.7243 -2.4291  0.1490
 4698SOL    HW225557   3.035   2.187   7.945 -0.1486 -1.1257 -0.9367
 4699SOL     OW25558   2.173   0.507   3.222 -0.5127  0.1200  0.3881
 4699SOL    HW125559   2.189   0.601   3.230  0.9990 -0.2919  2.4413
 4699SOL    HW225560   2.119   0.504   3.143 -1.7907 -1.3969  1.3202
 4700SOL     OW25561   0.608   0.080  12.491 -0.2020  0.1309 -0.2132
 4700SOL    HW125562   0.587   0.112  12.578  0.5307 -1.2782  0.4803
 4700SOL    HW225563   0.522   0.081  12.449 -0.6011 -1.0775  0.5822
 4701SOL     OW25564   0.222   0.630   8.087 -0.3692 -0.1805 -0.1114
 4701SOL    HW125565   0.302   0.637   8.035 -0.6115  1.8974 -0.1915
 4701SOL    HW225566   0.234   0.550   8.137 -0.6235  0.9325  1.7023
 4702SOL     OW25567   2.868   3.113   7.506  0.4002  0.1833  0.1669
 4702SOL    HW125568   2.778   3.097   7.535  0.7283  0.0113  1.0906
 4702SOL    HW225569   2.895   3.194   7.548 -0.4980  2.4787 -3.7156
 4703SOL     OW25570   3.795   2.002   4.970  0.2068 -0.2843 -0.0012
 4703SOL    HW125571   3.824   1.912   4.979  2.3877  0.2241 -1.9215
 4703SOL    HW225572   3.816   2.022   4.879 -0.1644 -1.7876 -0.4148
 4704SOL     OW25573   4.195   2.885   9.374 -0.3261  0.4243  0.3653
 4704SOL    HW125574   4.244   2.878   9.292 -0.6225 -3.4462  0.5095
 4704SOL    HW225575   4.132   2.957   9.365 -1.1095 -0.0780  1.8424
 4705SOL     OW25576   4.180   2.069   3.903  0.2091  0.5788 -1.3084
 4705SOL    HW125577   4.119   1.995   3.900  1.0993 -0.2298  0.5021
 4705SOL    HW225578   4.222   2.053   3.987 -0.0078 -0.5698 -1.4135
 4706SOL     OW25579   2.424   2.564  11.581  1.0730  0.2230 -0.3182
 4706SOL    HW125580   2.361   2.611  11.636  0.5879 -1.0803  0.2366
 4706SOL    HW225581   2.432   2.625  11.508  2.1041 -0.7264 -0.9993
 4707SOL     OW25582   1.045   2.954   2.576  0.2766  0.1213 -0.1461
 4707SOL    HW125583   1.097   2.981   2.500 -0.1973  0.7194 -0.2555
 4707SOL    HW225584   0.990   3.033   2.582 -0.2807 -0.4571  2.4439
 4708SOL     OW25585   2.240   4.238  17.117 -0.2965  0.1377 -0.6538
 4708SOL    HW125586   2.259   4.214  17.026  0.5932  1.9237 -0.9461
 4708SOL    HW225587   2.274   4.327  17.111  1.5818 -0.4388  1.6370
 4709SOL     OW25588   2.182   0.018  11.919  0.1090  0.4559 -0.1328
 4709SOL    HW125589   2.229   4.701  11.846  0.5288 -0.4059  0.6002
 4709SOL    HW225590   2.239   4.698  11.984  0.3714 -0.0828 -0.7142
 4710SOL     OW25591   3.438   4.186  15.061  0.4974 -0.4118  0.6800
 4710SOL    HW125592   3.516   4.219  15.016 -0.4910 -0.1747 -0.8781
 4710SOL    HW225593   3.384   4.264  15.076  2.3129  0.7225  1.2533
 4711SOL     OW25594   0.140   0.310   3.478  1.0012  0.6250  0.3882
 4711SOL    HW125595   0.078   0.284   3.547 -0.7703 -0.0426 -1.4650
 4711SOL    HW225596   0.092   0.295   3.397 -0.6888 -0.6267  1.6360
 4712SOL     OW25597   3.848   3.165  10.464 -0.2544  1.5304  0.8358
 4712SOL    HW125598   3.831   3.098  10.397 -0.6608  1.1642  1.3049
 4712SOL    HW225599   3.944   3.162  10.474  0.0293  3.1447 -1.3619
 4713SOL     OW25600   2.451   3.296  10.267  0.0568 -0.2949 -0.2551
 4713SOL    HW125601   2.521   3.360  10.279 -1.8721  1.6632  0.7086
 4713SOL    HW225602   2.413   3.355  10.203 -0.8216 -1.2693 -0.6310
 4714SOL     OW25603   1.457   1.768   4.832 -0.3479 -0.3532  0.0660
 4714SOL    HW125604   1.547   1.751   4.807  0.2954 -0.5251  2.4370
 4714SOL    HW225605   1.428   1.683   4.864 -0.7882  0.2356  1.2552
 4715SOL     OW25606   3.247   3.682   6.595 -0.4014 -0.2904 -0.2295
 4715SOL    HW125607   3.180   3.703   6.660  2.0608 -2.9235  3.1653
 4715SOL    HW225608   3.290   3.764   6.570 -0.7253  0.2673  1.0635
 4716SOL     OW25609   3.719   1.289  14.556  0.3723 -0.2518  0.3754
 4716SOL    HW125610   3.674   1.355  14.610  0.5921  1.0432 -1.0190
 4716SOL    HW225611   3.685   1.219  14.611 -0.2281 -1.0637 -1.0311
 4717SOL     OW25612   2.564   1.829   5.723  0.2279 -0.2539 -0.3399
 4717SOL    HW125613   2.562   1.737   5.750 -0.1664 -0.4305 -0.9730
 4717SOL    HW225614   2.657   1.853   5.721  0.2681 -0.4960 -1.5508
 4718SOL     OW25615   4.036   0.836   8.267  0.3426  0.1675 -0.0049
 4718SOL    HW125616   3.969   0.858   8.331 -1.7065 -0.3294 -2.0040
 4718SOL    HW225617   4.105   0.804   8.326 -1.0270 -2.4080  0.1969
 4719SOL     OW25618   2.152   1.927   8.220  0.3748 -0.3276 -0.0852
 4719SOL    HW125619   2.135   2.014   8.257  1.5503 -0.6522  1.2033
 4719SOL    HW225620   2.163   1.956   8.129  2.5494  0.1181  0.3122
 4720SOL     OW25621   2.841   2.238   2.537 -0.0665 -0.1881  0.1186
 4720SOL    HW125622   2.762   2.285   2.510 -0.4608 -0.4407  0.8163
 4720SOL    HW225623   2.861   2.300   2.607  0.3562 -0.5716  0.3380
 4721SOL     OW25624   0.866   0.284  16.434  0.6921 -0.1054  0.1698
 4721SOL    HW125625   0.826   0.227  16.500 -0.7919  0.9382  0.1787
 4721SOL    HW225626   0.940   0.327  16.476  2.2304 -0.4387 -2.2348
 4722SOL     OW25627   1.025   3.132   3.825 -0.2654  0.4449 -0.1961
 4722SOL    HW125628   1.029   3.057   3.884  0.6736  0.5319 -0.1474
 4722SOL    HW225629   1.109   3.136   3.780  0.6235 -0.4503  1.3832
 4723SOL     OW25630   0.084   3.693  15.895 -0.7529 -0.0714 -0.4035
 4723SOL    HW125631   0.140   3.728  15.826 -1.6177 -2.4041 -2.2871
 4723SOL    HW225632   0.016   3.760  15.899 -0.1669  0.4927 -0.0065
 4724SOL     OW25633   2.135   0.755   1.268  0.4333 -0.4510  0.1929
 4724SOL    HW125634   2.123   0.679   1.325  0.8140  0.2110  1.1596
 4724SOL    HW225635   2.225   0.769   1.299 -0.6657  1.6774  2.4347
 4725SOL     OW25636   1.311   4.649   7.651 -0.2492 -0.1639 -0.4703
 4725SOL    HW125637   1.237   4.640   7.591 -0.4403  0.7782 -0.3860
 4725SOL    HW225638   1.385   4.628   7.595 -0.8063 -1.9415 -0.5360
 4726SOL     OW25639   4.058   0.039   6.128  0.1245  0.5430  0.2874
 4726SOL    HW125640   4.122   0.051   6.199  0.8586  2.0588 -0.6288
 4726SOL    HW225641   4.089   4.679   6.090  1.6915  0.7265  1.1300
 4727SOL     OW25642   4.099   3.857  12.898  0.6573  0.6087  0.1030
 4727SOL    HW125643   4.187   3.870  12.933  0.4598  0.0234  0.8280
 4727SOL    HW225644   4.110   3.785  12.836  0.6144  0.0520  0.7410
 4728SOL     OW25645   3.855   2.882   2.900  0.0357 -0.1423 -0.1744
 4728SOL    HW125646   3.843   2.836   2.817  2.6116 -1.9554  0.4621
 4728SOL    HW225647   3.917   2.949   2.870 -1.2830  0.6179 -1.1820
 4729SOL     OW25648   4.704   0.691  11.850 -0.0947  0.7305 -0.2759
 4729SOL    HW125649   4.682   0.734  11.767  1.7549  2.5375  0.1729
 4729SOL    HW225650   0.059   0.740  11.880 -1.2672  3.5010 -1.8026
 4730SOL     OW25651   0.030   4.106   1.571 -0.3094  0.4415 -0.3287
 4730SOL    HW125652   4.703   4.145   1.498  0.4934 -1.6619 -2.0088
 4730SOL    HW225653   0.059   4.029   1.521 -0.6027 -1.9463  3.2016
 4731SOL     OW25654   4.602   3.807   8.651 -0.1179 -0.0228  0.1879
 4731SOL    HW125655   4.558   3.812   8.736 -1.7856 -1.5925 -0.5694
 4731SOL    HW225656   4.678   3.757   8.681  0.2942 -1.1564 -2.6723
 4732SOL     OW25657   2.315   4.369   9.807 -0.0857 -0.3221 -0.5733
 4732SOL    HW125658   2.407   4.395   9.797  0.0832 -0.6699  0.0217
 4732SOL    HW225659   2.315   4.380   9.903 -0.2009  0.7204 -0.6961
 4733SOL     OW25660   4.371   4.339   2.610 -0.6251 -0.0100  0.0135
 4733SOL    HW125661   4.400   4.417   2.658 -0.1566  1.0968 -2.0452
 4733SOL    HW225662   4.310   4.295   2.669  0.9278  2.2350  3.3239
 4734SOL     OW25663   4.466   4.517   6.291 -0.3594  0.2623  0.2183
 4734SOL    HW125664   4.448   4.592   6.233 -0.5944 -0.2865 -0.4243
 4734SOL    HW225665   4.477   4.555   6.378 -1.3098  2.2311 -0.4963
 4735SOL     OW25666   3.765   3.738   8.881 -0.2195 -0.2657  0.2273
 4735SOL    HW125667   3.823   3.709   8.951 -0.9126  0.2929  1.0324
 4735SOL    HW225668   3.728   3.808   8.934 -0.3943 -0.7298  0.7236
 4736SOL     OW25669   1.364   0.258   9.837  0.2881  0.2773  0.2509
 4736SOL    HW125670   1.287   0.218   9.878  0.5363 -1.4317 -0.9216
 4736SOL    HW225671   1.436   0.200   9.863  1.0915  1.5524  0.8839
 4737SOL     OW25672   0.940   1.897  14.237  0.2077 -0.0765  0.0666
 4737SOL    HW125673   0.882   1.973  14.236  2.0313  1.3314  0.8092
 4737SOL    HW225674   0.886   1.824  14.266  2.7597 -1.4928  1.3129
 4738SOL     OW25675   3.041   3.945   2.423 -0.4142  0.2601  0.5110
 4738SOL    HW125676   3.122   3.974   2.382  0.4825  0.8498  2.6960
 4738SOL    HW225677   3.015   4.024   2.470  2.5201 -0.3021  3.0995
 4739SOL     OW25678   2.499   3.700   8.834  0.0762  0.0108 -0.4857
 4739SOL    HW125679   2.590   3.725   8.851 -0.4278  1.8523 -0.5282
 4739SOL    HW225680   2.517   3.609   8.811  1.3564  0.0368  0.3954
 4740SOL     OW25681   2.507   4.592   6.318 -0.1465  0.4764  0.0516
 4740SOL    HW125682   2.590   4.612   6.275  0.5937  0.8129  1.6349
 4740SOL    HW225683   2.451   4.658   6.276 -1.3370 -1.5531 -1.5132
 4741SOL     OW25684   4.101   1.508   7.016  0.3963 -0.2293 -0.0639
 4741SOL    HW125685   4.196   1.513   7.001  0.4162 -1.6140 -0.3628
 4741SOL    HW225686   4.072   1.555   6.938 -0.3110 -0.1962  0.2241
 4742SOL     OW25687   4.674   1.035   9.041  0.7684 -0.8899  0.2218
 4742SOL    HW125688   4.688   1.010   8.949  1.8710 -0.1677  0.1908
 4742SOL    HW225689   0.029   0.997   9.083  1.1838 -1.4388 -1.0370
 4743SOL     OW25690   4.193   0.689   1.018 -0.1191  0.2599  0.3914
 4743SOL    HW125691   4.234   0.678   0.932 -0.6463 -2.7359  0.4990
 4743SOL    HW225692   4.128   0.619   1.010  0.0992  0.0541  0.4100
 4744SOL     OW25693   0.090   3.607   3.808  0.2030  0.0860 -0.1590
 4744SOL    HW125694   0.097   3.528   3.862  1.4926  0.2109 -0.1510
 4744SOL    HW225695   0.149   3.583   3.737 -1.0995 -2.8106 -0.2793
 4745SOL     OW25696   0.584   3.559  11.351  0.5528 -0.3552  0.0640
 4745SOL    HW125697   0.611   3.595  11.436 -0.8957 -0.0034  0.3667
 4745SOL    HW225698   0.639   3.481  11.344  0.3910 -0.4876  0.2662
 4746SOL     OW25699   3.849   1.366   6.142 -0.3027 -0.1173 -0.4614
 4746SOL    HW125700   3.819   1.290   6.092  0.1397  0.3829 -1.4770
 4746SOL    HW225701   3.773   1.424   6.132 -1.1359 -0.3898  4.0139
 4747SOL     OW25702   3.213   2.457   4.386 -0.5750  0.0336 -0.3174
 4747SOL    HW125703   3.119   2.451   4.366 -1.0950  0.9772  1.8852
 4747SOL    HW225704   3.228   2.387   4.449 -1.1201 -0.7673 -1.0619
 4748SOL     OW25705   1.440   0.950   5.720  0.0080  0.4190 -0.3461
 4748SOL    HW125706   1.373   0.888   5.692 -0.9281  1.2004  0.1562
 4748SOL    HW225707   1.511   0.891   5.745  1.6618  1.1548 -3.2699
 4749SOL     OW25708   2.930   3.444   7.028 -0.8894  0.5176  0.2078
 4749SOL    HW125709   2.901   3.419   7.116  0.9432  0.3643  0.7566
 4749SOL    HW225710   3.005   3.384   7.023  0.8307  2.5867  1.2261
 4750SOL     OW25711   2.647   0.534   7.429 -0.0998 -0.0488 -0.4881
 4750SOL    HW125712   2.595   0.547   7.349  1.6270  2.1133 -1.2504
 4750SOL    HW225713   2.704   0.611   7.423 -0.0238 -0.2774 -2.8234
 4751SOL     OW25714   4.201   3.911   1.879 -0.2792  0.5979 -0.6796
 4751SOL    HW125715   4.294   3.892   1.888 -0.2463  1.4808  0.8012
 4751SOL    HW225716   4.197   3.967   1.802  3.9665  0.4031 -1.0414
 4752SOL     OW25717   0.249   1.302   6.972 -0.0101  0.5375  0.0410
 4752SOL    HW125718   0.216   1.213   6.983 -0.8361  1.1668  2.6930
 4752SOL    HW225719   0.341   1.277   6.981 -1.0940 -3.7497 -1.1457
 4753SOL     OW25720   1.621   3.200  10.395 -0.3260 -0.0196 -0.3198
 4753SOL    HW125721   1.613   3.296  10.389 -1.4005  0.0015  1.3678
 4753SOL    HW225722   1.683   3.191  10.467 -1.0593  1.2373  0.4761
 4754SOL     OW25723   2.769   4.690  13.349  0.1371 -0.1523  0.2660
 4754SOL    HW125724   2.812   0.054  13.352  1.6058 -0.8218 -1.2567
 4754SOL    HW225725   2.676   4.708  13.362  0.3802  0.0035  1.8428
 4755SOL     OW25726   4.593   0.310   6.208  0.1070 -0.5060 -0.2956
 4755SOL    HW125727   4.528   0.379   6.221  2.1646  0.9354  2.2997
 4755SOL    HW225728   4.550   0.241   6.259 -0.8756  0.5264  0.2676
 4756SOL     OW25729   2.484   3.981  14.070 -0.0102 -0.4423  0.2600
 4756SOL    HW125730   2.396   4.011  14.045  0.1697 -0.7557 -0.7315
 4756SOL    HW225731   2.494   4.033  14.150  2.4352  1.7412 -1.5093
 4757SOL     OW25732   0.852   1.273   0.500 -0.2860 -0.4508  0.8349
 4757SOL    HW125733   0.833   1.203   0.438  0.9614 -0.9704  1.0261
 4757SOL    HW225734   0.767   1.318   0.501 -0.3846 -0.6110 -1.6434
 4758SOL     OW25735   2.009   3.704   3.980  0.1365 -0.1206  0.0965
 4758SOL    HW125736   2.003   3.690   4.074 -0.2647 -0.1275  0.0708
 4758SOL    HW225737   1.946   3.776   3.968 -1.3472 -1.1596  1.6247
 4759SOL     OW25738   0.248   0.137   1.970  0.3215 -0.2925  0.5356
 4759SOL    HW125739   0.177   0.184   1.926  0.8282  1.6804  1.8432
 4759SOL    HW225740   0.277   0.092   1.890 -2.1558  0.1803 -0.6101
 4760SOL     OW25741   2.780   0.919  12.124  0.9905 -0.6450 -0.5387
 4760SOL    HW125742   2.704   0.944  12.072  1.2896  2.6052  0.5797
 4760SOL    HW225743   2.830   1.001  12.133  0.6021 -0.4213 -0.4046
 4761SOL     OW25744   0.735   3.752   7.599  0.5577 -0.7699  0.1541
 4761SOL    HW125745   0.666   3.742   7.664 -0.2745  0.1938 -0.5906
 4761SOL    HW225746   0.772   3.836   7.623 -1.5536  0.5051 -1.0677
 4762SOL     OW25747   0.382   2.413   5.084 -0.2167  0.3876 -0.0125
 4762SOL    HW125748   0.476   2.424   5.069 -0.0756 -0.6529  0.1050
 4762SOL    HW225749   0.346   2.497   5.055 -0.4500 -0.5982 -2.5820
 4763SOL     OW25750   1.198   4.135   4.848 -0.2865 -0.1687 -0.1523
 4763SOL    HW125751   1.237   4.048   4.839  0.7350  0.2247  0.5044
 4763SOL    HW225752   1.278   4.178   4.879 -0.9436  0.0232  1.2423
 4764SOL     OW25753   0.234   2.695   3.575 -0.0795 -0.0584 -0.0151
 4764SOL    HW125754   0.237   2.709   3.480 -1.5786  0.6783  0.0390
 4764SOL    HW225755   0.270   2.781   3.598 -0.4950  0.0555  0.2104
 4765SOL     OW25756   0.869   2.848   5.835  0.2636 -0.8331 -0.4245
 4765SOL    HW125757   0.849   2.937   5.807  1.0595 -0.1836  1.0866
 4765SOL    HW225758   0.860   2.802   5.751 -2.0169  1.3645 -1.3808
 4766SOL     OW25759   3.984   0.233  11.638 -0.0821 -0.4096  0.0392
 4766SOL    HW125760   4.054   0.168  11.635 -0.3485 -0.6440 -1.1254
 4766SOL    HW225761   3.945   0.211  11.722 -0.3722  2.2200  0.5927
 4767SOL     OW25762   0.031   0.756  15.298  0.3110  0.5717  0.0365
 4767SOL    HW125763   0.051   0.734  15.389  0.4613 -2.0438 -0.6066
 4767SOL    HW225764   0.044   0.850  15.298  0.1566  0.5914  0.8047
 4768SOL     OW25765   2.312   0.300   1.762  0.1826  0.8668 -0.4007
 4768SOL    HW125766   2.326   0.223   1.818 -3.0760  1.2685  0.9409
 4768SOL    HW225767   2.348   0.256   1.684  1.9248  0.9525  0.3617
 4769SOL     OW25768   2.496   0.944   7.840  0.2127 -0.3059 -0.2613
 4769SOL    HW125769   2.434   0.993   7.786 -0.7714  1.5486  2.5244
 4769SOL    HW225770   2.476   0.970   7.930  0.5766  0.0950 -0.2955
 4770SOL     OW25771   0.508   0.830  15.765  0.0309 -0.3709 -0.1565
 4770SOL    HW125772   0.435   0.861  15.712  0.8968 -0.9952 -1.6877
 4770SOL    HW225773   0.510   0.740  15.733 -0.0090 -1.6515  3.3986
 4771SOL     OW25774   2.135   0.577   4.311  0.0585  0.2245  0.9029
 4771SOL    HW125775   2.109   0.669   4.308 -1.4464 -0.1844  1.3789
 4771SOL    HW225776   2.101   0.547   4.395 -0.3711  2.6040  1.5995
 4772SOL     OW25777   0.914   3.922   8.398 -0.1628 -0.1116 -0.1669
 4772SOL    HW125778   0.959   3.840   8.419 -0.6552  0.0791  1.6407
 4772SOL    HW225779   0.829   3.884   8.372 -0.4391  0.8003 -0.5662
 4773SOL     OW25780   0.349   2.297   6.415 -0.0841 -0.2548  0.0026
 4773SOL    HW125781   0.372   2.206   6.432 -0.0373 -0.1420  0.5503
 4773SOL    HW225782   0.353   2.307   6.320 -0.3867  2.7709  0.3030
 4774SOL     OW25783   1.296   0.921   4.632  0.3749 -0.4421 -0.2284
 4774SOL    HW125784   1.302   1.005   4.587 -0.1296  0.7439  1.9727
 4774SOL    HW225785   1.324   0.862   4.562 -1.0248 -0.8415 -0.4569
 4775SOL     OW25786   2.775   0.238   6.639  0.3685 -0.2862  0.7346
 4775SOL    HW125787   2.778   0.160   6.583  0.2152  0.1307  0.1465
 4775SOL    HW225788   2.776   0.309   6.574 -1.1774 -0.8428  0.1243
 4776SOL     OW25789   4.427   1.857   3.134  0.1336 -0.6837  0.0391
 4776SOL    HW125790   4.344   1.825   3.099  1.2996 -3.8994  0.1847
 4776SOL    HW225791   4.393   1.919   3.199  0.9462  1.0048 -1.1530
 4777SOL     OW25792   1.030   2.637   4.946  0.9159  0.3359  0.2320
 4777SOL    HW125793   1.101   2.576   4.964 -1.9559 -3.4299 -1.1401
 4777SOL    HW225794   0.954   2.594   4.985 -0.3384  0.8839 -1.6045
 4778SOL     OW25795   1.153   3.229   8.536 -0.6974  0.1818 -0.5095
 4778SOL    HW125796   1.091   3.211   8.465  0.4822  0.7291 -1.6697
 4778SOL    HW225797   1.089   3.248   8.605  0.9924  3.2693  0.2125
 4779SOL     OW25798   2.568   1.729   2.768 -0.3477 -0.2345  0.1722
 4779SOL    HW125799   2.513   1.766   2.699 -0.3704 -0.5663  0.0098
 4779SOL    HW225800   2.654   1.738   2.728 -0.7002 -3.1183 -1.2754
 4780SOL     OW25801   2.795   2.114  11.375 -0.2776 -0.3969 -0.3065
 4780SOL    HW125802   2.760   2.041  11.426  0.8914  0.3162  1.5199
 4780SOL    HW225803   2.866   2.137  11.435 -1.6573 -0.7909  1.4973
 4781SOL     OW25804   0.632   0.823  14.500  0.1681 -0.1485 -0.0369
 4781SOL    HW125805   0.584   0.760  14.554 -1.2703  0.3082 -0.7658
 4781SOL    HW225806   0.716   0.833  14.544  0.1891  0.0120 -0.1143
 4782SOL     OW25807   1.088   4.252   2.955 -0.2929  0.2067 -0.5705
 4782SOL    HW125808   1.033   4.330   2.960  0.7652  0.8634  0.9083
 4782SOL    HW225809   1.177   4.282   2.942  0.4341 -0.7925  2.1071
 4783SOL     OW25810   1.436   0.447   2.926  0.1599  0.6548  0.3090
 4783SOL    HW125811   1.435   0.484   3.014  0.5467 -2.0574  1.4804
 4783SOL    HW225812   1.440   0.512   2.856 -0.4461 -0.9173 -1.2053
 4784SOL     OW25813   1.515   0.678   5.058 -0.0322  0.1446  0.5505
 4784SOL    HW125814   1.493   0.732   4.982 -1.5370  0.5023  1.2436
 4784SOL    HW225815   1.512   0.597   5.008 -0.4549  0.1670  0.5467
 4785SOL     OW25816   4.705   3.671   9.211  0.2523  0.5488  0.1120
 4785SOL    HW125817   4.689   3.765   9.219  2.3223  1.2038 -3.1546
 4785SOL    HW225818   4.651   3.665   9.290 -1.1094  0.5645 -0.8226
 4786SOL     OW25819   0.254   0.107   5.345 -0.7941  0.0001  0.2249
 4786SOL    HW125820   0.239   0.144   5.258  3.1852  1.1692  0.0436
 4786SOL    HW225821   0.275   0.185   5.397  0.6878 -0.5404  0.4318
 4787SOL     OW25822   3.567   3.918  10.738 -0.5751  0.4375  0.4648
 4787SOL    HW125823   3.565   4.003  10.693  0.1793  0.1976 -0.0225
 4787SOL    HW225824   3.492   3.871  10.701 -1.3858  2.5460 -0.5619
 4788SOL     OW25825   0.311   4.425   3.735 -0.4697  0.4469  0.6241
 4788SOL    HW125826   0.291   4.366   3.662  3.1124  1.4554 -1.2036
 4788SOL    HW225827   0.401   4.398   3.753 -0.9695 -0.5366  1.6744
 4789SOL     OW25828   1.752   0.946  14.036 -0.2485  0.5823 -0.0623
 4789SOL    HW125829   1.771   1.021  14.091 -1.1847  0.9065 -0.1801
 4789SOL    HW225830   1.792   0.969  13.952  1.7107  0.2591  0.7715
 4790SOL     OW25831   0.407   2.244  14.779 -0.1577 -0.3530  0.0940
 4790SOL    HW125832   0.336   2.198  14.734 -1.9019  2.1682  0.2668
 4790SOL    HW225833   0.459   2.268  14.702  1.7393 -0.0148  1.4860
 4791SOL     OW25834   1.159   4.260   2.089 -0.2874 -0.5528 -0.9452
 4791SOL    HW125835   1.069   4.227   2.081 -0.4737  0.1000 -1.5371
 4791SOL    HW225836   1.138   4.342   2.133 -1.4039 -1.4191  0.1410
 4792SOL     OW25837   1.919   0.605   8.874 -0.0821  0.5424 -0.1428
 4792SOL    HW125838   1.876   0.688   8.852  0.2658  0.8791  0.4657
 4792SOL    HW225839   1.961   0.626   8.957  0.3312  0.1317 -0.2468
 4793SOL     OW25840   2.532   3.380   5.200  0.6067 -0.2471  0.0562
 4793SOL    HW125841   2.448   3.416   5.231  0.3960  0.2369 -1.0821
 4793SOL    HW225842   2.500   3.329   5.126 -0.9813  0.4034  0.2856
 4794SOL     OW25843   1.194   1.555   7.282 -0.2886  0.5682 -0.2808
 4794SOL    HW125844   1.180   1.477   7.229  3.7651 -1.0595  0.9934
 4794SOL    HW225845   1.138   1.614   7.231 -1.6946 -0.7799 -0.2836
 4795SOL     OW25846   0.076   3.276  16.877  0.0679 -0.4344 -0.2549
 4795SOL    HW125847   0.070   3.262  16.972 -1.4180  0.0102 -0.2897
 4795SOL    HW225848   0.020   3.199  16.866 -0.9658  0.7410 -3.0120
 4796SOL     OW25849   4.354   0.102   2.658 -0.5962  0.4410 -0.2070
 4796SOL    HW125850   4.341   0.182   2.709 -3.7156  0.2362 -0.6736
 4796SOL    HW225851   4.266   0.064   2.667  0.1521 -0.9206  1.4005
 4797SOL     OW25852   3.872   4.673   9.458  0.6760  0.1586  0.6438
 4797SOL    HW125853   3.864   0.045   9.477 -0.0540  0.4214 -0.9417
 4797SOL    HW225854   3.956   4.652   9.498  0.3086 -2.8073 -0.0924
 4798SOL     OW25855   1.092   4.403   2.718  0.1154 -0.0624 -0.3542
 4798SOL    HW125856   1.018   4.347   2.744 -0.2859  0.8034  0.3596
 4798SOL    HW225857   1.049   4.473   2.669 -2.2155  0.9914  3.1629
 4799SOL     OW25858   1.658   4.672   0.749  0.6337  0.1169  0.0124
 4799SOL    HW125859   1.729   4.611   0.731 -0.3729 -1.4862  1.4827
 4799SOL    HW225860   1.671   0.007   0.673  1.2468 -0.5879 -0.4080
 4800SOL     OW25861   4.311   2.241   6.900  0.0784 -0.1629  0.0281
 4800SOL    HW125862   4.277   2.239   6.811 -0.5157 -0.3912  0.2649
 4800SOL    HW225863   4.400   2.218   6.873  0.0827 -0.4728  0.3095
 4801SOL     OW25864   2.612   1.539   5.072 -0.2794  0.0312  0.3417
 4801SOL    HW125865   2.549   1.548   5.000 -0.0419  0.6129  0.2063
 4801SOL    HW225866   2.675   1.598   5.031  0.3876 -1.5379 -0.8879
 4802SOL     OW25867   3.660   4.092   1.638 -0.1295  0.2712  0.3005
 4802SOL    HW125868   3.587   4.072   1.697 -1.6165 -1.1618 -2.0126
 4802SOL    HW225869   3.666   4.187   1.636  0.2698  0.2666  1.0931
 4803SOL     OW25870   4.260   0.739   8.383  0.5733 -0.0094  0.7336
 4803SOL    HW125871   4.338   0.702   8.341  0.2338 -0.8667  0.8675
 4803SOL    HW225872   4.297   0.772   8.465 -0.0053  0.1193  0.9395
 4804SOL     OW25873   3.566   3.165  10.593  0.4112 -0.4052  0.2094
 4804SOL    HW125874   3.657   3.172  10.563 -0.0866 -0.8424 -1.3847
 4804SOL    HW225875   3.578   3.091  10.653  1.5122 -0.3951 -0.0025
 4805SOL     OW25876   3.000   2.023   2.616  0.0978  0.4253  0.2692
 4805SOL    HW125877   3.078   2.046   2.666 -0.7945 -0.6325  2.1419
 4805SOL    HW225878   2.932   2.080   2.651 -1.6141 -1.5352  0.1290
 4806SOL     OW25879   4.239   1.842   7.119  0.3657  0.4598  0.1894
 4806SOL    HW125880   4.169   1.842   7.184  2.4648 -3.3304  2.4735
 4806SOL    HW225881   4.254   1.936   7.127 -1.4343  0.8472 -0.9314
 4807SOL     OW25882   2.217   2.923  10.002  0.2289  0.0424  0.4716
 4807SOL    HW125883   2.289   2.984  10.019  1.2909 -0.7818 -1.0045
 4807SOL    HW225884   2.146   2.977   9.970  0.1519 -0.2525  0.1380
 4808SOL     OW25885   2.305   1.987   8.634 -0.3346 -0.4554  0.3039
 4808SOL    HW125886   2.343   1.900   8.621  1.6315  0.7224 -1.7330
 4808SOL    HW225887   2.221   1.986   8.586 -0.4648  3.5683  0.4554
 4809SOL     OW25888   1.301   0.929  12.014  0.1006 -0.6785 -0.1012
 4809SOL    HW125889   1.372   0.991  12.000  0.4985 -0.4421  3.1169
 4809SOL    HW225890   1.289   0.893  11.926 -0.9501  0.1895 -0.3006
 4810SOL     OW25891   4.715   1.903   2.354  0.2005 -0.5130  0.2279
 4810SOL    HW125892   0.056   1.942   2.294 -2.1349  2.3603 -0.3333
 4810SOL    HW225893   0.046   1.908   2.433 -0.9968  1.8769  0.8769
 4811SOL     OW25894   2.356   2.403   4.780 -0.1116 -0.0531 -0.3043
 4811SOL    HW125895   2.271   2.436   4.810  0.2423  1.2047 -0.7054
 4811SOL    HW225896   2.410   2.431   4.854 -2.1251  1.2236  0.6785
 4812SOL     OW25897   0.715   1.062  16.899  0.6321  0.7951  0.4244
 4812SOL    HW125898   0.786   1.030  16.843  2.4482 -1.1094  3.7913
 4812SOL    HW225899   0.647   1.085  16.836  1.9173  1.2032 -0.8104
 4813SOL     OW25900   1.766   2.135  12.162  0.4304 -0.0313  0.7316
 4813SOL    HW125901   1.823   2.186  12.104  0.9370 -1.0656  0.3171
 4813SOL    HW225902   1.722   2.076  12.101 -0.2787  0.8831  0.3768
 4814SOL     OW25903   3.529   0.626  10.725 -0.0066 -0.5826  0.0830
 4814SOL    HW125904   3.435   0.642  10.729 -0.1809 -1.1564 -1.7708
 4814SOL    HW225905   3.537   0.603  10.632  2.4585 -1.1465  0.4394
 4815SOL     OW25906   2.857   4.713   6.840  0.0018 -0.9860 -0.7892
 4815SOL    HW125907   2.859   4.700   6.935 -0.2357 -0.3808 -0.7010
 4815SOL    HW225908   2.903   0.074   6.824 -1.4968 -0.1434 -0.7115
 4816SOL     OW25909   3.932   3.521   6.064 -0.2640 -0.2637  0.2528
 4816SOL    HW125910   3.926   3.519   6.160 -0.1501 -0.1150  0.2640
 4816SOL    HW225911   3.885   3.603   6.051  1.2880  0.8999  1.8178
 4817SOL     OW25912   4.558   2.313   4.601 -0.1754 -0.0902  0.0661
 4817SOL    HW125913   4.493   2.350   4.542 -0.4846 -1.7075 -0.6060
 4817SOL    HW225914   4.642   2.344   4.565  0.5927 -2.2360  0.0380
 4818SOL     OW25915   4.605   1.171  10.430 -0.4216 -0.6348 -0.4988
 4818SOL    HW125916   4.615   1.239  10.364 -0.2814  2.5586  2.8086
 4818SOL    HW225917   4.521   1.192  10.470  0.0941  1.5363 -0.5451
 4819SOL     OW25918   4.062   0.331  11.103  0.3618 -0.4310  0.2862
 4819SOL    HW125919   4.148   0.298  11.130  0.6236 -0.0239 -0.0623
 4819SOL    HW225920   4.032   0.357  11.191  0.8117 -1.2720  0.6861
 4820SOL     OW25921   3.271   3.560   3.958 -0.0572  0.2390  0.4782
 4820SOL    HW125922   3.348   3.605   3.925 -1.1048  2.4092  1.0011
 4820SOL    HW225923   3.284   3.561   4.053  2.8154 -2.8986  0.0978
 4821SOL     OW25924   2.163   4.152   1.303 -0.7948  0.0693  0.1643
 4821SOL    HW125925   2.234   4.097   1.335  1.0210  2.1824 -0.2053
 4821SOL    HW225926   2.156   4.217   1.373 -0.8499  0.5555 -0.2896
 4822SOL     OW25927   2.999   1.730  11.257  0.1380  0.1735  0.0401
 4822SOL    HW125928   3.035   1.699  11.175 -1.1535  0.0483 -0.4858
 4822SOL    HW225929   3.051   1.805  11.285  1.0372 -0.1820 -0.6775
 4823SOL     OW25930   3.005   4.166   3.399  0.8795  0.6667 -0.3130
 4823SOL    HW125931   2.919   4.134   3.371  1.1684 -1.7369  1.5323
 4823SOL    HW225932   3.041   4.088   3.441  1.7557  1.8630  1.1426
 4824SOL     OW25933   2.952   2.994   7.012  0.1587  0.2967  0.5849
 4824SOL    HW125934   2.884   3.002   6.945  2.9216  0.0661 -2.2575
 4824SOL    HW225935   2.901   2.951   7.080  0.3672 -0.5713  0.1969
 4825SOL     OW25936   0.770   4.397   9.338 -0.1553  0.9352  0.2663
 4825SOL    HW125937   0.839   4.449   9.379 -0.1569  0.0133  1.4095
 4825SOL    HW225938   0.804   4.311   9.361 -0.6594  0.7804  0.4276
 4826SOL     OW25939   4.099   3.866  13.538  0.0891 -0.0918 -0.3104
 4826SOL    HW125940   4.139   3.801  13.595 -1.6824 -0.0136  1.0308
 4826SOL    HW225941   4.158   3.874  13.463  2.8085 -1.9185  1.6835
 4827SOL     OW25942   0.499   2.051  10.249  0.2663  0.1785 -0.5174
 4827SOL    HW125943   0.432   2.003  10.298 -0.1057  2.4527  1.2107
 4827SOL    HW225944   0.504   2.003  10.167 -2.9148 -1.2506  0.1390
 4828SOL     OW25945   3.598   1.345   7.725  0.0462 -0.1130 -0.1162
 4828SOL    HW125946   3.687   1.322   7.699 -0.3516  1.3405 -2.8087
 4828SOL    HW225947   3.554   1.262   7.707 -1.8184  0.4638  1.8063
 4829SOL     OW25948   4.458   1.726  11.481  0.1248  0.2671  0.3598
 4829SOL    HW125949   4.479   1.645  11.528 -0.9728  0.5241  1.2910
 4829SOL    HW225950   4.365   1.726  11.457  0.3996 -2.0634 -0.7043
 4830SOL     OW25951   3.565   0.197   5.629  0.3271 -0.3570  0.3071
 4830SOL    HW125952   3.532   0.158   5.710 -0.4081 -1.4927 -0.5474
 4830SOL    HW225953   3.622   0.131   5.591 -0.3347 -0.9913  0.4134
 4831SOL     OW25954   1.517   2.880  16.503 -0.3067 -0.2770 -0.2871
 4831SOL    HW125955   1.605   2.914  16.522  0.6457 -3.1702  0.4224
 4831SOL    HW225956   1.510   2.825  16.580 -1.0261 -2.0341 -1.6152
 4832SOL     OW25957   0.712   4.372  15.597  0.1483  0.1603  0.4464
 4832SOL    HW125958   0.784   4.435  15.598  0.3009  0.0346 -2.5469
 4832SOL    HW225959   0.750   4.310  15.659  0.5795 -1.6102 -1.6019
 4833SOL     OW25960   3.353   0.064   3.631  0.5990 -0.1432  0.1661
 4833SOL    HW125961   3.344   4.699   3.592  1.3752 -0.0280 -0.2682
 4833SOL    HW225962   3.265   0.100   3.622  1.3022  1.5487  0.0608
 4834SOL     OW25963   4.103   1.952   3.368 -0.7169 -0.0229  0.1423
 4834SOL    HW125964   4.193   1.975   3.346 -0.8330 -1.2872 -1.6336
 4834SOL    HW225965   4.070   2.042   3.370  1.1135  0.6425  0.1542
 4835SOL     OW25966   2.435   1.549   4.818  0.0786 -0.7366  0.2011
 4835SOL    HW125967   2.376   1.619   4.846  2.2591  0.8941  0.7499
 4835SOL    HW225968   2.452   1.565   4.726  1.5919  2.5682  1.0510
 4836SOL     OW25969   1.984   4.531   8.623 -0.5106 -0.4238  0.3774
 4836SOL    HW125970   1.919   4.600   8.610  0.9746  1.0022  0.5936
 4836SOL    HW225971   1.937   4.456   8.585 -2.0670  0.7803 -0.0649
 4837SOL     OW25972   0.912   3.344   4.083  0.3200  0.5788 -0.0030
 4837SOL    HW125973   0.971   3.384   4.019 -0.1024  1.0200 -0.1177
 4837SOL    HW225974   0.956   3.259   4.087  0.8512  0.8226 -0.7579
 4838SOL     OW25975   0.898   1.139  10.996  0.0321  0.1513  0.1999
 4838SOL    HW125976   0.974   1.132  11.054 -1.3030 -2.8407  1.5809
 4838SOL    HW225977   0.839   1.104  11.062 -0.6447 -1.6591 -1.3756
 4839SOL     OW25978   4.117   0.150   6.928 -0.3491 -0.0286  0.1072
 4839SOL    HW125979   4.102   0.152   7.022 -1.5232 -1.8712 -0.0327
 4839SOL    HW225980   4.061   0.076   6.902  0.9775 -0.8392 -0.4582
 4840SOL     OW25981   3.500   2.571   6.078 -0.0005  0.5289 -0.5719
 4840SOL    HW125982   3.419   2.622   6.085 -0.6015 -0.4598 -0.3308
 4840SOL    HW225983   3.541   2.629   6.014 -0.7350  1.5746 -0.0954
 4841SOL     OW25984   0.123   0.119   2.682  0.5180  0.3581  0.2932
 4841SOL    HW125985   0.158   0.094   2.597  1.4120  2.0916  0.1425
 4841SOL    HW225986   0.155   0.039   2.723 -0.0240 -1.4072 -2.7678
 4842SOL     OW25987   0.290   2.401   9.560  0.2435  0.0561 -0.1725
 4842SOL    HW125988   0.240   2.448   9.627 -0.7044  0.0625 -0.8781
 4842SOL    HW225989   0.278   2.310   9.584 -0.5085  0.4865  1.0628
 4843SOL     OW25990   0.616   1.689  10.201  0.3644 -0.0044 -0.1258
 4843SOL    HW125991   0.523   1.715  10.203  0.2428 -0.4193 -0.4808
 4843SOL    HW225992   0.648   1.740  10.276  0.1350  1.7450 -1.2072
 4844SOL     OW25993   2.035   4.417   6.864 -0.4488 -0.0584  0.4408
 4844SOL    HW125994   2.131   4.412   6.871 -0.6331 -1.5794  1.7535
 4844SOL    HW225995   2.022   4.350   6.931  0.4106  2.0915  2.7554
 4845SOL     OW25996   1.199   3.322   7.435  0.4302  0.2893  0.4021
 4845SOL    HW125997   1.163   3.307   7.347 -0.2849  2.6161  0.2956
 4845SOL    HW225998   1.180   3.235   7.470 -0.0557 -0.3111 -1.3460
 4846SOL     OW25999   1.972   2.844   3.498  0.0025 -0.3426 -0.0254
 4846SOL    HW126000   2.034   2.798   3.554  1.1476  2.1176  0.7387
 4846SOL    HW226001   1.952   2.775   3.436  0.5867  1.1601 -1.8724
 4847SOL     OW26002   3.617   2.804   3.922  0.0104  0.3136  0.3574
 4847SOL    HW126003   3.602   2.891   3.957 -2.4671 -0.5893  1.5423
 4847SOL    HW226004   3.530   2.769   3.905 -0.2942  2.0760 -1.7077
 4848SOL     OW26005   4.172   4.058   5.259  0.4403 -0.1627 -0.2070
 4848SOL    HW126006   4.202   4.044   5.348 -0.5101  0.5651  0.2265
 4848SOL    HW226007   4.109   4.130   5.269  0.5797  0.1768 -1.7518
 4849SOL     OW26008   2.612   4.702  11.287 -0.3469 -0.2347  0.9085
 4849SOL    HW126009   2.561   4.623  11.267  1.0806 -1.6222  2.7841
 4849SOL    HW226010   2.546   0.048  11.271  0.3175  0.1839 -0.0593
 4850SOL     OW26011   0.338   0.058  17.352  0.0937  0.2852  0.0891
 4850SOL    HW126012   0.373   0.093  17.270 -0.5811 -0.1571 -0.3851
 4850SOL    HW226013   0.319   4.689  17.327  0.8276  0.8537 -2.5227
 4851SOL     OW26014   2.282   4.109   6.993 -0.4445 -0.8120  0.2887
 4851SOL    HW126015   2.197   4.112   7.035 -0.3692  2.0577  0.2533
 4851SOL    HW226016   2.259   4.055   6.917  1.0742 -2.6123  1.1158
 4852SOL     OW26017   0.266   4.718   6.459 -0.5911  0.5611  0.1359
 4852SOL    HW126018   0.340   0.043   6.497  1.0093 -2.3470  0.6284
 4852SOL    HW226019   0.196   0.042   6.505  1.6254  4.2150 -0.1528
 4853SOL     OW26020   2.703   0.351  13.417 -0.1666 -0.8514 -0.0702
 4853SOL    HW126021   2.716   0.445  13.434  1.4112 -1.2356  0.8721
 4853SOL    HW226022   2.639   0.323  13.482  0.6252  2.6391  2.2300
 4854SOL     OW26023   0.122   2.677  13.346  0.4829  0.2019  0.4050
 4854SOL    HW126024   0.127   2.611  13.415  0.2911 -0.3761 -0.1279
 4854SOL    HW226025   0.076   2.745  13.395 -1.1439 -2.1760  2.1147
 4855SOL     OW26026   4.123   3.310   4.808  0.4126  0.6370  0.5078
 4855SOL    HW126027   4.169   3.378   4.857  1.1780 -0.3606  1.1661
 4855SOL    HW226028   4.188   3.307   4.738 -1.6835  0.4268 -1.4138
 4856SOL     OW26029   4.215   3.382   6.824  0.5821  0.4581  0.0949
 4856SOL    HW126030   4.277   3.452   6.806  1.8064 -0.6485 -0.0025
 4856SOL    HW226031   4.170   3.381   6.740  3.5286  1.0629 -1.4699
 4857SOL     OW26032   3.891   3.162  15.048  0.1160 -0.7919  0.2870
 4857SOL    HW126033   3.880   3.066  15.048  0.6997 -0.8610  0.5063
 4857SOL    HW226034   3.806   3.184  15.087  0.3391  0.1468  0.2337
 4858SOL     OW26035   0.625   4.468  10.361 -0.2370 -0.1480  0.6867
 4858SOL    HW126036   0.678   4.519  10.300 -1.2889  1.7757  1.3706
 4858SOL    HW226037   0.549   4.527  10.360  1.6575  2.2780 -0.5790
 4859SOL     OW26038   0.423   3.676   3.498  0.5492 -0.1642  0.7800
 4859SOL    HW126039   0.398   3.602   3.553 -2.8388 -0.1789 -0.7672
 4859SOL    HW226040   0.511   3.680   3.535  0.0465  1.1367  1.8451
 4860SOL     OW26041   2.878   2.316   3.060  0.5234 -1.1232  0.2747
 4860SOL    HW126042   2.901   2.224   3.044  0.5187 -1.1342  0.3287
 4860SOL    HW226043   2.960   2.340   3.104  0.7659 -2.4672  0.5704
 4861SOL     OW26044   0.204   1.597  11.787 -0.6393  0.1437  0.2439
 4861SOL    HW126045   0.144   1.617  11.716 -1.4161  1.5562  1.2975
 4861SOL    HW226046   0.143   1.574  11.857 -1.3588 -0.8341 -0.7126
 4862SOL     OW26047   0.557   2.414  15.936  0.2852 -0.0031  0.1929
 4862SOL    HW126048   0.565   2.390  16.028 -0.7562 -0.9102  0.0426
 4862SOL    HW226049   0.613   2.354  15.886  0.4252 -0.4086  0.8284
 4863SOL     OW26050   0.005   0.832  10.850 -0.6773 -0.1568 -0.3499
 4863SOL    HW126051   4.719   0.811  10.943  0.9537 -0.0993 -0.2034
 4863SOL    HW226052   4.692   0.750  10.817 -2.2375  0.2040  0.3850
 4864SOL     OW26053   1.638   4.416   8.751  0.1482  0.1058 -0.1339
 4864SOL    HW126054   1.621   4.340   8.696 -1.2082  2.5483 -3.0808
 4864SOL    HW226055   1.563   4.471   8.730 -0.9586 -0.7482  1.5884
 4865SOL     OW26056   3.804   3.204   1.610 -0.1732  0.2327  0.0333
 4865SOL    HW126057   3.892   3.188   1.644  0.4582  0.6644 -1.3709
 4865SOL    HW226058   3.768   3.115   1.614 -1.1309  0.5985 -0.3431
 4866SOL     OW26059   0.321   1.280   6.071 -0.1667 -0.3838 -0.2451
 4866SOL    HW126060   0.287   1.365   6.097 -0.4348 -0.3974 -0.5555
 4866SOL    HW226061   0.400   1.273   6.125 -0.3619 -2.6994 -0.2402
 4867SOL     OW26062   4.240   1.421  15.696 -0.4531  0.1182 -0.2469
 4867SOL    HW126063   4.191   1.503  15.696 -1.5828 -0.5629  1.7259
 4867SOL    HW226064   4.297   1.441  15.769 -0.6113 -2.9942  0.7523
 4868SOL     OW26065   3.661   1.659   3.725 -0.1278  0.3035  0.2335
 4868SOL    HW126066   3.652   1.608   3.805  1.1497  0.1698  0.2964
 4868SOL    HW226067   3.732   1.721   3.744 -0.2586 -0.1455  2.1237
 4869SOL     OW26068   3.283   0.737  11.519  0.4182  0.2497  0.1896
 4869SOL    HW126069   3.274   0.749  11.425 -0.8648  1.1250  0.4279
 4869SOL    HW226070   3.249   0.647  11.514  0.6454  0.0340  2.3145
 4870SOL     OW26071   3.291   2.431  10.098 -0.4400 -0.3940  0.0240
 4870SOL    HW126072   3.212   2.387  10.129  1.2384 -2.2278  1.7075
 4870SOL    HW226073   3.277   2.402  10.008  1.7601  0.3004 -0.5250
 4871SOL     OW26074   2.601   0.852   7.183  0.4938 -0.4968 -0.2180
 4871SOL    HW126075   2.559   0.893   7.259 -0.9011 -1.7393 -0.3139
 4871SOL    HW226076   2.573   0.761   7.175  0.8451 -0.7358  1.2434
 4872SOL     OW26077   3.220   2.559   1.291  0.4820  0.0454 -0.1149
 4872SOL    HW126078   3.301   2.611   1.292 -1.6484  3.3725  1.4610
 4872SOL    HW226079   3.219   2.557   1.196  0.2591 -1.2168 -0.0878
 4873SOL     OW26080   1.009   3.695   5.018 -0.1735  0.1589 -1.0380
 4873SOL    HW126081   0.959   3.775   5.034 -0.7051 -0.4164  0.1701
 4873SOL    HW226082   0.941   3.630   5.035  0.4891 -0.5368 -1.0078
 4874SOL     OW26083   3.877   0.070   7.558  0.2315 -0.0124  0.1758
 4874SOL    HW126084   3.921   0.124   7.624 -1.7607  2.0777 -0.1820
 4874SOL    HW226085   3.917   4.705   7.553  2.0115  0.9649 -3.0266
 4875SOL     OW26086   1.013   2.007   8.840  0.0384  0.0308  0.0331
 4875SOL    HW126087   0.971   2.087   8.809  0.6922  0.4863  0.3032
 4875SOL    HW226088   0.957   1.984   8.914 -0.3138 -0.2668 -0.3265
 4876SOL     OW26089   0.628   1.111   7.239 -0.2856  0.1252 -0.0473
 4876SOL    HW126090   0.589   1.198   7.255  0.5679  0.4425  0.3225
 4876SOL    HW226091   0.691   1.099   7.311 -1.2369  2.0621  1.1276
 4877SOL     OW26092   1.701   4.329   7.039  0.4002 -0.3250 -0.3546
 4877SOL    HW126093   1.668   4.244   7.069 -1.2015 -0.5632 -2.7963
 4877SOL    HW226094   1.793   4.326   7.011 -0.2817  0.1158 -2.6014
 4878SOL     OW26095   3.456   1.371   2.441  0.6219  0.3193  0.0317
 4878SOL    HW126096   3.423   1.460   2.430  1.3743  0.6282  0.2442
 4878SOL    HW226097   3.526   1.390   2.504 -0.7893 -1.0899  1.9905
 4879SOL     OW26098   1.098   3.910   9.451 -0.3571  0.2062  0.1142
 4879SOL    HW126099   1.029   3.951   9.398 -0.7644 -0.4559  0.1260
 4879SOL    HW226100   1.097   3.824   9.409 -2.7054  0.6002 -0.6586
 4880SOL     OW26101   3.447   2.320  17.336  0.1204 -0.0109 -0.0711
 4880SOL    HW126102   3.479   2.310  17.247  0.0031  0.4315 -0.1592
 4880SOL    HW226103   3.357   2.295  17.316 -0.6668  2.8933 -0.0847
 4881SOL     OW26104   0.635   4.512   7.357  0.1846  0.3966 -0.4109
 4881SOL    HW126105   0.624   4.582   7.422  1.9178  0.9369 -0.7145
 4881SOL    HW226106   0.657   4.564   7.280  2.5598  1.7080  1.1577
 4882SOL     OW26107   1.007   2.656   9.164 -0.8042  0.0700  0.1648
 4882SOL    HW126108   0.987   2.696   9.249  1.4557  0.0169  0.7273
 4882SOL    HW226109   1.081   2.701   9.123 -1.7122  0.7876 -0.6722
 4883SOL     OW26110   0.128   2.119   9.566  0.4542 -0.0655  0.1625
 4883SOL    HW126111   0.043   2.088   9.534  0.4759 -0.8153  0.8245
 4883SOL    HW226112   0.087   2.180   9.627 -0.0935 -1.0690  0.8046
 4884SOL     OW26113   2.125   0.205   5.150 -0.0424 -0.1225  0.2019
 4884SOL    HW126114   2.065   0.209   5.224 -1.4819 -0.3421 -0.9534
 4884SOL    HW226115   2.201   0.179   5.202  0.0155 -1.5030 -0.5902
 4885SOL     OW26116   1.275   2.697   8.453 -0.1001  0.3131 -0.3012
 4885SOL    HW126117   1.227   2.614   8.453  0.9014 -0.2742 -0.4043
 4885SOL    HW226118   1.235   2.747   8.382 -0.9318  0.7254  0.4588
 4886SOL     OW26119   1.203   1.223  16.184 -0.2873 -0.4932  0.2099
 4886SOL    HW126120   1.193   1.282  16.258 -0.0492 -2.1284  1.5531
 4886SOL    HW226121   1.279   1.167  16.200 -1.5027 -2.2311 -0.0207
 4887SOL     OW26122   1.891   4.183   0.216  0.1717 -0.2415 -0.0044
 4887SOL    HW126123   1.912   4.099   0.258 -0.9414  0.4919  2.0106
 4887SOL    HW226124   1.796   4.171   0.216 -0.2542  3.2341  0.4663
 4888SOL     OW26125   1.023   4.150   3.952  0.0910  1.0446  0.7531
 4888SOL    HW126126   1.091   4.178   4.013  0.9384 -0.2210  0.3782
 4888SOL    HW226127   1.033   4.205   3.875  1.7763  0.5299  0.6208
 4889SOL     OW26128   3.807   1.051   9.932  0.4951 -0.5116 -0.2212
 4889SOL    HW126129   3.883   1.098   9.898  0.9803 -1.5635 -0.5897
 4889SOL    HW226130   3.752   1.128   9.952  0.2940 -0.3198 -1.4625
 4890SOL     OW26131   3.700   0.937   0.820  0.5529  0.0060 -0.1762
 4890SOL    HW126132   3.633   0.951   0.753  1.3389  2.7745 -0.3941
 4890SOL    HW226133   3.748   0.859   0.794  2.1285  0.3754  1.5928
 4891SOL     OW26134   0.292   4.483   6.119 -0.6518  0.2304 -0.6217
 4891SOL    HW126135   0.296   4.550   6.186 -0.0784  0.7598 -1.1829
 4891SOL    HW226136   0.386   4.465   6.113 -0.4862  0.4752  1.4498
 4892SOL     OW26137   0.164   1.701   3.387  0.1656  0.4223  0.1394
 4892SOL    HW126138   0.089   1.717   3.330 -0.0288 -2.2838 -0.3783
 4892SOL    HW226139   0.196   1.619   3.349 -0.9701  0.5063 -0.9816
 4893SOL     OW26140   0.499   4.291   8.235  0.1551 -0.3171  0.0549
 4893SOL    HW126141   0.524   4.261   8.323 -0.5082 -2.2326 -0.4244
 4893SOL    HW226142   0.512   4.384   8.254 -4.3424  0.2740  0.1270
 4894SOL     OW26143   0.578   2.776   2.530  0.2744 -0.5937 -0.0327
 4894SOL    HW126144   0.635   2.757   2.456  1.0181 -0.5190  0.5224
 4894SOL    HW226145   0.550   2.689   2.558 -0.9565  0.2981  1.5603
 4895SOL     OW26146   4.024   1.062   5.902  0.0822 -0.0644 -0.3845
 4895SOL    HW126147   4.105   1.087   5.945 -0.5196  1.0153  0.1102
 4895SOL    HW226148   4.013   1.133   5.838  2.1125 -0.6013 -1.3159
 4896SOL     OW26149   4.699   0.998   3.355 -0.1464  0.2004  0.1510
 4896SOL    HW126150   4.706   1.093   3.365 -1.4001  0.4975 -1.7875
 4896SOL    HW226151   4.647   0.971   3.431  0.2185  1.3346  0.7931
 4897SOL     OW26152   0.930   1.692   5.141  0.4583 -0.2277 -0.4548
 4897SOL    HW126153   0.843   1.658   5.161  1.5660 -1.4898  2.1511
 4897SOL    HW226154   0.928   1.739   5.058 -3.0525  1.2380  0.4651
 4898SOL     OW26155   3.353   4.420   9.781 -0.4817  0.2904 -0.2620
 4898SOL    HW126156   3.432   4.417   9.835  0.4594  0.8868 -1.5781
 4898SOL    HW226157   3.299   4.470   9.842  3.4596  1.7576  2.0270
 4899SOL     OW26158   0.931   2.211   6.354 -0.1836  0.1076  0.3358
 4899SOL    HW126159   1.004   2.173   6.403 -0.4687 -0.5553  0.2484
 4899SOL    HW226160   0.864   2.230   6.420 -1.0951 -0.9044 -0.2803
 4900SOL     OW26161   1.106   4.107  11.106 -0.6126 -0.1896 -0.1566
 4900SOL    HW126162   1.115   4.017  11.074  1.4489  0.3312 -1.0009
 4900SOL    HW226163   1.020   4.135  11.073  0.0705  1.7559 -0.2677
 4901SOL     OW26164   2.795   4.046   5.394 -0.7111  0.7505  0.1753
 4901SOL    HW126165   2.803   3.952   5.413 -1.0038  0.9416  1.2038
 4901SOL    HW226166   2.881   4.086   5.406 -0.8121  0.6423  1.2589
 4902SOL     OW26167   2.671   2.269   5.109  0.1059  0.1844  0.7518
 4902SOL    HW126168   2.745   2.225   5.067 -0.6503 -0.1150 -0.2621
 4902SOL    HW226169   2.606   2.201   5.090 -0.2406  0.7297  0.0124
 4903SOL     OW26170   1.358   1.927   0.691  0.4789 -0.1018  0.2090
 4903SOL    HW126171   1.344   1.916   0.785 -1.4420  1.0269  0.0615
 4903SOL    HW226172   1.269   1.924   0.655 -0.0759 -1.0920  1.6515
 4904SOL     OW26173   0.266   4.436  14.222 -0.6258  0.3754 -0.3254
 4904SOL    HW126174   0.208   4.367  14.256  1.0978 -0.0943  1.6204
 4904SOL    HW226175   0.317   4.441  14.303 -0.9692 -3.1432  0.1370
 4905SOL     OW26176   3.985   1.966   8.981 -0.6890  0.6004  0.4367
 4905SOL    HW126177   3.897   1.929   8.988 -0.9060  0.9442 -0.4109
 4905SOL    HW226178   4.019   1.935   8.897  0.2839 -1.0769  1.4468
 4906SOL     OW26179   0.051   1.091   5.618  0.1115  0.7808  0.0254
 4906SOL    HW126180   0.060   1.058   5.528 -1.7485 -1.5538  0.7061
 4906SOL    HW226181   0.107   1.031   5.667 -0.5558 -0.3471 -0.5798
 4907SOL     OW26182   1.816   3.033  10.905  0.1617 -0.1772 -0.1959
 4907SOL    HW126183   1.851   3.104  10.959 -2.3637 -0.0085  1.2539
 4907SOL    HW226184   1.723   3.057  10.909  0.4084  1.0160 -1.8657
 4908SOL     OW26185   0.839   1.895   3.137 -0.1157  0.3347  0.2130
 4908SOL    HW126186   0.818   1.805   3.160 -0.4580  0.2515 -0.4203
 4908SOL    HW226187   0.930   1.912   3.160  0.0584  0.8445 -0.8427
 4909SOL     OW26188   3.029   4.563  11.346  0.2349 -0.0102 -0.4572
 4909SOL    HW126189   3.026   4.481  11.296  1.1602 -1.6308  2.1569
 4909SOL    HW226190   3.080   4.620  11.289  1.7584 -0.2439  0.6680
 4910SOL     OW26191   4.299   1.382   8.047  0.2124  0.6979 -0.2013
 4910SOL    HW126192   4.285   1.326   7.972  1.3305 -0.0880  0.1796
 4910SOL    HW226193   4.388   1.354   8.068  0.0330  1.5603  1.7283
 4911SOL     OW26194   4.350   3.320   4.678  0.9427  0.1581 -0.4302
 4911SOL    HW126195   4.380   3.240   4.634 -0.3063 -1.0662  0.9098
 4911SOL    HW226196   4.372   3.378   4.605  1.4842  0.3764 -0.0973
 4912SOL     OW26197   2.599   1.816   7.774 -0.2524 -0.2909  0.5803
 4912SOL    HW126198   2.686   1.821   7.734 -0.2769 -0.1902  0.5396
 4912SOL    HW226199   2.563   1.734   7.740 -2.5564  1.0504 -0.2403
 4913SOL     OW26200   0.316   1.965  15.256 -0.8421  0.3069 -0.4267
 4913SOL    HW126201   0.245   1.912  15.219 -0.6908 -1.6012  2.0466
 4913SOL    HW226202   0.379   1.892  15.251 -2.2802 -0.8692 -1.4675
 4914SOL     OW26203   1.325   4.328   9.298  0.1797 -0.0146  0.1125
 4914SOL    HW126204   1.244   4.283   9.322  0.3068  0.9056  2.3187
 4914SOL    HW226205   1.344   4.367   9.383  3.8057 -2.3831  0.3949
 4915SOL     OW26206   2.442   3.299  14.156  0.4064  0.6592  0.6296
 4915SOL    HW126207   2.501   3.241  14.107  0.3834  0.8790  0.3426
 4915SOL    HW226208   2.388   3.337  14.087 -0.6857 -1.0010  0.5615
 4916SOL     OW26209   1.080   3.492   3.862  0.0100  0.3109  0.0017
 4916SOL    HW126210   1.172   3.468   3.851 -0.8999 -3.5366  0.9528
 4916SOL    HW226211   1.094   3.567   3.803  0.7297 -0.9865 -1.4665
 4917SOL     OW26212   3.789   1.392   6.411  0.2322  0.7148 -0.2567
 4917SOL    HW126213   3.752   1.477   6.433  0.7047  0.9700 -0.4488
 4917SOL    HW226214   3.826   1.410   6.325 -0.0284 -1.4644 -0.8314
 4918SOL     OW26215   0.239   0.863   5.155  0.4357 -0.2941 -0.2857
 4918SOL    HW126216   0.310   0.805   5.182  0.6628  0.4474  0.6998
 4918SOL    HW226217   0.182   0.809   5.100 -1.4409  1.9454 -0.5233
 4919SOL     OW26218   1.386   3.599   3.192  0.2157  0.4375 -0.4916
 4919SOL    HW126219   1.300   3.631   3.167  0.4330 -0.1386 -1.9462
 4919SOL    HW226220   1.370   3.510   3.160  0.7046  0.6158 -1.2372
 4920SOL     OW26221   3.169   3.375   5.977 -0.1178 -0.0012 -0.0954
 4920SOL    HW126222   3.133   3.314   6.041  1.2821  0.6376  1.2971
 4920SOL    HW226223   3.107   3.379   5.904 -0.2048  0.4390  0.0045
 4921SOL     OW26224   3.211   3.207  17.619 -0.5150  0.1395  0.2209
 4921SOL    HW126225   3.213   3.125  17.668  0.1257  1.1759  1.9611
 4921SOL    HW226226   3.302   3.225  17.596 -1.1290  0.2838 -2.0699
 4922SOL     OW26227   2.296   0.115   6.272  0.0938  0.5292 -0.3616
 4922SOL    HW126228   2.225   0.158   6.226  0.1935  0.8305 -0.2371
 4922SOL    HW226229   2.342   0.182   6.322 -0.4172 -1.4348  2.7541
 4923SOL     OW26230   4.278   0.827   0.512 -0.0169  0.0622 -0.7869
 4923SOL    HW126231   4.304   0.785   0.430  1.5502 -0.7236  0.1217
 4923SOL    HW226232   4.263   0.916   0.480 -0.9571 -0.2916 -1.3065
 4924SOL     OW26233   0.167   3.808  17.314 -0.0378 -0.2515 -0.6062
 4924SOL    HW126234   0.157   3.860  17.235 -1.2742 -1.3965 -1.2141
 4924SOL    HW226235   0.224   3.743  17.272  1.6255  1.2186 -0.5957
 4925SOL     OW26236   4.180   0.651   0.242  0.0389  0.0077 -0.1437
 4925SOL    HW126237   4.126   0.614   0.173  0.2348 -0.3431 -0.1093
 4925SOL    HW226238   4.188   0.739   0.207  1.5221 -0.2766 -0.5072
 4926SOL     OW26239   1.336   1.091   5.914  0.7705 -0.1169  0.5401
 4926SOL    HW126240   1.244   1.065   5.910  0.6372  0.3210  0.7838
 4926SOL    HW226241   1.377   1.046   5.840  0.6474  1.7249 -0.6299
 4927SOL     OW26242   1.455   1.059   7.697 -0.5160 -0.0236 -0.3816
 4927SOL    HW126243   1.542   1.047   7.659 -1.4967  1.5743 -3.1500
 4927SOL    HW226244   1.467   1.073   7.791  1.2995 -1.1354 -0.4477
 4928SOL     OW26245   2.946   2.926   7.725 -0.8745 -0.0645 -0.1336
 4928SOL    HW126246   2.912   2.949   7.639 -0.1699  3.0754  0.4241
 4928SOL    HW226247   2.901   2.988   7.782 -1.2180 -1.7763  1.4646
 4929SOL     OW26248   1.876   3.354  13.737 -0.1934 -0.6026  0.4015
 4929SOL    HW126249   1.958   3.361  13.786  0.1658 -1.4737 -0.0748
 4929SOL    HW226250   1.815   3.314  13.800 -1.0096  0.6032  0.3702
 4930SOL     OW26251   3.550   1.155   3.524 -0.3443 -0.3247 -0.1703
 4930SOL    HW126252   3.605   1.232   3.537  1.9724 -1.8327 -1.1990
 4930SOL    HW226253   3.462   1.193   3.517 -1.2817 -2.0187  2.1058
 4931SOL     OW26254   1.999   0.146   3.053  0.0042 -0.5678  0.2976
 4931SOL    HW126255   2.080   0.095   3.059 -0.0291 -0.5988  0.4654
 4931SOL    HW226256   1.965   0.141   3.142  0.5897 -3.8238  0.3228
 4932SOL     OW26257   1.234   4.502   4.885 -0.1273 -0.2630 -0.1576
 4932SOL    HW126258   1.177   4.476   4.957  0.8551 -0.5182  0.5236
 4932SOL    HW226259   1.163   4.526   4.826  1.0990 -1.8200 -2.2771
 4933SOL     OW26260   2.138   2.905   0.023 -0.3017 -0.0880  0.5048
 4933SOL    HW126261   2.134   2.929   0.116  0.1394 -0.1999  0.5514
 4933SOL    HW226262   2.225   2.944   0.016  0.5009 -1.7571  1.2197
 4934SOL     OW26263   1.556   2.323  16.951  0.0728  0.0901 -0.0749
 4934SOL    HW126264   1.646   2.329  16.918  0.1857  0.7499  0.3512
 4934SOL    HW226265   1.555   2.231  16.979 -0.7277 -0.0890 -0.6904
 4935SOL     OW26266   3.223   0.876   6.283  0.5085 -0.4730 -0.1621
 4935SOL    HW126267   3.172   0.807   6.240  1.1973 -0.6888 -0.6347
 4935SOL    HW226268   3.270   0.821   6.346 -0.1911 -0.2179  0.5788
 4936SOL     OW26269   0.132   2.556   9.711 -0.0446 -0.5725  0.0042
 4936SOL    HW126270   0.202   2.586   9.769 -0.9177  1.4198  0.0075
 4936SOL    HW226271   0.115   2.636   9.661 -2.9899 -0.7829  0.6845
 4937SOL     OW26272   3.382   1.444   4.358 -0.1105  0.9146  0.2569
 4937SOL    HW126273   3.333   1.379   4.308  3.6767 -0.5034 -1.5925
 4937SOL    HW226274   3.454   1.469   4.300  1.2115  0.5412  1.7323
 4938SOL     OW26275   3.100   3.165  14.988  0.5748  0.3206 -0.1840
 4938SOL    HW126276   3.195   3.176  14.978  0.3677  1.0395 -1.3662
 4938SOL    HW226277   3.071   3.209  14.908 -0.5021  0.6881  0.4095
 4939SOL     OW26278   0.631   3.335   6.228 -0.2749  0.4979  0.1492
 4939SOL    HW126279   0.608   3.299   6.314  0.4647 -0.0209  0.1184
 4939SOL    HW226280   0.639   3.259   6.172  1.8104  0.3809  0.6309
 4940SOL     OW26281   2.761   4.133   7.892 -0.0150  0.2758 -0.5135
 4940SOL    HW126282   2.720   4.103   7.974  0.5246  0.4414 -0.1834
 4940SOL    HW226283   2.726   4.222   7.889 -0.6992  0.0350  0.2905
 4941SOL     OW26284   4.645   2.776   9.244 -0.1527  0.0379 -0.0673
 4941SOL    HW126285   4.628   2.759   9.337 -3.3106  0.8696 -0.4951
 4941SOL    HW226286   4.718   2.716   9.227  0.3299  0.8658 -0.9210
 4942SOL     OW26287   0.473   3.691   1.030  0.5848  0.3875 -0.2620
 4942SOL    HW126288   0.400   3.738   1.072  0.5498  0.3526 -0.2843
 4942SOL    HW226289   0.474   3.727   0.942  1.2170 -0.9530 -0.8013
 4943SOL     OW26290   0.175   0.233  15.542  0.4603  0.1008 -0.2751
 4943SOL    HW126291   0.157   0.307  15.483 -0.0479  0.9838  0.9787
 4943SOL    HW226292   0.087   0.205  15.566  0.7905  0.2615  1.1210
 4944SOL     OW26293   4.317   3.496  12.996 -0.3248 -0.2278 -0.7670
 4944SOL    HW126294   4.396   3.442  13.009 -0.9883 -0.9109  0.4569
 4944SOL    HW226295   4.351   3.583  13.017  0.1499 -0.5782 -0.0467
 4945SOL     OW26296   3.672   0.755   5.875 -0.3472  0.4540  0.2370
 4945SOL    HW126297   3.634   0.757   5.963  1.2395  2.3433  0.8784
 4945SOL    HW226298   3.765   0.773   5.890  0.6367 -2.3182 -2.4696
 4946SOL     OW26299   0.773   3.844   2.664  0.1818 -0.2200  0.0856
 4946SOL    HW126300   0.717   3.914   2.697 -2.1168 -1.5336 -1.0344
 4946SOL    HW226301   0.858   3.886   2.675  1.0738 -1.8795 -0.4334
 4947SOL     OW26302   4.132   2.307   4.312 -0.7343  0.2521 -0.2822
 4947SOL    HW126303   4.076   2.357   4.253 -3.2858  0.5935  2.3793
 4947SOL    HW226304   4.080   2.293   4.392 -0.8649  0.0448 -0.4046
 4948SOL     OW26305   1.752   0.929   3.082  0.0474  0.3286 -0.3521
 4948SOL    HW126306   1.765   0.921   2.987  1.1631 -1.3833 -0.0655
 4948SOL    HW226307   1.840   0.912   3.115 -1.2781 -3.1981  1.3541
 4949SOL     OW26308   3.218   0.900  11.181  0.0055  0.3756  0.1913
 4949SOL    HW126309   3.125   0.916  11.165 -0.2339 -1.1324  0.0653
 4949SOL    HW226310   3.232   0.815  11.139  1.6305  0.0872  1.3370
 4950SOL     OW26311   1.301   0.542   4.622 -0.8215  0.0580  0.0391
 4950SOL    HW126312   1.226   0.576   4.573  0.5994  0.9103 -1.5410
 4950SOL    HW226313   1.292   0.450   4.598  3.0508 -0.5213  0.7400
 4951SOL     OW26314   3.134   1.355   8.014  0.1722  0.0345 -0.3065
 4951SOL    HW126315   3.189   1.293   8.062  1.2869  1.2860  0.0271
 4951SOL    HW226316   3.195   1.418   7.976  1.6152 -1.2257 -0.0919
 4952SOL     OW26317   4.539   2.776   6.980 -0.1889 -0.1644 -0.3940
 4952SOL    HW126318   4.476   2.767   7.052 -0.2200  0.3834 -0.3542
 4952SOL    HW226319   4.528   2.867   6.954  2.0345  0.2685  0.2340
 4953SOL     OW26320   3.352   0.898   2.263 -0.5944 -0.3984 -0.3235
 4953SOL    HW126321   3.356   0.993   2.248 -2.1005 -0.3685 -0.6010
 4953SOL    HW226322   3.427   0.866   2.214 -0.8759  1.0941 -1.7115
 4954SOL     OW26323   0.912   0.763   5.399  0.0466 -0.7017  0.4582
 4954SOL    HW126324   1.003   0.766   5.369 -0.3188  3.5230 -0.1638
 4954SOL    HW226325   0.903   0.668   5.389  0.2192 -1.1317  4.4687
 4955SOL     OW26326   0.518   1.908  16.041 -0.1111  0.0555  0.0779
 4955SOL    HW126327   0.596   1.862  16.012 -1.1302  0.1053 -2.7338
 4955SOL    HW226328   0.562   1.989  16.065 -0.0118  0.0334 -0.0334
 4956SOL     OW26329   2.069   4.218   7.519 -0.2478  0.2018  0.0931
 4956SOL    HW126330   1.984   4.215   7.562 -0.2800 -0.7832 -0.0499
 4956SOL    HW226331   2.066   4.302   7.472  0.1745 -1.1763 -2.4328
 4957SOL     OW26332   0.687   3.002   0.564  0.0155  0.2696 -0.1303
 4957SOL    HW126333   0.699   3.096   0.574  2.1807 -0.3857  3.3420
 4957SOL    HW226334   0.720   2.962   0.645  1.7147 -0.6263 -1.2552
 4958SOL     OW26335   2.686   3.738   5.144  0.3527  0.0209  0.2521
 4958SOL    HW126336   2.699   3.703   5.233 -1.2331  0.0506  0.4891
 4958SOL    HW226337   2.763   3.794   5.131 -0.0221 -0.3914 -3.7678
 4959SOL     OW26338   4.303   1.753   5.694 -0.2437 -0.6073  0.4260
 4959SOL    HW126339   4.365   1.798   5.637 -3.0169  1.2864 -1.0995
 4959SOL    HW226340   4.217   1.766   5.655  0.1384 -1.3234 -0.6756
 4960SOL     OW26341   1.316   0.362   3.322 -0.1590  0.5396 -0.0178
 4960SOL    HW126342   1.259   0.421   3.370 -1.2309 -1.8218  1.5610
 4960SOL    HW226343   1.399   0.343   3.366  0.2302 -1.0187 -1.4101
 4961SOL     OW26344   3.582   0.611   3.523 -0.1355 -0.4454 -0.2238
 4961SOL    HW126345   3.647   0.554   3.565  0.5645 -1.2720 -2.4483
 4961SOL    HW226346   3.634   0.662   3.460 -0.1474  1.2711  1.1422
 4962SOL     OW26347   3.599   2.700   0.207 -0.0916  0.4774  0.5861
 4962SOL    HW126348   3.583   2.783   0.161 -0.2802 -0.1579 -0.4752
 4962SOL    HW226349   3.509   2.670   0.219 -0.7004  2.4031  0.9487
 4963SOL     OW26350   1.365   2.418  16.802  0.1621  0.3077 -0.0859
 4963SOL    HW126351   1.352   2.363  16.725  3.6234 -2.9947  1.6938
 4963SOL    HW226352   1.434   2.373  16.850  2.4806  2.7504 -1.0784
 4964SOL     OW26353   0.823   1.975   3.532  0.1152  0.0156 -0.0227
 4964SOL    HW126354   0.855   2.011   3.450 -0.1507 -0.6382 -0.4161
 4964SOL    HW226355   0.826   2.048   3.594 -2.5547 -1.4839  1.9163
 4965SOL     OW26356   1.416   1.780  12.984 -0.0894  0.5521  0.1303
 4965SOL    HW126357   1.474   1.773  12.908  1.5685  3.2429  1.1675
 4965SOL    HW226358   1.470   1.769  13.063 -0.2453  2.6399  0.5243
 4966SOL     OW26359   0.534   0.243   5.205 -0.5098 -0.3493 -0.0032
 4966SOL    HW126360   0.537   0.181   5.132 -0.0191  0.6878 -0.8680
 4966SOL    HW226361   0.459   0.293   5.172  0.5374 -1.5687 -4.2830
 4967SOL     OW26362   2.937   2.398   4.441  0.2953  0.8072  0.1725
 4967SOL    HW126363   2.943   2.314   4.395  0.8548 -0.1590  2.0237
 4967SOL    HW226364   2.857   2.389   4.492 -1.3404 -0.2734 -2.5907
 4968SOL     OW26365   4.236   3.656  10.776  0.4250  0.1272 -0.3162
 4968SOL    HW126366   4.243   3.664  10.681 -0.5618  2.3812 -0.1787
 4968SOL    HW226367   4.285   3.731  10.809 -0.6440  1.1825 -1.1638
 4969SOL     OW26368   4.075   4.380   8.206 -0.3716  0.3221 -0.0563
 4969SOL    HW126369   4.107   4.432   8.133  1.9208  0.2989  0.9302
 4969SOL    HW226370   4.079   4.288   8.181  1.0536  0.2722  0.3228
 4970SOL     OW26371   1.605   2.087  14.565  0.3421  0.4610 -0.3881
 4970SOL    HW126372   1.599   2.147  14.491 -1.3583  0.2370 -0.4339
 4970SOL    HW226373   1.523   2.039  14.563  0.5553  0.0222  1.5458
 4971SOL     OW26374   3.332   3.739  16.239 -0.1472  0.0237  0.3557
 4971SOL    HW126375   3.359   3.703  16.154  0.9828  1.5897  0.0410
 4971SOL    HW226376   3.361   3.667  16.295  0.8468  0.8601  0.9250
 4972SOL     OW26377   3.180   2.109   3.244  0.9339 -0.2538 -0.0961
 4972SOL    HW126378   3.184   2.203   3.223 -1.0998 -0.1657 -0.0516
 4972SOL    HW226379   3.123   2.080   3.173  0.8107  4.3583 -1.9070
 4973SOL     OW26380   3.820   1.714   7.198  0.2763 -0.4711 -0.4400
 4973SOL    HW126381   3.841   1.752   7.113 -0.4358  0.3945 -0.2303
 4973SOL    HW226382   3.867   1.631   7.201  1.6713  0.4304  2.2806
 4974SOL     OW26383   1.562   0.742   8.331  0.5765  0.1565 -0.2318
 4974SOL    HW126384   1.518   0.685   8.268 -1.0709  1.8489 -0.6162
 4974SOL    HW226385   1.650   0.753   8.296  0.4802  0.4770 -0.3765
 4975SOL     OW26386   2.412   4.304  14.715 -0.2376  0.0775  0.0713
 4975SOL    HW126387   2.389   4.304  14.622 -0.1902 -2.5745  0.0506
 4975SOL    HW226388   2.381   4.224  14.757  1.5507 -0.1236  0.9722
 4976SOL     OW26389   4.177   0.413   1.254  0.0344  0.0775 -0.1604
 4976SOL    HW126390   4.116   0.378   1.319 -0.0383  1.3088  0.4275
 4976SOL    HW226391   4.156   0.361   1.176  1.3119 -0.2816 -0.2679
 4977SOL     OW26392   3.791   3.779   6.074 -0.1168 -0.2072 -0.5583
 4977SOL    HW126393   3.705   3.758   6.037 -0.2917  0.9010 -0.7788
 4977SOL    HW226394   3.766   3.808   6.162  1.5591  1.8111 -0.7673
 4978SOL     OW26395   4.694   3.558  11.689  0.2439 -0.3778  0.2645
 4978SOL    HW126396   4.680   3.465  11.707 -0.7558 -0.4143 -0.6829
 4978SOL    HW226397   0.064   3.566  11.712  0.7797  0.7503 -2.2499
 4979SOL     OW26398   1.204   2.522   1.770  0.0787  0.1927 -0.2670
 4979SOL    HW126399   1.142   2.515   1.698 -0.0089 -0.9647 -0.0930
 4979SOL    HW226400   1.234   2.431   1.783  2.9286  0.5872 -3.8292
 4980SOL     OW26401   3.621   1.751  16.882 -0.1698  0.3615 -0.6494
 4980SOL    HW126402   3.544   1.802  16.858 -1.0971 -0.0905  1.4138
 4980SOL    HW226403   3.686   1.808  16.842  0.5106 -0.5531 -0.8578
 4981SOL     OW26404   3.618   4.272  17.635 -0.3712 -0.0828 -0.5833
 4981SOL    HW126405   3.577   4.353  17.665 -0.9247 -0.8310  0.6917
 4981SOL    HW226406   3.556   4.203  17.657  0.3112  0.0455  1.8071
 4982SOL     OW26407   4.232   1.660   9.631  0.2450  0.0187 -0.0402
 4982SOL    HW126408   4.253   1.567   9.643 -0.2016  0.0956  1.3075
 4982SOL    HW226409   4.183   1.685   9.709 -0.7754 -0.5342 -0.5099
 4983SOL     OW26410   2.461   4.373  10.911 -0.3202 -0.0261  0.2897
 4983SOL    HW126411   2.501   4.309  10.853 -1.1387 -0.4703  0.2216
 4983SOL    HW226412   2.488   4.347  10.999  0.3118  1.2649  0.4796
 4984SOL     OW26413   0.495   0.939   5.979  0.1374  0.0470  0.1348
 4984SOL    HW126414   0.407   0.918   6.013 -0.8299 -0.0637 -2.3988
 4984SOL    HW226415   0.497   0.860   5.924 -1.9833  1.4408 -1.9769
 4985SOL     OW26416   1.687   4.664   8.952 -0.4224  0.1471  0.1975
 4985SOL    HW126417   1.690   4.576   8.914  2.0420  0.8568 -1.2264
 4985SOL    HW226418   1.762   4.657   9.011 -0.7825  0.8344  0.7424
 4986SOL     OW26419   2.732   2.918   9.124  0.8459  0.3086 -0.0697
 4986SOL    HW126420   2.750   2.921   9.218 -2.2265  4.3329  0.4023
 4986SOL    HW226421   2.670   2.990   9.108  0.9099 -0.0621 -1.9523
 4987SOL     OW26422   3.720   1.156   6.021  0.1042 -0.4535  0.1002
 4987SOL    HW126423   3.643   1.148   5.964 -0.1169 -0.7308  0.4410
 4987SOL    HW226424   3.782   1.099   5.975  1.5813  0.8523  0.4814
 4988SOL     OW26425   2.237   0.867   3.549  0.0649 -0.0313  0.0083
 4988SOL    HW126426   2.210   0.815   3.625 -2.4280  0.4430 -0.5478
 4988SOL    HW226427   2.332   0.860   3.544  0.1089  0.1711  0.5897
 4989SOL     OW26428   0.518   0.224  12.709  0.2514 -0.3376 -0.0787
 4989SOL    HW126429   0.451   0.258  12.649  0.5237  2.3374  1.1112
 4989SOL    HW226430   0.469   0.231  12.792 -0.9664  1.1054 -0.9224
 4990SOL     OW26431   4.671   1.259   7.080 -0.5296 -0.0962 -0.1696
 4990SOL    HW126432   4.614   1.192   7.042  1.1819 -3.1552  2.6291
 4990SOL    HW226433   0.001   1.214   7.147 -0.0724  3.4915  1.8748
 4991SOL     OW26434   1.069   0.379   1.450 -0.4937 -0.2762  0.4683
 4991SOL    HW126435   1.017   0.359   1.372 -0.1811 -0.0553  0.1999
 4991SOL    HW226436   1.046   0.471   1.463  1.2060  0.4658 -1.6929
 4992SOL     OW26437   1.868   0.777   4.108 -0.0844  0.0273  0.1054
 4992SOL    HW126438   1.887   0.845   4.044 -3.3751 -0.1474 -1.0537
 4992SOL    HW226439   1.936   0.713   4.087 -0.2343  0.3014 -1.2069
 4993SOL     OW26440   2.088   3.673   6.455  0.4839  0.1032  0.1453
 4993SOL    HW126441   2.019   3.736   6.436 -0.0044 -0.0106  1.5454
 4993SOL    HW226442   2.164   3.727   6.478  2.4702 -3.2239  1.4109
 4994SOL     OW26443   1.930   4.327  10.382  0.2244  0.2560  0.3062
 4994SOL    HW126444   1.971   4.369  10.458 -0.0211 -3.3207  2.4209
 4994SOL    HW226445   2.005   4.277  10.349 -0.8809 -2.6432  2.1634
 4995SOL     OW26446   1.010   1.268   4.710 -0.2979  0.7775  0.0812
 4995SOL    HW126447   1.094   1.315   4.714 -0.8632  1.7719  0.2167
 4995SOL    HW226448   0.946   1.334   4.736 -0.8947  0.9995 -2.0003
 4996SOL     OW26449   4.413   2.739   0.186 -0.3160  0.2967  0.4912
 4996SOL    HW126450   4.341   2.796   0.215 -1.1455 -0.0131 -0.9491
 4996SOL    HW226451   4.425   2.686   0.265  0.2255 -1.4970 -0.8187
 4997SOL     OW26452   4.204   2.393   8.022  0.1571  0.1852  0.0346
 4997SOL    HW126453   4.157   2.450   8.082  0.8388  1.8449 -1.0029
 4997SOL    HW226454   4.134   2.365   7.963  0.4205  0.5480 -0.4519
 4998SOL     OW26455   4.647   1.562  15.032  0.3756 -0.0664 -0.4467
 4998SOL    HW126456   4.660   1.474  14.996  0.1280 -0.6093  0.8000
 4998SOL    HW226457   4.631   1.595  14.944  1.3242  1.2035 -0.1422
 4999SOL     OW26458   2.017   0.640   9.111 -0.2433  0.1697  0.8347
 4999SOL    HW126459   1.957   0.687   9.169 -0.8692  3.4556 -2.4924
 4999SOL    HW226460   2.051   0.569   9.167  1.7417 -0.6304 -1.3955
 5000SOL     OW26461   0.189   4.064   4.131  0.5486 -0.0346 -0.3332
 5000SOL    HW126462   0.256   4.127   4.105  1.2458 -1.8595 -2.8882
 5000SOL    HW226463   0.207   3.994   4.069 -4.0838 -2.3814  0.9842
 5001SOL     OW26464   4.487   3.565   6.891 -0.6952 -0.4326 -0.4295
 5001SOL    HW126465   4.579   3.580   6.869 -1.4142  0.4907 -2.8130
 5001SOL    HW226466   4.448   3.641   6.849 -5.1135 -1.3474  2.0287
 5002SOL     OW26467   1.727   4.577   7.202  0.1046 -0.4860  0.4133
 5002SOL    HW126468   1.803   4.632   7.187  0.8620 -1.8260 -0.6727
 5002SOL    HW226469   1.711   4.544   7.114 -0.7695 -2.4725  1.3004
 5003SOL     OW26470   3.325   4.142   9.305  0.0576 -0.5642 -0.5984
 5003SOL    HW126471   3.368   4.221   9.338 -1.1914 -1.5049  3.2322
 5003SOL    HW226472   3.243   4.175   9.340 -0.5819 -1.7390 -0.9755
 5004SOL     OW26473   4.378   0.561  15.029  0.6089  0.1543  0.2005
 5004SOL    HW126474   4.372   0.525  14.941 -0.5790 -0.4461  0.5280
 5004SOL    HW226475   4.389   0.654  15.011  3.8458 -0.1768  0.5639
 5005SOL     OW26476   4.395   4.038   7.251  0.1732 -0.5826 -0.5136
 5005SOL    HW126477   4.431   4.105   7.310  1.6190 -0.4941 -1.4801
 5005SOL    HW226478   4.401   4.091   7.171 -0.0918  0.7533  0.3485
 5006SOL     OW26479   1.872   0.646   6.018  0.3304  0.4451  0.4055
 5006SOL    HW126480   1.967   0.641   6.019  0.3771  1.6070  1.6346
 5006SOL    HW226481   1.870   0.678   5.928 -3.0520  0.7876  0.5752
 5007SOL     OW26482   0.382   0.623   4.572 -0.2802  0.2301  0.0958
 5007SOL    HW126483   0.292   0.627   4.602  0.4636 -1.7256  2.6008
 5007SOL    HW226484   0.419   0.545   4.614 -0.5101 -0.2189 -0.5184
 5008SOL     OW26485   4.397   1.339  14.177  0.2552 -0.2897 -0.6347
 5008SOL    HW126486   4.487   1.365  14.195  0.9699 -1.7714 -2.0145
 5008SOL    HW226487   4.386   1.254  14.221 -0.7044  0.0909 -0.1374
 5009SOL     OW26488   2.131   0.117   1.487 -0.3431 -0.1503  0.1762
 5009SOL    HW126489   2.208   0.080   1.531  0.0002  2.6217  1.8879
 5009SOL    HW226490   2.116   0.188   1.549 -1.9929 -0.6486  0.3416
 5010SOL     OW26491   1.893   3.129  15.733 -0.8921  0.0981 -0.0921
 5010SOL    HW126492   1.918   3.212  15.693 -1.0933 -0.1465 -0.7159
 5010SOL    HW226493   1.830   3.161  15.798 -0.3857 -1.1457  1.0252
 5011SOL     OW26494   0.692   0.603   6.907 -0.2936 -0.6094  0.2761
 5011SOL    HW126495   0.698   0.675   6.968  0.9494  0.6761 -1.3646
 5011SOL    HW226496   0.608   0.625   6.867  0.2043  0.4377 -0.1895
 5012SOL     OW26497   2.975   2.060  12.535  0.0257  0.0743 -0.0864
 5012SOL    HW126498   3.024   2.077  12.616  0.2000  0.1766 -0.2116
 5012SOL    HW226499   3.046   2.060  12.470 -0.2230 -0.9622 -0.3495
 5013SOL     OW26500   1.447   1.505  16.427 -0.1046 -0.0417  0.6904
 5013SOL    HW126501   1.457   1.410  16.427 -0.8305 -0.1186 -0.7699
 5013SOL    HW226502   1.392   1.524  16.351  0.0046  0.0730  0.6417
 5014SOL     OW26503   2.258   0.818   6.459  0.6699  0.4771 -0.2867
 5014SOL    HW126504   2.220   0.903   6.439  0.8009 -0.1144 -3.1591
 5014SOL    HW226505   2.178   0.765   6.462  0.1747  1.2521 -0.0964
 5015SOL     OW26506   2.452   1.543  14.220  0.0180  0.0411 -0.3399
 5015SOL    HW126507   2.529   1.591  14.249 -0.3215 -0.2821  1.1210
 5015SOL    HW226508   2.406   1.511  14.298 -0.5521  0.1907 -0.6116
 5016SOL     OW26509   4.440   1.529  13.924  0.1807 -0.2621 -0.0860
 5016SOL    HW126510   4.391   1.469  13.868 -2.3450  0.1568  1.6702
 5016SOL    HW226511   4.382   1.522  13.999  0.1629  2.2174  0.1325
 5017SOL     OW26512   1.547   3.756  14.535  0.7292 -0.5507 -0.6286
 5017SOL    HW126513   1.624   3.703  14.516  0.1116 -1.7814  0.3328
 5017SOL    HW226514   1.585   3.819  14.596 -0.1230  1.8407 -2.5532
 5018SOL     OW26515   1.248   0.902  13.797 -1.0486 -0.3333 -0.3911
 5018SOL    HW126516   1.281   0.832  13.854 -2.2418  0.1247  0.8610
 5018SOL    HW226517   1.296   0.977  13.834 -1.7036 -0.2501  0.2825
 5019SOL     OW26518   4.579   4.620  14.127 -0.1897  0.0952 -0.3664
 5019SOL    HW126519   4.519   4.549  14.104 -2.0412  1.7053 -0.5158
 5019SOL    HW226520   4.516   4.685  14.159  1.0117  1.3557 -0.5705
 5020SOL     OW26521   0.228   0.795   2.908  0.4772 -0.0787  0.4964
 5020SOL    HW126522   0.267   0.882   2.910 -0.2073  0.2438 -0.2047
 5020SOL    HW226523   0.293   0.752   2.852  0.4918 -2.0306  2.0219
 5021SOL     OW26524   2.518   0.310   6.720 -0.1892 -0.6056  0.1951
 5021SOL    HW126525   2.473   0.236   6.678  0.5360 -0.1134 -1.4305
 5021SOL    HW226526   2.607   0.309   6.685  0.5149  0.3072  1.9301
 5022SOL     OW26527   3.250   2.524   8.412 -0.3900 -0.0380 -0.2006
 5022SOL    HW126528   3.239   2.466   8.336  0.3114  0.2833 -0.5442
 5022SOL    HW226529   3.273   2.611   8.380  0.3928  0.7728  2.5948
 5023SOL     OW26530   0.696   1.409   4.594  0.7746  0.5438 -0.2231
 5023SOL    HW126531   0.634   1.339   4.613 -0.0934  1.7465  1.3479
 5023SOL    HW226532   0.727   1.431   4.681 -0.6452  0.6073  0.2638
 5024SOL     OW26533   3.016   0.073   3.163 -0.1164  0.8861 -0.9149
 5024SOL    HW126534   3.055   0.142   3.216 -3.0102 -0.4127  2.8595
 5024SOL    HW226535   3.035   0.106   3.075  2.0704 -1.3749 -1.2864
 5025SOL     OW26536   0.882   1.372   6.222 -0.2309  0.3723 -0.4026
 5025SOL    HW126537   0.921   1.299   6.175  0.9897  0.5951  0.2615
 5025SOL    HW226538   0.939   1.443   6.192  1.9881 -1.5987 -0.7855
 5026SOL     OW26539   0.051   1.519   9.216  0.2131 -0.3721  0.0867
 5026SOL    HW126540   0.082   1.457   9.150 -0.9467 -2.1008  1.1533
 5026SOL    HW226541   0.001   1.581   9.162 -0.2339 -1.3450 -0.6207
 5027SOL     OW26542   1.765   3.381  15.921 -0.3207  0.2998 -0.6377
 5027SOL    HW126543   1.762   3.384  15.825 -0.2060 -0.6303 -0.6648
 5027SOL    HW226544   1.677   3.384  15.957  0.5480 -0.2425  1.5015
 5028SOL     OW26545   2.092   3.130   4.558  0.1181 -0.2184  0.3377
 5028SOL    HW126546   2.031   3.092   4.621  1.7797 -0.7404  1.6260
 5028SOL    HW226547   2.038   3.196   4.513  0.2774 -0.0092  0.4527
 5029SOL     OW26548   1.343   2.767  14.913 -0.0923 -0.2451 -0.0492
 5029SOL    HW126549   1.381   2.734  14.831  1.6761  0.6125  0.4111
 5029SOL    HW226550   1.382   2.710  14.980 -0.6165  0.0842  0.5382
 5030SOL     OW26551   1.889   1.995   4.596  0.4136 -0.4551 -0.3837
 5030SOL    HW126552   1.829   1.935   4.640 -0.5414  0.6762 -0.1464
 5030SOL    HW226553   1.879   1.981   4.501  0.3816  2.4620 -0.7972
 5031SOL     OW26554   0.410   3.605   4.886  0.0881  0.5157  0.2687
 5031SOL    HW126555   0.360   3.593   4.966 -1.9705 -0.2385 -1.1341
 5031SOL    HW226556   0.498   3.574   4.905 -0.4071 -0.5524  0.7951
 5032SOL     OW26557   1.458   3.022  14.753  0.2532 -0.3026 -0.3977
 5032SOL    HW126558   1.462   2.936  14.712 -0.0713 -0.8588  0.7664
 5032SOL    HW226559   1.413   3.066  14.681  1.4586 -0.4484 -1.2377
 5033SOL     OW26560   4.198   2.893   2.694  0.1840 -0.1249 -1.0901
 5033SOL    HW126561   4.166   2.942   2.769  0.6475  1.4210 -1.8884
 5033SOL    HW226562   4.139   2.904   2.619 -0.8597  0.3848 -0.1864
 5034SOL     OW26563   0.637   1.247   6.525  0.5278  0.1071 -0.0512
 5034SOL    HW126564   0.674   1.311   6.464 -0.5105  0.0458 -0.7488
 5034SOL    HW226565   0.548   1.280   6.536  1.2929  2.1764 -0.1864
 5035SOL     OW26566   2.801   4.077   3.092 -0.3970 -0.2006 -0.3871
 5035SOL    HW126567   2.822   4.166   3.063 -0.4930 -0.1865 -0.4145
 5035SOL    HW226568   2.714   4.088   3.130  0.4584 -0.9236  1.7965
 5036SOL     OW26569   3.045   3.761   1.509  0.0381 -0.1691  0.6001
 5036SOL    HW126570   3.068   3.849   1.540  1.2515 -0.1005 -0.4934
 5036SOL    HW226571   3.053   3.774   1.415 -0.7798  2.9239  0.9559
 5037SOL     OW26572   1.358   4.016   8.283 -0.3669  0.1448 -0.3915
 5037SOL    HW126573   1.427   3.990   8.221  0.7918 -1.2921  1.4992
 5037SOL    HW226574   1.406   4.071   8.345 -0.7579  0.2420 -0.1770
 5038SOL     OW26575   1.983   3.229   5.624  0.3540 -0.6417 -0.2343
 5038SOL    HW126576   1.888   3.230   5.612  0.4268 -2.1619 -0.9324
 5038SOL    HW226577   2.002   3.139   5.600  1.7086 -0.2685 -0.5797
 5039SOL     OW26578   2.383   2.202  10.617 -0.0303 -0.4887  0.1054
 5039SOL    HW126579   2.365   2.222  10.709 -1.0952 -0.7883 -0.0316
 5039SOL    HW226580   2.378   2.292  10.584  1.2067 -0.0102  1.2411
 5040SOL     OW26581   0.853   4.081   4.156 -0.2350 -0.1479  0.4380
 5040SOL    HW126582   0.901   4.086   4.074  1.2761  0.5467  1.3512
 5040SOL    HW226583   0.854   4.172   4.186  0.5809 -0.5849  1.7579
 5041SOL     OW26584   2.763   2.724  12.723  0.5992 -0.1455  0.6803
 5041SOL    HW126585   2.850   2.733  12.763 -0.0555 -0.2249  2.1218
 5041SOL    HW226586   2.740   2.632  12.734  0.7107 -0.2680 -0.0919
 5042SOL     OW26587   2.421   1.304   5.100  0.3254  0.4278 -0.9688
 5042SOL    HW126588   2.396   1.387   5.140  0.2622 -0.7904  1.5144
 5042SOL    HW226589   2.515   1.315   5.111  0.1720  0.5085  0.2885
 5043SOL     OW26590   1.350   0.425  13.860  0.7946 -0.0799 -0.2156
 5043SOL    HW126591   1.341   0.510  13.903 -0.8803 -0.2452 -0.2392
 5043SOL    HW226592   1.273   0.378  13.893 -0.3360  2.9145  1.3700
 5044SOL     OW26593   3.622   2.518   3.956 -0.1218  0.0069  0.0658
 5044SOL    HW126594   3.622   2.610   3.929 -1.1608 -0.4221 -1.4235
 5044SOL    HW226595   3.614   2.480   3.868  0.0585 -1.1768  0.5609
 5045SOL     OW26596   0.005   1.863   9.209  0.3045 -0.1364 -0.2374
 5045SOL    HW126597   0.000   1.935   9.271 -1.8889  0.6641 -1.3395
 5045SOL    HW226598   0.091   1.877   9.169 -0.6162  0.8061 -1.8784
 5046SOL     OW26599   3.034   3.297   6.388  0.7301 -0.1848 -0.6590
 5046SOL    HW126600   3.018   3.362   6.457  0.1999 -2.5072  1.4071
 5046SOL    HW226601   3.117   3.333   6.357 -0.5200  0.2079 -3.5300
 5047SOL     OW26602   4.074   1.288  11.289 -0.3510 -0.5807  0.2778
 5047SOL    HW126603   4.147   1.328  11.241  0.9620  0.1731  2.8860
 5047SOL    HW226604   4.004   1.353  11.280 -0.8253 -1.1422 -0.0546
 5048SOL     OW26605   1.484   3.942   2.068 -0.0477 -0.1126  0.2722
 5048SOL    HW126606   1.408   3.884   2.071 -1.4516  1.7367  0.3568
 5048SOL    HW226607   1.461   4.016   2.012 -0.7893  0.0249  0.7601
 5049SOL     OW26608   2.933   3.232   5.414  0.0760 -0.1120 -0.2549
 5049SOL    HW126609   2.934   3.228   5.318 -2.0531 -1.2209 -0.2260
 5049SOL    HW226610   2.849   3.265   5.445  0.8051  0.4739  1.0913
 5050SOL     OW26611   1.008   4.379   8.229  0.5629 -0.3246 -0.8438
 5050SOL    HW126612   1.087   4.325   8.222  0.5896 -0.4198  0.1663
 5050SOL    HW226613   0.943   4.311   8.208  0.3435 -0.3640 -0.0308
 5051SOL     OW26614   2.749   2.794   5.268 -0.1601 -0.2970 -0.0251
 5051SOL    HW126615   2.768   2.724   5.331  1.1784 -1.9673 -2.2412
 5051SOL    HW226616   2.716   2.743   5.193 -0.7829 -0.3068  0.2591
 5052SOL     OW26617   1.666   3.576   9.497 -0.2005  0.2424  0.4409
 5052SOL    HW126618   1.657   3.605   9.406  1.0934  1.5277  0.7388
 5052SOL    HW226619   1.580   3.606   9.528 -0.4335  0.6959 -0.6398
 5053SOL     OW26620   3.187   1.250   5.583  0.2954 -0.0398  0.5552
 5053SOL    HW126621   3.204   1.178   5.522 -2.7163 -0.2897 -0.0081
 5053SOL    HW226622   3.107   1.286   5.545 -0.3004 -1.1016  0.7876
 5054SOL     OW26623   0.422   1.768   5.017  0.0034 -0.6912  0.0337
 5054SOL    HW126624   0.450   1.852   5.056 -0.5323 -0.9489  0.9779
 5054SOL    HW226625   0.333   1.750   5.046 -0.2435 -0.5973 -0.6922
 5055SOL     OW26626   0.932   1.657   4.070 -0.5901 -0.6773 -0.3131
 5055SOL    HW126627   0.934   1.737   4.018  2.5028 -0.0889  0.6924
 5055SOL    HW226628   0.973   1.681   4.153  1.7112 -2.9784 -0.7786
 5056SOL     OW26629   1.394   1.727   2.871  0.7109 -0.5627  0.1490
 5056SOL    HW126630   1.472   1.755   2.823 -1.8117  2.0551 -2.3738
 5056SOL    HW226631   1.333   1.743   2.799  1.1237  1.2765  0.2230
 5057SOL     OW26632   2.196   4.641   9.107 -0.1823 -0.2718 -0.5577
 5057SOL    HW126633   2.274   4.589   9.125  0.5229  0.1866 -2.3366
 5057SOL    HW226634   2.194   4.630   9.012 -0.6127 -2.3742 -0.3032
 5058SOL     OW26635   1.844   1.514  16.793  0.1715  0.3480  0.7278
 5058SOL    HW126636   1.785   1.589  16.808 -0.7565 -0.3373  0.5284
 5058SOL    HW226637   1.782   1.449  16.761 -1.4549  0.9366  2.6704
 5059SOL     OW26638   2.897   1.355  11.467 -0.4950  0.4066 -0.0239
 5059SOL    HW126639   2.837   1.387  11.534 -0.5831  0.0133  0.0860
 5059SOL    HW226640   2.896   1.440  11.422  2.3704  0.3761 -0.1471
 5060SOL     OW26641   3.261   2.732   6.130 -0.3695  0.1072 -0.2282
 5060SOL    HW126642   3.199   2.714   6.200  0.0296  2.6390  0.7830
 5060SOL    HW226643   3.211   2.725   6.048 -1.5733 -2.0520  0.7002
 5061SOL     OW26644   3.141   3.504   3.482  0.0500 -0.0957 -0.2737
 5061SOL    HW126645   3.219   3.559   3.471 -1.1051  1.4987 -0.4496
 5061SOL    HW226646   3.159   3.467   3.568  0.3119 -0.3323 -0.4320
 5062SOL     OW26647   3.128   2.357   5.614 -0.9109 -0.0217  0.0092
 5062SOL    HW126648   3.076   2.278   5.600  0.2675 -1.0867  1.5764
 5062SOL    HW226649   3.214   2.329   5.584 -1.1720 -0.2099 -0.5654
 5063SOL     OW26650   3.298   0.358  12.223  0.4006  0.4623  0.0742
 5063SOL    HW126651   3.223   0.414  12.202  0.9796  0.7948 -1.1331
 5063SOL    HW226652   3.360   0.420  12.262 -0.8150  0.0292  2.7059
 5064SOL     OW26653   0.199   0.690   4.254  0.1930 -0.1511 -0.2514
 5064SOL    HW126654   0.295   0.684   4.257  0.1758  0.4536  1.4146
 5064SOL    HW226655   0.179   0.773   4.296 -1.3002 -1.1237  0.9509
 5065SOL     OW26656   0.833   1.750  11.423 -0.1606  0.4709  0.4547
 5065SOL    HW126657   0.819   1.703  11.505 -3.4543  0.8132  0.0900
 5065SOL    HW226658   0.787   1.832  11.443  2.6161  1.6303  2.1467
 5066SOL     OW26659   3.839   0.048  16.366  0.0543 -0.1276 -1.0112
 5066SOL    HW126660   3.926   0.015  16.344  0.5593 -0.2758  1.2281
 5066SOL    HW226661   3.799   4.703  16.423 -1.2943  0.9579 -0.6979
 5067SOL     OW26662   2.618   2.685   9.324 -0.0224  0.0406 -0.1440
 5067SOL    HW126663   2.580   2.712   9.241 -0.3566  0.7642  0.2430
 5067SOL    HW226664   2.681   2.615   9.307  0.9964  0.7391  0.7058
 5068SOL     OW26665   3.228   1.278   6.060 -0.8730 -0.2604  0.6995
 5068SOL    HW126666   3.168   1.264   5.986  0.5562  2.3060 -0.9686
 5068SOL    HW226667   3.235   1.187   6.090  1.4696 -0.1082  0.6190
 5069SOL     OW26668   3.073   3.901  11.956  0.4552 -0.6071  0.2847
 5069SOL    HW126669   3.010   3.948  12.011 -0.7358 -1.4687 -0.3383
 5069SOL    HW226670   3.040   3.812  11.944 -2.1290  0.4021 -0.1714
 5070SOL     OW26671   1.596   2.573  13.143  0.2209  0.3521 -0.5194
 5070SOL    HW126672   1.653   2.650  13.146 -0.0477  0.4525  1.4768
 5070SOL    HW226673   1.514   2.602  13.181  0.2897 -0.1610  0.0099
 5071SOL     OW26674   2.575   3.035   9.732  0.2660 -0.2162 -0.2752
 5071SOL    HW126675   2.589   2.980   9.655 -2.0793 -0.8910 -0.2118
 5071SOL    HW226676   2.536   2.963   9.782 -0.8965  0.7831  0.2502
 5072SOL     OW26677   3.091   4.696   3.772 -0.2454  0.6802  0.1375
 5072SOL    HW126678   3.018   4.635   3.760  0.6369 -0.2227 -0.5567
 5072SOL    HW226679   3.135   4.650   3.844 -1.7696  0.7242  1.1100
 5073SOL     OW26680   3.414   1.745  14.227  0.8885 -0.0633  0.0134
 5073SOL    HW126681   3.476   1.685  14.269  0.3405 -2.7944 -2.9954
 5073SOL    HW226682   3.405   1.706  14.140  1.2467 -0.0987 -0.0104
 5074SOL     OW26683   2.016   3.228   9.456  0.4659 -0.3526 -0.5057
 5074SOL    HW126684   2.104   3.229   9.493  0.3177  2.6929 -0.2184
 5074SOL    HW226685   1.986   3.319   9.452  0.1347 -0.4235  0.4262
 5075SOL     OW26686   1.022   0.454   0.816 -0.1024  0.8238 -0.2198
 5075SOL    HW126687   1.013   0.380   0.876  0.2952  0.6282 -0.4031
 5075SOL    HW226688   1.048   0.526   0.873 -0.4421  1.3883 -0.7840
 5076SOL     OW26689   3.657   4.188  11.514 -0.5889 -0.2933 -0.3335
 5076SOL    HW126690   3.638   4.122  11.448  2.1031 -1.0909 -0.2876
 5076SOL    HW226691   3.641   4.147  11.600  0.5062 -0.8005 -0.3760
 5077SOL     OW26692   0.537   0.035   1.826 -0.3138 -0.2058  0.3599
 5077SOL    HW126693   0.458   0.065   1.781  0.1320  0.6431  0.1472
 5077SOL    HW226694   0.506   4.677   1.868  1.4028 -0.4886  1.0875
 5078SOL     OW26695   1.200   1.322   0.235 -0.4183  0.0877 -0.4466
 5078SOL    HW126696   1.280   1.341   0.187 -0.1140 -0.3611 -0.1105
 5078SOL    HW226697   1.227   1.248   0.290 -0.1623  0.7591  0.3368
 5079SOL     OW26698   0.753   1.524   5.438  0.0872  0.0224 -0.5411
 5079SOL    HW126699   0.711   1.563   5.514  0.2975 -0.0126 -0.4061
 5079SOL    HW226700   0.679   1.516   5.377 -0.1793 -0.5126 -0.1450
 5080SOL     OW26701   3.900   3.722   7.359  0.5745 -0.2907 -0.1836
 5080SOL    HW126702   3.807   3.725   7.384  0.2751  0.4016 -1.3950
 5080SOL    HW226703   3.900   3.813   7.330 -1.5668 -0.3958 -0.5217
 5081SOL     OW26704   2.902   4.486   2.472 -0.2773  0.2403  0.5220
 5081SOL    HW126705   2.898   4.570   2.517 -2.4837 -1.2001  2.9939
 5081SOL    HW226706   2.984   4.503   2.424 -0.4669 -0.2289  0.0365
 5082SOL     OW26707   1.505   3.760   1.164  0.2161  0.5916 -0.1781
 5082SOL    HW126708   1.582   3.723   1.120  1.1294  1.1761  0.9407
 5082SOL    HW226709   1.442   3.703   1.120 -0.0371 -0.7472  1.9331
 5083SOL     OW26710   3.479   3.665   0.622 -0.3516 -0.2986  0.0144
 5083SOL    HW126711   3.441   3.708   0.699  3.0306  1.9469  0.4543
 5083SOL    HW226712   3.436   3.706   0.547  2.7717  0.9230 -1.1209
 5084SOL     OW26713   1.463   2.759   6.945 -0.5850  0.6731  0.0477
 5084SOL    HW126714   1.499   2.847   6.932 -0.4316  0.7952  1.3590
 5084SOL    HW226715   1.406   2.777   7.019  0.2817  2.2388  0.3311
 5085SOL     OW26716   2.876   2.072   7.141  0.3625 -0.4815 -0.6570
 5085SOL    HW126717   2.957   2.062   7.090  0.1860  0.6304 -1.1458
 5085SOL    HW226718   2.876   1.988   7.187  1.1540 -0.5407 -0.7605
 5086SOL     OW26719   2.397   2.471  16.434 -0.1873 -0.6145 -0.6171
 5086SOL    HW126720   2.314   2.425  16.421 -0.8301  0.2214  0.5268
 5086SOL    HW226721   2.441   2.461  16.349 -0.9060 -0.6367 -0.9884
 5087SOL     OW26722   2.309   1.823   6.753  0.3999  0.3726 -0.2263
 5087SOL    HW126723   2.275   1.789   6.836  2.4772  1.3109  0.9997
 5087SOL    HW226724   2.392   1.864   6.776  0.3314 -0.8843  2.2551
 5088SOL     OW26725   2.361   3.974   9.174  0.1834  0.2759 -0.0486
 5088SOL    HW126726   2.276   3.929   9.173  0.3486  0.0292 -2.1522
 5088SOL    HW226727   2.371   4.005   9.264 -1.8245  1.5475 -0.2676
 5089SOL     OW26728   1.742   4.119   8.050 -0.0708 -0.3044 -0.2970
 5089SOL    HW126729   1.837   4.115   8.049 -0.1109 -1.1268 -0.5236
 5089SOL    HW226730   1.737   4.211   8.024 -0.6492  0.3530  2.1378
 5090SOL     OW26731   1.671   1.970   3.643 -0.0726  0.4008  0.0566
 5090SOL    HW126732   1.620   1.944   3.566  3.6515  1.8947 -2.8675
 5090SOL    HW226733   1.744   1.908   3.635  0.1286  0.5133  1.0287
 5091SOL     OW26734   4.624   3.970   3.511 -0.5885 -0.0119 -0.4264
 5091SOL    HW126735   4.715   3.960   3.540 -0.8506  2.8503  1.3929
 5091SOL    HW226736   4.624   3.937   3.421 -1.2326 -0.3420 -0.3071
 5092SOL     OW26737   2.232   0.005   0.142 -0.6553 -0.8120  0.3912
 5092SOL    HW126738   2.295   4.676   0.193  0.0170  0.6451  1.0191
 5092SOL    HW226739   2.156   0.002   0.201 -0.8083  0.6856  0.2578
 5093SOL     OW26740   4.037   4.264   2.681  0.2196 -0.2894  0.0854
 5093SOL    HW126741   4.001   4.335   2.628 -0.7705  0.2858  1.5490
 5093SOL    HW226742   3.961   4.222   2.721 -0.0273 -0.9975 -1.1088
 5094SOL     OW26743   3.981   2.708   6.714  0.7493  0.0202 -0.0868
 5094SOL    HW126744   4.066   2.664   6.721  2.6577  3.6214 -0.7956
 5094SOL    HW226745   3.989   2.768   6.639 -1.7978  0.2700 -0.1797
 5095SOL     OW26746   1.115   0.052  10.518 -1.0716  0.3288 -0.8318
 5095SOL    HW126747   1.043   0.006  10.475 -1.7724  1.1453 -0.5443
 5095SOL    HW226748   1.090   0.145  10.513  3.3987  1.6918  1.6943
 5096SOL     OW26749   1.897   0.397  11.385  0.3089  0.4284 -0.2939
 5096SOL    HW126750   1.950   0.448  11.446  1.3195  0.8181 -1.4996
 5096SOL    HW226751   1.808   0.432  11.398  0.8292  1.0504  1.5973
 5097SOL     OW26752   3.987   4.549   7.581 -0.0833  0.0134 -0.6021
 5097SOL    HW126753   3.990   4.468   7.530  2.9294 -0.1948 -0.0559
 5097SOL    HW226754   4.079   4.574   7.587 -0.2660  0.4634  0.2686
 5098SOL     OW26755   3.629   0.746   2.926 -0.5352 -0.5051 -0.1106
 5098SOL    HW126756   3.611   0.776   2.837 -0.3066  0.4092  0.1488
 5098SOL    HW226757   3.663   0.658   2.914 -0.6691 -0.0788 -3.6073
 5099SOL     OW26758   3.002   4.433   1.422 -0.3651  0.2318  0.0480
 5099SOL    HW126759   2.938   4.492   1.383  0.6912  0.5238 -1.2332
 5099SOL    HW226760   2.941   4.378   1.472 -0.0363 -1.1372 -1.0626
 5100SOL     OW26761   4.342   2.427   4.474 -0.3831  0.1649 -0.9635
 5100SOL    HW126762   4.293   2.385   4.403  0.7124 -0.1141 -1.5548
 5100SOL    HW226763   4.308   2.514   4.454  0.1757 -0.0515 -2.8446
 5101SOL     OW26764   4.504   0.923   4.342  0.2239 -0.2501 -0.0259
 5101SOL    HW126765   4.595   0.896   4.329  0.4798  1.4435 -1.7277
 5101SOL    HW226766   4.464   0.915   4.256 -0.5608 -0.6180  0.3716
 5102SOL     OW26767   3.654   4.068  12.265  0.1545 -0.2745 -0.5631
 5102SOL    HW126768   3.558   4.062  12.265 -0.0912  3.4235  1.2318
 5102SOL    HW226769   3.675   4.105  12.180  1.1933  1.9937  0.6634
 5103SOL     OW26770   4.204   4.652   8.912 -0.3881  0.1505 -0.2943
 5103SOL    HW126771   4.124   4.611   8.876  0.1223 -0.1153 -1.1336
 5103SOL    HW226772   4.232   4.581   8.969 -3.1172 -1.8767 -1.4274
 5104SOL     OW26773   2.943   1.429   6.644 -0.4080  0.0566  0.1443
 5104SOL    HW126774   2.906   1.476   6.570  2.5685 -1.3045 -2.1990
 5104SOL    HW226775   2.966   1.346   6.603  0.6449 -0.4877  1.8297
 5105SOL     OW26776   3.842   2.016  10.073  0.0587  0.2631  0.0673
 5105SOL    HW126777   3.754   2.024  10.111 -1.2581 -0.5669 -2.7955
 5105SOL    HW226778   3.821   2.056   9.988 -1.7810  1.0290  0.8811
 5106SOL     OW26779   4.350   1.992   7.473  0.3226 -0.6802 -0.4702
 5106SOL    HW126780   4.397   2.074   7.489  0.9538 -0.9923 -0.7387
 5106SOL    HW226781   4.369   1.942   7.553 -1.9801  0.4713  0.7895
 5107SOL     OW26782   1.685   0.968   0.044 -0.3386  0.1904  0.8515
 5107SOL    HW126783   1.608   0.993   0.096  0.1384  3.7723 -0.1545
 5107SOL    HW226784   1.700   1.051  17.688  1.1224 -1.0611 -0.9130
 5108SOL     OW26785   3.415   0.585   9.655  0.0397  0.0333 -0.1027
 5108SOL    HW126786   3.481   0.599   9.723 -1.3527 -2.9114  1.8552
 5108SOL    HW226787   3.364   0.512   9.691  0.4169 -0.4348 -0.5116
 5109SOL     OW26788   0.963   3.828  17.631 -0.0853 -0.6428 -0.0175
 5109SOL    HW126789   0.983   3.911  17.675 -0.7078 -0.8561  0.6679
 5109SOL    HW226790   0.900   3.856  17.565  1.1655  0.0888 -0.9000
 5110SOL     OW26791   3.641   1.657   6.430  0.6098 -0.7986 -0.3422
 5110SOL    HW126792   3.608   1.728   6.485  2.4945  0.1314 -0.4327
 5110SOL    HW226793   3.565   1.615   6.389 -0.8951  0.6463  0.9613
 5111SOL     OW26794   4.588   4.198   7.701  0.6904  0.0144  0.3626
 5111SOL    HW126795   4.595   4.142   7.778  2.8687 -0.2554 -0.0529
 5111SOL    HW226796   4.584   4.286   7.737 -1.2805  0.0436  0.1148
 5112SOL     OW26797   3.522   3.332   2.941 -0.2808 -0.0792 -1.0868
 5112SOL    HW126798   3.445   3.381   2.972  1.9406  3.5948 -1.2904
 5112SOL    HW226799   3.593   3.362   2.998  1.0971 -2.7544 -1.4197
 5113SOL     OW26800   4.151   4.496   7.967  0.6343  0.6297 -0.6909
 5113SOL    HW126801   4.122   4.434   7.900 -2.1948 -0.0453  1.1628
 5113SOL    HW226802   4.234   4.530   7.934  1.8981 -1.2833  0.5225
 5114SOL     OW26803   1.432   3.554  11.645  0.4267  0.4814 -0.0526
 5114SOL    HW126804   1.507   3.503  11.676  0.2157 -0.1912 -0.6577
 5114SOL    HW226805   1.416   3.618  11.715  1.2816  0.2259  0.3680
 5115SOL     OW26806   3.896   3.872   2.957 -0.2495 -0.3085 -0.4055
 5115SOL    HW126807   3.919   3.903   3.045 -2.2801  0.0413  0.0107
 5115SOL    HW226808   3.842   3.794   2.972 -1.8138  1.2686  2.1441
 5116SOL     OW26809   0.580   0.052   7.475 -0.1940 -0.2289 -0.3722
 5116SOL    HW126810   0.546   0.136   7.505  1.8719  0.0758  1.0286
 5116SOL    HW226811   0.672   0.052   7.500  0.1221 -1.9732 -1.4973
 5117SOL     OW26812   1.297   2.423   1.120  0.1612  0.3669 -0.1022
 5117SOL    HW126813   1.377   2.421   1.172 -0.9957  0.0598  1.6555
 5117SOL    HW226814   1.242   2.372   1.179  0.9421 -0.7670 -0.3602
 5118SOL     OW26815   0.119   3.132  13.594  0.0624 -0.7537  0.0242
 5118SOL    HW126816   0.183   3.148  13.662  1.6424 -0.7026 -1.4783
 5118SOL    HW226817   0.043   3.165  13.642 -0.8490  0.0402 -1.9660
 5119SOL     OW26818   3.709   3.083  12.380  0.4762  0.1538  0.4659
 5119SOL    HW126819   3.615   3.092  12.399  0.4418  0.1405  0.3046
 5119SOL    HW226820   3.748   3.110  12.463  0.3229  0.6043  0.3911
 5120SOL     OW26821   2.088   3.421   2.436 -0.1024  0.3280  0.2280
 5120SOL    HW126822   1.998   3.410   2.406 -0.1873 -2.7787  1.6587
 5120SOL    HW226823   2.079   3.516   2.449  2.6714  0.8965 -2.0288
 5121SOL     OW26824   3.871   1.744  12.703  0.2481 -0.2600  0.1954
 5121SOL    HW126825   3.959   1.731  12.739 -0.7744 -2.7215  1.8133
 5121SOL    HW226826   3.842   1.827  12.741  1.6073  0.1742  0.3055
 5122SOL     OW26827   0.460   2.227   3.636 -0.0905 -0.4530 -0.4198
 5122SOL    HW126828   0.452   2.139   3.598 -0.5503  0.0956 -1.5907
 5122SOL    HW226829   0.392   2.275   3.590  0.7121 -0.3279 -1.4883
 5123SOL     OW26830   4.524   3.557   9.085  0.2970 -0.6248  0.5235
 5123SOL    HW126831   4.489   3.645   9.070  0.3974 -0.8206 -0.9405
 5123SOL    HW226832   4.605   3.579   9.129  1.7498 -1.0097 -1.9275
 5124SOL     OW26833   3.909   4.589   2.254 -1.1248  0.0498 -0.1567
 5124SOL    HW126834   3.887   4.587   2.161  0.2524  0.0401 -0.4813
 5124SOL    HW226835   3.861   4.510   2.278 -0.2713 -0.2668  0.4682
 5125SOL     OW26836   4.466   2.152  12.553 -0.4154 -0.2692 -0.1298
 5125SOL    HW126837   4.388   2.190  12.594  0.9229  3.4843 -1.1592
 5125SOL    HW226838   4.515   2.141  12.634 -2.6515 -1.4907  1.0560
 5126SOL     OW26839   4.106   4.621  14.174  0.3449 -0.2516 -0.3739
 5126SOL    HW126840   4.153   4.637  14.093  5.1241  1.1185  2.6846
 5126SOL    HW226841   4.093   4.526  14.168  0.9919 -0.4538  1.2823
 5127SOL     OW26842   1.800   4.651   8.076 -0.2285  0.5483  0.6344
 5127SOL    HW126843   1.709   4.653   8.046 -0.1185 -2.4555  0.1168
 5127SOL    HW226844   1.838   4.666   7.989 -0.1839 -2.5478  0.1240
 5128SOL     OW26845   4.094   1.834  16.462  0.1054 -0.1926  0.1338
 5128SOL    HW126846   4.141   1.772  16.518  0.5117  1.5919  1.8110
 5128SOL    HW226847   4.154   1.909  16.461 -0.0579 -0.0719 -0.5257
 5129SOL     OW26848   2.020   4.493   3.071 -0.1719 -0.0071  0.0171
 5129SOL    HW126849   2.016   4.499   2.976 -0.0702  0.0906  0.0197
 5129SOL    HW226850   2.009   4.398   3.078  0.1994 -0.1236 -1.0614
 5130SOL     OW26851   1.700   0.284   7.777 -0.4429 -0.5567  0.9961
 5130SOL    HW126852   1.653   0.235   7.845 -2.2181 -1.3854 -0.8072
 5130SOL    HW226853   1.756   0.346   7.823 -2.8731  1.9241  0.5636
 5131SOL     OW26854   3.882   1.173   0.677  0.0709  0.0529 -0.1707
 5131SOL    HW126855   3.881   1.103   0.612  3.5018 -0.0493 -0.0977
 5131SOL    HW226856   3.908   1.133   0.760 -1.1419 -0.4670 -0.0301
 5132SOL     OW26857   0.971   4.477  12.752 -0.1988  0.4988 -0.0368
 5132SOL    HW126858   1.024   4.557  12.749  0.1921  0.2587  0.5088
 5132SOL    HW226859   0.890   4.518  12.782 -2.0795 -3.5639  0.3585
 5133SOL     OW26860   3.652   4.434  10.931 -0.7022  0.0318 -0.1129
 5133SOL    HW126861   3.562   4.409  10.954 -0.3273 -0.8988  0.3507
 5133SOL    HW226862   3.686   4.357  10.884 -0.5247 -0.1989  0.3885
 5134SOL     OW26863   2.335   1.884   3.933 -0.1911  0.6596  0.1676
 5134SOL    HW126864   2.384   1.884   4.015  0.4013 -0.6261 -0.1982
 5134SOL    HW226865   2.353   1.793   3.911  1.3763  0.9970  0.0363
 5135SOL     OW26866   0.586   1.950  11.631  0.5136 -0.4368 -0.4227
 5135SOL    HW126867   0.526   1.883  11.664 -0.3140  0.1708 -0.6733
 5135SOL    HW226868   0.580   1.924  11.538 -1.9218  1.5747 -0.8109
 5136SOL     OW26869   4.617   2.388   1.410 -0.0801  0.0642  0.3128
 5136SOL    HW126870   4.664   2.468   1.436 -0.2512  0.6137 -1.1159
 5136SOL    HW226871   4.578   2.417   1.328  0.0052 -1.3330 -0.2138
 5137SOL     OW26872   2.145   0.160   6.912 -0.4687  0.1821  0.0013
 5137SOL    HW126873   2.069   0.152   6.854 -0.1279 -1.6212 -0.2027
 5137SOL    HW226874   2.131   0.234   6.971 -2.1625  1.4393 -2.0041
 5138SOL     OW26875   0.936   0.275  15.731  0.5891  0.4707  0.1423
 5138SOL    HW126876   1.014   0.330  15.719  0.2698  0.5580 -1.4520
 5138SOL    HW226877   0.991   0.196  15.729 -1.0664 -0.6564 -0.3620
 5139SOL     OW26878   0.520   0.244  12.225  0.3073 -0.2556 -0.1705
 5139SOL    HW126879   0.500   0.297  12.302 -1.5232  0.7547 -1.3629
 5139SOL    HW226880   0.590   0.187  12.259 -0.1761  1.7808  4.1793
 5140SOL     OW26881   2.800   2.932   4.973  0.0913 -0.3402 -0.6554
 5140SOL    HW126882   2.770   3.000   5.033 -0.0228 -1.5586  0.6696
 5140SOL    HW226883   2.716   2.912   4.932  1.1456 -0.9203 -2.5305
 5141SOL     OW26884   3.996   2.251   4.534  0.5592  0.0734  0.2641
 5141SOL    HW126885   4.054   2.192   4.583  0.9411  0.4218  0.2355
 5141SOL    HW226886   3.942   2.294   4.600  0.6361  1.9101 -0.8685
 5142SOL     OW26887   0.425   1.453   4.244  0.3770  0.0847 -0.1338
 5142SOL    HW126888   0.503   1.467   4.191 -1.0160 -1.3378 -2.5271
 5142SOL    HW226889   0.460   1.475   4.331  0.6981  2.1566 -0.7676
 5143SOL     OW26890   3.638   0.538  10.450  0.2265 -0.3113  0.1125
 5143SOL    HW126891   3.733   0.533  10.457  0.2143 -0.2260  0.3580
 5143SOL    HW226892   3.637   0.485  10.370  0.1821  1.8763 -1.3326
 5144SOL     OW26893   3.295   1.405   2.147 -0.3441  0.3316  0.2730
 5144SOL    HW126894   3.308   1.471   2.215 -2.3405  1.0605 -0.0508
 5144SOL    HW226895   3.253   1.453   2.075  1.8988  0.3032 -1.0586
 5145SOL     OW26896   1.289   4.532  15.285 -0.4115 -0.0842 -0.0562
 5145SOL    HW126897   1.382   4.513  15.274 -0.4698  0.1664 -0.9107
 5145SOL    HW226898   1.254   4.541  15.197 -1.0714 -0.2478  0.1866
 5146SOL     OW26899   2.620   0.775   4.870 -0.4822  0.1221  0.4993
 5146SOL    HW126900   2.672   0.752   4.947  0.7607  3.0059  0.4840
 5146SOL    HW226901   2.552   0.709   4.886  0.3079 -0.7545  0.2819
 5147SOL     OW26902   2.175   4.662  14.233  0.0755 -0.6838 -0.0843
 5147SOL    HW126903   2.163   4.605  14.156 -0.3898 -0.8114  0.0792
 5147SOL    HW226904   2.231   0.011  14.203 -0.8835 -0.2366 -0.8262
 5148SOL     OW26905   2.398   3.350   1.495  1.2039 -0.2508  0.1176
 5148SOL    HW126906   2.430   3.260   1.504 -0.1654 -0.6857  0.6492
 5148SOL    HW226907   2.303   3.342   1.490  1.3418 -0.5662 -1.8708
 5149SOL     OW26908   3.187   1.938   5.428  0.2649  0.3123  0.1317
 5149SOL    HW126909   3.106   1.914   5.474  0.9210 -3.3380 -0.5665
 5149SOL    HW226910   3.216   1.851   5.398 -0.1974  0.3660 -0.4784
 5150SOL     OW26911   0.960   4.508   3.030 -0.2550  0.3743 -0.4739
 5150SOL    HW126912   0.939   4.598   3.054  2.6600  1.6500 -2.6022
 5150SOL    HW226913   0.930   4.460   3.107  1.1872 -2.1043 -1.4368
 5151SOL     OW26914   2.293   1.418   0.085  0.6954 -0.0630 -0.8352
 5151SOL    HW126915   2.244   1.353   0.135 -2.9653  2.4047 -1.2014
 5151SOL    HW226916   2.374   1.367   0.083  0.2166 -0.8565 -0.2181
 5152SOL     OW26917   1.318   1.410   2.271  0.6297 -0.3305 -0.0368
 5152SOL    HW126918   1.295   1.469   2.199  0.4302  0.2842  0.5369
 5152SOL    HW226919   1.396   1.458   2.299 -0.3033  0.2446  1.5413
 5153SOL     OW26920   4.096   3.249   5.751  0.0149  0.0752  0.1039
 5153SOL    HW126921   4.055   3.205   5.676 -0.8083 -0.9095  1.1269
 5153SOL    HW226922   4.116   3.335   5.714 -1.6322  0.2338 -0.4294
 5154SOL     OW26923   1.692   0.419  15.783 -0.0025  0.3526  0.1139
 5154SOL    HW126924   1.689   0.387  15.693 -0.1506 -0.4437  0.4046
 5154SOL    HW226925   1.785   0.417  15.806  0.3131 -2.0041 -1.4122
 5155SOL     OW26926   2.533   0.801  12.269  0.2103 -0.1749 -0.4028
 5155SOL    HW126927   2.500   0.888  12.291  0.4366 -0.4625  1.0873
 5155SOL    HW226928   2.611   0.829  12.222 -1.9213  1.9267 -2.6510
 5156SOL     OW26929   4.256   4.443   4.404  0.1114 -0.0396  0.1144
 5156SOL    HW126930   4.252   4.356   4.442 -2.7533 -0.3117 -0.8508
 5156SOL    HW226931   4.216   4.446   4.318  1.2148  0.2430 -0.3890
 5157SOL     OW26932   2.525   4.001   7.043 -0.1350 -0.0485 -0.0945
 5157SOL    HW126933   2.528   3.943   7.119 -0.0976 -0.9798 -0.8065
 5157SOL    HW226934   2.438   4.038   7.059  1.3897  3.4246  0.3379
 5158SOL     OW26935   2.369   0.843   1.378  0.2840  0.0963 -0.2380
 5158SOL    HW126936   2.400   0.770   1.432 -1.5733 -0.5105  0.0107
 5158SOL    HW226937   2.436   0.835   1.310  0.8018  0.1139  0.2639
 5159SOL     OW26938   1.256   2.138   5.590 -0.2768  0.0763  0.4784
 5159SOL    HW126939   1.322   2.092   5.538  0.4526  0.2745  1.2235
 5159SOL    HW226940   1.304   2.218   5.613 -0.9332  0.1767  1.5413
 5160SOL     OW26941   2.896   2.725   4.714  0.0883 -0.3906 -0.7601
 5160SOL    HW126942   2.840   2.688   4.645 -1.0734  2.3509 -1.2801
 5160SOL    HW226943   2.935   2.647   4.755  0.9520 -0.6404 -2.0547
 5161SOL     OW26944   0.459   0.267   7.640 -0.4152 -0.7761 -0.2447
 5161SOL    HW126945   0.438   0.230   7.726  0.0875 -0.6759 -0.0777
 5161SOL    HW226946   0.413   0.350   7.644  1.5811  0.3206 -0.2999
 5162SOL     OW26947   2.797   1.178  12.252 -0.2677  0.3603 -0.1442
 5162SOL    HW126948   2.735   1.236  12.297 -0.2564 -0.4349  0.8891
 5162SOL    HW226949   2.806   1.100  12.307 -1.9920  1.2744  1.4424
 5163SOL     OW26950   3.761   2.650   7.861 -0.3583 -0.5788 -0.9519
 5163SOL    HW126951   3.776   2.581   7.926 -0.1514  0.9042  0.5765
 5163SOL    HW226952   3.856   2.664   7.853 -0.6530  0.7710 -1.9737
 5164SOL     OW26953   1.111   0.415  10.046 -0.2609 -0.0393  0.4843
 5164SOL    HW126954   1.036   0.466  10.078 -0.6006 -1.3768  1.8410
 5164SOL    HW226955   1.124   0.476   9.973  0.2043  1.3246  1.6879
 5165SOL     OW26956   4.252   0.238   8.025 -0.2226 -0.0840 -0.4887
 5165SOL    HW126957   4.259   0.275   7.937 -0.0466 -1.5952 -1.1064
 5165SOL    HW226958   4.192   0.290   8.078 -0.5928  1.6247 -2.5700
 5166SOL     OW26959   3.409   4.365   0.705  0.7482  0.0161 -0.3109
 5166SOL    HW126960   3.398   4.289   0.762 -0.0894  1.6253  1.6565
 5166SOL    HW226961   3.444   4.322   0.627 -1.0268 -1.8548 -0.0849
 5167SOL     OW26962   3.324   4.682   8.683  0.0847 -0.0392  0.0305
 5167SOL    HW126963   3.231   4.663   8.690  0.1741 -0.9219 -1.2345
 5167SOL    HW226964   3.341   4.626   8.759  1.9982 -0.4181 -0.6743
 5168SOL     OW26965   4.350   1.778   4.477  0.3283  0.2920 -0.1847
 5168SOL    HW126966   4.413   1.806   4.543 -2.7480  1.5229  2.2056
 5168SOL    HW226967   4.298   1.715   4.528  1.4029  1.0424  1.8248
 5169SOL     OW26968   4.379   0.769  11.779 -0.5567 -0.4447  0.4624
 5169SOL    HW126969   4.367   0.717  11.699 -2.2827 -1.1874  1.1836
 5169SOL    HW226970   4.319   0.842  11.764  3.2471  2.7692  0.8775
 5170SOL     OW26971   1.979   4.153  11.999 -0.1373 -0.0891 -0.2405
 5170SOL    HW126972   2.069   4.126  11.981 -0.4787 -0.6118 -1.1666
 5170SOL    HW226973   1.936   4.069  11.982  1.2193 -0.8149 -0.1530
 5171SOL     OW26974   0.758   0.168   2.952 -0.6884  0.1163  0.8573
 5171SOL    HW126975   0.775   0.235   2.886 -1.6652  2.3262  2.8340
 5171SOL    HW226976   0.663   0.166   2.939 -0.5894  0.3673  0.1118
 5172SOL     OW26977   2.602   4.502  13.532 -0.4168  0.0613  0.0680
 5172SOL    HW126978   2.585   4.433  13.467 -1.0268  0.4598 -0.1954
 5172SOL    HW226979   2.694   4.483  13.550  0.1769  1.0975 -1.8024
 5173SOL     OW26980   4.277   3.915  12.600 -0.0261  0.0450 -0.5230
 5173SOL    HW126981   4.216   3.927  12.527  1.2624 -0.3927 -1.6725
 5173SOL    HW226982   4.357   3.892  12.551  1.0335  2.8095 -0.0695
 5174SOL     OW26983   2.104   0.835   5.044 -0.1743  0.1705 -0.0940
 5174SOL    HW126984   2.044   0.761   5.046 -1.4758  1.2113 -1.4436
 5174SOL    HW226985   2.171   0.787   5.093  0.0160  2.2902  1.7214
 5175SOL     OW26986   2.726   3.455   4.850  0.4128 -0.2498  0.0764
 5175SOL    HW126987   2.785   3.528   4.832 -1.2292  1.2610  0.9240
 5175SOL    HW226988   2.638   3.486   4.830  1.1816  2.1413  0.5019
 5176SOL     OW26989   0.152   2.713  17.438  0.2726 -0.3640 -0.1940
 5176SOL    HW126990   0.136   2.736  17.346 -0.6732 -1.3249 -0.2649
 5176SOL    HW226991   0.186   2.624  17.426 -0.9949 -0.5576 -2.3925
 5177SOL     OW26992   1.705   3.840  13.807  0.3180 -0.2668 -0.0322
 5177SOL    HW126993   1.730   3.776  13.741  1.2148  0.0036  0.0537
 5177SOL    HW226994   1.646   3.788  13.862 -0.7357  0.6369 -0.3166
 5178SOL     OW26995   4.301   1.969   2.447 -0.4821  0.3418  0.0132
 5178SOL    HW126996   4.266   2.053   2.418 -0.0376 -0.0679 -1.7439
 5178SOL    HW226997   4.328   1.932   2.363  1.9673  2.0829  0.0172
 5179SOL     OW26998   2.677   0.595   2.204  0.0016 -0.4252  0.0242
 5179SOL    HW126999   2.763   0.634   2.191  0.1139 -0.3561  0.9591
 5179SOL    HW227000   2.670   0.650   2.282  0.6585  0.5106 -0.5777
 5180SOL     OW27001   2.907   0.136   5.542 -0.0990 -0.3164 -0.0720
 5180SOL    HW127002   2.920   0.210   5.601 -1.1788 -0.7235  0.6828
 5180SOL    HW227003   2.839   0.095   5.596 -0.2591  0.8173  0.5754
 5181SOL     OW27004   2.269   0.630   5.161  0.4081  0.0288 -0.2590
 5181SOL    HW127005   2.229   0.562   5.107 -0.4212 -1.4047  2.1258
 5181SOL    HW227006   2.307   0.579   5.233 -1.6588 -1.1353 -0.0025
 5182SOL     OW27007   4.317   3.756   4.571 -0.0099  0.1176 -0.3230
 5182SOL    HW127008   4.391   3.777   4.628  0.2850 -0.9563 -0.3092
 5182SOL    HW227009   4.270   3.713   4.642  0.8040  1.2238  0.8704
 5183SOL     OW27010   1.162   0.864  13.510  0.1248 -0.0027  0.2466
 5183SOL    HW127011   1.211   0.783  13.503 -1.1172 -0.9729  3.1326
 5183SOL    HW227012   1.188   0.897  13.596 -0.5116  2.0798 -0.3353
 5184SOL     OW27013   4.460   0.240   3.822 -0.1163 -0.0973 -0.1349
 5184SOL    HW127014   4.535   0.287   3.857 -1.3316 -0.1882  2.5702
 5184SOL    HW227015   4.422   0.194   3.896  1.3830 -1.3457 -0.1538
 5185SOL     OW27016   0.337   1.136   2.278  0.0914  0.1231 -0.1911
 5185SOL    HW127017   0.321   1.122   2.184  3.2434 -0.2193 -0.6711
 5185SOL    HW227018   0.304   1.051   2.307 -0.6312 -0.1765 -1.8848
 5186SOL     OW27019   2.374   2.833   9.416 -0.2225  0.1061 -0.0356
 5186SOL    HW127020   2.396   2.740   9.420 -0.1015  0.1060 -0.8037
 5186SOL    HW227021   2.337   2.837   9.328 -2.6833  1.4999  1.0629
 5187SOL     OW27022   0.263   1.076  16.138  1.1777 -0.0117  0.0054
 5187SOL    HW127023   0.250   1.098  16.046  0.6780  0.0057  0.0774
 5187SOL    HW227024   0.346   1.032  16.123  1.4115  1.2142 -2.1998
 5188SOL     OW27025   1.310   2.154   6.018  0.1129 -0.1816 -0.0572
 5188SOL    HW127026   1.217   2.164   6.037  0.3486  0.6035  0.6982
 5188SOL    HW227027   1.321   2.062   6.041  1.0679 -0.5938 -2.1940
 5189SOL     OW27028   2.812   0.012  10.222  0.1954 -0.0168  0.2728
 5189SOL    HW127029   2.813   4.640  10.240  0.1872 -0.7412 -3.4486
 5189SOL    HW227030   2.905   0.037  10.220  0.7828 -2.4166 -3.3201
 5190SOL     OW27031   0.066   4.158   1.227 -0.4972 -0.0196 -0.4707
 5190SOL    HW127032   0.088   4.114   1.145  2.9352  0.3288  0.2308
 5190SOL    HW227033   0.148   4.146   1.276 -1.9783  0.5244  2.1265
 5191SOL     OW27034   2.054   0.522   2.423  0.5128 -0.2236 -0.0145
 5191SOL    HW127035   2.020   0.540   2.335  0.5877 -1.1076 -0.2235
 5191SOL    HW227036   2.011   0.440   2.446 -0.5625 -0.6590 -3.5386
 5192SOL     OW27037   3.314   1.583   8.010  0.2905  0.3848 -0.9915
 5192SOL    HW127038   3.396   1.560   7.967 -0.7223  0.8550 -3.1883
 5192SOL    HW227039   3.326   1.655   8.073 -1.5499 -2.3873  2.5554
 5193SOL     OW27040   1.975   1.818   0.371 -0.3839 -0.1547 -0.2137
 5193SOL    HW127041   2.048   1.866   0.410  0.3426 -1.2324 -0.2642
 5193SOL    HW227042   1.978   1.840   0.278 -1.7740 -1.5219 -0.5819
 5194SOL     OW27043   1.660   4.176  16.996  0.0711 -0.3962 -0.0594
 5194SOL    HW127044   1.744   4.141  17.025 -0.3247  0.2800  1.9580
 5194SOL    HW227045   1.679   4.268  17.014 -1.4743 -0.0585 -0.2010
 5195SOL     OW27046   0.596   4.097   4.079 -0.0241 -0.0510  0.4410
 5195SOL    HW127047   0.682   4.073   4.115  0.3933  0.1768 -0.4181
 5195SOL    HW227048   0.545   4.035   4.130  1.9419 -1.7060  0.3982
 5196SOL     OW27049   2.110   2.781   2.471  0.5358 -0.4144 -0.4833
 5196SOL    HW127050   2.196   2.752   2.500 -0.3237 -1.2358  1.2689
 5196SOL    HW227051   2.054   2.709   2.500 -0.6413 -0.8998 -3.9447
 5197SOL     OW27052   0.408   2.240   0.324 -0.0431  0.7134  0.2463
 5197SOL    HW127053   0.390   2.334   0.326  0.2966  0.7826  0.1629
 5197SOL    HW227054   0.346   2.215   0.392  0.8719  0.3055  0.9441
 5198SOL     OW27055   2.829   3.410   5.124 -0.4675  0.1337  0.1182
 5198SOL    HW127056   2.741   3.383   5.153 -2.3370  3.1421 -2.6763
 5198SOL    HW227057   2.804   3.451   5.041  1.2626 -0.8708 -0.9063
 5199SOL     OW27058   3.082   3.315   4.009  0.2810 -0.3124 -0.1949
 5199SOL    HW127059   3.020   3.284   3.943 -0.0510  1.5115 -0.7272
 5199SOL    HW227060   3.053   3.405   4.019 -4.1558 -1.8051  0.1764
 5200SOL     OW27061   0.009   1.143   2.190  0.7503  0.3373 -0.1713
 5200SOL    HW127062   4.690   1.228   2.206 -0.4780 -0.5217  1.2704
 5200SOL    HW227063   4.701   1.127   2.100 -0.3626 -1.9680  0.6112
 5201SOL     OW27064   0.706   1.644  17.363 -0.1982 -0.1174  0.0027
 5201SOL    HW127065   0.771   1.683  17.421 -1.9640  1.2437  1.0489
 5201SOL    HW227066   0.738   1.555  17.349  1.7099  0.7860 -1.3589
 5202SOL     OW27067   2.178   0.311   3.682 -0.0736 -0.1016 -0.3402
 5202SOL    HW127068   2.188   0.396   3.639  1.4115 -0.9605 -1.6849
 5202SOL    HW227069   2.082   0.307   3.677  0.0139  1.9407 -3.3765
 5203SOL     OW27070   1.413   4.405   9.552 -0.7131 -0.6751  0.2240
 5203SOL    HW127071   1.504   4.435   9.545 -0.9031 -0.2435 -0.3786
 5203SOL    HW227072   1.395   4.446   9.637  1.0068  0.7366 -0.0883
 5204SOL     OW27073   3.243   0.189   9.532 -0.1631  0.1499 -0.6113
 5204SOL    HW127074   3.178   0.122   9.550  0.5885  0.4270  3.1119
 5204SOL    HW227075   3.249   0.223   9.621 -3.0451  2.7148 -1.3935
 5205SOL     OW27076   2.298   0.950  15.525 -0.1853  0.0977 -0.2789
 5205SOL    HW127077   2.364   0.888  15.555  0.7516  0.3426 -1.7940
 5205SOL    HW227078   2.350   0.984  15.452  0.0989 -0.3109 -0.2621
 5206SOL     OW27079   3.800   0.837  17.425  0.8597  0.3185  0.1350
 5206SOL    HW127080   3.851   0.835  17.343 -0.2792  2.0425 -0.6041
 5206SOL    HW227081   3.870   0.826  17.489  0.6152  2.0456  0.6813
 5207SOL     OW27082   2.492   3.880   1.638  0.1199  0.1563 -0.7665
 5207SOL    HW127083   2.501   3.789   1.613  0.4926 -0.6435  2.2133
 5207SOL    HW227084   2.444   3.885   1.721  1.1414 -0.5623 -0.1333
 5208SOL     OW27085   1.558   4.562  13.721 -0.6153 -0.4389 -0.2699
 5208SOL    HW127086   1.496   4.576  13.649 -1.4169 -1.6933  0.1708
 5208SOL    HW227087   1.493   4.591  13.784 -1.8012 -2.4609 -0.5567
 5209SOL     OW27088   0.020   0.257   7.876 -0.6339 -0.0065 -0.5824
 5209SOL    HW127089   4.703   0.170   7.890  0.6816 -0.9763 -2.9677
 5209SOL    HW227090   0.010   0.294   7.964 -0.6566  1.6789 -1.3153
 5210SOL     OW27091   4.684   4.372  15.064  0.2088 -0.0700  0.2941
 5210SOL    HW127092   4.718   4.443  15.119 -2.6393  1.3685  0.1849
 5210SOL    HW227093   0.011   4.384  14.983 -2.0863  1.4936 -0.8457
 5211SOL     OW27094   2.260   0.950   4.842  0.1501  0.0077  0.1165
 5211SOL    HW127095   2.185   0.927   4.896  0.4390 -2.7213 -0.6209
 5211SOL    HW227096   2.279   1.039   4.868 -2.8264  0.7814 -0.3555
 5212SOL     OW27097   3.533   3.287   4.997 -0.7351  0.6706 -0.2099
 5212SOL    HW127098   3.514   3.368   4.949  0.4223  1.0136 -0.0896
 5212SOL    HW227099   3.447   3.246   5.007 -1.1738  2.2245  2.3351
 5213SOL     OW27100   4.602   0.898   8.324 -0.6514  0.3893  0.0276
 5213SOL    HW127101   4.647   0.923   8.244  1.2800  1.4180  1.4561
 5213SOL    HW227102   4.528   0.958   8.335 -0.5979  0.3921  0.3518
 5214SOL     OW27103   2.396   1.097   6.400  0.1232 -0.3869  0.2263
 5214SOL    HW127104   2.322   1.066   6.452 -0.1446  0.9335  0.6312
 5214SOL    HW227105   2.419   1.014   6.358 -0.2453 -0.3323 -0.0822
 5215SOL     OW27106   2.360   2.151   8.853 -0.0070  0.2496  0.4642
 5215SOL    HW127107   2.387   2.098   8.929  0.6689  1.7996  1.3133
 5215SOL    HW227108   2.369   2.093   8.778 -2.9202  0.6245 -0.1621
 5216SOL     OW27109   2.760   4.206  16.539  0.0327 -0.0921 -0.0179
 5216SOL    HW127110   2.699   4.145  16.497  1.8595 -0.8170 -1.5988
 5216SOL    HW227111   2.833   4.219  16.479  0.1292 -0.9875 -0.0976
 5217SOL     OW27112   2.114   0.823   2.686  0.2782  0.3662  0.4117
 5217SOL    HW127113   2.153   0.736   2.683 -0.9695 -0.1837  0.2959
 5217SOL    HW227114   2.024   0.798   2.667  0.1176  0.6329  0.8278
 5218SOL     OW27115   3.558   2.366   2.567  0.5293  0.3057 -0.0957
 5218SOL    HW127116   3.645   2.389   2.535  0.0455  0.1868 -1.5195
 5218SOL    HW227117   3.498   2.387   2.495 -2.8398 -2.5517  1.8693
 5219SOL     OW27118   1.048   2.774   7.067  0.6739  0.2252 -0.3042
 5219SOL    HW127119   1.003   2.748   6.987 -0.4579 -1.2457  0.8354
 5219SOL    HW227120   1.071   2.688   7.102  1.0270  0.9646  1.2802
 5220SOL     OW27121   4.517   0.469   2.933 -0.0789 -0.2682 -0.1214
 5220SOL    HW127122   4.599   0.441   2.894 -0.9574  0.9735 -2.8639
 5220SOL    HW227123   4.457   0.399   2.907 -0.8039 -0.0739  1.0431
 5221SOL     OW27124   2.465   4.234   9.160  0.9327  0.1815 -0.4167
 5221SOL    HW127125   2.511   4.199   9.236 -0.9580 -0.7720  0.2960
 5221SOL    HW227126   2.445   4.153   9.113 -0.1921  0.3748 -0.2836
 5222SOL     OW27127   4.718   0.263   4.585 -0.3069 -0.0047  0.0039
 5222SOL    HW127128   4.692   0.172   4.569 -0.5957  0.3086 -1.2756
 5222SOL    HW227129   0.078   0.236   4.626 -1.1809 -1.8748  0.5224
 5223SOL     OW27130   1.163   2.963  14.876 -0.2475  0.1241  0.0194
 5223SOL    HW127131   1.230   2.895  14.872 -0.9407 -0.5190 -0.6264
 5223SOL    HW227132   1.099   2.925  14.936 -0.3028  2.0346  1.1681
 5224SOL     OW27133   0.761   3.129  14.486  0.8004  0.2702 -0.0670
 5224SOL    HW127134   0.812   3.135  14.567  0.7686  0.7362 -0.0790
 5224SOL    HW227135   0.799   3.201  14.436 -0.4878 -0.2092 -1.7438
 5225SOL     OW27136   3.588   1.645   3.379 -0.8566 -0.0745 -0.3679
 5225SOL    HW127137   3.607   1.608   3.466 -1.8340  1.2325  0.4072
 5225SOL    HW227138   3.513   1.594   3.350 -1.4437  0.5721  0.0002
 5226SOL     OW27139   1.477   2.878  14.303  0.8095 -0.2447 -0.1761
 5226SOL    HW127140   1.559   2.831  14.315  1.6058  0.7658 -1.7399
 5226SOL    HW227141   1.417   2.804  14.291 -0.9849  0.7456  2.4591
 5227SOL     OW27142   2.711   1.308   4.509 -0.0490  0.4313 -0.1671
 5227SOL    HW127143   2.760   1.278   4.432  1.7364 -1.0704  1.5260
 5227SOL    HW227144   2.648   1.237   4.522  1.1220 -0.6338 -0.3031
 5228SOL     OW27145   2.249   1.729   4.922 -0.0497 -0.9553  0.0283
 5228SOL    HW127146   2.235   1.805   4.866 -0.0347 -0.7323  0.3274
 5228SOL    HW227147   2.226   1.770   5.006  2.2493 -1.6209  0.9865
 5229SOL     OW27148   1.258   1.633   3.290  0.2200 -0.2182 -0.1328
 5229SOL    HW127149   1.194   1.600   3.352 -0.9329  3.6241  0.7325
 5229SOL    HW227150   1.335   1.601   3.337  0.5429  2.0755  0.9317
 5230SOL     OW27151   0.491   2.751   5.988  0.3044 -0.5806 -0.6141
 5230SOL    HW127152   0.542   2.672   5.971  1.5854  0.4335 -1.5142
 5230SOL    HW227153   0.459   2.742   6.078 -1.1572 -0.2520 -1.1116
 5231SOL     OW27154   3.063   1.409  14.108 -0.9086  0.3239 -0.4025
 5231SOL    HW127155   3.098   1.466  14.177 -2.0786 -0.0427  0.5034
 5231SOL    HW227156   2.990   1.461  14.074 -0.7406  0.8729  0.0759
 5232SOL     OW27157   1.416   3.740   7.307 -0.8112 -0.0557 -0.2030
 5232SOL    HW127158   1.389   3.769   7.220  1.6155  2.3453 -0.1593
 5232SOL    HW227159   1.413   3.645   7.302  2.2890 -0.2861  2.3287
 5233SOL     OW27160   4.556   1.470  16.382 -0.2239  0.3662 -0.0716
 5233SOL    HW127161   4.609   1.424  16.447 -1.7353 -0.3469  0.6674
 5233SOL    HW227162   4.473   1.423  16.396 -0.7306  1.3639  0.3006
 5234SOL     OW27163   2.266   0.214   8.817 -0.1333  0.4234  0.5530
 5234SOL    HW127164   2.183   0.249   8.851 -1.0878  1.1509 -2.4729
 5234SOL    HW227165   2.247   0.121   8.805 -0.3017  0.6772 -1.1119
 5235SOL     OW27166   4.561   0.450   3.468  0.1565 -0.8638  0.7932
 5235SOL    HW127167   4.468   0.468   3.483 -0.3841 -2.1219 -1.0785
 5235SOL    HW227168   4.583   0.530   3.421  0.2122 -0.4590  1.5122
 5236SOL     OW27169   1.116   0.374   7.863 -0.1466 -0.1667 -0.2403
 5236SOL    HW127170   1.162   0.299   7.828  4.0279  1.5084  1.7062
 5236SOL    HW227171   1.032   0.328   7.866  0.5655 -1.4058  0.6410
 5237SOL     OW27172   1.141   2.304   5.101  0.2785 -0.3694  0.0629
 5237SOL    HW127173   1.189   2.245   5.160  2.1799  0.9212 -0.2009
 5237SOL    HW227174   1.105   2.250   5.032 -1.3899  0.0221  0.6291
 5238SOL     OW27175   0.443   1.887  16.942 -0.0549  0.0435  0.1676
 5238SOL    HW127176   0.428   1.793  16.952  2.4221 -0.3314  0.3920
 5238SOL    HW227177   0.518   1.914  16.996 -0.6122  1.1430  0.3893
 5239SOL     OW27178   0.904   1.630   9.164 -0.0448  0.2078 -0.5917
 5239SOL    HW127179   0.981   1.627   9.106  0.0024  3.6755 -0.7179
 5239SOL    HW227180   0.956   1.644   9.243 -1.9806  1.6458  0.4311
 5240SOL     OW27181   3.876   0.126   5.012  0.3955  0.0365 -0.4034
 5240SOL    HW127182   3.803   0.157   5.064  0.3834  0.5107 -0.6978
 5240SOL    HW227183   3.856   0.033   5.003 -0.1249  0.0179  1.1449
 5241SOL     OW27184   1.025   0.352   7.292  0.6047  0.2517 -0.3417
 5241SOL    HW127185   1.119   0.364   7.276  0.5563 -1.0584 -1.5444
 5241SOL    HW227186   0.989   0.413   7.228 -1.4321 -1.2992 -0.6390
 5242SOL     OW27187   2.641   2.119  10.668 -0.1670  0.0993 -0.2937
 5242SOL    HW127188   2.645   2.156  10.757  0.7401  0.1338 -0.3506
 5242SOL    HW227189   2.558   2.161  10.643 -0.1877  1.7641  2.5095
 5243SOL     OW27190   3.799   3.345  12.547  0.2178  0.1652  0.1112
 5243SOL    HW127191   3.808   3.292  12.627 -0.6616  1.0626  0.8080
 5243SOL    HW227192   3.857   3.418  12.569  0.9054  0.0889 -1.4909
 5244SOL     OW27193   4.368   3.795   0.941 -0.6609 -0.3133 -0.0881
 5244SOL    HW127194   4.401   3.884   0.932  0.8437 -1.0144 -1.5233
 5244SOL    HW227195   4.313   3.780   0.864 -0.0914 -2.5596 -0.0649
 5245SOL     OW27196   0.272   0.807  15.562 -0.5486 -0.1135 -0.3876
 5245SOL    HW127197   0.195   0.759  15.592 -1.4938  2.2560  0.9006
 5245SOL    HW227198   0.319   0.738  15.515  0.4662 -0.2862  0.8577
 5246SOL     OW27199   3.363   0.431   5.113  0.4845 -0.7048  0.2828
 5246SOL    HW127200   3.285   0.380   5.131 -0.2064 -0.6036 -2.3755
 5246SOL    HW227201   3.382   0.409   5.021  2.6669  1.4306  0.2224
 5247SOL     OW27202   1.718   4.071  10.474 -0.4887  0.2640 -0.1981
 5247SOL    HW127203   1.778   4.053  10.546 -1.3538  0.8034  0.6631
 5247SOL    HW227204   1.661   4.135  10.516  1.3709  1.4316  0.5296
 5248SOL     OW27205   0.223   2.398   4.585 -0.3115  0.3265 -0.0641
 5248SOL    HW127206   0.170   2.379   4.507  2.2203  1.3360 -2.0482
 5248SOL    HW227207   0.273   2.474   4.554 -0.7887  0.3591 -0.7706
 5249SOL     OW27208   0.942   1.435   6.756 -0.3794  0.2413  0.0683
 5249SOL    HW127209   0.971   1.420   6.846 -0.1819 -0.6720 -0.1469
 5249SOL    HW227210   0.862   1.383   6.765 -2.0026  2.7304 -0.0954
 5250SOL     OW27211   0.339   1.987   8.650 -0.8952  0.1146 -0.1755
 5250SOL    HW127212   0.282   1.989   8.573  1.0278 -0.0770 -1.6069
 5250SOL    HW227213   0.284   1.953   8.721 -0.1941 -1.5358 -0.4421
 5251SOL     OW27214   1.042   4.120   8.534  0.7734  0.5445  0.1069
 5251SOL    HW127215   1.028   4.042   8.480  0.1718  1.0623 -0.4936
 5251SOL    HW227216   0.954   4.125   8.573  0.5094 -2.4748 -0.1001
 5252SOL     OW27217   1.888   0.695   6.652 -0.4073 -0.2774  0.2368
 5252SOL    HW127218   1.801   0.704   6.613  0.2668 -0.7210 -1.3778
 5252SOL    HW227219   1.944   0.699   6.574  0.5602 -3.8155  0.7708
 5253SOL     OW27220   1.043   0.897   5.639 -0.3782 -0.6420 -0.0445
 5253SOL    HW127221   1.118   0.920   5.585 -1.3922  2.6575 -0.0183
 5253SOL    HW227222   0.975   0.859   5.583  1.1040 -2.5572 -0.5463
 5254SOL     OW27223   1.032   0.173   2.805  0.5305  0.1422 -0.0049
 5254SOL    HW127224   0.949   0.124   2.805 -0.5827  2.0079  0.7747
 5254SOL    HW227225   0.997   0.259   2.831  1.3683 -0.3122  2.5971
 5255SOL     OW27226   4.188   0.284   5.282 -0.1935  0.2379  0.4776
 5255SOL    HW127227   4.192   0.273   5.187  1.9782 -1.5560  0.7688
 5255SOL    HW227228   4.098   0.312   5.300 -1.2270 -3.8761  1.8256
 5256SOL     OW27229   2.724   3.767   7.672  0.3226  0.3348 -0.1515
 5256SOL    HW127230   2.800   3.785   7.617  0.8886  0.2582  0.6118
 5256SOL    HW227231   2.660   3.736   7.607 -1.3067  1.0376  1.1213
 5257SOL     OW27232   4.314   0.606  11.578  0.1678  0.1115  0.5993
 5257SOL    HW127233   4.220   0.610  11.597 -0.1209 -0.7120 -0.6544
 5257SOL    HW227234   4.316   0.555  11.497  0.3440  1.9966 -0.5994
 5258SOL     OW27235   2.730   2.244   6.325 -0.6379 -0.3018  0.2299
 5258SOL    HW127236   2.682   2.298   6.389  0.7699  1.5414 -0.2908
 5258SOL    HW227237   2.763   2.183   6.391  0.0160  1.1175  1.2245
 5259SOL     OW27238   0.104   1.721   6.880 -0.1243 -0.6937 -0.2437
 5259SOL    HW127239   0.142   1.782   6.817  0.0845  0.2467  0.8020
 5259SOL    HW227240   0.011   1.717   6.855  0.2021 -1.5624 -1.3447
 5260SOL     OW27241   0.111   1.085   3.757  0.3730 -0.2274 -0.1859
 5260SOL    HW127242   0.099   0.993   3.783  1.2977  0.2810  2.1069
 5260SOL    HW227243   0.071   1.130   3.832 -1.2735 -1.0764 -0.5586
 5261SOL     OW27244   3.954   2.047   5.219  0.1909  0.0247  0.7554
 5261SOL    HW127245   3.892   2.026   5.149 -1.2332  0.6340  1.8259
 5261SOL    HW227246   3.967   1.961   5.257  1.4077 -0.7476 -1.4314
 5262SOL     OW27247   2.893   2.197  10.559 -0.4725  0.4261 -0.1225
 5262SOL    HW127248   2.947   2.239  10.626 -1.8291 -0.5339  1.5676
 5262SOL    HW227249   2.819   2.170  10.613 -0.3037 -1.8109 -1.0177
 5263SOL     OW27250   1.550   3.857  15.117 -0.4660  0.5179 -0.1607
 5263SOL    HW127251   1.480   3.850  15.181  1.3302 -1.8464  1.5388
 5263SOL    HW227252   1.506   3.845  15.033 -0.9826 -5.0912  0.8792
 5264SOL     OW27253   2.838   2.299   6.038 -0.6492 -0.1327 -0.3899
 5264SOL    HW127254   2.816   2.244   6.113  0.9894  1.0412  0.9567
 5264SOL    HW227255   2.761   2.303   5.981 -0.5452 -0.8978 -0.5796
 5265SOL     OW27256   4.118   3.657   1.956  0.3448 -0.3133 -0.1026
 5265SOL    HW127257   4.045   3.661   2.017 -0.1317  3.5626 -0.9178
 5265SOL    HW227258   4.135   3.751   1.950  2.1069 -0.6186  0.0710
 5266SOL     OW27259   1.402   3.092  14.480 -0.3629  0.8038  0.7981
 5266SOL    HW127260   1.312   3.063  14.494  0.0361 -0.7403  0.2163
 5266SOL    HW227261   1.418   3.031  14.408 -2.8089 -1.0310  1.7971
 5267SOL     OW27262   2.478   2.778   2.928 -0.7881 -0.3169 -0.1610
 5267SOL    HW127263   2.398   2.817   2.964 -0.9028  1.7460 -2.6206
 5267SOL    HW227264   2.472   2.696   2.976 -1.0609 -1.1141 -1.5722
 5268SOL     OW27265   1.290   2.911   7.106 -0.5954 -0.0512  0.0191
 5268SOL    HW127266   1.209   2.864   7.087  0.7156 -2.0190 -0.6248
 5268SOL    HW227267   1.250   2.996   7.086  0.7312  0.3505 -0.9337
 5269SOL     OW27268   2.293   0.977   1.038 -0.0060 -0.9369  0.1094
 5269SOL    HW127269   2.291   0.912   0.968  0.0890 -1.9751  1.0704
 5269SOL    HW227270   2.369   0.945   1.086  0.7874  1.8842  0.7650
 5270SOL     OW27271   0.812   2.884   0.769 -0.3818 -0.1285  0.3500
 5270SOL    HW127272   0.737   2.824   0.778 -2.1579  2.2729  1.6428
 5270SOL    HW227273   0.820   2.914   0.859  0.2256  0.8028 -0.0145
 5271SOL     OW27274   2.562   4.279   7.217  0.0884 -0.0466  0.0884
 5271SOL    HW127275   2.524   4.293   7.130 -3.0322 -0.0938  1.4356
 5271SOL    HW227276   2.533   4.189   7.234 -1.4581  0.7228  1.5469
 5272SOL     OW27277   0.557   2.250   5.640 -0.1303 -0.0201 -0.0695
 5272SOL    HW127278   0.516   2.295   5.714 -1.7593  0.5294 -1.2951
 5272SOL    HW227279   0.639   2.299   5.628 -1.1467  1.4401 -1.1089
 5273SOL     OW27280   2.073   1.496   5.476  0.1176  0.2143  0.1715
 5273SOL    HW127281   2.108   1.408   5.460  0.3386  0.9141 -3.2117
 5273SOL    HW227282   2.012   1.480   5.547 -0.8574  0.1451 -0.6787
 5274SOL     OW27283   2.190   2.662  16.308 -0.3581  0.4098 -0.8432
 5274SOL    HW127284   2.136   2.637  16.234  0.1909  0.7789 -1.3729
 5274SOL    HW227285   2.173   2.582  16.357 -1.8232  1.1349 -0.1718
 5275SOL     OW27286   4.619   3.146   5.978  0.0916 -0.1864 -0.5146
 5275SOL    HW127287   4.606   3.052   5.987  0.0552  0.0228  1.6149
 5275SOL    HW227288   4.604   3.168   5.886  2.2653  2.3020 -0.2916
 5276SOL     OW27289   1.804   4.180   3.894 -0.3945  0.1464  0.0236
 5276SOL    HW127290   1.768   4.177   3.982  0.8074 -0.1394  0.5060
 5276SOL    HW227291   1.882   4.125   3.896  0.6093  1.6276  0.7789
 5277SOL     OW27292   4.143   4.038   8.848  0.2913 -0.1463 -0.0521
 5277SOL    HW127293   4.125   4.088   8.769 -2.0169 -0.6689  0.1599
 5277SOL    HW227294   4.095   4.090   8.912 -0.0856  0.5415 -0.8935
 5278SOL     OW27295   1.029   3.506   5.575  0.3203  0.1079  0.0337
 5278SOL    HW127296   0.983   3.493   5.658  0.5545 -1.3142 -0.0586
 5278SOL    HW227297   1.053   3.416   5.557 -0.1646 -0.2496  1.1904
 5279SOL     OW27298   0.423   3.419   8.629  0.8793 -0.0481  0.0710
 5279SOL    HW127299   0.357   3.351   8.628  1.5363 -0.6776 -0.2517
 5279SOL    HW227300   0.430   3.450   8.539  0.4722 -1.6872 -0.5083
 5280SOL     OW27301   2.501   3.104   7.157  0.0014  0.0842 -0.1877
 5280SOL    HW127302   2.533   3.192   7.137  1.7028 -0.4444  0.2644
 5280SOL    HW227303   2.580   3.052   7.164 -2.1421 -3.0521  0.6372
 5281SOL     OW27304   1.505   2.374   3.824 -0.0156  0.1062 -0.1468
 5281SOL    HW127305   1.568   2.325   3.877  0.3027  0.5702 -0.0985
 5281SOL    HW227306   1.534   2.464   3.837  0.1698 -0.0436  0.4851
 5282SOL     OW27307   3.764   1.067   9.271 -0.2316 -1.0390 -0.7150
 5282SOL    HW127308   3.788   1.115   9.350  0.2748  0.9961 -2.1243
 5282SOL    HW227309   3.804   0.980   9.280  1.5752 -0.2068 -0.6530
 5283SOL     OW27310   3.491   2.698   7.873 -0.3193  0.7122  0.2122
 5283SOL    HW127311   3.586   2.689   7.875 -0.3190  0.8942  0.9653
 5283SOL    HW227312   3.481   2.688   7.778 -1.6372  1.8520  0.2286
 5284SOL     OW27313   3.549   3.619  11.561 -0.5695  0.0306 -0.5077
 5284SOL    HW127314   3.501   3.614  11.643 -0.2061 -1.0642 -0.3632
 5284SOL    HW227315   3.538   3.531  11.525 -1.8164  0.0191 -0.0951
 5285SOL     OW27316   1.916   1.690   2.268 -0.4197  0.2908  0.1031
 5285SOL    HW127317   1.920   1.719   2.177  1.8422 -0.8465 -0.1482
 5285SOL    HW227318   1.846   1.627   2.248  0.5811 -0.8098  0.1179
 5286SOL     OW27319   4.561   3.084   4.452  0.3802  0.0304 -0.4094
 5286SOL    HW127320   4.657   3.088   4.457  0.4111 -0.8249 -0.2836
 5286SOL    HW227321   4.543   3.002   4.498 -3.7836 -0.2450 -2.5731
 5287SOL     OW27322   1.352   1.982  17.668 -0.1754 -0.3230 -0.0397
 5287SOL    HW127323   1.398   1.898  17.660 -0.5410 -0.5015 -0.2597
 5287SOL    HW227324   1.426   2.041  17.650 -1.0868  0.0640 -2.5323
 5288SOL     OW27325   2.519   3.662   6.303  0.4532  0.0630  0.0102
 5288SOL    HW127326   2.578   3.652   6.378 -0.0335  0.1116  0.4040
 5288SOL    HW227327   2.575   3.705   6.238 -0.8388  1.3769 -0.2259
 5289SOL     OW27328   4.193   4.150   9.232  0.8534  0.8088  0.1227
 5289SOL    HW127329   4.102   4.136   9.260  1.3411 -1.7312  0.4302
 5289SOL    HW227330   4.249   4.127   9.306 -0.8116 -2.9317  0.2531
 5290SOL     OW27331   2.679   3.629  11.952 -0.1929  0.2611  0.2733
 5290SOL    HW127332   2.645   3.651  11.865 -0.3411  0.1359  0.2997
 5290SOL    HW227333   2.725   3.704  11.989 -1.3630  1.4270 -0.6320
 5291SOL     OW27334   4.505   0.263  11.548 -0.0717  0.2658 -0.5733
 5291SOL    HW127335   4.594   0.298  11.558 -0.2114 -0.0922  1.8904
 5291SOL    HW227336   4.532   0.173  11.530 -0.4335 -0.2937  1.7257
 5292SOL     OW27337   0.417   0.579   7.919  0.6459  0.3324 -0.3500
 5292SOL    HW127338   0.507   0.552   7.900  0.4829  0.7918 -1.7975
 5292SOL    HW227339   0.382   0.490   7.929 -1.4580  1.0456 -1.5514
 5293SOL     OW27340   0.037   0.733   3.586 -0.0881  0.0851 -0.3157
 5293SOL    HW127341   0.033   0.755   3.679 -2.9603 -0.5306 -0.2820
 5293SOL    HW227342   0.110   0.785   3.554 -0.1280  0.5977  0.4169
 5294SOL     OW27343   4.289   2.326   3.231 -0.0104  0.4638 -0.4572
 5294SOL    HW127344   4.382   2.346   3.219 -0.1703  0.6479 -1.4524
 5294SOL    HW227345   4.264   2.345   3.140 -0.4915  0.7536 -0.2622
 5295SOL     OW27346   2.541   4.247   0.742  0.0479 -0.7720  0.7785
 5295SOL    HW127347   2.492   4.172   0.707  1.5945 -0.9445 -1.0179
 5295SOL    HW227348   2.548   4.203   0.826 -0.8741  1.5828  2.1127
 5296SOL     OW27349   1.505   1.098  17.092 -0.2915  0.2640 -0.1623
 5296SOL    HW127350   1.456   1.016  17.083  0.7187 -0.2892 -0.5600
 5296SOL    HW227351   1.589   1.066  17.124 -0.9238  0.1270  1.3206
 5297SOL     OW27352   2.063   4.589  11.377 -0.1222 -0.5907  0.1673
 5297SOL    HW127353   1.972   4.561  11.362 -1.1032  1.6512  1.9807
 5297SOL    HW227354   2.101   4.565  11.292  0.7733  1.1569  0.0811
 5298SOL     OW27355   2.480   1.006   3.898  0.3895 -0.0689 -0.5192
 5298SOL    HW127356   2.439   0.919   3.891  2.7078 -1.2034 -0.0413
 5298SOL    HW227357   2.425   1.037   3.969 -0.6523 -2.1166 -0.4217
 5299SOL     OW27358   1.089   1.677   8.697  0.3586  0.3939 -0.6598
 5299SOL    HW127359   1.127   1.609   8.752 -0.0143 -0.2346 -1.1721
 5299SOL    HW227360   1.124   1.748   8.750  0.8228 -0.4668  0.1821
 5300SOL     OW27361   0.651   1.077   2.929 -0.2091 -0.0203  0.3798
 5300SOL    HW127362   0.693   0.992   2.918  0.5972  0.8237 -2.9241
 5300SOL    HW227363   0.720   1.119   2.981 -1.2940  0.1160  1.7304
 5301SOL     OW27364   3.458   1.381   6.204 -0.1784 -0.0775  0.3189
 5301SOL    HW127365   3.399   1.353   6.134  1.3578 -0.0060 -1.0150
 5301SOL    HW227366   3.482   1.297   6.243 -0.4003  1.1972  3.1479
 5302SOL     OW27367   1.659   4.269   5.451  0.0833 -0.4804  0.6362
 5302SOL    HW127368   1.582   4.225   5.415 -1.1089  1.4273  0.8371
 5302SOL    HW227369   1.617   4.328   5.514  1.3624  1.3688 -0.2645
 5303SOL     OW27370   0.091   3.070   6.398  0.5601  0.0595 -0.8100
 5303SOL    HW127371   0.080   2.996   6.339  0.3899 -0.7128  0.2065
 5303SOL    HW227372   0.020   3.060   6.461 -0.2013 -1.0441 -1.8543
 5304SOL     OW27373   0.084   3.686   4.592  0.1248 -0.7726 -0.0206
 5304SOL    HW127374   0.102   3.710   4.501  1.7091  1.6724  0.9688
 5304SOL    HW227375   0.165   3.644   4.621  0.0622 -0.8447  0.0492
 5305SOL     OW27376   2.422   3.554   9.847  0.3418 -0.2944 -0.3330
 5305SOL    HW127377   2.504   3.603   9.842 -0.7649  1.7109  0.9235
 5305SOL    HW227378   2.439   3.467   9.811  2.1250 -1.4202  3.2694
 5306SOL     OW27379   3.420   0.909   4.825  0.2235  0.2848 -0.3061
 5306SOL    HW127380   3.368   0.882   4.749  1.8085 -3.0071 -0.1920
 5306SOL    HW227381   3.370   0.980   4.867  0.8697  0.6612 -0.1659
 5307SOL     OW27382   1.568   3.075  14.169 -0.2321  0.2137 -0.1837
 5307SOL    HW127383   1.543   3.005  14.231  1.0242  0.3432  0.4615
 5307SOL    HW227384   1.656   3.048  14.146  0.1841  0.7527  0.7716
 5308SOL     OW27385   3.188   4.323   2.936 -0.2909 -1.2310 -0.1448
 5308SOL    HW127386   3.224   4.395   2.987 -1.0062 -0.2548 -1.0373
 5308SOL    HW227387   3.181   4.263   3.011  0.4144 -0.7839  0.2789
 5309SOL     OW27388   1.792   0.633   6.262 -0.0553 -0.3653  0.3480
 5309SOL    HW127389   1.831   0.646   6.176 -0.6888 -0.7285  0.0063
 5309SOL    HW227390   1.721   0.697   6.260  0.7440  0.4210 -2.6375
 5310SOL     OW27391   1.008   3.923  12.686  0.2371  0.4284 -0.0260
 5310SOL    HW127392   1.086   3.918  12.740  1.4531  2.9924 -1.5602
 5310SOL    HW227393   1.013   4.016  12.664 -0.2112  0.6620  0.8929
 5311SOL     OW27394   3.965   4.321   4.379 -0.2532 -0.1898 -0.6016
 5311SOL    HW127395   4.026   4.247   4.384  1.7514  1.7417  3.1115
 5311SOL    HW227396   3.995   4.361   4.297 -1.0052 -0.3584 -0.9613
 5312SOL     OW27397   1.932   0.350   4.834  0.8848 -0.2016  0.3010
 5312SOL    HW127398   1.895   0.278   4.885 -4.2184  0.9624 -1.8252
 5312SOL    HW227399   1.981   0.299   4.769  0.3259 -0.7846  0.3393
 5313SOL     OW27400   0.915   1.061   0.850  0.2637 -0.2693  0.1814
 5313SOL    HW127401   0.984   1.083   0.787 -0.0179 -0.8612 -0.3287
 5313SOL    HW227402   0.858   1.137   0.840 -0.1701 -0.9101 -2.1238
 5314SOL     OW27403   2.003   3.160   8.625  0.1194 -0.5346  0.0087
 5314SOL    HW127404   1.999   3.219   8.701  2.1005 -0.6204  0.1716
 5314SOL    HW227405   2.030   3.079   8.667  0.3780 -0.3497  0.2045
 5315SOL     OW27406   4.005   3.765  10.838  0.2764 -0.4224  0.0587
 5315SOL    HW127407   4.081   3.713  10.814  1.5050  1.3856  0.0332
 5315SOL    HW227408   3.932   3.710  10.809 -0.2280  1.2194 -1.8089
 5316SOL     OW27409   0.411   2.522   5.416 -0.5215 -0.3166 -0.1830
 5316SOL    HW127410   0.455   2.508   5.500 -0.4616 -2.2029 -0.5219
 5316SOL    HW227411   0.369   2.605   5.437 -1.0950 -0.0556 -2.4068
 5317SOL     OW27412   4.272   3.907  10.360  0.2339 -0.4036  0.3798
 5317SOL    HW127413   4.227   3.959  10.293 -0.9803  1.1504  2.3998
 5317SOL    HW227414   4.256   3.969  10.431 -0.0942 -0.7027  0.5668
 5318SOL     OW27415   2.544   3.810   3.373 -0.3416 -0.1895  0.1442
 5318SOL    HW127416   2.462   3.830   3.417  0.1667 -0.1148  1.0632
 5318SOL    HW227417   2.515   3.817   3.282  4.2544 -0.8996 -1.4027
 5319SOL     OW27418   0.503   0.663   4.329 -0.0104  0.3411 -0.2626
 5319SOL    HW127419   0.512   0.569   4.313 -1.3024  0.5317 -2.1775
 5319SOL    HW227420   0.470   0.658   4.418  1.3023 -0.9094  0.1494
 5320SOL     OW27421   1.662   2.251   2.172  0.4726 -0.8502  0.0241
 5320SOL    HW127422   1.643   2.339   2.139  1.8073 -0.9997 -1.1296
 5320SOL    HW227423   1.574   2.228   2.203  0.5146  0.2367  0.9525
 5321SOL     OW27424   0.540   4.456   4.762  0.6356 -0.2637 -0.6389
 5321SOL    HW127425   0.496   4.415   4.837 -1.0407 -2.2915 -2.7382
 5321SOL    HW227426   0.516   4.388   4.698  2.2567 -0.8287 -0.6386
 5322SOL     OW27427   3.834   2.812   8.452  0.0915  0.0178 -0.3334
 5322SOL    HW127428   3.895   2.861   8.507 -0.1959  0.2738 -0.2365
 5322SOL    HW227429   3.863   2.850   8.370  0.2667 -1.6134 -1.0206
 5323SOL     OW27430   0.367   3.762   7.654  0.1560  0.4306  0.9611
 5323SOL    HW127431   0.442   3.755   7.713  0.9467 -0.2809 -0.1306
 5323SOL    HW227432   0.392   3.689   7.598 -2.1283  0.7482 -0.4760
 5324SOL     OW27433   1.338   2.232  16.596 -0.0902  0.0790  0.0941
 5324SOL    HW127434   1.262   2.180  16.569 -0.8329  1.9478 -1.3738
 5324SOL    HW227435   1.400   2.188  16.537  1.2171  1.6802  0.2829
 5325SOL     OW27436   1.567   2.347   1.240  0.3167 -0.3034 -0.1846
 5325SOL    HW127437   1.657   2.313   1.239 -0.7723 -3.2255 -1.1094
 5325SOL    HW227438   1.555   2.346   1.145  0.6503  0.3007 -0.2285
 5326SOL     OW27439   3.919   3.231   4.167  0.1673  0.1691 -0.4270
 5326SOL    HW127440   4.008   3.243   4.133  1.0168 -1.4157  1.2268
 5326SOL    HW227441   3.935   3.266   4.255  0.1298 -1.3550  0.1905
 5327SOL     OW27442   1.502   2.554  15.010  0.0333 -0.2984  0.4036
 5327SOL    HW127443   1.563   2.494  14.968 -0.5818 -1.2236  0.8262
 5327SOL    HW227444   1.418   2.521  14.979  0.2480 -0.3629 -0.1116
 5328SOL     OW27445   2.211   1.799   9.720  0.1229  0.2617  0.1390
 5328SOL    HW127446   2.175   1.887   9.728  1.5173  0.7299  1.2763
 5328SOL    HW227447   2.267   1.798   9.797  0.2940 -1.1431  0.0001
 5329SOL     OW27448   2.716   2.150   8.031 -0.2526  0.1537  0.3138
 5329SOL    HW127449   2.728   2.056   8.043  0.7061  0.5254  2.2953
 5329SOL    HW227450   2.699   2.176   8.122 -0.4816  2.3701 -0.3719
 5330SOL     OW27451   0.736   2.060   6.761  0.1573 -0.2246  0.2030
 5330SOL    HW127452   0.776   2.142   6.732  0.5381 -0.4801  0.0212
 5330SOL    HW227453   0.796   1.990   6.738  0.6073  0.0906  0.4233
 5331SOL     OW27454   2.446   2.271  14.944  0.1196  0.1900 -0.2195
 5331SOL    HW127455   2.418   2.247  15.033 -0.5051  0.5691 -0.3177
 5331SOL    HW227456   2.393   2.349  14.928 -0.7696 -0.7268 -1.6936
 5332SOL     OW27457   2.740   3.095   7.897 -0.1715  0.9517 -0.7872
 5332SOL    HW127458   2.761   3.176   7.945 -0.0904  0.1186  0.5803
 5332SOL    HW227459   2.667   3.059   7.947 -0.0140 -0.6670 -1.7160
 5333SOL     OW27460   3.288   3.712  15.304  0.0048  0.2066  0.1895
 5333SOL    HW127461   3.211   3.768  15.317 -0.6845 -1.0367  1.4187
 5333SOL    HW227462   3.350   3.780  15.277 -1.3454  1.1997 -0.4390
 5334SOL     OW27463   0.421   4.047   2.115  0.0094 -0.6146  0.0325
 5334SOL    HW127464   0.495   3.991   2.093 -0.4544 -1.0633 -0.3955
 5334SOL    HW227465   0.350   3.988   2.091 -1.4437  0.8120  0.8246
 5335SOL     OW27466   4.154   4.110   4.322  0.2902  0.2820  0.1747
 5335SOL    HW127467   4.203   4.037   4.360 -1.6294  0.0848  2.2238
 5335SOL    HW227468   4.217   4.140   4.256  0.8268 -0.7872  0.2009
 5336SOL     OW27469   0.807   3.709  16.932  0.4095 -0.4119  0.7449
 5336SOL    HW127470   0.873   3.718  16.863 -1.2191  1.5723 -0.5493
 5336SOL    HW227471   0.834   3.624  16.967 -1.9394 -1.5887 -0.3433
 5337SOL     OW27472   2.186   2.052   6.630 -0.4623  0.7349 -1.0633
 5337SOL    HW127473   2.191   1.968   6.674 -0.0867  0.4677 -1.6164
 5337SOL    HW227474   2.254   2.037   6.564  1.5957  3.2933  0.4918
 5338SOL     OW27475   0.939   1.343   5.349  0.3149 -0.0456  0.0168
 5338SOL    HW127476   1.012   1.346   5.411 -1.6451 -3.0219  2.4806
 5338SOL    HW227477   0.885   1.416   5.378 -0.9365 -0.8400 -0.2882
 5339SOL     OW27478   3.471   0.721   5.662 -0.0304  0.1005 -0.1267
 5339SOL    HW127479   3.565   0.708   5.651 -0.4811  0.2488 -4.3326
 5339SOL    HW227480   3.471   0.787   5.731  2.6760  0.9129 -0.8857
 5340SOL     OW27481   3.451   3.361   8.138  0.2598 -0.0942  0.4751
 5340SOL    HW127482   3.512   3.314   8.195 -0.0205 -2.0744 -0.8407
 5340SOL    HW227483   3.480   3.447   8.169  0.8443 -1.0935  2.7488
 5341SOL     OW27484   3.386   4.411   5.502  0.1482  0.3824  0.5631
 5341SOL    HW127485   3.435   4.329   5.503 -1.8133 -0.7562  2.1039
 5341SOL    HW227486   3.447   4.452   5.440  1.6541 -1.3781  0.8696
 5342SOL     OW27487   0.569   2.564   7.859 -0.0393 -0.0966 -0.4809
 5342SOL    HW127488   0.629   2.510   7.806 -0.4534  0.7932 -1.8605
 5342SOL    HW227489   0.504   2.495   7.872 -1.3960  0.9777 -1.6382
 5343SOL     OW27490   3.253   3.805   7.697  0.1116  0.2895 -0.0044
 5343SOL    HW127491   3.246   3.732   7.758 -2.2059 -0.1829 -0.8210
 5343SOL    HW227492   3.179   3.865   7.710 -0.0999  0.4247 -1.7392
 5344SOL     OW27493   2.546   0.530   3.631 -0.7805 -0.3206  0.0443
 5344SOL    HW127494   2.455   0.560   3.630 -0.8066 -0.4624 -3.8715
 5344SOL    HW227495   2.586   0.604   3.584  0.0961 -2.6884 -2.9705
 5345SOL     OW27496   0.836   0.698   1.336 -0.2264  0.4027  0.4239
 5345SOL    HW127497   0.818   0.653   1.253  2.4353  1.7754 -0.9272
 5345SOL    HW227498   0.750   0.729   1.362 -0.7527 -1.5278  0.9205
 5346SOL     OW27499   3.100   2.301  11.176  0.0920  0.2233 -0.0572
 5346SOL    HW127500   3.143   2.216  11.187  0.3689  0.0729 -2.2552
 5346SOL    HW227501   3.177   2.357  11.186  1.5790 -2.0771  1.3425
 5347SOL     OW27502   1.897   0.501   5.236 -0.7437  0.2871 -0.5830
 5347SOL    HW127503   1.814   0.527   5.277 -0.1474  0.0473  0.7732
 5347SOL    HW227504   1.889   0.406   5.226 -3.4711  0.3881  0.5074
 5348SOL     OW27505   4.501   0.472  13.222 -0.3630 -0.1604  0.3920
 5348SOL    HW127506   4.571   0.479  13.287 -0.2950 -1.8073  0.4893
 5348SOL    HW227507   4.492   0.382  13.191  1.3605  0.2282 -1.1938
 5349SOL     OW27508   1.860   3.993   7.681  0.6069  0.2514  0.2651
 5349SOL    HW127509   1.814   3.940   7.616  0.5703  0.2598  0.2839
 5349SOL    HW227510   1.807   4.072   7.673 -1.1784 -1.0601 -0.7798
 5350SOL     OW27511   1.208   2.582   6.811  0.1261  0.1861 -0.0140
 5350SOL    HW127512   1.188   2.502   6.859  0.0056  0.8712  1.0872
 5350SOL    HW227513   1.264   2.628   6.874 -1.6930  0.9866  1.0263
 5351SOL     OW27514   1.172   2.681   7.531 -0.3764 -0.4095 -0.1172
 5351SOL    HW127515   1.133   2.760   7.569  1.6759  0.1745  0.8330
 5351SOL    HW227516   1.246   2.713   7.479  1.3090 -0.3807  2.2688
 5352SOL     OW27517   2.051   4.507   9.370  1.1861 -0.4500 -0.1914
 5352SOL    HW127518   2.090   4.465   9.446 -0.9299 -2.5662 -0.2613
 5352SOL    HW227519   2.051   4.434   9.307 -1.9740 -2.0144  1.6458
 5353SOL     OW27520   2.434   1.507   6.734 -0.2863  0.3572 -0.2080
 5353SOL    HW127521   2.453   1.517   6.828 -1.8675 -0.4139  0.1874
 5353SOL    HW227522   2.483   1.429   6.708 -0.4901 -0.3487  1.4863
 5354SOL     OW27523   4.373   1.518   8.295 -0.9188 -0.1372  0.1192
 5354SOL    HW127524   4.314   1.468   8.352 -2.0814 -0.3182 -1.2277
 5354SOL    HW227525   4.369   1.471   8.212  1.3663 -0.0417 -0.0453
 5355SOL     OW27526   0.813   2.408   7.759 -0.3169  0.7185 -0.4101
 5355SOL    HW127527   0.905   2.434   7.767  0.0632 -0.8764  0.4772
 5355SOL    HW227528   0.827   2.316   7.737  0.8949  1.0779 -1.1439
 5356SOL     OW27529   0.007   0.550  14.847 -0.1235  0.1363 -0.0184
 5356SOL    HW127530   0.097   0.578  14.832 -0.0308  0.2881  0.8556
 5356SOL    HW227531   4.693   0.639  14.856 -0.5046  0.0080 -0.2813
 5357SOL     OW27532   2.544   3.439   6.711 -0.2603  0.1755  0.1554
 5357SOL    HW127533   2.626   3.406   6.748 -0.0926 -0.5604 -0.8530
 5357SOL    HW227534   2.500   3.355   6.696 -0.6943  0.7365 -1.7179
 5358SOL     OW27535   2.727   3.870   2.334  0.3432  0.2856  0.0162
 5358SOL    HW127536   2.727   3.788   2.285 -2.4167  0.1701  0.2079
 5358SOL    HW227537   2.813   3.873   2.374  1.0381  2.1269 -1.6030
 5359SOL     OW27538   0.089   2.052   3.222 -0.0186 -0.2145 -0.4893
 5359SOL    HW127539   0.054   2.141   3.225  4.3117  1.4094  0.8587
 5359SOL    HW227540   0.041   2.012   3.149  1.0395  0.3666 -1.4991
 5360SOL     OW27541   4.038   2.203   9.440  0.1164  0.0375 -0.1358
 5360SOL    HW127542   4.117   2.151   9.455 -0.5861 -0.7361  0.8900
 5360SOL    HW227543   3.986   2.131   9.403 -0.7360 -0.7893  2.6202
 5361SOL     OW27544   0.183   2.769   3.327  0.4009  0.2658  0.3904
 5361SOL    HW127545   0.211   2.848   3.374 -0.1084  1.2389 -0.9086
 5361SOL    HW227546   0.153   2.801   3.242 -0.9573  1.5835  1.3634
 5362SOL     OW27547   0.739   2.761  12.216  1.0330 -0.3785 -0.0380
 5362SOL    HW127548   0.719   2.687  12.273  0.5495  0.3503  0.7355
 5362SOL    HW227549   0.651   2.797  12.202  2.2511  2.5256 -0.1094
 5363SOL     OW27550   4.158   4.383   8.480 -1.0534  0.0394 -0.8342
 5363SOL    HW127551   4.095   4.455   8.489 -2.2079 -1.2731  1.5533
 5363SOL    HW227552   4.165   4.377   8.385 -0.0512 -0.3126 -0.7352
 5364SOL     OW27553   4.279   2.283   2.595 -0.5444 -0.0107  0.7892
 5364SOL    HW127554   4.282   2.246   2.506 -2.4685  0.3613  0.5827
 5364SOL    HW227555   4.227   2.363   2.588 -1.9825 -0.9444  1.0037
 5365SOL     OW27556   1.838   4.008   2.237  0.3721  0.5133  0.5549
 5365SOL    HW127557   1.913   4.067   2.235 -1.5664  3.0176  2.0808
 5365SOL    HW227558   1.763   4.066   2.229 -0.5018 -0.7471 -0.3876
 5366SOL     OW27559   3.569   3.665   5.996 -0.2350 -0.0570 -0.3967
 5366SOL    HW127560   3.508   3.682   5.924  0.1545 -2.6726 -1.3415
 5366SOL    HW227561   3.609   3.583   5.967 -0.8094 -0.1172 -1.0275
 5367SOL     OW27562   3.836   1.668   6.229 -0.1730 -0.0888 -0.2215
 5367SOL    HW127563   3.762   1.631   6.181 -0.5165 -1.3364  1.2637
 5367SOL    HW227564   3.790   1.687   6.311 -0.3936 -1.3985 -0.0411
 5368SOL     OW27565   1.397   0.895   7.364  0.5553  0.0673 -0.3038
 5368SOL    HW127566   1.323   0.842   7.334 -1.1894  2.8293 -0.8834
 5368SOL    HW227567   1.384   0.960   7.295 -0.2234  0.6111  0.3474
 5369SOL     OW27568   2.146   0.870  16.554 -0.0073 -0.0358  0.2359
 5369SOL    HW127569   2.113   0.830  16.635 -0.8677 -0.9300 -0.5679
 5369SOL    HW227570   2.196   0.799  16.513  1.1654 -0.3740  2.2555
 5370SOL     OW27571   0.715   0.342   8.324  0.1790 -0.2415 -0.1861
 5370SOL    HW127572   0.697   0.266   8.380  0.8619 -0.7022 -0.5935
 5370SOL    HW227573   0.714   0.296   8.240 -1.3136 -0.9111  0.1926
 5371SOL     OW27574   3.473   4.498  12.639  0.4236  0.0098 -0.3850
 5371SOL    HW127575   3.412   4.567  12.666 -1.1961 -1.5443 -0.0275
 5371SOL    HW227576   3.552   4.550  12.622  2.2538 -2.1773  1.4521
 5372SOL     OW27577   3.220   3.434   7.203 -0.0098  0.4789  0.2510
 5372SOL    HW127578   3.179   3.382   7.134 -1.8728  0.3084  1.4640
 5372SOL    HW227579   3.154   3.422   7.272 -1.3343 -0.8477 -1.2382
 5373SOL     OW27580   3.322   0.081   6.243 -0.2568 -0.5674  0.1601
 5373SOL    HW127581   3.409   0.042   6.251  1.2233  2.5671 -0.6673
 5373SOL    HW227582   3.268   0.012   6.205 -2.4231  1.6213 -0.6627
 5374SOL     OW27583   1.272   2.091   5.224  0.0000  0.1235  0.1563
 5374SOL    HW127584   1.287   2.029   5.152 -0.2645  1.1147 -0.7590
 5374SOL    HW227585   1.356   2.137   5.220  0.9946 -1.5338  2.3553
 5375SOL     OW27586   1.334   3.923   4.845  0.1577 -0.1249  0.0550
 5375SOL    HW127587   1.366   3.859   4.780  2.4501  1.8708 -0.7890
 5375SOL    HW227588   1.416   3.942   4.891 -0.0272 -0.4662  0.5193
 5376SOL     OW27589   2.399   2.728  11.350 -0.2464  0.1642  0.9069
 5376SOL    HW127590   2.418   2.814  11.310 -2.2001  0.1413 -0.0994
 5376SOL    HW227591   2.428   2.661  11.288 -1.6069  0.0763  0.3574
 5377SOL     OW27592   2.475   2.635   3.183  0.4504  0.5348  0.1603
 5377SOL    HW127593   2.552   2.580   3.171 -1.3331 -1.6033 -1.5202
 5377SOL    HW227594   2.413   2.572   3.147 -0.6135  1.3812  0.5031
 5378SOL     OW27595   1.470   3.985   2.344  0.4735  0.7089 -0.2811
 5378SOL    HW127596   1.427   3.960   2.262  0.3615  2.6999 -0.8231
 5378SOL    HW227597   1.526   4.059   2.323  1.3670  0.4510  1.1730
 5379SOL     OW27598   1.179   3.102   6.363 -0.6390 -0.1127  0.4219
 5379SOL    HW127599   1.153   3.015   6.333  1.7811  0.5547 -3.6427
 5379SOL    HW227600   1.156   3.101   6.456 -0.9839 -0.6814  0.3310
 5380SOL     OW27601   0.233   0.865   3.437 -0.3336 -0.8906  0.0445
 5380SOL    HW127602   0.281   0.931   3.487 -3.7358  2.7096 -1.4370
 5380SOL    HW227603   0.200   0.920   3.367  0.0560  1.2374  1.5465
 5381SOL     OW27604   1.265   4.381   6.848  0.2282  0.3627  0.1359
 5381SOL    HW127605   1.358   4.381   6.830  0.4123  1.2865  1.0448
 5381SOL    HW227606   1.263   4.311   6.913 -1.7678  0.1635 -0.1187
 5382SOL     OW27607   2.835   1.517   8.196  0.3014 -0.1810  0.0976
 5382SOL    HW127608   2.928   1.518   8.218  0.4348  0.3796 -0.5286
 5382SOL    HW227609   2.826   1.558   8.111 -2.2006  1.1794  1.0019
 5383SOL     OW27610   1.730   3.050   7.578 -0.0106  0.4002 -0.1126
 5383SOL    HW127611   1.728   2.999   7.659 -1.2642  2.3809  1.1158
 5383SOL    HW227612   1.636   3.065   7.569 -0.4972 -0.9636  2.4878
 5384SOL     OW27613   4.296   1.141   2.419 -0.3793  0.1734  0.4101
 5384SOL    HW127614   4.365   1.074   2.415 -2.1055 -1.5396 -0.6786
 5384SOL    HW227615   4.236   1.105   2.354 -1.0723  0.7840  0.7159
 5385SOL     OW27616   0.664   1.506   8.650  0.0499  0.2526 -0.2477
 5385SOL    HW127617   0.615   1.587   8.643 -0.1464  0.1881  0.3503
 5385SOL    HW227618   0.750   1.538   8.624 -0.1798  0.6460 -0.5262
 5386SOL     OW27619   0.249   0.785   0.354 -0.6170 -0.0131  0.4391
 5386SOL    HW127620   0.282   0.761   0.440 -2.2836 -3.4828  0.1065
 5386SOL    HW227621   0.198   0.706   0.338 -1.0849  0.3610  0.0502
 5387SOL     OW27622   0.566   2.829   8.379 -1.0179 -0.3269  0.1464
 5387SOL    HW127623   0.544   2.816   8.471  1.1135  0.5351  0.7599
 5387SOL    HW227624   0.655   2.793   8.375 -1.0368 -0.3700  0.1045
 5388SOL     OW27625   3.284   3.845   5.084 -0.5213 -0.1519  0.1292
 5388SOL    HW127626   3.216   3.783   5.056 -0.5484 -0.6332  1.2756
 5388SOL    HW227627   3.308   3.889   5.002  0.2376 -0.2724  0.2895
 5389SOL     OW27628   1.841   0.839   0.969  0.4781 -0.0542  0.0777
 5389SOL    HW127629   1.913   0.900   0.954  1.0334 -0.7950 -0.2476
 5389SOL    HW227630   1.759   0.881   0.941  1.1452  0.3915 -1.1944
 5390SOL     OW27631   4.221   2.651   6.442 -0.1455  0.5350  0.3996
 5390SOL    HW127632   4.148   2.692   6.488 -1.3807 -0.0176 -1.0650
 5390SOL    HW227633   4.220   2.702   6.361 -0.3919  1.4482  0.9858
 5391SOL     OW27634   4.190   2.287   8.348 -0.9774  0.2158  0.0276
 5391SOL    HW127635   4.188   2.200   8.389  1.3410 -0.0843 -0.4807
 5391SOL    HW227636   4.260   2.341   8.384 -1.0984  1.3061 -1.4077
 5392SOL     OW27637   3.746   2.638   1.410 -0.5938  0.1364 -0.5143
 5392SOL    HW127638   3.833   2.677   1.415 -1.3565  1.6550  0.7881
 5392SOL    HW227639   3.743   2.619   1.316  0.3562 -1.5175 -0.2288
 5393SOL     OW27640   2.608   1.821   8.456  0.4268 -0.0161 -0.0877
 5393SOL    HW127641   2.636   1.730   8.447 -0.5660 -0.4555  1.4430
 5393SOL    HW227642   2.595   1.831   8.550  2.4118  0.3068  0.1531
 5394SOL     OW27643   0.264   2.979   7.042  0.1604 -0.1574  0.2495
 5394SOL    HW127644   0.345   2.980   6.990 -0.0363 -0.0440 -0.0566
 5394SOL    HW227645   0.225   2.896   7.014 -1.4775  0.7341 -0.1437
 5395SOL     OW27646   1.353   1.887   5.049 -0.3580 -0.3730 -0.0913
 5395SOL    HW127647   1.296   1.814   5.074 -2.6838  1.3813 -0.2664
 5395SOL    HW227648   1.391   1.851   4.970 -1.7367 -0.3986 -0.7395
 5396SOL     OW27649   0.468   0.738   6.783  0.1195  0.4607 -0.5159
 5396SOL    HW127650   0.439   0.807   6.842 -3.3080 -1.1214 -0.3425
 5396SOL    HW227651   0.390   0.710   6.735  1.0509 -1.0134 -1.1777
 5397SOL     OW27652   0.825   0.137   5.494  0.3164  0.3971  0.0189
 5397SOL    HW127653   0.756   0.194   5.461  0.3747  1.1963  1.2674
 5397SOL    HW227654   0.886   0.125   5.422  1.1453 -1.7481  1.0694
 5398SOL     OW27655   4.003   0.340   0.694  0.0075  0.4305  0.6563
 5398SOL    HW127656   4.079   0.284   0.708 -0.4143 -0.1255  0.7287
 5398SOL    HW227657   4.024   0.397   0.620 -0.2459  0.9909  1.0062
 5399SOL     OW27658   2.026   2.844   2.186 -0.4954 -0.2436  0.4039
 5399SOL    HW127659   1.949   2.795   2.155 -1.2997  0.6350  0.9909
 5399SOL    HW227660   1.992   2.860   2.275  0.8000  1.3752  0.5935
 5400SOL     OW27661   1.985   2.516  15.543 -1.0916 -0.6821  0.3530
 5400SOL    HW127662   1.919   2.512  15.612 -0.7850  0.0589  0.6934
 5400SOL    HW227663   1.932   2.505  15.464 -1.5690  2.3817  0.2589
 5401SOL     OW27664   2.844   0.036   1.609  0.1402  0.1027  0.3474
 5401SOL    HW127665   2.805   0.056   1.694  0.6948 -2.4014  1.1937
 5401SOL    HW227666   2.774   4.699   1.581  0.0821  0.1918  0.3049
 5402SOL     OW27667   3.002   0.243  14.702  0.1689 -0.3093 -0.7789
 5402SOL    HW127668   3.078   0.203  14.660  0.7305 -1.6039  1.4788
 5402SOL    HW227669   2.944   0.239  14.627 -1.3339  0.1634  0.3568
 5403SOL     OW27670   2.482   0.155   3.754 -0.0246  0.0827  0.3167
 5403SOL    HW127671   2.557   0.196   3.711  0.7817  0.1378  1.7722
 5403SOL    HW227672   2.527   0.095   3.812  0.4702  1.2940  1.1895
 5404SOL     OW27673   4.132   0.440   3.201  0.4042 -0.3592 -0.1880
 5404SOL    HW127674   4.078   0.436   3.122 -0.5558  0.7948  0.4095
 5404SOL    HW227675   4.193   0.511   3.182  0.9800 -0.5085  1.1242
 5405SOL     OW27676   3.339   3.440   1.364 -0.2892  0.3199 -0.7575
 5405SOL    HW127677   3.418   3.456   1.415  1.2015 -1.4284 -2.4981
 5405SOL    HW227678   3.327   3.345   1.359  0.0895  0.2227  0.1758
 5406SOL     OW27679   0.344   0.157   3.598  0.5296  0.4839  0.3080
 5406SOL    HW127680   0.354   0.178   3.691 -0.3795  0.5133  0.3997
 5406SOL    HW227681   0.269   0.208   3.568 -0.9608 -1.2406  1.1744
 5407SOL     OW27682   2.334   0.543   9.083 -0.1550 -0.6614  0.1830
 5407SOL    HW127683   2.291   0.500   9.009 -0.8777  3.1582 -1.6249
 5407SOL    HW227684   2.312   0.635   9.067 -0.7789 -0.6167  1.3078
 5408SOL     OW27685   2.540   4.111   1.005 -0.3642  0.0768 -0.7839
 5408SOL    HW127686   2.538   4.017   1.025 -0.5176  0.7735  2.3473
 5408SOL    HW227687   2.589   4.151   1.076 -1.1490 -0.3160 -0.0214
 5409SOL     OW27688   4.496   3.979  10.673  0.0487  0.5991 -0.5620
 5409SOL    HW127689   4.418   4.034  10.675 -1.0532 -0.9666 -1.6589
 5409SOL    HW227690   4.470   3.915  10.607  0.2071 -1.3927  1.3309
 5410SOL     OW27691   1.059   2.450   2.476 -0.8133  0.2687 -0.3919
 5410SOL    HW127692   1.032   2.540   2.492  2.1046  1.3519 -1.6524
 5410SOL    HW227693   1.143   2.451   2.430  1.6112  0.7855  3.9849
 5411SOL     OW27694   1.856   2.073   7.126 -0.5302 -0.4807  0.3164
 5411SOL    HW127695   1.775   2.063   7.075 -0.5961 -0.7318  0.4709
 5411SOL    HW227696   1.918   2.044   7.059 -1.9995 -2.4648 -0.2066
 5412SOL     OW27697   1.327   3.371   8.194  0.8860  0.2026 -0.1597
 5412SOL    HW127698   1.369   3.351   8.277  2.6997 -1.7670 -1.5453
 5412SOL    HW227699   1.348   3.463   8.179 -1.8456  0.6777 -1.1688
 5413SOL     OW27700   2.961   3.460  15.088 -0.0910 -0.2770  0.0758
 5413SOL    HW127701   2.950   3.373  15.049 -0.3001 -0.3930  0.3931
 5413SOL    HW227702   2.905   3.451  15.165 -0.1168 -0.9307 -0.0152
 5414SOL     OW27703   0.123   2.924  16.366 -0.1845 -0.0350 -0.4760
 5414SOL    HW127704   0.171   2.844  16.342  0.1348  0.1823 -0.5573
 5414SOL    HW227705   0.129   2.982  16.290 -1.3042  1.7744  0.8270
 5415SOL     OW27706   2.874   2.224  15.002 -0.2027  0.2623 -0.2841
 5415SOL    HW127707   2.934   2.255  14.934 -0.0557  1.2368  0.2820
 5415SOL    HW227708   2.844   2.305  15.045 -1.9678 -2.3800  3.4506
 5416SOL     OW27709   4.361   3.507   3.359  0.1959  0.3440 -0.6132
 5416SOL    HW127710   4.365   3.571   3.288 -0.3040 -0.1831 -1.1177
 5416SOL    HW227711   4.423   3.548   3.419  1.3670 -2.3658  0.0246
 5417SOL     OW27712   1.530   4.082   7.570  0.3923 -0.2715 -0.1864
 5417SOL    HW127713   1.580   4.069   7.490  0.3238  1.1249 -0.4612
 5417SOL    HW227714   1.454   4.033   7.539  0.6526 -0.2575 -0.8371
 5418SOL     OW27715   3.692   1.919   6.305 -0.0237  0.1186  0.5045
 5418SOL    HW127716   3.726   1.978   6.238 -0.3778 -0.1432  0.0916
 5418SOL    HW227717   3.599   1.904   6.287  0.0561 -1.2897  1.2835
 5419SOL     OW27718   3.276   0.915   8.673 -0.0987  0.7927  0.3015
 5419SOL    HW127719   3.234   0.850   8.616  2.5155 -1.1237  0.5721
 5419SOL    HW227720   3.313   0.861   8.743 -0.6913  0.2391  0.1889
 5420SOL     OW27721   0.639   3.948   6.678 -0.4131  0.5486  0.1865
 5420SOL    HW127722   0.565   3.994   6.639 -0.4685  0.5382  0.2795
 5420SOL    HW227723   0.638   3.991   6.764 -0.0264  0.4260  0.2517
 5421SOL     OW27724   4.145   0.338  12.125 -0.3472 -0.3929 -0.1021
 5421SOL    HW127725   4.227   0.345  12.075  0.0139 -1.7969  0.2948
 5421SOL    HW227726   4.174   0.290  12.203  2.6848  2.0687  0.2969
 5422SOL     OW27727   0.239   0.105   9.859 -0.3749  0.4174 -0.6894
 5422SOL    HW127728   0.310   0.043   9.871 -1.4925 -0.5284  1.0997
 5422SOL    HW227729   0.246   0.170   9.929  0.6807  0.6238 -0.9864
 5423SOL     OW27730   0.336   4.382  13.905 -0.2352 -0.5691  0.2335
 5423SOL    HW127731   0.393   4.333  13.965 -0.4039 -0.8192  0.1867
 5423SOL    HW227732   0.286   4.430  13.971  0.4118  0.8395 -0.2937
 5424SOL     OW27733   1.295   0.100  17.018 -0.1283  0.4726 -0.0620
 5424SOL    HW127734   1.294   0.066  16.928 -1.2951  0.8249 -0.1825
 5424SOL    HW227735   1.304   0.194  17.002  1.4858  0.0165 -1.8427
 5425SOL     OW27736   3.925   2.410  14.223  0.4198 -0.3447 -0.4255
 5425SOL    HW127737   3.983   2.473  14.265 -0.0501  0.8938 -1.6376
 5425SOL    HW227738   3.956   2.330  14.265 -1.2976 -0.6232  0.3376
 5426SOL     OW27739   0.879   1.102   4.297  0.1730  0.1496  0.4387
 5426SOL    HW127740   0.876   1.195   4.316 -0.2362  0.4647 -1.1564
 5426SOL    HW227741   0.834   1.109   4.213 -0.4705 -1.2113  0.6721
 5427SOL     OW27742   1.993   1.504   4.067  0.3189  0.0280 -0.3684
 5427SOL    HW127743   1.897   1.500   4.069  0.2783  1.9551  1.7053
 5427SOL    HW227744   2.017   1.420   4.028 -1.1221 -0.1061 -0.9801
 5428SOL     OW27745   3.703   1.041  10.993 -0.1225  0.2864 -0.2866
 5428SOL    HW127746   3.676   1.074  11.079 -0.0451  1.1685 -0.5951
 5428SOL    HW227747   3.633   1.077  10.939  1.1343  1.5338 -1.1047
 5429SOL     OW27748   2.247   1.122  13.633 -0.0658  0.0906  0.1788
 5429SOL    HW127749   2.247   1.153  13.724  1.1528 -2.1713  0.9538
 5429SOL    HW227750   2.286   1.197  13.588  1.5092 -0.2977  0.8765
 5430SOL     OW27751   3.671   3.019   4.317 -0.1939  0.5453 -0.3853
 5430SOL    HW127752   3.751   2.970   4.295  0.1066 -0.2352  2.4193
 5430SOL    HW227753   3.694   3.014   4.410  0.9017 -2.7442 -0.8051
 5431SOL     OW27754   4.695   0.538   9.043 -0.7307  0.1163  0.3549
 5431SOL    HW127755   0.057   0.509   9.080 -0.6179  0.6126  0.4872
 5431SOL    HW227756   4.645   0.466   9.081  0.2005 -1.6511 -1.7106
 5432SOL     OW27757   1.507   2.231  17.620  0.5769 -0.0335 -0.3157
 5432SOL    HW127758   1.537   2.305  17.671  0.9388 -1.2265  1.1888
 5432SOL    HW227759   1.415   2.249  17.640  0.8201  0.9841 -0.1110
 5433SOL     OW27760   4.306   0.312  12.618  0.0327  0.7318  0.2046
 5433SOL    HW127761   4.394   0.345  12.597 -0.5029  1.7080 -0.5100
 5433SOL    HW227762   4.290   0.270  12.533  0.1605  1.4336 -0.1689
 5434SOL     OW27763   4.452   3.196   4.243  0.1058 -0.4859  0.0382
 5434SOL    HW127764   4.500   3.157   4.316  1.5522 -0.2545 -0.7887
 5434SOL    HW227765   4.531   3.227   4.198  1.3805 -0.2864  2.3789
 5435SOL     OW27766   0.263   0.145   1.124 -0.3955  0.2430  0.4303
 5435SOL    HW127767   0.220   0.228   1.146 -0.3596  0.0663  1.1458
 5435SOL    HW227768   0.210   0.079   1.168 -1.7103  1.1764  0.2690
 5436SOL     OW27769   4.279   0.283  11.681 -0.5698 -0.5536 -0.0706
 5436SOL    HW127770   4.255   0.212  11.622  0.2451 -0.4167 -0.5640
 5436SOL    HW227771   4.366   0.311  11.652 -0.4499 -0.4569  0.3769
 5437SOL     OW27772   4.640   4.101   6.659  0.5863 -0.3690  0.3809
 5437SOL    HW127773   4.702   4.145   6.718  0.0635  0.1196  0.5687
 5437SOL    HW227774   4.629   4.163   6.586 -1.4127 -0.5639  0.5101
 5438SOL     OW27775   1.235   2.855   2.726  0.5330  0.5206 -0.3580
 5438SOL    HW127776   1.174   2.833   2.797  3.8544 -0.1035  2.3423
 5438SOL    HW227777   1.171   2.897   2.668 -1.4849  0.4432  1.7875
 5439SOL     OW27778   4.168   0.813   2.994 -0.2311 -0.3385 -0.4304
 5439SOL    HW127779   4.085   0.804   2.947  0.0174  1.1228 -1.1525
 5439SOL    HW227780   4.220   0.737   2.968  3.8518  1.5745  2.1597
 5440SOL     OW27781   0.378   3.186   2.528  0.1871 -0.1407 -0.4565
 5440SOL    HW127782   0.440   3.253   2.500  0.4526 -0.3743 -0.4341
 5440SOL    HW227783   0.315   3.183   2.455  0.6605 -0.1802 -0.8632
 5441SOL     OW27784   1.072   1.507   0.427 -0.1522  0.4792  0.1970
 5441SOL    HW127785   1.100   1.473   0.342  0.4429  0.0014  0.5846
 5441SOL    HW227786   1.102   1.432   0.479  0.3892 -0.5510 -1.5879
 5442SOL     OW27787   3.724   2.421  14.037  0.3934  0.0692 -0.1707
 5442SOL    HW127788   3.656   2.365  14.075 -0.7768  0.8367 -1.1410
 5442SOL    HW227789   3.781   2.406  14.113 -1.6971 -0.3009  1.3300
 5443SOL     OW27790   1.531   3.833   6.710  0.4281 -0.4243 -0.2973
 5443SOL    HW127791   1.519   3.914   6.759 -0.1958 -0.5981 -0.1689
 5443SOL    HW227792   1.441   3.804   6.695  0.6905 -0.7378 -1.2559
 5444SOL     OW27793   1.070   3.429   2.627 -0.6233 -0.4541 -0.7318
 5444SOL    HW127794   1.125   3.499   2.663  0.3720 -1.0174 -1.1652
 5444SOL    HW227795   1.100   3.438   2.537 -0.2897  1.1202 -0.4743
 5445SOL     OW27796   1.323   2.424   6.555  0.1919 -0.0371 -0.3365
 5445SOL    HW127797   1.318   2.499   6.614  0.2582 -0.4588  0.2016
 5445SOL    HW227798   1.395   2.454   6.500 -0.4283 -0.1793 -1.2269
 5446SOL     OW27799   1.954   2.964   3.745  0.0086 -0.2098  0.7173
 5446SOL    HW127800   2.031   2.940   3.797 -0.8690 -1.2181  1.5373
 5446SOL    HW227801   1.940   2.895   3.681  0.9081 -0.0187  0.3112
 5447SOL     OW27802   3.278   4.142   7.083  0.1292  0.0341  0.2017
 5447SOL    HW127803   3.278   4.236   7.065 -1.8310 -0.1971 -0.9864
 5447SOL    HW227804   3.290   4.147   7.178  1.0984 -0.8292  0.1205
 5448SOL     OW27805   1.346   0.489  16.207  0.4008  0.9876 -0.5886
 5448SOL    HW127806   1.407   0.512  16.137  0.5360  0.0793 -0.7676
 5448SOL    HW227807   1.274   0.458  16.153 -1.7851  3.0201  1.1327
 5449SOL     OW27808   0.021   3.209  16.568 -0.3247  0.1702  0.6057
 5449SOL    HW127809   4.698   3.159  16.500  0.5851 -1.7250  1.4049
 5449SOL    HW227810   4.689   3.188  16.645  0.1396  1.5718  1.3309
 5450SOL     OW27811   4.393   4.038   9.016  0.2916  0.7965  0.3126
 5450SOL    HW127812   4.439   3.956   8.997 -0.7562  0.1188  0.7044
 5450SOL    HW227813   4.315   4.015   9.065 -0.2385 -0.2442 -0.9998
 5451SOL     OW27814   3.019   3.372   5.738  0.1192  0.0644 -0.0372
 5451SOL    HW127815   2.942   3.316   5.747  0.2479 -0.2485 -0.8785
 5451SOL    HW227816   3.033   3.346   5.647  0.2273 -0.4340  0.1226
 5452SOL     OW27817   4.437   1.780   8.257 -0.1125  0.0843  0.2887
 5452SOL    HW127818   4.423   1.687   8.276  0.3136  0.3831  2.1523
 5452SOL    HW227819   4.430   1.778   8.162  1.4426 -1.7810  0.2025
 5453SOL     OW27820   1.959   2.445   1.657  0.3187  0.1312  0.1605
 5453SOL    HW127821   2.025   2.378   1.675 -0.8073 -0.1629  3.2016
 5453SOL    HW227822   1.886   2.393   1.623 -0.2467  1.0711 -0.0465
 5454SOL     OW27823   3.919   0.825   5.899 -0.0927  0.8277  0.2606
 5454SOL    HW127824   3.938   0.919   5.895 -0.8804  0.9856  0.2869
 5454SOL    HW227825   3.997   0.788   5.857 -2.6989 -2.6809 -1.4194
 5455SOL     OW27826   3.256   3.915   4.273 -0.3837 -0.1972  0.6252
 5455SOL    HW127827   3.282   3.912   4.365  1.3219  0.8212  0.1707
 5455SOL    HW227828   3.170   3.873   4.271  0.2291 -1.4536  0.4995
 5456SOL     OW27829   0.369   2.087  17.561 -0.0875  0.3301 -0.1632
 5456SOL    HW127830   0.312   2.012  17.543  0.0215  0.2397 -0.1303
 5456SOL    HW227831   0.317   2.122  17.634  0.4817  1.3596 -0.2581
 5457SOL     OW27832   2.317   0.642   8.195  0.0173 -0.6959  0.2166
 5457SOL    HW127833   2.396   0.653   8.247  1.0650  2.8411 -2.0893
 5457SOL    HW227834   2.290   0.559   8.233  0.9781 -1.0507  0.1035
 5458SOL     OW27835   2.799   0.250   6.044 -0.3327 -0.2108  0.0580
 5458SOL    HW127836   2.711   0.249   6.007  0.5089  1.9443 -2.0113
 5458SOL    HW227837   2.831   0.162   6.024 -0.1560 -0.0974 -0.1628
 5459SOL     OW27838   4.397   0.065   3.229  0.4969  0.5678 -0.2204
 5459SOL    HW127839   4.366   0.117   3.303  0.0388 -2.2175  1.5453
 5459SOL    HW227840   4.340   0.106   3.164  2.5805  1.1659 -1.6807
 5460SOL     OW27841   1.115   0.427   3.531 -0.1035 -0.2557  0.5365
 5460SOL    HW127842   1.172   0.498   3.561 -1.5024  2.4136 -3.1966
 5460SOL    HW227843   1.031   0.469   3.549 -0.1147  0.0607 -0.2538
 5461SOL     OW27844   2.272   3.140   5.660 -0.2059 -0.0644 -0.2880
 5461SOL    HW127845   2.227   3.223   5.644 -1.5903 -1.2834 -2.7336
 5461SOL    HW227846   2.293   3.140   5.753 -0.3974 -4.5033 -0.2598
 5462SOL     OW27847   3.644   2.271  14.461  0.4260  0.5394  0.0669
 5462SOL    HW127848   3.602   2.195  14.501  1.3950 -1.1129 -2.1381
 5462SOL    HW227849   3.687   2.315  14.535 -0.8210  0.6891  0.7238
 5463SOL     OW27850   1.831   1.169   1.100 -0.7095 -0.0798  0.2085
 5463SOL    HW127851   1.823   1.095   1.040 -2.1680  0.6452 -0.4842
 5463SOL    HW227852   1.777   1.137   1.172 -0.0847 -1.9254 -0.1554
 5464SOL     OW27853   0.193   1.830   2.804  0.4842  0.0095  0.8697
 5464SOL    HW127854   0.167   1.782   2.883  1.1479 -1.3797  0.2554
 5464SOL    HW227855   0.286   1.807   2.796 -0.1367 -1.9971 -0.6011
 5465SOL     OW27856   2.275   2.252   0.806  0.0241 -0.1945 -0.1761
 5465SOL    HW127857   2.349   2.266   0.864  0.3814  0.1484 -0.7127
 5465SOL    HW227858   2.240   2.341   0.804  1.1648  0.1871 -2.4911
 5466SOL     OW27859   2.003   3.563   5.297 -0.1001 -0.0942 -0.2907
 5466SOL    HW127860   1.924   3.616   5.285 -0.0578 -0.0337 -0.3034
 5466SOL    HW227861   1.987   3.521   5.213 -1.6116 -1.8429  0.8612
 5467SOL     OW27862   2.779   2.256   3.555  0.0721 -0.0349  0.4946
 5467SOL    HW127863   2.786   2.161   3.544 -0.1395 -0.0269  0.2893
 5467SOL    HW227864   2.765   2.265   3.649 -0.5060 -1.1249  0.5125
 5468SOL     OW27865   2.430   1.686   7.167 -0.1582  0.1501  0.4140
 5468SOL    HW127866   2.472   1.653   7.246  1.4028 -0.8805 -0.8417
 5468SOL    HW227867   2.507   1.741   7.153  0.9133 -1.3435  0.3393
 5469SOL     OW27868   4.239   2.316   7.372  0.2071  0.2398  0.0052
 5469SOL    HW127869   4.159   2.302   7.321 -0.2005 -0.1008  0.7414
 5469SOL    HW227870   4.230   2.266   7.453  2.0004  1.6546  1.0829
 5470SOL     OW27871   3.772   2.984  10.280  0.3330 -0.0403  0.8211
 5470SOL    HW127872   3.743   2.893  10.278 -2.6625  0.8796  1.0305
 5470SOL    HW227873   3.711   3.030  10.222  0.3659 -2.3249 -1.0289
 5471SOL     OW27874   0.569   3.399   2.424 -0.2747  0.5261 -0.5728
 5471SOL    HW127875   0.646   3.451   2.447 -0.3953  0.8409 -0.8810
 5471SOL    HW227876   0.561   3.413   2.329 -0.6742  0.1968 -0.5883
 5472SOL     OW27877   3.651   0.500   7.533  0.5908  0.0750 -0.4429
 5472SOL    HW127878   3.670   0.412   7.501  0.3774 -0.2477  0.3144
 5472SOL    HW227879   3.710   0.513   7.607  0.8729  1.8621 -0.9689
 5473SOL     OW27880   4.473   3.013  16.151  0.2707 -0.3761  0.3127
 5473SOL    HW127881   4.455   3.099  16.190  2.0423  0.5549 -0.9131
 5473SOL    HW227882   4.381   2.993  16.130  0.1880  0.3513 -0.0203
 5474SOL     OW27883   4.305   3.464   8.401  0.4942 -0.5182  0.3462
 5474SOL    HW127884   4.232   3.436   8.345 -0.4460 -1.2469  1.9356
 5474SOL    HW227885   4.307   3.558   8.388 -2.0351 -0.2845  1.8103
 5475SOL     OW27886   1.951   4.044  15.313  0.5600 -0.0873  0.3411
 5475SOL    HW127887   1.889   4.059  15.242  0.7897 -0.5662  0.0373
 5475SOL    HW227888   1.958   3.948  15.310 -1.2783 -0.1718 -1.6318
 5476SOL     OW27889   1.647   2.928  10.459  0.3364 -0.3006 -0.0846
 5476SOL    HW127890   1.674   3.007  10.411  0.3727 -1.4996 -2.0518
 5476SOL    HW227891   1.727   2.912  10.507  1.0881  0.6265 -1.0285
 5477SOL     OW27892   4.223   1.181  15.634 -0.0262  0.2648  0.0666
 5477SOL    HW127893   4.225   1.270  15.670 -1.7923  0.4637 -0.3140
 5477SOL    HW227894   4.155   1.147  15.692  2.3435 -3.6442  0.5803
 5478SOL     OW27895   3.966   4.511   9.143  0.5485  0.2552  0.7393
 5478SOL    HW127896   3.920   4.468   9.215 -0.4563 -2.0793 -1.2738
 5478SOL    HW227897   3.918   4.592   9.128 -0.7070 -0.8163 -1.0013
 5479SOL     OW27898   0.723   3.775   8.210  0.1051  0.1756 -0.5719
 5479SOL    HW127899   0.752   3.700   8.159  0.2195 -0.6434  0.7029
 5479SOL    HW227900   0.663   3.727   8.267 -0.4765 -0.3047 -1.6071
 5480SOL     OW27901   3.951   4.181  13.917  0.5753 -0.0688  0.4363
 5480SOL    HW127902   3.949   4.186  14.013  4.2254 -0.7192  0.5311
 5480SOL    HW227903   3.860   4.198  13.891  0.3920  1.1587  1.8282
 5481SOL     OW27904   3.800   1.289   2.721  0.3355 -0.7500  0.0019
 5481SOL    HW127905   3.797   1.249   2.808 -0.0505 -1.3114 -0.2739
 5481SOL    HW227906   3.894   1.274   2.708 -0.2272 -2.7398 -1.7729
 5482SOL     OW27907   3.913   1.376  14.183 -0.0574 -0.3928 -0.1531
 5482SOL    HW127908   3.854   1.341  14.115  1.2746 -1.9697 -0.4958
 5482SOL    HW227909   3.973   1.426  14.127 -1.3687  0.9659 -0.3396
 5483SOL     OW27910   1.036   0.098   1.441  0.1351  0.1456  0.6289
 5483SOL    HW127911   0.996   0.160   1.502 -1.0132  0.3859 -0.3649
 5483SOL    HW227912   1.110   0.146   1.404  0.9475 -2.6109 -1.3005
 5484SOL     OW27913   1.988   1.265   8.909 -0.2238 -0.2486  0.2104
 5484SOL    HW127914   1.921   1.216   8.957 -1.0973  0.9341  0.1800
 5484SOL    HW227915   1.930   1.298   8.840  0.6483 -1.1943 -0.9695
 5485SOL     OW27916   2.341   0.003   5.475  0.6703  0.2354  0.4852
 5485SOL    HW127917   2.373   0.063   5.542  0.0451 -0.8880  1.7945
 5485SOL    HW227918   2.247   0.019   5.485  0.6439 -0.8511  1.9347
 5486SOL     OW27919   1.520   3.962   4.447  0.8903 -0.5156 -0.0770
 5486SOL    HW127920   1.601   3.925   4.481  0.7334  0.0441  0.9291
 5486SOL    HW227921   1.495   3.907   4.373 -0.8553 -0.1168  0.2122
 5487SOL     OW27922   1.909   0.155   3.649  0.1726 -0.2610 -0.7111
 5487SOL    HW127923   1.857   0.086   3.607 -1.5707  0.8228 -0.3491
 5487SOL    HW227924   1.929   0.111   3.732  0.0085  0.2327 -0.4105
 5488SOL     OW27925   2.660   1.407  14.715  0.5161 -0.4401 -0.2726
 5488SOL    HW127926   2.753   1.408  14.694  0.3373 -0.3560 -1.0510
 5488SOL    HW227927   2.625   1.449  14.637 -0.0808  1.2176  0.8629
 5489SOL     OW27928   3.948   3.178   6.008 -0.2710 -0.5269  0.1491
 5489SOL    HW127929   4.010   3.192   6.080  0.9820  0.7360 -1.1998
 5489SOL    HW227930   3.994   3.211   5.931 -1.8729 -0.8203 -0.9263
 5490SOL     OW27931   1.848   0.232   1.013 -0.3906 -0.1201 -0.0696
 5490SOL    HW127932   1.754   0.215   0.998 -0.5341  3.1187 -2.7412
 5490SOL    HW227933   1.854   0.226   1.108 -1.9828 -0.3400  0.0288
 5491SOL     OW27934   2.357   0.446   5.345 -0.4759  0.3347  0.2231
 5491SOL    HW127935   2.389   0.361   5.314 -1.3250 -0.0329  0.3371
 5491SOL    HW227936   2.294   0.410   5.407  0.4727  1.6563  1.9535
 5492SOL     OW27937   4.043   4.111  11.480 -0.5121  0.3654  0.4971
 5492SOL    HW127938   4.073   4.170  11.411  1.8695  0.8440  1.9152
 5492SOL    HW227939   3.978   4.173  11.514  0.4515 -0.1577  3.3418
 5493SOL     OW27940   2.550   1.470   9.225 -0.5048 -0.2987 -0.6688
 5493SOL    HW127941   2.633   1.461   9.272 -0.7581 -2.0560 -0.5926
 5493SOL    HW227942   2.480   1.436   9.280 -1.1711 -0.3473 -1.5417
 5494SOL     OW27943   1.779   3.640  11.468  0.8124  0.2853  0.7064
 5494SOL    HW127944   1.780   3.553  11.508  1.2890 -0.1145 -0.1740
 5494SOL    HW227945   1.689   3.659  11.442  1.2024  0.3734 -0.5917
 5495SOL     OW27946   3.094   2.908   6.472  0.3839  0.8639 -0.0036
 5495SOL    HW127947   3.118   2.830   6.421  1.3774  0.8099  0.5416
 5495SOL    HW227948   3.042   2.876   6.545  0.7589 -0.6428 -0.4010
 5496SOL     OW27949   3.964   1.283   2.123 -0.5136  0.1085  0.4084
 5496SOL    HW127950   4.015   1.212   2.163  0.7373 -0.1821 -1.6882
 5496SOL    HW227951   3.891   1.298   2.183  0.3492  0.5180  1.3675
 5497SOL     OW27952   3.794   1.903   4.569  0.3495 -0.0773 -0.3213
 5497SOL    HW127953   3.748   1.987   4.570  1.6358  0.6308 -0.1621
 5497SOL    HW227954   3.887   1.914   4.590  0.1652  1.1528 -0.1721
 5498SOL     OW27955   1.827   3.544   2.854 -0.0602  0.1220  0.9637
 5498SOL    HW127956   1.824   3.623   2.800  1.5659 -0.0562  0.6075
 5498SOL    HW227957   1.739   3.511   2.840  0.4369 -0.4578 -0.7452
 5499SOL     OW27958   4.225   0.422   6.080 -0.4876 -0.4959 -0.2801
 5499SOL    HW127959   4.140   0.462   6.098 -1.9129 -2.9378 -1.6106
 5499SOL    HW227960   4.202   0.405   5.988 -0.7706 -0.8747 -0.1394
 5500SOL     OW27961   1.621   1.949  12.021  0.0095 -0.1007 -0.2825
 5500SOL    HW127962   1.551   1.970  12.083  1.8761  0.7876  1.5262
 5500SOL    HW227963   1.566   1.891  11.969  0.8035 -1.0661 -0.0489
 5501SOL     OW27964   0.248   3.243   8.513 -0.0780  0.3010  0.7362
 5501SOL    HW127965   0.192   3.263   8.438 -0.8245  0.7285  1.4169
 5501SOL    HW227966   0.211   3.157   8.531  0.9096 -0.4206 -0.6403
 5502SOL     OW27967   3.052   2.138   6.536 -0.1809  0.5395  0.0740
 5502SOL    HW127968   3.027   2.220   6.579  1.8290  0.8716  0.6411
 5502SOL    HW227969   2.967   2.104   6.508 -0.0407 -0.7436  1.2134
 5503SOL     OW27970   2.557   0.319   5.931  0.2995  0.4606 -0.5604
 5503SOL    HW127971   2.495   0.379   5.974 -0.5188 -0.4758 -0.4361
 5503SOL    HW227972   2.588   0.374   5.859  0.9805 -0.1541 -0.7353
 5504SOL     OW27973   4.305   4.662   4.944 -0.2598  0.4654 -0.2175
 5504SOL    HW127974   4.310   4.577   4.902  0.0755  1.7749 -2.8467
 5504SOL    HW227975   4.237   4.643   5.009  1.3361 -0.1400  1.2555
 5505SOL     OW27976   1.170   1.963   4.018 -0.2870  0.4943  0.4465
 5505SOL    HW127977   1.252   1.947   3.971 -0.7397  0.4935 -0.3269
 5505SOL    HW227978   1.108   1.912   3.966 -0.8046  1.4989  0.0871
 5506SOL     OW27979   1.568   0.293   8.328 -0.0727  0.8185 -0.4838
 5506SOL    HW127980   1.507   0.219   8.326  1.2388 -0.2740 -0.5027
 5506SOL    HW227981   1.643   0.259   8.377 -0.0353  1.2128 -0.2668
 5507SOL     OW27982   0.133   3.383   0.444 -0.3546 -0.2057  0.1692
 5507SOL    HW127983   0.067   3.452   0.454  1.0520  0.8666  1.9687
 5507SOL    HW227984   0.179   3.394   0.360 -2.4514  1.6056 -0.7364
 5508SOL     OW27985   3.154   4.344   7.622  0.3953 -0.7257  0.0062
 5508SOL    HW127986   3.117   4.430   7.605 -2.5229 -1.9034  0.3804
 5508SOL    HW227987   3.107   4.297   7.553 -0.1644  1.6801 -1.2349
 5509SOL     OW27988   4.371   2.279   5.313  0.3840 -0.0529 -0.0112
 5509SOL    HW127989   4.318   2.220   5.260 -1.4269  0.8897  0.7460
 5509SOL    HW227990   4.450   2.289   5.261  0.3023  0.6798  0.0015
 5510SOL     OW27991   1.506   1.714  11.885 -0.0627  0.1719  0.2789
 5510SOL    HW127992   1.547   1.638  11.843 -0.4223 -0.1380  0.4918
 5510SOL    HW227993   1.516   1.687  11.976 -0.1432 -1.2655 -0.1488
 5511SOL     OW27994   2.518   0.549   1.400 -0.2625  0.1597  0.3456
 5511SOL    HW127995   2.517   0.499   1.319  2.7739 -0.3877  0.6538
 5511SOL    HW227996   2.425   0.549   1.423 -0.5979  0.8077 -0.9955
 5512SOL     OW27997   4.412   0.473   8.264 -0.2795 -0.2423  0.0320
 5512SOL    HW127998   4.346   0.485   8.333  2.2499  1.6449  2.1496
 5512SOL    HW227999   4.488   0.514   8.304  0.0167 -0.7951  0.0260
 5513SOL     OW28000   0.319   1.594  15.288  0.5675  0.3089 -0.3892
 5513SOL    HW128001   0.282   1.544  15.216 -2.3741  0.2472  1.1582
 5513SOL    HW228002   0.346   1.667  15.233  0.8032  0.1854 -0.4369
 5514SOL     OW28003   4.709   0.724   5.680 -0.2257 -0.3754 -0.7820
 5514SOL    HW128004   4.631   0.697   5.632 -1.3440 -0.2062  0.9337
 5514SOL    HW228005   4.673   0.734   5.768 -0.0609 -0.3337 -0.7193
 5515SOL     OW28006   3.924   3.021  12.133  0.1892  0.5687  0.0178
 5515SOL    HW128007   3.899   3.026  12.225 -3.1388 -0.2184 -0.8348
 5515SOL    HW228008   4.014   2.991  12.142 -0.8526 -1.9656  1.9532
 5516SOL     OW28009   4.592   3.252   1.137 -0.0609 -0.2624 -0.0803
 5516SOL    HW128010   4.687   3.249   1.130  0.0801  0.3979  1.4721
 5516SOL    HW228011   4.566   3.280   1.049 -1.2087 -0.6573  0.1265
 5517SOL     OW28012   1.139   1.245   8.160  0.4306 -0.7649  0.2777
 5517SOL    HW128013   1.146   1.167   8.215 -0.8055 -0.2054  1.2216
 5517SOL    HW228014   1.046   1.249   8.137  1.3417  0.5257 -3.0836
 5518SOL     OW28015   0.773   2.420  12.115  0.3073  0.0603 -0.4273
 5518SOL    HW128016   0.714   2.479  12.068 -0.4437  0.0184  0.4564
 5518SOL    HW228017   0.861   2.455  12.102  0.4883  0.6996  2.6402
 5519SOL     OW28018   0.069   1.291  15.222 -0.2364 -0.0607 -0.1366
 5519SOL    HW128019   4.715   1.337  15.257  0.0054 -1.2105  1.9233
 5519SOL    HW228020   0.096   1.344  15.147  0.2726  1.6779  1.2912
 5520SOL     OW28021   0.126   1.487  15.456  0.7292  0.6260  0.1541
 5520SOL    HW128022   0.155   1.563  15.405  0.4908  0.1209 -0.7347
 5520SOL    HW228023   0.058   1.445  15.403 -0.0516  0.8127  0.9978
 5521SOL     OW28024   2.614   2.789  13.985 -0.2770  0.3812  0.1544
 5521SOL    HW128025   2.699   2.775  13.943 -0.5060 -0.7102  0.0735
 5521SOL    HW228026   2.564   2.752  13.912 -1.5323 -3.6895  3.1016
 5522SOL     OW28027   0.741   2.576  13.751  0.1932 -0.2157 -0.1451
 5522SOL    HW128028   0.835   2.560  13.761  0.8050  2.9692 -0.9559
 5522SOL    HW228029   0.743   2.637  13.677 -1.1460  0.3973  0.3250
 5523SOL     OW28030   4.032   0.380   4.353  0.7777 -0.4596 -0.5913
 5523SOL    HW128031   4.113   0.335   4.327  1.5139 -0.7611  2.1400
 5523SOL    HW228032   4.050   0.469   4.322  1.8211 -0.9368 -1.3650
 5524SOL     OW28033   1.740   3.999   6.604  0.7023  0.4407  0.2787
 5524SOL    HW128034   1.678   4.067   6.630 -2.5007 -2.5656  0.6896
 5524SOL    HW228035   1.680   3.924   6.613  0.1025  1.0534  1.3610
 5525SOL     OW28036   3.041   1.740   5.215 -0.3204 -0.1488  1.0266
 5525SOL    HW128037   3.028   1.647   5.231 -1.1719  0.0293  1.3750
 5525SOL    HW228038   3.136   1.745   5.205 -0.4631 -0.8438 -0.6785
 5526SOL     OW28039   0.607   2.882  14.251 -0.3598  0.6547 -0.3025
 5526SOL    HW128040   0.628   2.940  14.178  0.3041 -0.6867 -1.1919
 5526SOL    HW228041   0.526   2.834  14.235  0.7416 -1.3658  0.0635
 5527SOL     OW28042   1.447   1.920   2.159 -0.2810  0.3111 -0.9674
 5527SOL    HW128043   1.403   1.930   2.074 -1.9902 -3.3576 -0.4731
 5527SOL    HW228044   1.445   2.011   2.189  0.2072 -0.9398  2.7638
 5528SOL     OW28045   3.120   2.549   4.803 -0.1632 -0.4357 -0.7146
 5528SOL    HW128046   3.132   2.572   4.711 -1.2155 -1.2324 -1.0524
 5528SOL    HW228047   3.147   2.631   4.845  2.0718 -2.4898  1.7820
 5529SOL     OW28048   1.510   0.366   7.045  0.3426 -0.2824  0.1658
 5529SOL    HW128049   1.592   0.361   7.095 -0.7780  0.8768  2.0943
 5529SOL    HW228050   1.519   0.435   6.978 -1.1630  1.0057  1.3010
 5530SOL     OW28051   1.993   0.835   4.631  0.4446 -0.3190 -0.6668
 5530SOL    HW128052   1.933   0.825   4.705  0.2498  0.2886 -0.7420
 5530SOL    HW228053   1.937   0.813   4.557  2.2600 -2.0490 -1.4952
 5531SOL     OW28054   1.301   0.081   7.329 -0.1350  0.5230 -0.2652
 5531SOL    HW128055   1.355   0.013   7.370 -0.1453  0.1770 -0.8256
 5531SOL    HW228056   1.294   0.047   7.240 -0.0846 -0.3101  0.0425
 5532SOL     OW28057   0.077   2.414   2.941  0.1218 -0.4366 -0.2903
 5532SOL    HW128058   0.076   2.385   2.850  0.5939  1.8297 -1.0058
 5532SOL    HW228059   0.165   2.389   2.969 -0.8387 -2.3258  1.1433
 5533SOL     OW28060   4.709   4.014   2.905 -0.0240  0.2739  0.4479
 5533SOL    HW128061   4.664   4.069   2.969 -4.4644 -3.9251  0.9391
 5533SOL    HW228062   4.653   4.028   2.829  0.2133 -1.5547 -0.0750
 5534SOL     OW28063   0.356   1.442   5.388  0.2569  0.1471  0.1066
 5534SOL    HW128064   0.405   1.519   5.358 -0.3138  0.1059 -0.9525
 5534SOL    HW228065   0.429   1.385   5.412  0.4879  0.7064  0.7119
 5535SOL     OW28066   0.559   4.290  15.826  0.1387  0.1505 -0.0647
 5535SOL    HW128067   0.559   4.287  15.730 -0.7888 -0.6728 -0.0307
 5535SOL    HW228068   0.561   4.386  15.833 -0.3606  0.1979 -0.6202
 5536SOL     OW28069   4.047   3.487   8.944  0.2839 -0.1416  0.1534
 5536SOL    HW128070   4.014   3.508   8.856 -0.5611  1.9703  0.9920
 5536SOL    HW228071   4.015   3.552   9.006  0.2312  2.0979 -2.2308
 5537SOL     OW28072   3.826   2.446  10.221  0.4634 -0.3753  0.5917
 5537SOL    HW128073   3.737   2.421  10.198  1.0165  0.7039 -2.7629
 5537SOL    HW228074   3.875   2.370  10.189 -1.4554 -0.3924 -2.3355
 5538SOL     OW28075   3.131   1.548   8.236 -0.5495 -0.6215 -0.1472
 5538SOL    HW128076   3.156   1.509   8.320  0.9849 -1.2831 -0.9225
 5538SOL    HW228077   3.131   1.467   8.185 -1.4950 -1.1445  0.6631
 5539SOL     OW28078   2.539   2.726  12.532  0.1966 -0.6853 -0.7261
 5539SOL    HW128079   2.496   2.652  12.576 -0.4669 -1.2847 -2.3769
 5539SOL    HW228080   2.613   2.736  12.591  1.0400 -1.7044 -1.6000
 5540SOL     OW28081   3.630   3.260   6.811 -0.2890  0.7034 -1.1102
 5540SOL    HW128082   3.722   3.285   6.802  0.6912 -1.7664  2.1625
 5540SOL    HW228083   3.616   3.243   6.718 -1.7332 -1.6957 -0.4442
 5541SOL     OW28084   2.740   4.100  12.638 -0.1368  0.0890  0.8014
 5541SOL    HW128085   2.680   4.050  12.582 -0.4494  0.0732  1.1558
 5541SOL    HW228086   2.793   4.147  12.573 -1.2872  0.7016  0.3131
 5542SOL     OW28087   1.030   0.436   3.956 -0.5586 -0.9937  0.3670
 5542SOL    HW128088   0.946   0.408   3.918 -0.4249 -0.3108 -0.4385
 5542SOL    HW228089   1.022   0.529   3.937 -3.5149 -1.1167  0.9874
 5543SOL     OW28090   4.380   2.759   3.526 -0.3600 -0.0794 -0.0461
 5543SOL    HW128091   4.452   2.760   3.463 -1.2139 -1.9548 -1.0358
 5543SOL    HW228092   4.316   2.815   3.482  1.6426  2.0750 -0.2395
 5544SOL     OW28093   3.675   4.060   5.849 -0.3831  0.0758 -0.3756
 5544SOL    HW128094   3.706   4.150   5.857 -0.0048 -0.1263  0.4215
 5544SOL    HW228095   3.748   4.013   5.809  0.5465 -0.6930  2.2117
 5545SOL     OW28096   0.463   0.368   4.715 -0.6762  0.8290 -0.2520
 5545SOL    HW128097   0.460   0.375   4.811 -0.4132  1.6560 -0.3078
 5545SOL    HW228098   0.379   0.328   4.693 -1.1797  1.1599  1.0618
 5546SOL     OW28099   0.938   0.716   6.906 -0.1675 -0.4898  0.1366
 5546SOL    HW128100   0.930   0.804   6.869 -0.5380 -0.3349  0.5771
 5546SOL    HW228101   0.847   0.690   6.912  0.8210 -3.3989  2.8376
 5547SOL     OW28102   1.763   4.469   2.596 -0.0343 -0.1804  0.4314
 5547SOL    HW128103   1.733   4.550   2.555 -2.0180 -0.2482  1.7583
 5547SOL    HW228104   1.688   4.438   2.647 -1.4621 -1.2885 -2.3041
 5548SOL     OW28105   0.676   4.409   0.620 -0.5052 -0.3625  0.2183
 5548SOL    HW128106   0.733   4.402   0.544 -1.3445  0.4150 -0.4854
 5548SOL    HW228107   0.735   4.415   0.695  0.1063 -1.1623 -0.1994
 5549SOL     OW28108   0.214   1.592   4.330  0.6359 -0.3225  0.0335
 5549SOL    HW128109   0.290   1.538   4.311  1.0951  0.6719 -0.9991
 5549SOL    HW228110   0.174   1.587   4.243  0.2769  0.5966  0.1364
 5550SOL     OW28111   1.817   3.383   6.964 -0.4263  0.4101  0.2171
 5550SOL    HW128112   1.860   3.421   6.888  1.6139 -0.0495  1.1471
 5550SOL    HW228113   1.874   3.306   6.973 -2.3179 -0.8159  1.7525
 5551SOL     OW28114   2.920   1.971   9.460 -0.7673  0.0735  1.0145
 5551SOL    HW128115   2.849   2.029   9.488  3.0271  3.9103  2.6707
 5551SOL    HW228116   2.870   1.902   9.417 -2.3224  1.3605  0.7649
 5552SOL     OW28117   4.311   0.343   2.792 -0.0748 -0.2873 -0.2832
 5552SOL    HW128118   4.321   0.411   2.726  3.6344  1.9550  2.5477
 5552SOL    HW228119   4.257   0.379   2.862  0.6939 -1.1821  0.7752
 5553SOL     OW28120   2.915   4.259  14.895  0.1254 -0.0808  0.4102
 5553SOL    HW128121   2.848   4.320  14.866 -0.3269 -0.6511  0.2673
 5553SOL    HW228122   2.972   4.248  14.819  1.0139 -3.1317  1.5258
 5554SOL     OW28123   0.782   2.223   8.109 -0.0688 -0.5187 -0.1084
 5554SOL    HW128124   0.760   2.261   8.023 -1.6461 -0.5032  0.3009
 5554SOL    HW228125   0.700   2.239   8.157  0.2256  0.0828  0.1901
 5555SOL     OW28126   4.364   3.466  11.539  0.5413  0.3222  0.0588
 5555SOL    HW128127   4.283   3.511  11.513 -0.8011 -1.1194  1.7057
 5555SOL    HW228128   4.377   3.409  11.463 -1.1233  0.7180 -0.5359
 5556SOL     OW28129   4.021   4.130   6.711  0.3592 -0.4598  0.6166
 5556SOL    HW128130   3.999   4.068   6.779  0.1894 -0.8980  0.1612
 5556SOL    HW228131   4.081   4.184   6.763 -1.0541  0.4320  1.3028
 5557SOL     OW28132   0.337   1.054   6.709 -0.1530 -0.2430  0.3222
 5557SOL    HW128133   0.242   1.053   6.721 -0.1946  3.4566  0.1233
 5557SOL    HW228134   0.353   1.057   6.615 -1.1300  1.1218  0.2048
 5558SOL     OW28135   0.004   1.639   2.211  0.3244  0.3865 -0.2894
 5558SOL    HW128136   4.678   1.719   2.233 -1.9586 -1.1981  0.5025
 5558SOL    HW228137   0.078   1.633   2.271  1.1033  1.1431 -1.1858
 5559SOL     OW28138   2.104   0.831   7.764 -0.0506  0.4693 -0.0067
 5559SOL    HW128139   2.149   0.870   7.839  0.5701  0.3094 -0.2899
 5559SOL    HW228140   2.115   0.739   7.789  1.2902  0.8843  0.9633
 5560SOL     OW28141   3.324   3.903   4.830 -0.4435 -0.0080  0.3506
 5560SOL    HW128142   3.346   3.978   4.775 -3.0091  1.2061  0.9695
 5560SOL    HW228143   3.289   3.836   4.772  1.4140 -0.8904  0.2646
 5561SOL     OW28144   1.315   1.704   9.148  0.3780  0.3862  0.7423
 5561SOL    HW128145   1.246   1.770   9.147  0.4638  0.4757  0.6910
 5561SOL    HW228146   1.298   1.655   9.228 -2.9864  1.6238  0.7790
 5562SOL     OW28147   2.739   3.500   2.544 -0.4489 -0.1124 -0.1304
 5562SOL    HW128148   2.814   3.459   2.587 -0.5655  0.0083  0.1900
 5562SOL    HW228149   2.785   3.580   2.519 -1.0745  0.1890 -0.3155
 5563SOL     OW28150   0.503   3.012  15.250  0.1488 -0.1906 -0.0833
 5563SOL    HW128151   0.506   3.101  15.286 -1.6804 -0.5908  1.0768
 5563SOL    HW228152   0.408   2.999  15.259 -0.2381  1.3503 -1.8044
 5564SOL     OW28153   2.249   3.359   3.240 -0.1199  0.2066 -1.1235
 5564SOL    HW128154   2.187   3.287   3.228  0.8561 -0.8739  0.3129
 5564SOL    HW228155   2.328   3.325   3.198 -0.9949 -1.7051 -1.2031
 5565SOL     OW28156   4.541   0.650   4.041 -0.2286 -1.2878  0.3560
 5565SOL    HW128157   4.610   0.682   4.100 -0.0951  1.7971 -1.4698
 5565SOL    HW228158   4.547   0.721   3.977 -2.1003 -1.3543  0.1269
 5566SOL     OW28159   2.363   1.717   8.707 -0.4535  0.5882  0.3774
 5566SOL    HW128160   2.359   1.639   8.762  2.2046  0.8358  0.9471
 5566SOL    HW228161   2.271   1.742   8.702 -0.6822 -1.0282 -3.3591
 5567SOL     OW28162   0.369   2.805  10.651  0.0025  0.5969  0.3417
 5567SOL    HW128163   0.316   2.791  10.730 -1.6075 -1.0499 -1.0239
 5567SOL    HW228164   0.396   2.716  10.630 -2.8517  0.3996 -2.4044
 5568SOL     OW28165   4.436   4.060   3.677  0.1618  0.0554  0.0807
 5568SOL    HW128166   4.490   4.010   3.616  0.5528  0.5965 -0.0084
 5568SOL    HW228167   4.508   4.096   3.728  0.4216 -0.0412 -0.2226
 5569SOL     OW28168   1.516   2.858   2.626 -0.1441  0.7037  0.1089
 5569SOL    HW128169   1.493   2.887   2.538 -0.6196  0.0164  0.0106
 5569SOL    HW228170   1.431   2.852   2.668  0.3404  2.1726  1.2925
 5570SOL     OW28171   2.551   4.216   3.253 -0.3438  0.3874  0.8007
 5570SOL    HW128172   2.477   4.177   3.207  0.7020  0.2077 -0.7483
 5570SOL    HW228173   2.548   4.310   3.235 -0.3253  0.0512 -0.9881
 5571SOL     OW28174   3.247   3.469   6.396 -0.3246  0.3221  0.2920
 5571SOL    HW128175   3.205   3.527   6.459  0.5547  1.0371  0.2133
 5571SOL    HW228176   3.336   3.503   6.398  0.7402 -2.5050  0.8359
 5572SOL     OW28177   1.700   0.091  16.809  0.0481  0.0800  0.7977
 5572SOL    HW128178   1.650   0.014  16.838 -1.0221 -0.5203 -2.6075
 5572SOL    HW228179   1.655   0.170  16.841 -1.0587 -0.0390 -0.4596
 5573SOL     OW28180   3.066   2.333  13.902 -0.6916  0.5976 -0.0421
 5573SOL    HW128181   3.137   2.379  13.858 -1.0548  0.8601 -0.3594
 5573SOL    HW228182   3.080   2.355  13.994 -1.0237 -1.0847  0.4025
 5574SOL     OW28183   0.710   1.406  12.586  0.3303  0.2351  0.1625
 5574SOL    HW128184   0.724   1.455  12.668  1.0002  2.7266 -1.4322
 5574SOL    HW228185   0.615   1.408  12.591  0.3019 -0.6733 -0.0508
 5575SOL     OW28186   2.358   3.770   2.049 -0.0497 -0.1942  0.3314
 5575SOL    HW128187   2.288   3.734   2.103  0.0854  0.7249  1.1249
 5575SOL    HW228188   2.408   3.689   2.046  1.2320  0.5870  0.4506
 5576SOL     OW28189   4.306   2.719   3.867 -0.2527 -0.2291  0.0852
 5576SOL    HW128190   4.221   2.681   3.886  0.5942 -3.1096 -1.9680
 5576SOL    HW228191   4.355   2.647   3.828  2.0629  1.0842  0.5624
 5577SOL     OW28192   4.500   1.304   1.558 -0.0271  0.2885  0.6424
 5577SOL    HW128193   4.570   1.276   1.617 -0.3823 -0.4682  0.7067
 5577SOL    HW228194   4.424   1.299   1.616 -0.2636  0.6701  0.3644
 5578SOL     OW28195   1.264   1.227   2.909 -0.6027  0.5658  0.2143
 5578SOL    HW128196   1.341   1.174   2.888 -0.9321 -0.2285  1.0490
 5578SOL    HW228197   1.314   1.286   2.966  0.9104  1.4195 -1.9831
 5579SOL     OW28198   1.983   2.514   7.946 -0.2472 -0.2460  0.5911
 5579SOL    HW128199   1.924   2.438   7.947  0.2117 -0.6068  0.1373
 5579SOL    HW228200   2.058   2.467   7.982  0.3910  0.9700  0.8258
 5580SOL     OW28201   1.069   3.916  13.019 -0.1917  0.0389  0.1006
 5580SOL    HW128202   1.120   3.845  12.980  0.3176 -0.2555  1.2801
 5580SOL    HW228203   1.021   3.869  13.088 -0.3151  0.4490  0.2953
 5581SOL     OW28204   1.832   3.125  16.008 -0.0516  0.5533 -0.0053
 5581SOL    HW128205   1.749   3.100  16.048  0.8124 -1.5997  0.4063
 5581SOL    HW228206   1.821   3.220  15.994 -0.1242  0.6105  0.4502
 5582SOL     OW28207   0.688   2.610  10.404 -0.0488 -0.4588 -0.4234
 5582SOL    HW128208   0.720   2.638  10.490  2.8007  0.7397 -1.8772
 5582SOL    HW228209   0.725   2.522  10.397 -0.3478 -0.6219  0.0696
 5583SOL     OW28210   2.253   3.025   6.188  0.0003 -0.5698  0.0603
 5583SOL    HW128211   2.240   3.105   6.239  0.5896 -2.4522  3.1770
 5583SOL    HW228212   2.333   3.003   6.237  0.6481  2.5073  0.3920
 5584SOL     OW28213   0.717   4.068   4.388  0.3898  0.3816 -0.7874
 5584SOL    HW128214   0.718   4.000   4.456 -0.3285 -1.5733 -2.7482
 5584SOL    HW228215   0.764   4.025   4.317  0.2648  0.1343 -0.7198
 5585SOL     OW28216   3.055   1.237   2.222  0.3500  0.1054 -0.3235
 5585SOL    HW128217   3.127   1.295   2.198  1.6065 -0.4029  2.2180
 5585SOL    HW228218   2.996   1.239   2.147  0.5959 -0.2082 -0.5212
 5586SOL     OW28219   1.038   3.650   8.023 -0.1704  0.1225 -0.0227
 5586SOL    HW128220   1.129   3.651   7.992 -0.0689  1.6763  0.3131
 5586SOL    HW228221   1.054   3.685   8.110  2.1338  0.9847 -0.7927
 5587SOL     OW28222   1.499   4.715   3.707  0.6705 -0.0447  0.6948
 5587SOL    HW128223   1.490   0.022   3.617 -1.5538 -0.4729  0.7726
 5587SOL    HW228224   1.479   4.621   3.709 -0.9414  0.2304 -2.3229
 5588SOL     OW28225   3.967   1.784   5.317  0.3104 -0.4862 -0.3086
 5588SOL    HW128226   3.875   1.758   5.323  0.1766  0.1561  0.4670
 5588SOL    HW228227   4.002   1.695   5.310  1.3648  0.0042 -1.2251
 5589SOL     OW28228   4.351   2.903   4.082 -0.1486  0.1636  0.4248
 5589SOL    HW128229   4.362   2.850   4.003  0.3073  0.5092  0.2587
 5589SOL    HW228230   4.256   2.919   4.082 -0.3982 -1.3485  0.7263
 5590SOL     OW28231   0.372   2.148  14.179  0.2753  0.0035 -0.3882
 5590SOL    HW128232   0.339   2.085  14.243 -0.2482  0.0078 -0.6527
 5590SOL    HW228233   0.301   2.149  14.116  1.7177  2.0117 -1.9741
 5591SOL     OW28234   4.709   1.323  14.920 -0.3468 -0.4673 -0.6762
 5591SOL    HW128235   4.668   1.243  14.887  0.9839 -1.9602  1.3679
 5591SOL    HW228236   0.063   1.326  14.861  0.7994 -1.0847  0.7849
 5592SOL     OW28237   3.096   0.131   9.068 -0.7214  0.0914  0.2155
 5592SOL    HW128238   3.190   0.140   9.057 -0.6184  0.3109  1.2235
 5592SOL    HW228239   3.083   0.059   9.130  1.9250  0.1338  0.8238
 5593SOL     OW28240   4.681   2.956   3.252  0.1749  0.3131 -0.2562
 5593SOL    HW128241   0.016   3.007   3.194  1.2236 -0.7295 -0.1510
 5593SOL    HW228242   4.613   2.912   3.201  0.1477  1.0678 -0.8748
 5594SOL     OW28243   3.973   4.703  17.027 -0.2822 -0.4895 -0.0940
 5594SOL    HW128244   4.004   4.713  16.938  1.1916 -0.3172  0.4406
 5594SOL    HW228245   3.915   4.627  17.030 -1.6447  0.5289 -0.6545
 5595SOL     OW28246   2.827   2.260  11.707 -0.1704 -0.2632  0.1423
 5595SOL    HW128247   2.740   2.300  11.703  0.8351  1.6809 -2.3230
 5595SOL    HW228248   2.863   2.293  11.624 -0.2464 -1.2311 -0.2701
 5596SOL     OW28249   4.133   4.630   2.932  0.9152  0.6541  0.0812
 5596SOL    HW128250   4.095   4.644   2.846  0.7764  1.1486  0.2263
 5596SOL    HW228251   4.208   4.689   2.925  0.7821  0.8768  0.4998
 5597SOL     OW28252   1.864   1.478   8.129 -0.1299  0.0056  0.3732
 5597SOL    HW128253   1.792   1.418   8.106  0.0402  0.5984 -1.7175
 5597SOL    HW228254   1.822   1.533   8.194 -0.1485  0.4736 -0.0342
 5598SOL     OW28255   0.206   2.916  17.182 -0.2394 -0.3394  0.3044
 5598SOL    HW128256   0.259   2.975  17.129 -1.9824 -1.2931 -2.4970
 5598SOL    HW228257   0.234   2.832  17.144  1.0392  0.7695 -1.1588
 5599SOL     OW28258   2.769   3.400   6.268 -1.1972 -0.3258 -0.1536
 5599SOL    HW128259   2.693   3.362   6.311 -0.8415  0.0460  0.8181
 5599SOL    HW228260   2.825   3.424   6.342 -1.5684 -0.4890  0.1792
 5600SOL     OW28261   2.844   3.128   3.073 -0.1084  0.7224 -0.2481
 5600SOL    HW128262   2.927   3.168   3.048  0.2068  0.5903  0.5823
 5600SOL    HW228263   2.799   3.144   2.990  0.0371  1.0391 -0.2654
 5601SOL     OW28264   2.705   0.848   4.622 -1.1494 -0.3426  0.1221
 5601SOL    HW128265   2.671   0.821   4.707 -1.9406 -2.9270 -1.0386
 5601SOL    HW228266   2.751   0.928   4.648 -1.8983 -0.2429  1.1740
 5602SOL     OW28267   3.899   4.421   0.533 -0.2839 -0.3605 -0.0777
 5602SOL    HW128268   3.868   4.372   0.457 -1.0143 -0.1319  0.0741
 5602SOL    HW228269   3.979   4.370   0.545 -1.1960 -1.8550 -0.3575
 5603SOL     OW28270   2.322   3.395   9.162  0.6951  0.2312  0.0186
 5603SOL    HW128271   2.317   3.456   9.235 -2.5849 -1.6391  1.3783
 5603SOL    HW228272   2.257   3.441   9.109  1.1937  0.1427 -0.6612
 5604SOL     OW28273   3.471   0.038   7.227  0.5314 -0.1625 -0.0927
 5604SOL    HW128274   3.440   0.083   7.306 -0.8820  0.2438 -0.8679
 5604SOL    HW228275   3.556   0.011   7.261  0.7536 -0.3521 -0.7966
 5605SOL     OW28276   3.969   0.780  17.660  0.1923  0.5051  0.0118
 5605SOL    HW128277   4.054   0.816  17.684 -0.6613  2.0521  0.6546
 5605SOL    HW228278   3.977   0.689   0.001  0.3583  0.4371 -0.2256
 5606SOL     OW28279   1.249   3.967  12.785  0.0492  0.3148 -0.6733
 5606SOL    HW128280   1.266   3.978  12.878 -3.0933  2.4067 -0.3492
 5606SOL    HW228281   1.277   4.051  12.747 -2.4359  0.8369 -1.3885
 5607SOL     OW28282   2.735   0.766   9.041 -0.1962 -0.3159 -0.1010
 5607SOL    HW128283   2.795   0.814   8.985 -2.6887  1.1364 -1.5307
 5607SOL    HW228284   2.672   0.833   9.067 -0.4161 -0.4379 -0.3211
 5608SOL     OW28285   4.346   2.209  10.744  0.1970  0.2643  0.0672
 5608SOL    HW128286   4.316   2.238  10.657 -1.2556 -4.1991 -0.9204
 5608SOL    HW228287   4.274   2.226  10.805  1.4027  1.1945  1.2181
 5609SOL     OW28288   0.216   2.447  16.219 -1.0737 -0.1345  0.2787
 5609SOL    HW128289   0.182   2.367  16.259 -1.4657 -0.4361 -0.6636
 5609SOL    HW228290   0.278   2.419  16.151  0.7052  4.3227  0.0527
 5610SOL     OW28291   0.727   0.602   0.039  0.0653 -0.1913 -0.6367
 5610SOL    HW128292   0.692   0.513   0.050 -1.5906  0.4900 -0.3043
 5610SOL    HW228293   0.754   0.628   0.126  0.4554  1.8086 -1.3590
 5611SOL     OW28294   2.774   2.039   2.817 -0.3977 -0.2512 -0.4508
 5611SOL    HW128295   2.750   1.950   2.791 -0.3257 -0.2346 -0.5729
 5611SOL    HW228296   2.689   2.077   2.839  0.9287  1.7511  1.2329
 5612SOL     OW28297   3.168   0.846   0.174  0.4129  0.2735  0.0622
 5612SOL    HW128298   3.224   0.865   0.099 -2.2808  1.3698 -1.6620
 5612SOL    HW228299   3.225   0.869   0.248 -1.3369 -1.8791  2.0749
 5613SOL     OW28300   1.204   3.783   8.249 -0.0269  0.4210 -0.4089
 5613SOL    HW128301   1.274   3.718   8.256 -0.1230  0.3342 -0.2537
 5613SOL    HW228302   1.255   3.858   8.280  0.0386  0.5727 -0.8762
 5614SOL     OW28303   3.943   1.904   3.082 -0.9769 -0.4604 -0.1011
 5614SOL    HW128304   3.896   1.834   3.127 -2.5622  1.8458  1.8151
 5614SOL    HW228305   4.028   1.875   3.114 -0.5459  1.9289  0.9730
 5615SOL     OW28306   3.816   3.781  12.605  0.3722 -0.2354  0.0590
 5615SOL    HW128307   3.870   3.706  12.628  1.4989  0.3529 -0.6316
 5615SOL    HW228308   3.730   3.746  12.627 -0.2967  0.6764 -1.0923
 5616SOL     OW28309   4.216   1.168   1.245  0.3088  0.3945 -0.8136
 5616SOL    HW128310   4.207   1.096   1.183 -1.6449 -0.0627  0.0112
 5616SOL    HW228311   4.284   1.131   1.301  0.3538  1.2780 -0.2788
 5617SOL     OW28312   2.007   1.399   0.808 -0.1639 -0.3913 -1.1194
 5617SOL    HW128313   1.998   1.425   0.717  2.2620 -0.0064 -1.2647
 5617SOL    HW228314   1.935   1.456   0.834  0.2862 -0.3997  0.1490
 5618SOL     OW28315   4.452   2.026   9.182 -0.3763  0.1915 -0.6981
 5618SOL    HW128316   4.449   2.110   9.137 -2.3671  0.1782 -0.5581
 5618SOL    HW228317   4.365   1.990   9.169  0.1096 -1.0222 -0.6212
 5619SOL     OW28318   2.257   0.238   2.658 -0.1186  0.2631 -0.1160
 5619SOL    HW128319   2.286   0.148   2.674  2.1419  1.3305  1.6252
 5619SOL    HW228320   2.247   0.273   2.746  2.3343 -0.5914  0.4934
 5620SOL     OW28321   0.027   0.382   2.052  0.0366  0.5673  0.0128
 5620SOL    HW128322   0.035   0.351   1.962  1.1352 -1.0593  0.6729
 5620SOL    HW228323   4.695   0.313   2.091 -0.8655  0.2914 -1.6949
 5621SOL     OW28324   2.348   2.556  14.865 -0.2852  0.1077 -0.1346
 5621SOL    HW128325   2.334   2.648  14.840 -2.4251 -0.1663  0.0194
 5621SOL    HW228326   2.314   2.510  14.788  0.7997 -0.6148 -0.1868
 5622SOL     OW28327   3.255   1.606   5.096  0.1788  0.1055 -0.4754
 5622SOL    HW128328   3.226   1.559   5.017  2.4637 -2.2123  0.0649
 5622SOL    HW228329   3.319   1.539   5.122 -0.9866 -0.3804  1.1459
 5623SOL     OW28330   4.097   3.564   7.219  0.3048  0.6626 -0.6179
 5623SOL    HW128331   4.155   3.614   7.277 -0.0823 -2.2156  2.2025
 5623SOL    HW228332   4.013   3.566   7.265  0.2177 -0.3481 -0.7462
 5624SOL     OW28333   3.855   0.234   9.493  0.0547  0.1874 -0.3321
 5624SOL    HW128334   3.851   0.329   9.476  1.0666  0.4693  1.0154
 5624SOL    HW228335   3.940   0.220   9.535  1.0879  2.2260 -1.7203
 5625SOL     OW28336   4.593   0.448  15.549  0.5030 -0.0456  0.1614
 5625SOL    HW128337   4.518   0.482  15.598  0.8730 -1.0196  1.3862
 5625SOL    HW228338   4.616   0.363  15.585 -0.7426 -1.1986 -1.7414
 5626SOL     OW28339   4.104   0.377  10.503 -0.5373  0.4383 -0.5143
 5626SOL    HW128340   4.137   0.453  10.551  1.2758  0.6254 -2.0654
 5626SOL    HW228341   4.177   0.331  10.461 -0.4865  0.6143 -0.6227
 5627SOL     OW28342   0.650   4.493  16.788  0.1945  0.0259 -0.2819
 5627SOL    HW128343   0.694   4.439  16.722 -1.6993 -3.6138  1.4586
 5627SOL    HW228344   0.595   4.427  16.831  1.6255 -0.9071  0.1353
 5628SOL     OW28345   3.210   0.475   4.418 -0.6414  0.4036  0.1900
 5628SOL    HW128346   3.299   0.489   4.451 -0.5610  0.1407  0.0886
 5628SOL    HW228347   3.216   0.526   4.337  3.1122  0.3058  0.3963
 5629SOL     OW28348   2.422   0.973   8.095 -0.3149  0.4253  0.2157
 5629SOL    HW128349   2.329   0.980   8.113 -0.6243  0.9661 -1.6809
 5629SOL    HW228350   2.447   0.890   8.136  0.2154  0.6709  0.3935
 5630SOL     OW28351   3.623   1.475  12.079 -0.3053  0.3717  0.2679
 5630SOL    HW128352   3.604   1.569  12.075 -1.8126  0.0284 -0.6708
 5630SOL    HW228353   3.565   1.435  12.015 -0.7402  1.0013  0.2734
 5631SOL     OW28354   3.966   2.185   1.758  0.5520  0.2411  0.1960
 5631SOL    HW128355   4.000   2.118   1.818  0.0540  0.1310  0.3564
 5631SOL    HW228356   3.873   2.170   1.777  0.4525  0.4932 -0.0868
 5632SOL     OW28357   3.830   1.358   2.376 -0.3058  0.3725  0.3167
 5632SOL    HW128358   3.779   1.414   2.318 -0.3635 -0.6271 -0.5963
 5632SOL    HW228359   3.865   1.418   2.441  0.8769  0.4233 -0.3678
 5633SOL     OW28360   2.654   2.874   9.547  0.4974  0.0701  0.0408
 5633SOL    HW128361   2.719   2.818   9.589  0.6445 -0.0708 -0.3753
 5633SOL    HW228362   2.625   2.815   9.478  0.5622 -2.0013  1.7694
 5634SOL     OW28363   2.279   0.324   7.476  0.3386 -0.3918 -0.0211
 5634SOL    HW128364   2.337   0.285   7.542  1.5950  1.7227  0.1454
 5634SOL    HW228365   2.269   0.417   7.497 -2.8719 -0.4528 -1.3622
 5635SOL     OW28366   3.204   0.280  13.177 -0.7952  0.3546  0.3695
 5635SOL    HW128367   3.123   0.254  13.133 -1.3242 -0.0038  1.5656
 5635SOL    HW228368   3.183   0.358  13.228 -0.5313  0.4571  0.3256
 5636SOL     OW28369   4.585   4.369  10.201  0.1435  0.0094 -0.4391
 5636SOL    HW128370   4.569   4.278  10.177  1.7466 -0.7668  1.4780
 5636SOL    HW228371   4.504   4.401  10.161 -0.0301 -2.7376 -2.2657
 5637SOL     OW28372   3.500   4.136   6.096 -0.5075 -0.3040 -0.5774
 5637SOL    HW128373   3.550   4.089   6.030 -2.8807 -1.5653 -1.4896
 5637SOL    HW228374   3.493   4.074   6.170 -0.2881 -1.3684 -1.4475
 5638SOL     OW28375   3.336   3.235   3.951  0.0358 -0.5011 -0.0338
 5638SOL    HW128376   3.291   3.184   3.884  0.9207 -1.2482 -0.0780
 5638SOL    HW228377   3.264   3.294   3.971  1.7707  0.7257  2.6618
 5639SOL     OW28378   0.441   0.382   3.805  0.0182 -0.0935 -0.3477
 5639SOL    HW128379   0.461   0.406   3.714  0.8776  0.1219 -0.1066
 5639SOL    HW228380   0.346   0.382   3.802 -0.0013 -0.5585  0.4826
 5640SOL     OW28381   2.535   1.817   5.100 -0.5909  0.4144 -0.1707
 5640SOL    HW128382   2.482   1.738   5.096 -2.3510  1.5745  0.5427
 5640SOL    HW228383   2.617   1.798   5.054 -0.8847 -1.6765  0.1566
 5641SOL     OW28384   3.781   1.846   9.095 -0.2114 -0.0356  0.1977
 5641SOL    HW128385   3.768   1.752   9.100 -2.3195  0.2896  0.6535
 5641SOL    HW228386   3.694   1.884   9.087 -0.2341  0.0214  0.7070
 5642SOL     OW28387   1.338   0.979  11.630  0.4852 -0.2331 -0.5387
 5642SOL    HW128388   1.248   0.978  11.661 -0.0624 -1.8626 -2.1647
 5642SOL    HW228389   1.360   1.071  11.621  0.2112 -0.1909 -0.7558
 5643SOL     OW28390   3.955   3.719  11.155 -0.2704 -0.1698  0.0735
 5643SOL    HW128391   4.050   3.714  11.164 -0.2348 -1.1620 -0.8851
 5643SOL    HW228392   3.952   3.735  11.061  2.0346  0.9916  0.1909
 5644SOL     OW28393   1.345   4.381  16.988  0.2377 -0.8585  0.1824
 5644SOL    HW128394   1.352   4.315  17.057 -1.1708  0.4431  1.5726
 5644SOL    HW228395   1.295   4.455  17.022  0.9754 -0.3083  0.0830
 5645SOL     OW28396   1.306   3.679  13.389  0.3830 -0.8532 -0.1548
 5645SOL    HW128397   1.388   3.710  13.352 -0.4833  0.3550 -1.0693
 5645SOL    HW228398   1.328   3.687  13.482  1.0361  2.6910 -0.6107
 5646SOL     OW28399   4.132   2.057   2.753 -0.3582 -0.3048  0.7791
 5646SOL    HW128400   4.094   2.111   2.822  1.7825 -2.1480  3.3647
 5646SOL    HW228401   4.192   2.116   2.708 -1.5886  0.9479  0.7548
 5647SOL     OW28402   2.768   3.841   0.474  0.1979 -0.5270  0.4181
 5647SOL    HW128403   2.779   3.931   0.507  2.4521 -0.4648 -0.4814
 5647SOL    HW228404   2.857   3.821   0.444  0.3884 -0.2023  0.7569
 5648SOL     OW28405   0.854   0.022  10.413  0.0048 -0.0514 -0.5936
 5648SOL    HW128406   0.797   0.097  10.425  0.8841  0.7150 -1.1805
 5648SOL    HW228407   0.818   4.712  10.330 -1.1207 -0.4364  0.0535
 5649SOL     OW28408   4.165   4.702  16.348 -0.6409  0.0783  0.1993
 5649SOL    HW128409   4.217   4.685  16.427 -3.5892 -1.1655  1.8770
 5649SOL    HW228410   4.217   0.053  16.315 -1.9648  1.4393  1.1221
 5650SOL     OW28411   2.847   0.463   8.362 -0.1795  0.3688  0.2829
 5650SOL    HW128412   2.917   0.469   8.297 -1.8715 -0.0148 -1.5626
 5650SOL    HW228413   2.885   0.512   8.435  1.9684 -0.5670 -0.2309
 5651SOL     OW28414   2.563   3.385  14.373  0.1914 -0.0470  0.2767
 5651SOL    HW128415   2.508   3.361  14.299 -1.4116  1.6547  0.9116
 5651SOL    HW228416   2.645   3.363  14.330  0.8526  3.2718 -0.2066
 5652SOL     OW28417   2.924   0.817   3.694  0.2068  0.5285 -0.4330
 5652SOL    HW128418   2.875   0.752   3.744  2.3054 -0.7239 -0.0067
 5652SOL    HW228419   2.875   0.898   3.708 -0.7850 -0.4306  1.6608
 5653SOL     OW28420   3.040   1.810   8.225 -0.0320 -0.2404 -0.3263
 5653SOL    HW128421   3.069   1.719   8.227  2.9707  0.7417  0.9130
 5653SOL    HW228422   3.075   1.840   8.310  1.2779 -0.3837 -0.8109
 5654SOL     OW28423   2.878   2.438   8.235  0.5661  0.5895  0.2081
 5654SOL    HW128424   2.874   2.528   8.267 -1.1146 -0.2960  2.4899
 5654SOL    HW228425   2.923   2.458   8.153 -1.7614  2.5346 -0.5837
 5655SOL     OW28426   2.746   0.607   1.511  0.7833  0.0944 -0.1799
 5655SOL    HW128427   2.731   0.534   1.571 -1.3754  0.6388 -0.0741
 5655SOL    HW228428   2.662   0.601   1.465  0.1581  0.1484  0.9509
 5656SOL     OW28429   1.655   2.556   5.865 -0.2441 -0.6545 -0.3663
 5656SOL    HW128430   1.674   2.596   5.950  0.0809  0.1749 -0.8354
 5656SOL    HW228431   1.729   2.587   5.814 -0.1887 -1.6617 -0.9081
 5657SOL     OW28432   1.595   1.877   8.287  0.2227 -0.1090 -0.4310
 5657SOL    HW128433   1.543   1.797   8.293 -0.8905  0.5675 -1.0779
 5657SOL    HW228434   1.645   1.878   8.369  0.0367 -1.7386 -0.2904
 5658SOL     OW28435   1.311   1.910   3.294 -0.1290  0.0838 -0.3069
 5658SOL    HW128436   1.301   1.816   3.307  0.3328  0.2184  0.9685
 5658SOL    HW228437   1.226   1.930   3.254 -0.7755  1.4971  1.8102
 5659SOL     OW28438   0.413   0.143   8.476  0.3879 -0.0328 -0.6339
 5659SOL    HW128439   0.389   0.225   8.520 -2.3745 -0.9911 -0.3338
 5659SOL    HW228440   0.507   0.144   8.463  0.7470 -1.9808  1.7248
 5660SOL     OW28441   1.990   4.415  14.348 -0.7870 -0.0284 -0.2131
 5660SOL    HW128442   2.018   4.355  14.279  1.9239 -0.2529  1.0676
 5660SOL    HW228443   1.899   4.426  14.322 -0.8778 -0.1969  0.0313
 5661SOL     OW28444   2.762   3.022  15.584  0.2198  0.1291  0.2775
 5661SOL    HW128445   2.779   2.948  15.525 -0.6750 -0.5249  0.8495
 5661SOL    HW228446   2.691   2.995  15.641 -1.0609  1.0148 -0.8978
 5662SOL     OW28447   3.163   2.433  14.494  0.1828 -0.3165  0.3022
 5662SOL    HW128448   3.188   2.349  14.453  0.1811  0.5996 -1.5916
 5662SOL    HW228449   3.156   2.418  14.588 -2.0760  1.5199  0.4010
 5663SOL     OW28450   2.697   0.706   3.458  0.1841  0.6346 -0.0213
 5663SOL    HW128451   2.769   0.643   3.467  0.5619  1.5599  3.2628
 5663SOL    HW228452   2.687   0.706   3.363  0.1800  2.0347 -0.0282
 5664SOL     OW28453   1.290   4.241  10.951 -0.2181 -0.1488 -0.1456
 5664SOL    HW128454   1.300   4.333  10.977 -0.4610 -0.2864  0.4385
 5664SOL    HW228455   1.235   4.207  11.021  1.9499  0.5162  1.9163
 5665SOL     OW28456   4.664   3.798   7.524 -0.9005 -0.3128  0.0133
 5665SOL    HW128457   4.705   3.719   7.489 -0.9870  0.6851 -2.3224
 5665SOL    HW228458   0.009   3.832   7.583 -1.5323  1.0183 -0.0334
 5666SOL     OW28459   3.670   2.122   4.683  0.2254  0.1884 -0.0616
 5666SOL    HW128460   3.655   2.156   4.771 -1.4367 -1.0505  0.1278
 5666SOL    HW228461   3.758   2.158   4.673 -0.3329  2.0024  1.7046
 5667SOL     OW28462   0.443   3.069  17.663 -0.1287  0.6752  0.0849
 5667SOL    HW128463   0.372   3.030  17.611  0.5913 -0.5139 -0.0003
 5667SOL    HW228464   0.415   3.057   0.064 -1.0354 -0.3981 -0.3417
 5668SOL     OW28465   4.327   3.007   9.133 -0.2361 -0.1184 -0.2066
 5668SOL    HW128466   4.418   3.030   9.148  0.0402 -2.5963  1.7607
 5668SOL    HW228467   4.340   2.930   9.077 -0.4953 -1.2106  1.2339
 5669SOL     OW28468   2.257   4.576   1.244 -0.0251 -0.2376  0.0806
 5669SOL    HW128469   2.346   4.575   1.278 -0.8304 -0.7077  2.2053
 5669SOL    HW228470   2.218   4.489   1.257  3.0108 -1.6082 -0.0767
 5670SOL     OW28471   0.894   0.956   5.134 -0.2440  0.6043  0.6081
 5670SOL    HW128472   0.923   0.936   5.223  0.6673 -0.6006  0.0537
 5670SOL    HW228473   0.802   0.950   5.159 -0.1326 -2.2392  0.3543
 5671SOL     OW28474   3.056   0.802   7.856  0.2149 -0.0207 -0.3401
 5671SOL    HW128475   3.087   0.865   7.921  0.9761 -1.7198  0.9368
 5671SOL    HW228476   2.990   0.755   7.907  0.5836  0.1973  0.3341
 5672SOL     OW28477   0.825   2.332  12.716 -0.5395  0.4037  0.5911
 5672SOL    HW128478   0.830   2.260  12.778 -1.5996 -1.8265 -1.8795
 5672SOL    HW228479   0.756   2.389  12.751 -0.9567  1.0438 -1.2357
 5673SOL     OW28480   3.484   3.907   6.244 -0.4554  0.2224  0.5976
 5673SOL    HW128481   3.440   3.901   6.329  1.0665 -0.7229  1.3224
 5673SOL    HW228482   3.566   3.943   6.279  1.5515 -1.2883 -2.5482
 5674SOL     OW28483   4.480   0.631   8.900  0.6579  0.1991 -0.7962
 5674SOL    HW128484   4.566   0.598   8.927 -0.1442 -0.2947  1.1917
 5674SOL    HW228485   4.472   0.586   8.816  1.2738 -0.5482 -0.4627
 5675SOL     OW28486   2.774   1.297   9.083  0.6569 -0.6510 -0.4907
 5675SOL    HW128487   2.837   1.235   9.120  0.6858  0.1135  0.7191
 5675SOL    HW228488   2.818   1.381   9.095 -0.9233  0.3108 -1.4660
 5676SOL     OW28489   2.974   0.601   2.605 -0.5115 -0.5652  0.2539
 5676SOL    HW128490   2.960   0.676   2.664 -0.9634 -0.1890 -0.3322
 5676SOL    HW228491   2.921   0.538   2.655  0.8170 -0.8980  1.2399
 5677SOL     OW28492   1.454   3.723   4.656 -0.2031 -0.3394 -0.3751
 5677SOL    HW128493   1.423   3.716   4.566  0.7617 -0.4000 -0.7011
 5677SOL    HW228494   1.549   3.720   4.641 -0.2622  1.3206 -1.0598
 5678SOL     OW28495   2.789   4.583   1.296  0.0107  0.6087  0.0347
 5678SOL    HW128496   2.850   4.603   1.225 -1.4495 -0.7809 -1.6186
 5678SOL    HW228497   2.767   4.670   1.330  0.7997  0.7287  0.2414
 5679SOL     OW28498   3.789   0.219   3.757  0.1353 -0.1803  0.3845
 5679SOL    HW128499   3.746   0.191   3.677  0.6849 -1.3327  0.4854
 5679SOL    HW228500   3.738   0.160   3.812  0.1942 -2.3417 -1.8789
 5680SOL     OW28501   0.103   0.652  10.077 -0.0345  0.2440 -0.0823
 5680SOL    HW128502   0.112   0.745  10.097 -0.4743  0.4150 -0.6850
 5680SOL    HW228503   0.189   0.614  10.099  0.5211  1.7826  0.3492
 5681SOL     OW28504   3.015   0.665   4.096 -0.5116 -0.1101 -0.1321
 5681SOL    HW128505   2.964   0.593   4.060  3.9483 -3.8979  1.0223
 5681SOL    HW228506   2.947   0.731   4.110 -0.2036  0.5429 -1.7630
 5682SOL     OW28507   2.801   3.369   0.697 -0.1891 -0.5092 -0.3777
 5682SOL    HW128508   2.832   3.379   0.607  0.1109 -0.0783 -0.2280
 5682SOL    HW228509   2.783   3.461   0.711 -1.2961 -0.5389 -1.6213
 5683SOL     OW28510   3.490   4.342   4.468 -0.8007 -0.4983 -0.7103
 5683SOL    HW128511   3.564   4.282   4.462 -1.5823 -1.6805  1.3759
 5683SOL    HW228512   3.417   4.284   4.445 -2.0731  1.1614 -0.8557
 5684SOL     OW28513   1.397   3.539   4.833 -0.2652 -0.0411  0.3632
 5684SOL    HW128514   1.423   3.610   4.774 -2.4840  1.0113  0.6414
 5684SOL    HW228515   1.359   3.590   4.905  1.8487 -0.1474  1.5745
 5685SOL     OW28516   3.657   0.040  15.407  0.0056 -0.2345  0.4119
 5685SOL    HW128517   3.575   0.006  15.442  0.2669  1.2396  2.4445
 5685SOL    HW228518   3.674   4.694  15.342  1.2141  0.8414 -0.3851
 5686SOL     OW28519   0.848   1.513  15.303  0.2647 -0.2163 -0.1387
 5686SOL    HW128520   0.925   1.457  15.309  0.2960 -0.3613 -2.0477
 5686SOL    HW228521   0.834   1.515  15.208  0.8117  0.3930 -0.2069
 5687SOL     OW28522   3.293   2.301   4.591  0.6824 -0.7950  0.4283
 5687SOL    HW128523   3.364   2.355   4.627 -0.0932  0.3951  0.1663
 5687SOL    HW228524   3.264   2.266   4.675  0.3657 -2.0556 -0.2044
 5688SOL     OW28525   1.772   1.170   4.483 -0.2295  0.3451  0.2718
 5688SOL    HW128526   1.746   1.186   4.393  0.2493 -0.8488 -0.0819
 5688SOL    HW228527   1.721   1.091   4.500  0.9088 -1.0598 -2.7918
 5689SOL     OW28528   1.807   1.827   5.919  0.7565 -0.6027  0.0390
 5689SOL    HW128529   1.812   1.790   6.007  0.9609 -0.6802 -0.0042
 5689SOL    HW228530   1.837   1.915   5.940 -2.5778  0.9598 -1.6739
 5690SOL     OW28531   0.316   1.072  10.891  0.5162  0.3768  0.2799
 5690SOL    HW128532   0.408   1.077  10.865  0.5741 -0.2393  0.3630
 5690SOL    HW228533   0.322   1.125  10.971 -0.1410 -2.0801  1.9445
 5691SOL     OW28534   2.969   0.552  12.497  0.1657 -0.3839 -0.1117
 5691SOL    HW128535   2.999   0.473  12.452  0.7710  0.2748 -0.8720
 5691SOL    HW228536   2.969   0.620  12.429  0.2499 -0.3405 -0.0681
 5692SOL     OW28537   2.897   2.651   7.699 -0.1414  0.2416  0.4684
 5692SOL    HW128538   2.973   2.620   7.651 -0.8677  0.8202 -1.0609
 5692SOL    HW228539   2.927   2.731   7.742  1.3261  0.2249 -0.5331
 5693SOL     OW28540   4.470   3.402   5.129  0.3664  0.2855 -0.1106
 5693SOL    HW128541   4.545   3.453   5.162  0.1304  0.8734 -0.4764
 5693SOL    HW228542   4.518   3.358   5.059  2.5502  1.7744  0.4511
 5694SOL     OW28543   3.930   1.038   7.849 -0.0903  0.1765 -0.7290
 5694SOL    HW128544   3.977   1.025   7.931  0.7087 -0.1715 -1.2409
 5694SOL    HW228545   3.996   1.029   7.780 -0.8085  0.0446 -1.3926
 5695SOL     OW28546   3.934   0.646   7.423 -0.0062 -0.2502 -0.3261
 5695SOL    HW128547   3.916   0.560   7.385 -0.3807 -0.7374  0.9615
 5695SOL    HW228548   4.005   0.672   7.364 -2.0328  1.9127 -1.7941
 5696SOL     OW28549   2.339   0.291   3.243  0.1214  0.2583  0.2127
 5696SOL    HW128550   2.362   0.306   3.335  0.4353  0.3258  0.1242
 5696SOL    HW228551   2.286   0.368   3.223  0.2909  0.5022  0.6901
 5697SOL     OW28552   0.294   2.660  17.133 -0.1259 -0.1073  0.0576
 5697SOL    HW128553   0.274   2.590  17.071  1.5908 -0.2451 -0.3392
 5697SOL    HW228554   0.310   2.609  17.212  1.1235 -0.6149 -0.5364
 5698SOL     OW28555   1.075   1.524   7.958 -0.4171  0.1936  0.0152
 5698SOL    HW128556   1.034   1.547   8.042 -2.5200 -2.6580 -0.2610
 5698SOL    HW228557   1.144   1.464   7.986 -1.0388 -0.9661 -0.9804
 5699SOL     OW28558   0.159   0.013  13.277 -0.1578  0.4352  0.5692
 5699SOL    HW128559   0.071   4.711  13.306  0.2629 -3.2626 -1.1574
 5699SOL    HW228560   0.213   4.663  13.310  0.2938  0.1793 -0.7057
 5700SOL     OW28561   4.183   1.361   8.744  0.2148 -0.2223 -0.4995
 5700SOL    HW128562   4.219   1.409   8.818 -2.9437  0.0220  0.8829
 5700SOL    HW228563   4.096   1.400   8.731 -0.1462 -0.4830  1.0964
 5701SOL     OW28564   2.637   1.935   2.179  0.1428 -0.2426  0.1254
 5701SOL    HW128565   2.654   1.931   2.273 -0.9975  2.0542  0.4405
 5701SOL    HW228566   2.548   1.969   2.165  0.6860  0.4083 -1.8069
 5702SOL     OW28567   1.352   0.204  16.123  0.5401 -0.2163 -0.3041
 5702SOL    HW128568   1.402   0.284  16.107  0.0545  0.0838 -0.3313
 5702SOL    HW228569   1.417   0.134  16.119 -1.2373 -1.7706 -1.7694
 5703SOL     OW28570   0.942   2.303  14.329  0.3420  0.4429  0.1708
 5703SOL    HW128571   0.865   2.248  14.347  1.4795 -1.5756 -1.0300
 5703SOL    HW228572   0.920   2.344  14.245  0.4799 -0.4499 -0.3072
 5704SOL     OW28573   4.686   2.365  10.406 -0.3570  0.0889 -0.1762
 5704SOL    HW128574   0.026   2.438  10.410 -0.6683  0.2651  1.5293
 5704SOL    HW228575   4.609   2.395  10.455  0.3627  0.7155  0.5828
 5705SOL     OW28576   3.865   0.748   4.522 -0.0190  0.2345  0.8019
 5705SOL    HW128577   3.945   0.787   4.488  0.2004  0.0307  1.0876
 5705SOL    HW228578   3.822   0.821   4.566 -2.0289 -0.6006  0.2520
 5706SOL     OW28579   3.353   3.759   0.412  0.1309  0.2808  0.2591
 5706SOL    HW128580   3.370   3.713   0.330 -0.9726  0.2438  0.0456
 5706SOL    HW228581   3.273   3.716   0.441  1.5520 -3.0192 -0.8056
 5707SOL     OW28582   0.526   1.791  16.507  0.0438  0.9548  0.4979
 5707SOL    HW128583   0.437   1.755  16.515 -0.3006  1.8218  0.5078
 5707SOL    HW228584   0.548   1.759  16.419  1.3058  2.2655  0.3369
 5708SOL     OW28585   2.382   0.235   0.334  0.1115 -0.2187  0.4418
 5708SOL    HW128586   2.329   0.199   0.405  0.1077  0.5891  0.8545
 5708SOL    HW228587   2.441   0.287   0.389  1.7163 -1.3741 -0.1968
 5709SOL     OW28588   2.782   0.700   2.406 -0.4198  0.1792  0.4397
 5709SOL    HW128589   2.808   0.791   2.419  0.6956 -0.3755  2.1107
 5709SOL    HW228590   2.833   0.664   2.479 -0.5228  0.1860  0.5152
 5710SOL     OW28591   3.625   2.905   6.856  0.4432 -0.0047  0.5115
 5710SOL    HW128592   3.658   2.818   6.834  0.6119 -0.0460  0.9256
 5710SOL    HW228593   3.545   2.907   6.803  0.5952 -0.0465  0.2814
 5711SOL     OW28594   1.685   2.640   2.640 -0.4185 -0.4680 -0.2967
 5711SOL    HW128595   1.629   2.713   2.668 -0.2115 -0.0024 -1.0973
 5711SOL    HW228596   1.652   2.569   2.694 -0.0008 -0.0746  0.4829
 5712SOL     OW28597   1.814   1.573   4.520 -0.5983  0.0498  0.1687
 5712SOL    HW128598   1.890   1.548   4.466 -2.7649  0.3618 -3.0448
 5712SOL    HW228599   1.757   1.600   4.448  0.7923  1.2936 -0.4780
 5713SOL     OW28600   3.477   4.468   0.083  0.2866  0.1542 -0.3655
 5713SOL    HW128601   3.440   4.552   0.054 -0.4891 -0.2911 -0.6442
 5713SOL    HW228602   3.554   4.484   0.137 -0.0539  1.4407 -0.2539
 5714SOL     OW28603   4.178   1.477   5.936  0.1511 -0.6538  0.0035
 5714SOL    HW128604   4.138   1.399   5.898 -0.7259 -0.1631 -0.0849
 5714SOL    HW228605   4.099   1.525   5.960 -0.4695 -0.0458 -3.3051
 5715SOL     OW28606   2.635   2.665   7.591 -0.1441 -0.1648  0.2336
 5715SOL    HW128607   2.650   2.717   7.512  1.2616 -0.2065  0.4705
 5715SOL    HW228608   2.717   2.639   7.634  0.0077 -1.5370 -0.9146
 5716SOL     OW28609   3.331   0.824   4.570  0.0818 -0.4164  0.4077
 5716SOL    HW128610   3.407   0.878   4.550 -0.4107  1.2832  3.1437
 5716SOL    HW228611   3.322   0.795   4.479  0.4952  1.5868 -0.2625
 5717SOL     OW28612   2.354   0.514   1.936  0.5108 -0.2509  0.1224
 5717SOL    HW128613   2.371   0.458   2.012 -2.6121  1.1562  1.8484
 5717SOL    HW228614   2.362   0.445   1.870  0.2300 -0.9925  0.8699
 5718SOL     OW28615   2.070   2.992   5.956 -0.0957 -0.1845  0.0631
 5718SOL    HW128616   2.100   2.930   5.890 -0.5933 -1.7966  1.3642
 5718SOL    HW228617   2.147   2.997   6.013  0.0355 -2.1364  0.0425
 5719SOL     OW28618   0.757   2.542  10.985  0.7375 -0.3246 -0.0050
 5719SOL    HW128619   0.715   2.520  11.069 -0.3309  1.2365 -0.1355
 5719SOL    HW228620   0.708   2.490  10.922  0.1188  1.0178 -0.6289
 5720SOL     OW28621   0.231   3.621   5.938 -0.1009  0.5904 -0.1333
 5720SOL    HW128622   0.227   3.668   6.022 -0.9995  0.0084  0.1550
 5720SOL    HW228623   0.185   3.542   5.967 -2.3906  1.3303 -1.7723
 5721SOL     OW28624   1.792   2.894   2.369 -0.5749 -0.2221 -0.1606
 5721SOL    HW128625   1.702   2.863   2.376  0.1909 -2.1490  0.9962
 5721SOL    HW228626   1.779   2.972   2.315  1.2232 -0.1609 -0.5212
 5722SOL     OW28627   1.584   2.883  13.239  0.3871 -0.6285 -0.2990
 5722SOL    HW128628   1.591   2.800  13.285 -1.4504 -0.8540 -0.4322
 5722SOL    HW228629   1.547   2.927  13.315  0.2683 -1.6349  0.2135
 5723SOL     OW28630   1.474   2.652   9.363 -0.1270 -0.9733 -0.7304
 5723SOL    HW128631   1.480   2.587   9.294 -1.4308 -1.2565 -0.5785
 5723SOL    HW228632   1.398   2.627   9.416 -1.3637  1.1263 -1.5072
 5724SOL     OW28633   2.929   3.238   6.128 -0.6584  0.3212  0.0109
 5724SOL    HW128634   2.983   3.233   6.207 -2.1972 -2.0542  0.8907
 5724SOL    HW228635   2.867   3.296   6.172  0.0970  1.2651 -0.1587
 5725SOL     OW28636   3.951   0.739   2.597 -0.4274 -0.0139  0.0684
 5725SOL    HW128637   3.859   0.717   2.611 -0.1165  1.1061  3.8581
 5725SOL    HW228638   3.968   0.798   2.670 -0.3158 -1.9805  1.6275
 5726SOL     OW28639   1.668   2.180   6.517  0.2066 -0.7184  0.1635
 5726SOL    HW128640   1.709   2.261   6.485  1.1569 -0.8817  0.9640
 5726SOL    HW228641   1.741   2.119   6.504  1.2300  0.9586 -2.0219
 5727SOL     OW28642   1.730   3.309   9.269 -0.1063  0.0445 -0.1532
 5727SOL    HW128643   1.757   3.332   9.358 -1.2894 -1.8504  0.6789
 5727SOL    HW228644   1.748   3.216   9.279 -0.3801 -0.0315 -0.3765
 5728SOL     OW28645   1.148   1.719  16.441  0.2559 -0.4630 -0.2259
 5728SOL    HW128646   1.170   1.777  16.368  1.1780  1.5904  1.6937
 5728SOL    HW228647   1.059   1.750  16.460  1.4209  1.1043  2.6813
 5729SOL     OW28648   2.945   4.554  13.859 -0.2243  0.0339  0.1401
 5729SOL    HW128649   2.954   4.459  13.863  1.0388  0.2803  2.7676
 5729SOL    HW228650   2.865   4.552  13.805 -0.3127 -1.3968  0.3184
 5730SOL     OW28651   4.457   3.398   1.348 -0.3059  0.3282 -0.1792
 5730SOL    HW128652   4.495   3.324   1.300  0.5767  0.2467  0.6352
 5730SOL    HW228653   4.484   3.475   1.298  0.0591  0.0700 -0.3766
 5731SOL     OW28654   2.566   4.688   7.492  0.1863  0.6329 -0.0151
 5731SOL    HW128655   2.481   4.655   7.521  0.1225 -0.0545 -0.9579
 5731SOL    HW228656   2.592   4.623   7.426 -1.9536 -1.2728  1.0048
 5732SOL     OW28657   3.845   2.723   4.082  0.3059 -0.4034  0.2058
 5732SOL    HW128658   3.774   2.695   4.140 -1.8137 -0.4843 -2.4493
 5732SOL    HW228659   3.791   2.742   4.006  0.5336  2.9721  0.8680
 5733SOL     OW28660   1.904   2.437  17.650 -0.1129  0.2070 -0.1205
 5733SOL    HW128661   1.930   2.396   0.043 -2.3435  0.9942  1.0008
 5733SOL    HW228662   1.937   2.524  17.671 -1.0020  0.1667  1.5353
 5734SOL     OW28663   4.313   2.963   8.119  0.7473 -0.5417  0.1948
 5734SOL    HW128664   4.385   2.930   8.065  1.7677  0.5103  0.8767
 5734SOL    HW228665   4.303   2.906   8.195 -2.2869 -0.8780 -0.4596
 5735SOL     OW28666   3.355   1.817  10.704 -0.1345  0.3344 -0.3425
 5735SOL    HW128667   3.409   1.870  10.646  1.5240 -2.5262 -1.4172
 5735SOL    HW228668   3.269   1.820  10.660 -1.2329 -0.0071  1.7769
 5736SOL     OW28669   3.777   2.059  10.484 -0.2231 -0.2901 -0.0613
 5736SOL    HW128670   3.744   2.146  10.465  1.8844  0.8181  1.2704
 5736SOL    HW228671   3.835   2.079  10.558  2.4040 -0.5184 -2.0421
 5737SOL     OW28672   3.815   1.632   6.660 -0.2691  0.1597  0.1137
 5737SOL    HW128673   3.822   1.709   6.604 -1.5586  0.3457  0.2118
 5737SOL    HW228674   3.720   1.627   6.674 -0.5458  0.6083 -1.5163
 5738SOL     OW28675   0.562   0.229  11.321  0.2139  0.1642 -0.0449
 5738SOL    HW128676   0.521   0.279  11.249 -1.9531 -2.0642 -0.3458
 5738SOL    HW228677   0.562   0.139  11.290 -0.1420  0.5953 -1.3252
 5739SOL     OW28678   3.279   3.092  13.965  0.0722  0.1834 -0.1266
 5739SOL    HW128679   3.340   3.139  13.907 -1.9311 -1.9071 -3.8996
 5739SOL    HW228680   3.324   3.096  14.050  0.6385  0.6933 -0.4494
 5740SOL     OW28681   2.700   4.669   5.039 -0.0246  0.2969  0.0583
 5740SOL    HW128682   2.667   0.023   4.991  1.0344  1.9617  1.9480
 5740SOL    HW228683   2.621   4.616   5.030  0.3591 -0.4386  1.0921
 5741SOL     OW28684   3.230   3.067   7.539 -0.2214 -0.4396 -0.1736
 5741SOL    HW128685   3.312   3.075   7.491 -0.2693 -0.9552 -0.3391
 5741SOL    HW228686   3.264   3.089   7.626  0.8275  0.1159 -0.7295
 5742SOL     OW28687   3.978   2.624   4.694 -0.4878 -0.2996 -0.0454
 5742SOL    HW128688   4.029   2.544   4.706 -1.0859 -0.8001 -0.7883
 5742SOL    HW228689   3.959   2.620   4.600 -2.7660 -2.9624  0.5379
 5743SOL     OW28690   0.828   1.496   2.974  0.4004 -1.1019 -0.3805
 5743SOL    HW128691   0.918   1.503   2.943  0.9407 -0.8391  1.2414
 5743SOL    HW228692   0.823   1.415   3.024 -0.0937 -1.7722 -1.5156
 5744SOL     OW28693   3.856   4.099   7.745  0.0234  0.0602 -0.0723
 5744SOL    HW128694   3.885   4.190   7.740  1.3684 -0.1868  2.9770
 5744SOL    HW228695   3.845   4.102   7.840 -0.2895  1.5563 -0.1587
 5745SOL     OW28696   3.571   1.236  12.576  1.1277  0.0052  0.3824
 5745SOL    HW128697   3.658   1.223  12.539  0.4666 -0.1610 -1.0934
 5745SOL    HW228698   3.535   1.316  12.537 -0.0041 -0.9824 -0.5779
 5746SOL     OW28699   4.410   2.525   1.052  0.3395 -0.8637 -0.0639
 5746SOL    HW128700   4.442   2.522   0.962  2.1899  1.2220  0.5084
 5746SOL    HW228701   4.485   2.564   1.098 -0.0794  0.0379 -0.1378
 5747SOL     OW28702   2.651   2.276   8.270 -0.2136 -0.0047 -0.0238
 5747SOL    HW128703   2.726   2.335   8.272 -1.5314  1.6991 -0.5699
 5747SOL    HW228704   2.604   2.325   8.337  0.8581  0.6797  0.2132
 5748SOL     OW28705   0.189   0.021  15.025 -0.1227  0.2463  0.1090
 5748SOL    HW128706   0.167   0.112  15.044 -1.1583 -0.2165  1.1609
 5748SOL    HW228707   0.218   0.028  14.934 -2.0244 -0.2486 -0.5360
 5749SOL     OW28708   3.728   2.226   1.125 -0.2201 -0.0845 -0.3146
 5749SOL    HW128709   3.669   2.163   1.166 -1.5492  1.6267  0.3966
 5749SOL    HW228710   3.675   2.306   1.133 -1.2484 -0.9439  1.4127
 5750SOL     OW28711   3.428   4.031   0.005 -0.0930 -0.7875  0.2006
 5750SOL    HW128712   3.516   4.006  17.665  0.1880 -0.4138  0.7191
 5750SOL    HW228713   3.378   3.957  17.660 -1.0577  0.2111 -0.5523
 5751SOL     OW28714   2.331   2.580  16.702  0.2034 -0.1380 -0.0501
 5751SOL    HW128715   2.279   2.661  16.697 -1.1204 -1.0153 -0.3458
 5751SOL    HW228716   2.267   2.516  16.672  2.1938 -2.4897  0.7177
 5752SOL     OW28717   2.788   0.281   6.924 -0.1686  0.0380 -0.3758
 5752SOL    HW128718   2.799   0.290   6.829  0.1931  1.8640 -0.1627
 5752SOL    HW228719   2.699   0.247   6.928 -0.5395  0.9115 -1.1409
 5753SOL     OW28720   3.722   1.371   3.555  0.0943  0.2897  0.9015
 5753SOL    HW128721   3.759   1.367   3.467  0.7576 -1.3373  1.2492
 5753SOL    HW228722   3.791   1.425   3.593  0.7596  0.0702 -0.0019
 5754SOL     OW28723   1.067   2.749   6.064  0.1951 -0.0062  0.1300
 5754SOL    HW128724   1.008   2.787   5.998  0.4992 -0.3626 -0.3444
 5754SOL    HW228725   1.152   2.748   6.020 -0.8602  1.1726 -1.9773
 5755SOL     OW28726   4.176   1.144  12.821  0.5367  0.5062  0.1448
 5755SOL    HW128727   4.242   1.117  12.757 -2.2928 -2.1379 -1.6312
 5755SOL    HW228728   4.201   1.101  12.903  0.3228 -0.2687 -0.1934
 5756SOL     OW28729   1.792   2.839   0.023  0.0643  0.4113 -1.0340
 5756SOL    HW128730   1.849   2.763   0.034  0.4712  0.8220 -0.3432
 5756SOL    HW228731   1.703   2.805   0.036  1.2393 -2.0124  0.6701
 5757SOL     OW28732   0.818   1.239   3.080  0.1191  0.5791 -0.0457
 5757SOL    HW128733   0.902   1.204   3.051 -0.1108 -1.0035  1.2177
 5757SOL    HW228734   0.841   1.264   3.170 -3.9733  0.3240  1.0653
 5758SOL     OW28735   1.258   1.591   4.169  0.0664 -0.5758  0.5684
 5758SOL    HW128736   1.235   1.501   4.148 -1.0885  0.0212 -0.7477
 5758SOL    HW228737   1.176   1.618   4.211  0.0332 -0.2656  0.3021
 5759SOL     OW28738   4.691   2.985   7.215  0.1251  0.5005  0.3606
 5759SOL    HW128739   4.619   2.992   7.152  1.3002  3.1393 -0.6936
 5759SOL    HW228740   4.642   3.007   7.295  0.2201  2.1979 -0.0570
 5760SOL     OW28741   1.246   2.753   4.808 -0.0534 -0.1641  0.1492
 5760SOL    HW128742   1.202   2.668   4.808  1.3239 -0.8767 -3.7826
 5760SOL    HW228743   1.248   2.762   4.903  0.6438 -3.6674  0.4830
 5761SOL     OW28744   2.366   0.492   8.814  0.2178  0.4914 -0.2920
 5761SOL    HW128745   2.456   0.460   8.810  0.6682  1.4743  1.9107
 5761SOL    HW228746   2.319   0.410   8.826 -0.6532  0.8899 -1.0188
 5762SOL     OW28747   2.973   0.930   7.617 -0.2568  0.1959  0.5274
 5762SOL    HW128748   2.921   0.855   7.588  0.9136  0.8256 -3.2023
 5762SOL    HW228749   3.020   0.900   7.695 -0.0580 -3.6423 -1.0931
 5763SOL     OW28750   2.778   4.276   1.511 -0.4749  0.0025  0.0879
 5763SOL    HW128751   2.814   4.195   1.475 -1.1799  0.0240 -0.6532
 5763SOL    HW228752   2.748   4.244   1.595 -2.1388 -0.3820 -0.6582
 5764SOL     OW28753   3.704   3.460  12.328 -0.3829 -0.0049  0.2562
 5764SOL    HW128754   3.719   3.414  12.411  1.9757 -1.3475 -0.9090
 5764SOL    HW228755   3.641   3.525  12.360 -2.3375 -0.8420 -1.8365
 5765SOL     OW28756   3.961   3.565  16.012  0.2894  0.2305 -0.1880
 5765SOL    HW128757   3.928   3.577  16.101  3.6191 -1.2726  1.2308
 5765SOL    HW228758   3.902   3.496  15.980  0.5870  1.2526 -2.8724
 5766SOL     OW28759   2.239   4.058  12.035 -0.6307 -0.6307  0.1612
 5766SOL    HW128760   2.230   3.963  12.034 -0.2097 -0.6648 -0.3651
 5766SOL    HW228761   2.335   4.061  12.029 -0.7835 -0.1791 -2.1726
 5767SOL     OW28762   3.002   3.567   0.200 -0.4129  0.3379  0.8280
 5767SOL    HW128763   3.025   3.660   0.203  1.8221 -0.1429 -1.3306
 5767SOL    HW228764   3.009   3.536   0.290  2.2158  0.4254  0.6643
 5768SOL     OW28765   1.933   0.863   5.868 -0.4705  0.0489 -0.4062
 5768SOL    HW128766   1.877   0.875   5.945 -0.7808  0.4077 -0.6863
 5768SOL    HW228767   1.998   0.932   5.882 -0.2094 -0.5233  1.2289
 5769SOL     OW28768   3.305   4.211   7.364  0.1198 -0.1719  0.5624
 5769SOL    HW128769   3.214   4.210   7.392  0.2623  2.0031  1.1386
 5769SOL    HW228770   3.334   4.295   7.401 -0.5483  0.6535 -0.8134
 5770SOL     OW28771   2.327   1.981  17.445 -0.0781 -0.3251 -0.0526
 5770SOL    HW128772   2.264   2.032  17.395  0.0509  0.8472  0.9677
 5770SOL    HW228773   2.288   1.970  17.531 -2.3135 -0.6294 -1.1246
 5771SOL     OW28774   3.961   0.722   5.598 -0.3699 -0.1270 -0.3406
 5771SOL    HW128775   3.907   0.677   5.533 -0.5048 -2.0125  1.0660
 5771SOL    HW228776   3.914   0.804   5.607 -0.8588 -0.4597  0.1534
 5772SOL     OW28777   0.518   4.446  15.408 -0.3712  0.4899 -0.5164
 5772SOL    HW128778   0.443   4.416  15.459 -1.0908 -1.2628 -2.6403
 5772SOL    HW228779   0.590   4.408  15.459  1.9386 -0.2244 -4.2742
 5773SOL     OW28780   0.746   0.655   9.321  0.3716 -0.4430  0.2192
 5773SOL    HW128781   0.808   0.705   9.268 -1.5334  1.1973 -0.4303
 5773SOL    HW228782   0.661   0.691   9.297  1.9911  2.1995 -1.4648
 5774SOL     OW28783   4.029   0.800  14.617  0.1497  0.0198 -0.2292
 5774SOL    HW128784   4.027   0.886  14.660 -0.0600 -1.0247  1.8852
 5774SOL    HW228785   3.955   0.803  14.556 -0.9072 -1.2122  0.9696
 5775SOL     OW28786   0.242   4.079   1.873 -0.2530 -0.3335 -0.3318
 5775SOL    HW128787   0.299   4.155   1.888  0.7609 -1.0068 -0.7741
 5775SOL    HW228788   0.264   4.078   1.780  3.6582 -0.7033  0.5962
 5776SOL     OW28789   1.793   1.386  12.756  0.3385  0.4044  0.6026
 5776SOL    HW128790   1.703   1.358  12.775  0.6696 -0.5603  0.7337
 5776SOL    HW228791   1.827   1.301  12.731  1.0549  0.7078  0.5567
 5777SOL     OW28792   3.405   1.527   7.062 -0.3710  0.6575  0.6674
 5777SOL    HW128793   3.405   1.432   7.052 -0.1586  0.7158  0.1244
 5777SOL    HW228794   3.343   1.540   7.134  0.4886  1.3789  1.2820
 5778SOL     OW28795   2.613   1.965   5.341 -0.5260  0.2490 -0.0802
 5778SOL    HW128796   2.698   1.926   5.364 -0.5249  1.4170  1.8445
 5778SOL    HW228797   2.588   1.918   5.262  1.7137  0.8863 -1.1718
 5779SOL     OW28798   2.382   0.175  17.686  0.2492 -0.1185 -0.3000
 5779SOL    HW128799   2.441   0.162  17.612  0.6084 -1.2914  0.1934
 5779SOL    HW228800   2.353   0.085   0.012 -0.1719  0.0241 -0.2416
 5780SOL     OW28801   4.542   3.986  16.590  0.2017  0.3197  0.1390
 5780SOL    HW128802   4.635   3.971  16.574 -0.0413  0.3298 -1.3335
 5780SOL    HW228803   4.508   4.014  16.505  0.3767 -0.2705 -0.1238
 5781SOL     OW28804   3.827   2.462   9.290  0.5079  0.3968  0.0779
 5781SOL    HW128805   3.851   2.541   9.242 -1.7932 -0.1381 -1.9689
 5781SOL    HW228806   3.911   2.416   9.294  0.8568  1.0039 -0.2885
 5782SOL     OW28807   1.004   4.227  12.668 -0.0417 -0.0246  0.2019
 5782SOL    HW128808   1.097   4.232  12.648 -0.2039 -0.3274 -0.6592
 5782SOL    HW228809   0.994   4.311  12.711 -0.7428 -0.8785  1.7057
 5783SOL     OW28810   4.348   1.594   2.368  0.2207  0.5712  0.4220
 5783SOL    HW128811   4.409   1.537   2.415  1.3806  0.5926 -1.0741
 5783SOL    HW228812   4.329   1.542   2.290 -2.1403  1.8996  0.0991
 5784SOL     OW28813   1.407   4.244   4.450  0.4027 -0.0113  0.5194
 5784SOL    HW128814   1.412   4.151   4.469 -0.0864 -0.7683 -3.1491
 5784SOL    HW228815   1.417   4.259   4.356  2.6683  1.7379  1.0470
 5785SOL     OW28816   4.262   3.427   1.520 -0.3710  0.9250 -0.1044
 5785SOL    HW128817   4.279   3.334   1.533 -2.2273  0.6625  0.3741
 5785SOL    HW228818   4.327   3.441   1.451 -1.1024  1.3769 -0.7025
 5786SOL     OW28819   1.260   2.226   4.352 -0.5843  0.1890  1.2147
 5786SOL    HW128820   1.351   2.216   4.324 -0.5877  4.3879 -0.2357
 5786SOL    HW228821   1.266   2.192   4.441  0.1098  1.8279  1.7769
 5787SOL     OW28822   4.348   4.196   4.575  0.2060 -0.0234 -0.0323
 5787SOL    HW128823   4.304   4.153   4.647  0.1651 -0.7543 -0.4918
 5787SOL    HW228824   4.328   4.124   4.514 -3.8295  1.1883 -0.1181
 5788SOL     OW28825   3.053   3.607   4.558  0.6348  0.2578 -0.4305
 5788SOL    HW128826   2.961   3.609   4.530  1.1390 -2.2450 -2.2972
 5788SOL    HW228827   3.058   3.700   4.579 -0.0036  0.1953  0.0193
 5789SOL     OW28828   0.434   0.963   4.622 -0.2769 -0.1464  0.3696
 5789SOL    HW128829   0.403   0.873   4.629 -0.8921 -0.0137 -0.6165
 5789SOL    HW228830   0.515   0.953   4.571  0.5622 -1.3720  1.9613
 5790SOL     OW28831   4.490   0.910  11.446 -0.9319  0.0791 -0.5086
 5790SOL    HW128832   4.482   0.837  11.385 -2.1893  0.8862 -1.3237
 5790SOL    HW228833   4.422   0.969  11.412  0.2222  1.8994  0.3543
 5791SOL     OW28834   0.528   2.228   2.859 -0.3440  0.1124  0.0023
 5791SOL    HW128835   0.607   2.241   2.912 -1.8767  0.1895  2.2442
 5791SOL    HW228836   0.497   2.319   2.859 -1.5000 -0.2887 -0.7644
 5792SOL     OW28837   0.858   1.445  15.595 -0.4215 -0.1627 -0.4083
 5792SOL    HW128838   0.950   1.424  15.581 -0.6204 -0.2349 -1.6378
 5792SOL    HW228839   0.831   1.386  15.666 -2.5914  2.1500  0.6918
 5793SOL     OW28840   1.557   1.937  15.129 -0.2385  0.0108 -0.2523
 5793SOL    HW128841   1.523   1.992  15.200  0.9304 -0.8931  0.9913
 5793SOL    HW228842   1.612   1.871  15.171  0.1402  1.7355  1.9836
 5794SOL     OW28843   0.426   2.314   7.185  0.0637 -0.4130 -0.2884
 5794SOL    HW128844   0.404   2.398   7.225 -0.2323 -1.1672  1.0993
 5794SOL    HW228845   0.520   2.328   7.183  0.0622 -0.2244  1.0205
 5795SOL     OW28846   0.987   3.264   3.432 -0.1272 -0.5760 -0.1735
 5795SOL    HW128847   0.961   3.292   3.344 -0.0394 -1.2119 -0.3970
 5795SOL    HW228848   0.918   3.303   3.486  0.3250  1.5664 -1.1075
 5796SOL     OW28849   0.669   2.704   7.183 -0.0565 -0.0372  0.2681
 5796SOL    HW128850   0.617   2.712   7.103 -1.6897  1.3431  1.4583
 5796SOL    HW228851   0.674   2.612   7.209 -0.1594  0.1235  0.8662
 5797SOL     OW28852   1.501   2.406  12.649  0.2526 -0.5084 -0.0325
 5797SOL    HW128853   1.523   2.475  12.712 -1.5133 -1.0715  1.2221
 5797SOL    HW228854   1.577   2.386  12.595 -2.1987 -2.0836 -2.9245
 5798SOL     OW28855   1.245   2.328   7.625  0.3142 -0.4688 -0.3172
 5798SOL    HW128856   1.242   2.295   7.715 -1.6222 -2.4799 -1.1352
 5798SOL    HW228857   1.339   2.329   7.610  0.0814  0.9209 -1.7115
 5799SOL     OW28858   3.659   4.147   9.839  0.4515  0.1864  0.0742
 5799SOL    HW128859   3.723   4.089   9.880  0.2156  1.6777  2.5530
 5799SOL    HW228860   3.644   4.216   9.903 -0.7994  1.4258 -1.5332
 5800SOL     OW28861   3.519   1.974  10.548 -0.2251  0.2849  0.1113
 5800SOL    HW128862   3.465   1.980  10.469 -0.3999 -3.6264 -0.0915
 5800SOL    HW228863   3.605   1.970  10.506 -0.9392  0.5404 -1.3843
 5801SOL     OW28864   0.072   1.361  12.179 -1.0496  0.0554  0.2067
 5801SOL    HW128865   4.721   1.338  12.122 -2.7955 -0.9803  2.8260
 5801SOL    HW228866   0.134   1.389  12.112 -0.3923  0.1394  0.8417
 5802SOL     OW28867   4.207   0.056   6.359 -0.0933  0.4109 -0.4219
 5802SOL    HW128868   4.153   0.070   6.436  0.6049 -0.0576  0.1468
 5802SOL    HW228869   4.283   0.104   6.390 -0.8559  0.8077  0.8035
 5803SOL     OW28870   0.353   1.807  10.257  0.8876  0.4103  0.1184
 5803SOL    HW128871   0.259   1.806  10.241  1.0291 -0.1794 -0.6406
 5803SOL    HW228872   0.361   1.789  10.351  1.1413 -0.8546 -0.1523
 5804SOL     OW28873   2.060   3.069   9.826 -0.1330  0.3190 -0.2840
 5804SOL    HW128874   2.083   3.152   9.867 -0.2304 -0.0681  0.5523
 5804SOL    HW228875   2.087   3.082   9.735 -0.3339  0.9599 -0.2499
 5805SOL     OW28876   1.056   4.553   9.396 -0.2619  0.2074  0.2095
 5805SOL    HW128877   1.070   4.585   9.485  1.1645  2.0177 -0.6828
 5805SOL    HW228878   1.143   4.545   9.358 -0.8590 -0.1698 -1.1052
 5806SOL     OW28879   3.661   0.686   4.140  0.0974 -0.5247 -0.2200
 5806SOL    HW128880   3.639   0.742   4.066 -0.8780  0.4416  0.8009
 5806SOL    HW228881   3.623   0.601   4.116  0.2355 -1.1151  1.6296
 5807SOL     OW28882   2.648   3.085  11.050 -0.2597  0.3628 -0.7287
 5807SOL    HW128883   2.654   3.181  11.048 -0.4361  0.3877 -0.0559
 5807SOL    HW228884   2.741   3.071  11.032 -0.2208 -1.6341  1.0612
 5808SOL     OW28885   2.513   4.681   4.720  0.2473  0.4379 -0.2479
 5808SOL    HW128886   2.470   0.044   4.731  0.8024  0.8352 -1.1248
 5808SOL    HW228887   2.445   4.628   4.680  0.1386  0.6310 -0.3184
 5809SOL     OW28888   3.821   3.715   4.407 -0.4900  0.2325  0.3264
 5809SOL    HW128889   3.874   3.686   4.481  0.1816  0.2312 -0.1657
 5809SOL    HW228890   3.863   3.673   4.332 -2.3897 -1.1626  0.0350
 5810SOL     OW28891   1.387   0.527   5.920 -0.6701 -0.5980  0.3256
 5810SOL    HW128892   1.335   0.448   5.924  0.7547 -1.4894  1.3316
 5810SOL    HW228893   1.416   0.533   6.012 -1.9863 -1.4607  0.7830
 5811SOL     OW28894   1.688   3.297   8.966  0.0658 -0.3345 -0.0315
 5811SOL    HW128895   1.597   3.324   8.954 -0.0895 -0.7037  0.3317
 5811SOL    HW228896   1.688   3.277   9.059  1.7291 -0.9916 -0.1622
 5812SOL     OW28897   4.347   2.125   6.367 -0.1142 -0.2229 -0.3171
 5812SOL    HW128898   4.341   2.151   6.459  1.4505 -2.1756  0.3456
 5812SOL    HW228899   4.310   2.036   6.371  1.6316 -0.9898 -1.4287
 5813SOL     OW28900   3.161   0.054   2.926 -0.2379 -0.1344  0.5899
 5813SOL    HW128901   3.191   0.138   2.889 -2.2715  0.0304 -0.7063
 5813SOL    HW228902   3.239   0.011   2.961 -0.6150 -1.5930 -0.3485
 5814SOL     OW28903   1.539   1.351  10.454 -0.2945  0.2671  0.4857
 5814SOL    HW128904   1.553   1.371  10.546  1.3869 -1.3202  0.5922
 5814SOL    HW228905   1.591   1.415  10.407 -2.7708  2.7834  1.1757
 5815SOL     OW28906   2.166   1.134   7.597 -0.7746 -0.4748 -0.3862
 5815SOL    HW128907   2.088   1.188   7.607 -0.1203  0.0085  2.0937
 5815SOL    HW228908   2.128   1.052   7.564  1.5069 -0.7164 -2.3726
 5816SOL     OW28909   1.985   3.178   3.597  0.5716 -0.0282  0.1443
 5816SOL    HW128910   1.949   3.102   3.643  1.2592 -0.6330 -0.3196
 5816SOL    HW228911   2.038   3.143   3.526 -1.2851 -0.6080 -0.9621
 5817SOL     OW28912   1.666   1.739   4.341  0.2187 -0.2021 -0.4335
 5817SOL    HW128913   1.675   1.834   4.339 -0.6668 -0.0940  0.4882
 5817SOL    HW228914   1.573   1.722   4.358  0.4767 -2.3806 -1.2114
 5818SOL     OW28915   0.709   1.685   6.324 -0.3286  0.2471  0.2035
 5818SOL    HW128916   0.734   1.610   6.378  1.1410  2.1579  2.1967
 5818SOL    HW228917   0.620   1.657   6.304 -0.1408 -0.1617 -0.0550
 5819SOL     OW28918   2.561   3.088  14.000 -0.7374 -0.4839  0.1606
 5819SOL    HW128919   2.629   3.113  13.938 -1.1350  2.7013  0.9987
 5819SOL    HW228920   2.575   2.993  13.995 -3.3289 -0.8830  0.6182
 5820SOL     OW28921   3.256   2.192   0.099  0.0151 -0.0547 -0.0542
 5820SOL    HW128922   3.307   2.118   0.067 -1.1043 -0.9575  0.2117
 5820SOL    HW228923   3.323   2.243   0.144 -0.7734  0.2371  0.8140
 5821SOL     OW28924   2.282   1.956  16.790 -0.1841 -0.6566  0.4506
 5821SOL    HW128925   2.206   1.990  16.836 -2.2373 -1.0937 -2.6243
 5821SOL    HW228926   2.334   2.036  16.782 -1.8314  0.0672 -3.3503
 5822SOL     OW28927   3.769   2.776   9.566 -0.1039  0.4739 -0.2463
 5822SOL    HW128928   3.683   2.802   9.599 -0.4641 -2.2638  1.0219
 5822SOL    HW228929   3.774   2.808   9.476 -1.9079 -0.7706 -0.7986
 5823SOL     OW28930   3.638   2.422   7.707 -0.0492 -0.1260  0.0307
 5823SOL    HW128931   3.567   2.474   7.670 -0.0149 -0.2950 -0.2765
 5823SOL    HW228932   3.691   2.494   7.741 -1.2966  0.0066  1.6948
 5824SOL     OW28933   2.638   1.972   9.201 -0.3879 -0.6626 -0.5362
 5824SOL    HW128934   2.678   2.059   9.203 -1.9459  0.1115 -2.9233
 5824SOL    HW228935   2.702   1.924   9.253  0.2139  1.2157  0.4783
 5825SOL     OW28936   4.257   3.538   2.810 -0.1286  0.3516  0.7165
 5825SOL    HW128937   4.176   3.588   2.807 -0.2852  0.0710  0.2692
 5825SOL    HW228938   4.273   3.520   2.717 -0.3779 -2.3117  1.1898
 5826SOL     OW28939   1.558   1.336  16.878 -0.2203  0.2374 -0.5127
 5826SOL    HW128940   1.566   1.394  16.953  1.1433 -1.2977  0.5188
 5826SOL    HW228941   1.532   1.253  16.918  0.6578 -0.0646 -0.5587
 5827SOL     OW28942   0.879   3.398   5.779 -0.0459 -0.1729  0.3511
 5827SOL    HW128943   0.931   3.406   5.859  1.3116 -0.3957 -0.5148
 5827SOL    HW228944   0.793   3.432   5.805  0.0578 -0.0014  0.4693
 5828SOL     OW28945   2.832   0.318   9.271  0.0645 -0.7963 -0.5906
 5828SOL    HW128946   2.853   0.371   9.348  0.6740 -1.4830 -0.2845
 5828SOL    HW228947   2.881   0.238   9.292 -1.0044 -1.3201 -0.0404
 5829SOL     OW28948   1.998   1.997  12.581  0.3699 -0.2646 -0.2401
 5829SOL    HW128949   2.060   1.932  12.611 -2.0475 -2.0408  0.9036
 5829SOL    HW228950   2.062   2.068  12.568  0.6060 -0.7235 -1.5417
 5830SOL     OW28951   3.078   3.240   2.997  0.2685  0.0861  0.2963
 5830SOL    HW128952   3.102   3.150   2.973  0.0056  0.5223 -1.5781
 5830SOL    HW228953   3.108   3.287   2.920 -1.3440  0.0598 -0.3446
 5831SOL     OW28954   1.573   2.650  12.763 -0.2253 -0.9828  0.3428
 5831SOL    HW128955   1.502   2.712  12.749 -0.6350 -1.6138 -0.4285
 5831SOL    HW228956   1.637   2.706  12.807 -1.5773 -0.3847  1.5401
 5832SOL     OW28957   4.183   1.746  14.003 -0.5232 -0.1294  0.1007
 5832SOL    HW128958   4.173   1.788  14.089  2.1107  1.4052 -0.3290
 5832SOL    HW228959   4.165   1.653  14.020 -0.3226 -0.3102 -0.7047
 5833SOL     OW28960   3.636   2.355  15.934  0.1699 -0.3650 -0.0028
 5833SOL    HW128961   3.725   2.391  15.945 -0.3297  0.9050 -0.1335
 5833SOL    HW228962   3.644   2.294  16.007  1.1826 -0.7612 -0.4411
 5834SOL     OW28963   4.384   2.182   1.355 -0.2798  0.3392 -0.1596
 5834SOL    HW128964   4.434   2.100   1.355 -0.4842  0.2011  1.3571
 5834SOL    HW228965   4.455   2.241   1.380  0.0231 -0.0230 -0.1729
 5835SOL     OW28966   4.610   3.082  16.771 -0.3436  0.7423  0.2130
 5835SOL    HW128967   4.557   3.020  16.721 -0.6239 -0.9896  2.6392
 5835SOL    HW228968   4.582   3.072  16.862  1.1198  0.1227  0.6052
 5836SOL     OW28969   4.508   3.127   8.692  1.0252  0.0361  0.1381
 5836SOL    HW128970   4.584   3.112   8.636 -1.9783 -3.0242 -3.1011
 5836SOL    HW228971   4.533   3.202   8.746 -0.1440 -0.0046  0.7560
 5837SOL     OW28972   0.539   1.786   7.940 -0.1562 -0.1380  0.2412
 5837SOL    HW128973   0.555   1.864   7.887 -1.0738  2.2222  3.3726
 5837SOL    HW228974   0.455   1.790   7.987 -0.3680  1.3598 -0.2877
 5838SOL     OW28975   0.766   3.744   4.835  0.1191  0.0217  0.2918
 5838SOL    HW128976   0.766   3.679   4.906 -3.3284  0.4911  0.7208
 5838SOL    HW228977   0.672   3.762   4.827  0.0349 -0.4197  0.2865
 5839SOL     OW28978   3.370   3.105   9.224  0.4006  0.3308  0.0146
 5839SOL    HW128979   3.275   3.102   9.207  0.2124  0.9794  0.9649
 5839SOL    HW228980   3.409   3.075   9.142  0.3144  0.6907 -0.1587
 5840SOL     OW28981   1.430   3.384   8.606 -0.2045 -0.0708  0.0193
 5840SOL    HW128982   1.377   3.344   8.676 -0.5963 -0.1188 -0.3005
 5840SOL    HW228983   1.504   3.326   8.626 -1.0830 -1.8105 -1.8041
 5841SOL     OW28984   3.175   1.575  11.546  0.3004 -0.3186  0.1279
 5841SOL    HW128985   3.097   1.600  11.596  1.2997  0.3624  1.3482
 5841SOL    HW228986   3.172   1.480  11.559 -0.8774 -0.2303  0.5170
 5842SOL     OW28987   0.483   0.755   2.032  0.2725 -0.4165  0.4070
 5842SOL    HW128988   0.396   0.794   2.037 -0.4718 -2.1529  0.9330
 5842SOL    HW228989   0.447   0.670   2.008  0.3819 -0.2637 -0.3094
 5843SOL     OW28990   3.784   4.042   8.620  0.3479 -0.1606  0.0250
 5843SOL    HW128991   3.814   4.122   8.663 -4.6632  2.4350 -1.2900
 5843SOL    HW228992   3.690   4.042   8.642  0.5013  0.7723  0.6604
 5844SOL     OW28993   3.197   0.321   6.173 -1.0000 -0.2226 -0.0063
 5844SOL    HW128994   3.223   0.231   6.192 -0.0766  0.0847  0.1692
 5844SOL    HW228995   3.262   0.339   6.106 -1.6508 -0.0615 -0.6000
 5845SOL     OW28996   1.674   0.236   5.868  0.0826 -0.9388 -0.7116
 5845SOL    HW128997   1.652   0.303   5.804  0.0116 -1.5662 -1.3445
 5845SOL    HW228998   1.762   0.259   5.897 -0.2142  1.6431 -1.8930
 5846SOL     OW28999   3.334   4.306  17.613  0.0513 -0.0933  0.5339
 5846SOL    HW129000   3.336   4.369  17.684  0.6841  0.9031 -0.3707
 5846SOL    HW229001   3.342   4.223  17.661  1.1076  0.5168  1.4085
 5847SOL     OW29002   2.606   1.324   2.356 -0.3229  0.7044  0.0534
 5847SOL    HW129003   2.529   1.377   2.337 -0.4234  0.9855  1.2578
 5847SOL    HW229004   2.672   1.392   2.345  2.3562 -1.7429  1.1031
 5848SOL     OW29005   3.598   3.548   7.746 -0.3455  0.6147 -0.2245
 5848SOL    HW129006   3.519   3.513   7.787  0.9356 -1.3401  0.5872
 5848SOL    HW229007   3.587   3.642   7.758 -0.0327  0.4734  1.2470
 5849SOL     OW29008   1.530   3.435   2.748  0.2340 -0.5619  0.3593
 5849SOL    HW129009   1.565   3.365   2.804  0.9943  1.2508  2.1348
 5849SOL    HW229010   1.519   3.388   2.666 -0.2983 -0.8215  0.5755
 5850SOL     OW29011   1.841   4.098  13.867 -0.0913  0.1434  0.2052
 5850SOL    HW129012   1.750   4.118  13.845 -0.3831  0.6400  1.8516
 5850SOL    HW229013   1.848   4.003  13.872  1.1136  0.0610 -3.3653
 5851SOL     OW29014   0.896   2.019   9.631  0.0397 -0.6515 -0.4934
 5851SOL    HW129015   0.924   2.088   9.692 -1.7666 -0.1434 -0.2402
 5851SOL    HW229016   0.974   1.966   9.615 -1.5369 -2.9360 -0.6433
 5852SOL     OW29017   4.126   4.021   2.573 -1.0187 -0.1026  0.3031
 5852SOL    HW129018   4.035   3.993   2.572 -1.0625  0.0120  0.8978
 5852SOL    HW229019   4.117   4.113   2.599  0.0609  0.2471 -0.5463
 5853SOL     OW29020   2.076   0.713   8.121 -0.7637 -0.0038 -0.0429
 5853SOL    HW129021   2.161   0.687   8.156 -0.4516  0.0922 -0.7317
 5853SOL    HW229022   2.100   0.793   8.076 -1.8318 -0.0793 -0.7493
 5854SOL     OW29023   3.028   2.537   5.233  0.0594 -0.2486  0.0500
 5854SOL    HW129024   3.028   2.447   5.268 -1.1364 -1.7835 -3.9238
 5854SOL    HW229025   2.940   2.540   5.197  0.1830 -5.2619 -0.6659
 5855SOL     OW29026   4.208   1.888   7.901 -0.1313 -0.2523  0.1344
 5855SOL    HW129027   4.264   1.863   7.827 -1.1360  0.7703 -0.9578
 5855SOL    HW229028   4.198   1.804   7.946  1.0519 -0.0424  0.7926
 5856SOL     OW29029   1.408   4.092   9.133 -0.4762  0.0503  0.0805
 5856SOL    HW129030   1.414   4.084   9.228 -2.0910  0.2032  0.1939
 5856SOL    HW229031   1.317   4.084   9.105 -0.6247 -1.8634  1.0500
 5857SOL     OW29032   1.684   0.627  12.830 -0.3449  0.2832  0.2087
 5857SOL    HW129033   1.695   0.542  12.787 -1.4092 -1.3605  3.1641
 5857SOL    HW229034   1.752   0.678  12.786  1.2439  0.8302  3.2884
 5858SOL     OW29035   0.708   2.094  16.049 -0.0474  0.3038  0.2247
 5858SOL    HW129036   0.769   2.156  16.089 -1.6977  2.0801  0.0214
 5858SOL    HW229037   0.749   2.109  15.963 -2.5594  3.5782 -0.4256
 5859SOL     OW29038   2.894   0.600  17.387  0.0772 -0.2417  0.8658
 5859SOL    HW129039   2.964   0.591  17.322 -1.4976 -1.1925 -0.6629
 5859SOL    HW229040   2.934   0.594  17.474 -1.9123 -0.7311  1.7495
 5860SOL     OW29041   2.070   0.548  11.541  0.0856 -0.0011 -0.3267
 5860SOL    HW129042   2.084   0.640  11.565  1.7519 -0.3069 -0.1469
 5860SOL    HW229043   2.093   0.509  11.625 -0.5974 -0.2876 -0.2721
 5861SOL     OW29044   3.949   3.429   3.656 -0.1807  0.3548 -0.3928
 5861SOL    HW129045   4.011   3.501   3.645  0.0242  0.0772 -1.0517
 5861SOL    HW229046   3.997   3.355   3.618 -0.6760  0.6393 -1.5881
 5862SOL     OW29047   0.590   0.433   4.075  0.0934  0.0743 -0.0615
 5862SOL    HW129048   0.610   0.524   4.097  0.6818 -0.0771  0.0280
 5862SOL    HW229049   0.500   0.457   4.050 -0.7209 -0.3183  2.5121
 5863SOL     OW29050   0.189   3.165   2.319  0.2402 -0.4648  0.3068
 5863SOL    HW129051   0.101   3.141   2.288 -0.0438  1.1728 -0.1626
 5863SOL    HW229052   0.188   3.261   2.311  1.8363 -0.3320  1.7668
 5864SOL     OW29053   2.406   4.168  16.820 -0.7752 -0.2781  0.2022
 5864SOL    HW129054   2.404   4.106  16.747 -1.0417  1.8607 -1.6193
 5864SOL    HW229055   2.312   4.180  16.829 -1.1114 -1.3963 -1.8103
 5865SOL     OW29056   3.046   4.321   1.136 -0.4682  0.0779  0.5728
 5865SOL    HW129057   3.034   4.368   1.219  0.6954  0.3301  0.6030
 5865SOL    HW229058   3.140   4.304   1.137 -0.3013  0.9658 -0.8299
 5866SOL     OW29059   2.985   0.294   5.769  0.0829 -0.3964  0.0868
 5866SOL    HW129060   2.933   0.298   5.849 -0.9569  1.8687 -0.6930
 5866SOL    HW229061   3.036   0.375   5.776 -0.2157 -0.2896  0.9556
 5867SOL     OW29062   2.202   1.951   4.778 -0.5736 -0.3705 -0.2453
 5867SOL    HW129063   2.147   1.965   4.701 -2.3317 -0.3006  1.0275
 5867SOL    HW229064   2.276   1.917   4.728 -1.0165 -0.4417 -0.8569
 5868SOL     OW29065   4.654   2.849   4.179 -0.1025  0.0719  0.6512
 5868SOL    HW129066   4.573   2.896   4.199  1.3027  1.9421  1.8725
 5868SOL    HW229067   4.664   2.858   4.084 -0.6312  1.2706  0.7122
 5869SOL     OW29068   2.773   0.540  15.161 -0.2636  0.3991 -0.2152
 5869SOL    HW129069   2.822   0.503  15.087  1.2503 -2.0839  2.0287
 5869SOL    HW229070   2.809   0.628  15.150 -2.8554  1.2725 -1.7707
 5870SOL     OW29071   3.828   4.406   9.348 -0.6547  0.3012  0.4216
 5870SOL    HW129072   3.816   4.499   9.369  2.2634  0.7429  0.2019
 5870SOL    HW229073   3.797   4.360   9.426  4.2286 -1.3640  1.4152
 5871SOL     OW29074   2.210   4.019   4.574 -0.0053  0.2465 -0.1277
 5871SOL    HW129075   2.211   3.951   4.641 -0.2494 -0.2828 -0.6577
 5871SOL    HW229076   2.303   4.039   4.585  0.4337 -2.2395  0.7194
 5872SOL     OW29077   3.422   1.261  13.080 -0.2076 -0.8049  0.0127
 5872SOL    HW129078   3.390   1.276  12.991  2.2118  0.5433 -0.6323
 5872SOL    HW229079   3.497   1.320  13.081 -1.5910  1.0188 -2.8832
 5873SOL     OW29080   2.232   0.559   2.638 -0.0712  0.3817  0.4097
 5873SOL    HW129081   2.167   0.543   2.570 -1.6438  2.3412  1.4532
 5873SOL    HW229082   2.249   0.468   2.661  1.2815  0.3325 -0.7502
 5874SOL     OW29083   2.754   1.122  11.451 -0.2695 -0.1065  0.0705
 5874SOL    HW129084   2.765   1.215  11.470  0.0446 -0.0872 -0.2100
 5874SOL    HW229085   2.731   1.084  11.536  0.7666  0.3010  0.5261
 5875SOL     OW29086   1.271   2.187   2.933 -0.3380 -0.2173 -0.2699
 5875SOL    HW129087   1.225   2.268   2.958  3.7290  1.7027  0.8769
 5875SOL    HW229088   1.237   2.165   2.847 -0.5778  0.9377 -0.4790
 5876SOL     OW29089   4.269   0.880  13.664  0.2369 -0.1351 -0.3547
 5876SOL    HW129090   4.196   0.819  13.664  0.7100 -0.7060 -1.3215
 5876SOL    HW229091   4.300   0.865  13.574 -1.0882 -0.7083 -0.7113
 5877SOL     OW29092   4.227   3.862   8.583 -0.3350 -0.0447 -0.4383
 5877SOL    HW129093   4.194   3.868   8.673 -2.5414 -1.2158 -1.1687
 5877SOL    HW229094   4.255   3.952   8.566  0.2407  0.2165  1.8669
 5878SOL     OW29095   1.235   0.979   2.507 -0.0581 -0.0003  0.2959
 5878SOL    HW129096   1.325   1.010   2.501 -0.3193  0.4036 -1.5541
 5878SOL    HW229097   1.188   1.059   2.483  0.7198 -0.4699 -2.8353
 5879SOL     OW29098   0.124   2.711  12.228  0.8135  0.3722  0.1984
 5879SOL    HW129099   0.130   2.675  12.139  0.4752  2.5136 -0.7039
 5879SOL    HW229100   0.078   2.640  12.271 -1.5062  1.2523 -0.7894
 5880SOL     OW29101   3.992   2.303   2.865 -0.2530  0.0162 -0.3541
 5880SOL    HW129102   3.920   2.241   2.875 -0.0379 -0.1685  0.0277
 5880SOL    HW229103   3.992   2.324   2.771  1.1034  0.9457 -0.1372
 5881SOL     OW29104   1.634   2.161  11.837  0.4154  0.2751 -0.2906
 5881SOL    HW129105   1.646   2.073  11.872  0.2393  0.2548 -0.2807
 5881SOL    HW229106   1.691   2.211  11.896  1.2405  0.6244 -1.3798
 5882SOL     OW29107   1.847   0.094   2.833  0.0717  0.0425  0.2690
 5882SOL    HW129108   1.910   0.073   2.764 -0.2937  1.1179 -0.3994
 5882SOL    HW229109   1.899   0.144   2.896 -0.5025  0.0850  0.6976
 5883SOL     OW29110   4.295   2.945   7.388 -0.1232  0.5550 -0.6699
 5883SOL    HW129111   4.233   2.991   7.331 -0.6745  2.5771  1.5696
 5883SOL    HW229112   4.251   2.966   7.470  0.9859 -0.1839  0.1035
 5884SOL     OW29113   0.796   3.141   5.749  0.8467 -0.2808 -0.0025
 5884SOL    HW129114   0.832   3.128   5.661  0.1391 -0.9545 -0.1844
 5884SOL    HW229115   0.828   3.229   5.769  0.3434 -0.7502  2.8704
 5885SOL     OW29116   4.004   2.122   2.035 -0.1438  0.6748  0.3415
 5885SOL    HW129117   4.064   2.179   2.084 -0.7637  0.3632  1.4726
 5885SOL    HW229118   3.924   2.174   2.038  0.7242  1.9712  1.7887
 5886SOL     OW29119   0.789   0.141   7.086 -0.0258 -0.4574  0.1488
 5886SOL    HW129120   0.824   0.220   7.044 -1.8061  0.5257  0.5232
 5886SOL    HW229121   0.804   0.154   7.179  0.7441 -1.4830  0.1559
 5887SOL     OW29122   4.420   4.459   3.924  0.6139  0.1356  0.3673
 5887SOL    HW129123   4.501   4.503   3.949 -0.4476  2.1179  0.3225
 5887SOL    HW229124   4.375   4.465   4.008  0.3262 -0.4955  0.2579
 5888SOL     OW29125   1.873   1.549   7.665 -0.4840 -0.5599  0.1027
 5888SOL    HW129126   1.857   1.465   7.709  0.0106 -0.4987  0.4108
 5888SOL    HW229127   1.876   1.594   7.750 -1.2379 -1.6511  0.7064
 5889SOL     OW29128   2.184   1.749   0.818 -0.3579 -0.2700 -0.5951
 5889SOL    HW129129   2.153   1.816   0.757 -0.1159 -1.5730 -2.1577
 5889SOL    HW229130   2.221   1.805   0.886 -1.4121  0.4944 -0.6451
 5890SOL     OW29131   4.647   3.627   2.497 -0.0135  0.0874  0.3324
 5890SOL    HW129132   4.657   3.719   2.473 -1.3780 -0.6936 -3.2284
 5890SOL    HW229133   4.650   3.631   2.593 -2.4171 -0.7454  0.4562
 5891SOL     OW29134   2.543   0.703  14.418 -0.4358  0.6961 -0.0404
 5891SOL    HW129135   2.452   0.731  14.414 -0.5102  0.3246 -0.9113
 5891SOL    HW229136   2.576   0.732  14.334  0.6239  0.4598  0.2944
 5892SOL     OW29137   0.325   1.067   3.580 -0.2700 -0.1122  0.2465
 5892SOL    HW129138   0.319   1.157   3.549  1.1491 -0.3334 -0.6463
 5892SOL    HW229139   0.272   1.078   3.659  0.2991  2.1237  0.3098
 5893SOL     OW29140   2.207   1.131   4.182 -0.4255 -0.5748  0.3318
 5893SOL    HW129141   2.139   1.141   4.249 -1.5120  2.1783 -1.2057
 5893SOL    HW229142   2.266   1.206   4.192  0.3679 -0.9054 -1.8663
 5894SOL     OW29143   3.779   3.120   2.487  0.0815  0.0584  0.2032
 5894SOL    HW129144   3.733   3.129   2.570  1.4107 -1.4865  1.0968
 5894SOL    HW229145   3.717   3.074   2.431 -0.0525  0.4256  0.0477
 5895SOL     OW29146   0.358   2.053   3.367 -0.2924 -0.0284  0.3639
 5895SOL    HW129147   0.272   2.071   3.330  0.5873  1.1886 -1.0786
 5895SOL    HW229148   0.424   2.076   3.302 -0.3428  0.1656  0.3794
 5896SOL     OW29149   3.300   2.440   6.749  0.3712 -0.1192  0.8262
 5896SOL    HW129150   3.359   2.424   6.675  0.2229  0.4340  0.5948
 5896SOL    HW229151   3.276   2.351   6.774 -3.1167  0.3537 -0.8945
 5897SOL     OW29152   0.838   4.428   0.388  0.5378  0.3921 -0.2600
 5897SOL    HW129153   0.878   4.361   0.332 -0.1289  0.4433 -0.7966
 5897SOL    HW229154   0.923   4.472   0.393  0.4378  0.5614 -0.0901
 5898SOL     OW29155   3.273   1.133  17.534 -0.1066 -0.2895 -0.5689
 5898SOL    HW129156   3.209   1.105  17.468  0.5140 -1.1301 -0.8194
 5898SOL    HW229157   3.325   1.191  17.478  0.5884 -1.1380 -0.7982
 5899SOL     OW29158   2.208   4.541   2.471 -0.0748 -0.0483 -0.2110
 5899SOL    HW129159   2.301   4.562   2.480 -0.6615  2.0567  0.8926
 5899SOL    HW229160   2.190   4.595   2.393  1.2361  1.5162  0.5770
 5900SOL     OW29161   1.366   2.984   2.940  0.4106  0.3982  0.0818
 5900SOL    HW129162   1.293   2.953   2.993  0.8077  0.0376  0.4233
 5900SOL    HW229163   1.340   2.944   2.857  0.1786  2.0349 -0.6438
 5901SOL     OW29164   4.465   1.519   0.384 -0.0490 -0.5754 -0.0535
 5901SOL    HW129165   4.498   1.507   0.295 -0.6029  4.8239 -0.9531
 5901SOL    HW229166   4.439   1.611   0.386  2.3863  0.0387  2.6327
 5902SOL     OW29167   0.048   4.291   6.820 -0.0665 -0.5591 -0.2838
 5902SOL    HW129168   0.136   4.314   6.790 -0.6656  1.0935 -0.7603
 5902SOL    HW229169   0.045   4.323   6.910 -1.2277 -1.4877  0.0158
 5903SOL     OW29170   3.535   3.345   4.483  0.3216  0.0819 -0.3621
 5903SOL    HW129171   3.453   3.374   4.443 -0.4252  1.5178  2.1849
 5903SOL    HW229172   3.508   3.266   4.529  1.5064 -0.6396 -0.8976
 5904SOL     OW29173   2.694   1.641   8.987  0.1174 -0.3783  0.1185
 5904SOL    HW129174   2.776   1.643   8.939 -0.3878 -0.0025 -0.7337
 5904SOL    HW229175   2.668   1.549   8.992  1.9300 -0.9159 -0.4710
 5905SOL     OW29176   4.662   2.473   4.129  0.3446 -1.0696  0.4141
 5905SOL    HW129177   4.654   2.523   4.048  0.6911 -1.9713 -0.1798
 5905SOL    HW229178   4.710   2.535   4.185  0.1560 -0.8405  0.3211
 5906SOL     OW29179   2.510   4.350  15.520 -1.2185  0.0951 -0.0520
 5906SOL    HW129180   2.461   4.291  15.576  0.8364 -2.4918 -0.9678
 5906SOL    HW229181   2.494   4.441  15.546  0.9850  0.3579  0.3831
 5907SOL     OW29182   2.818   3.003   1.892 -0.6386 -0.3430  0.1049
 5907SOL    HW129183   2.824   3.060   1.969 -0.3228  1.9558 -1.6160
 5907SOL    HW229184   2.847   3.058   1.819 -2.7307  0.3579 -0.2091
 5908SOL     OW29185   2.204   1.773   7.790  0.2234 -0.2115  1.5358
 5908SOL    HW129186   2.268   1.777   7.861  1.5127  0.0348  0.3647
 5908SOL    HW229187   2.124   1.735   7.826 -0.4058  0.9474  1.3753
 5909SOL     OW29188   2.186   3.067  12.291  0.0009 -0.6253  0.1648
 5909SOL    HW129189   2.175   3.050  12.197 -3.9153 -1.2510  0.7619
 5909SOL    HW229190   2.116   3.007  12.316 -1.4540  1.0131  0.0004
 5910SOL     OW29191   3.575   0.073  10.476  0.1686 -0.0832  0.3455
 5910SOL    HW129192   3.555   4.715  10.427  1.3421  1.3367 -2.4800
 5910SOL    HW229193   3.588   0.034  10.562 -0.4935 -0.6289  0.2034
 5911SOL     OW29194   3.000   4.607   8.271  0.4816 -0.1325 -0.5793
 5911SOL    HW129195   2.919   4.655   8.292  2.0087  0.9784  2.7156
 5911SOL    HW229196   2.962   4.519   8.270  0.0679  0.0425 -0.0556
 5912SOL     OW29197   2.184   2.401   8.197  0.0003 -0.6281  0.4425
 5912SOL    HW129198   2.222   2.421   8.112 -0.8922 -1.4420 -0.1529
 5912SOL    HW229199   2.235   2.456   8.257 -2.3167  1.7488  0.2122
 5913SOL     OW29200   0.110   4.495   7.527  0.3579  0.0907 -0.0855
 5913SOL    HW129201   0.203   4.483   7.548  0.9924  0.6192 -2.5984
 5913SOL    HW229202   0.108   4.590   7.517 -1.2986  0.3060  2.3756
 5914SOL     OW29203   4.159   3.100  11.588 -0.5336 -0.0036  0.3670
 5914SOL    HW129204   4.212   3.165  11.633 -0.8225  0.7318 -0.3484
 5914SOL    HW229205   4.222   3.031  11.568 -0.3755  0.1332  0.3949
 5915SOL     OW29206   4.480   3.254   5.711 -0.6322 -0.9083 -0.3291
 5915SOL    HW129207   4.515   3.336   5.677  1.1143 -1.8369 -0.7812
 5915SOL    HW229208   4.446   3.272   5.798  0.1150  1.1961 -0.4665
 5916SOL     OW29209   3.568   4.624   2.138  0.3161 -0.0791 -0.7712
 5916SOL    HW129210   3.624   4.687   2.182 -0.8040  0.1210  0.3707
 5916SOL    HW229211   3.516   4.602   2.215  2.5073  1.1287  1.0366
 5917SOL     OW29212   3.418   4.179   1.782 -0.0798  0.2984  0.7101
 5917SOL    HW129213   3.372   4.096   1.790  1.4053 -0.7596 -1.8761
 5917SOL    HW229214   3.356   4.229   1.729  2.3961 -0.6807 -3.1032
 5918SOL     OW29215   4.543   3.810   2.713  0.2326  0.1128  0.0185
 5918SOL    HW129216   4.464   3.795   2.661 -0.4203  1.2542  0.6812
 5918SOL    HW229217   4.586   3.884   2.670  0.8043  0.4480  1.1807
 5919SOL     OW29218   0.429   0.093   6.269 -0.2188 -0.1925  0.6291
 5919SOL    HW129219   0.363   0.050   6.323  0.1177 -0.7378  0.6047
 5919SOL    HW229220   0.385   0.151   6.207 -1.3570  1.1853  2.7053
 5920SOL     OW29221   4.201   0.846   6.956  0.5320 -0.4727  0.3769
 5920SOL    HW129222   4.111   0.823   6.976  0.2508  0.7676  0.4955
 5920SOL    HW229223   4.208   0.940   6.942  0.4619 -0.7392 -1.4464
 5921SOL     OW29224   1.206   0.309   6.016  0.4831 -0.0127 -0.1553
 5921SOL    HW129225   1.120   0.346   5.995  0.5241 -0.5470 -1.2410
 5921SOL    HW229226   1.187   0.256   6.093 -2.7814 -1.8606 -2.2171
 5922SOL     OW29227   1.743   2.062  13.952  0.1649 -0.0006 -0.2428
 5922SOL    HW129228   1.650   2.046  13.965  0.4030 -0.9786  0.2953
 5922SOL    HW229229   1.747   2.038  13.859  2.2803 -0.9212  0.0851
 5923SOL     OW29230   4.480   0.258   2.246  0.3295 -0.3679 -0.5600
 5923SOL    HW129231   4.398   0.303   2.268  1.2450  2.4202 -2.8023
 5923SOL    HW229232   4.504   0.237   2.337  0.4317  1.1924 -0.2216
 5924SOL     OW29233   1.960   4.396   4.098 -0.1851 -0.5126 -0.4274
 5924SOL    HW129234   1.973   4.304   4.076  0.8268 -0.5283  0.2113
 5924SOL    HW229235   2.006   4.408   4.181 -0.9945  3.2567 -0.5073
 5925SOL     OW29236   2.927   1.624   4.386  0.0260 -0.2797 -1.1893
 5925SOL    HW129237   3.002   1.682   4.375  1.3057 -1.2988  2.1057
 5925SOL    HW229238   2.946   1.554   4.324  0.6326 -1.8429  0.7516
 5926SOL     OW29239   3.272   2.084  13.915 -0.4210 -0.5200  0.2668
 5926SOL    HW129240   3.365   2.081  13.892 -0.3688  0.4385  0.3216
 5926SOL    HW229241   3.244   2.136  13.840  0.0328  0.5546  0.8340
 5927SOL     OW29242   2.293   2.133   7.279  0.4902  0.0438  0.0291
 5927SOL    HW129243   2.206   2.172   7.284  0.2212 -0.3875 -1.2123
 5927SOL    HW229244   2.272   2.040   7.271  0.0649  0.1208  0.2836
 5928SOL     OW29245   3.034   0.284   4.505 -0.1134 -0.0413  0.2324
 5928SOL    HW129246   3.110   0.329   4.468  0.0146  0.5955  1.2858
 5928SOL    HW229247   3.059   0.192   4.494  2.1033  0.4697  1.1148
 5929SOL     OW29248   1.387   2.528   5.971  0.2333  0.4320 -0.4440
 5929SOL    HW129249   1.465   2.543   5.919 -0.3459 -0.4385 -1.5536
 5929SOL    HW229250   1.361   2.616   5.997  0.6379 -0.1807  2.0556
 5930SOL     OW29251   0.616   4.284   8.469 -0.0131  0.1508 -0.7123
 5930SOL    HW129252   0.695   4.332   8.445 -0.3834  1.2425  0.2568
 5930SOL    HW229253   0.656   4.217   8.524 -0.2921  0.5359 -0.0392
 5931SOL     OW29254   4.136   3.150  10.509  0.2337 -0.2844 -0.1530
 5931SOL    HW129255   4.202   3.217  10.529 -2.9803  3.3011 -1.3734
 5931SOL    HW229256   4.178   3.069  10.537 -2.4536 -2.0359 -1.1533
 5932SOL     OW29257   2.759   3.690   0.921  0.1223 -0.3134  0.1168
 5932SOL    HW129258   2.707   3.697   1.001  0.4174  1.4061  0.1611
 5932SOL    HW229259   2.777   3.596   0.918 -0.7086 -0.4401 -0.7397
 5933SOL     OW29260   3.092   3.499   1.560 -0.1983  0.2925 -0.8003
 5933SOL    HW129261   3.078   3.429   1.497  0.1141  0.5643 -1.1706
 5933SOL    HW229262   3.073   3.579   1.512 -1.5139  1.2554  1.3256
 5934SOL     OW29263   0.463   3.307   3.053 -0.4485 -0.0484 -0.5737
 5934SOL    HW129264   0.391   3.367   3.038 -0.6263 -0.5442 -1.7306
 5934SOL    HW229265   0.505   3.300   2.967  0.4391  0.2109 -0.1625
 5935SOL     OW29266   0.714   1.534   5.139  0.1436  0.3595  0.0893
 5935SOL    HW129267   0.795   1.485   5.149 -0.5029 -0.6459  0.3684
 5935SOL    HW229268   0.662   1.484   5.076  0.1946 -2.0989  2.0278
 5936SOL     OW29269   4.587   4.511  10.757 -0.0554  0.8554 -0.4726
 5936SOL    HW129270   4.596   4.599  10.719  3.2764  1.0238  0.7240
 5936SOL    HW229271   4.659   4.502  10.819 -0.5497 -2.9655 -0.4402
 5937SOL     OW29272   1.389   4.353   2.196 -0.6342 -0.0438 -0.0428
 5937SOL    HW129273   1.339   4.282   2.157  0.6873  0.2257 -2.2318
 5937SOL    HW229274   1.424   4.393   2.116 -1.1787  0.6901  0.0959
 5938SOL     OW29275   0.860   2.168   5.167 -0.3978 -0.5520  0.2749
 5938SOL    HW129276   0.925   2.103   5.194  0.1855  0.4736  1.3563
 5938SOL    HW229277   0.897   2.248   5.205 -1.0955  0.4189 -1.0845
 5939SOL     OW29278   0.457   1.596   6.261  0.5377 -0.0162  0.0483
 5939SOL    HW129279   0.428   1.544   6.335  1.5259 -1.9545 -0.9080
 5939SOL    HW229280   0.395   1.581   6.190  1.6636  2.4891 -1.4875
 5940SOL     OW29281   4.402   4.453   7.088 -0.4370  0.0858  0.0074
 5940SOL    HW129282   4.467   4.387   7.064  0.2487  0.3900  1.0389
 5940SOL    HW229283   4.343   4.395   7.136  0.1849 -0.4874  0.0800
 5941SOL     OW29284   2.450   2.442  12.606 -0.3947 -0.4212  0.3688
 5941SOL    HW129285   2.449   2.377  12.535  0.5688  1.6021 -1.4788
 5941SOL    HW229286   2.516   2.400  12.662  2.5099  2.4784 -0.9056
 5942SOL     OW29287   3.447   0.140  13.551  0.1857  0.2207 -0.1599
 5942SOL    HW129288   3.363   0.110  13.517 -0.5994  0.8532  1.1988
 5942SOL    HW229289   3.416   0.230  13.552 -0.2827  0.0418  1.9304
 5943SOL     OW29290   3.202   1.471   6.267  0.4789  0.3098 -0.6413
 5943SOL    HW129291   3.182   1.414   6.193 -1.0687  0.6261 -0.4663
 5943SOL    HW229292   3.297   1.466   6.268  0.4271 -0.7413 -0.3471
 5944SOL     OW29293   3.452   2.658  10.181 -0.2084  0.8080 -1.1254
 5944SOL    HW129294   3.401   2.581  10.157  0.2439  0.4567 -0.9436
 5944SOL    HW229295   3.382   2.719  10.205 -1.4190 -0.2823 -1.8887
 5945SOL     OW29296   0.437   1.699   0.963  0.3908 -0.1704 -0.2203
 5945SOL    HW129297   0.402   1.783   0.992 -0.8045 -1.0439  0.8795
 5945SOL    HW229298   0.428   1.655   1.048  0.2384  0.9746  0.3592
 5946SOL     OW29299   4.228   4.336   7.259  0.4226  0.1985 -0.1016
 5946SOL    HW129300   4.253   4.293   7.341  0.7434  1.4227  0.4489
 5946SOL    HW229301   4.133   4.342   7.263  0.3739 -0.8086  0.2393
 5947SOL     OW29302   0.660   4.032  13.345 -0.2314  0.4390  0.2197
 5947SOL    HW129303   0.603   4.057  13.417 -0.6954 -1.8900  0.6815
 5947SOL    HW229304   0.617   3.954  13.310  0.6764 -0.6224  1.4463
 5948SOL     OW29305   3.918   0.331   5.297  0.9231 -0.3965 -0.2327
 5948SOL    HW129306   3.880   0.418   5.301  0.7896 -0.4698  0.0812
 5948SOL    HW229307   3.836   0.299   5.259  0.6789 -0.4051  0.3042
 5949SOL     OW29308   3.873   0.489   9.423 -0.4993  0.1918 -0.4094
 5949SOL    HW129309   3.800   0.540   9.387 -1.3581 -1.5082 -1.0559
 5949SOL    HW229310   3.895   0.552   9.492  1.0302 -1.5801  0.7218
 5950SOL     OW29311   0.094   4.424  14.816 -0.2870  0.1764  0.0602
 5950SOL    HW129312   0.173   4.475  14.800 -0.3354  1.0240  2.4395
 5950SOL    HW229313   0.066   4.397  14.728  0.0880  0.4375 -0.1345
 5951SOL     OW29314   3.756   3.492   6.304  0.2118  0.2077 -0.1871
 5951SOL    HW129315   3.811   3.520   6.377 -0.4330 -2.4750  1.3508
 5951SOL    HW229316   3.688   3.558   6.291 -0.4104 -0.8207 -2.0469
 5952SOL     OW29317   2.962   1.754   6.196  0.3625 -0.0513 -0.1662
 5952SOL    HW129318   2.880   1.801   6.206 -0.3033 -1.7351  2.3928
 5952SOL    HW229319   2.918   1.671   6.178 -0.3786  1.0434 -3.3854
 5953SOL     OW29320   4.292   4.344   8.870  0.4323 -0.1861  0.5461
 5953SOL    HW129321   4.366   4.355   8.930  1.0193  1.8705 -0.5550
 5953SOL    HW229322   4.236   4.290   8.925  1.4954 -0.2899  1.5344
 5954SOL     OW29323   1.123   1.710   7.749 -0.3465  0.4530  0.2334
 5954SOL    HW129324   1.146   1.630   7.701 -1.0076 -0.4252  1.3668
 5954SOL    HW229325   1.092   1.667   7.829 -1.6313 -0.8489 -0.9698
 5955SOL     OW29326   3.561   1.769   7.233  0.2946  0.0318  0.5452
 5955SOL    HW129327   3.656   1.756   7.229  0.3397  0.3959  0.5015
 5955SOL    HW229328   3.526   1.694   7.185  1.8666  0.8840 -1.9445
 5956SOL     OW29329   1.030   2.621   4.229  0.6694  0.2256 -0.4008
 5956SOL    HW129330   1.065   2.554   4.288 -2.9028  0.8976  2.4640
 5956SOL    HW229331   1.095   2.610   4.159 -0.9867  0.5982 -1.9923
 5957SOL     OW29332   4.452   0.900   2.444  1.4242  0.5634 -0.1953
 5957SOL    HW129333   4.489   0.839   2.379  0.6895 -0.3300  0.2233
 5957SOL    HW229334   4.365   0.865   2.462  1.4545 -0.6390 -2.3217
 5958SOL     OW29335   4.060   1.441   5.616  0.2543 -0.4468 -0.0838
 5958SOL    HW129336   4.084   1.480   5.700 -0.1186 -1.1542  0.3442
 5958SOL    HW229337   4.144   1.426   5.573 -0.3162 -0.5779 -1.1738
 5959SOL     OW29338   0.070   1.526   1.056  0.5226  0.4254  0.1118
 5959SOL    HW129339   0.132   1.462   1.021 -0.9369 -0.9482 -0.0278
 5959SOL    HW229340   4.711   1.495   1.015  0.2929  2.5701 -1.0100
 5960SOL     OW29341   0.265   2.760  14.896 -0.4981  0.5980 -0.5151
 5960SOL    HW129342   0.314   2.787  14.974 -1.7478  3.2618 -0.6523
 5960SOL    HW229343   0.323   2.691  14.866  2.1820  1.6659  2.2114
 5961SOL     OW29344   3.897   1.479   3.385  0.1675 -0.1120  0.0312
 5961SOL    HW129345   3.943   1.560   3.361 -1.5205  1.5064  2.2030
 5961SOL    HW229346   3.945   1.426   3.322  1.0415  0.5897  0.0977
 5962SOL     OW29347   0.572   2.424  10.818  0.8756  0.6205  0.4151
 5962SOL    HW129348   0.651   2.374  10.793 -0.8853 -0.6931 -2.5541
 5962SOL    HW229349   0.557   2.478  10.740 -0.7432  0.9186  0.9510
 5963SOL     OW29350   0.390   0.308  14.913  0.2485 -0.1964 -0.3268
 5963SOL    HW129351   0.357   0.338  14.998  0.1152 -0.4181 -0.3000
 5963SOL    HW229352   0.315   0.263  14.874  0.3379 -0.8961  0.3269
 5964SOL     OW29353   0.017   2.903   5.419 -0.4297  0.0298  0.3858
 5964SOL    HW129354   0.016   2.850   5.499 -1.9742 -0.4192  0.0706
 5964SOL    HW229355   4.645   2.891   5.404 -0.3581  0.4379 -0.3997
 5965SOL     OW29356   0.748   1.887  16.353 -0.3236  0.5491  0.1980
 5965SOL    HW129357   0.790   1.950  16.295  0.2755  1.0739  1.2059
 5965SOL    HW229358   0.721   1.808  16.305  1.3688  1.0062 -1.5309
 5966SOL     OW29359   2.320   3.406   9.514  0.0340 -0.2900  0.8223
 5966SOL    HW129360   2.336   3.330   9.457 -1.3796 -1.0418  1.4282
 5966SOL    HW229361   2.392   3.456   9.477  0.1856 -2.4498 -1.8281
 5967SOL     OW29362   0.409   0.564  10.326  0.2049 -0.2141  0.3297
 5967SOL    HW129363   0.351   0.639  10.338  0.2017 -0.0786 -0.5367
 5967SOL    HW229364   0.366   0.539  10.244 -1.1413 -0.2461  1.0506
 5968SOL     OW29365   0.656   0.887  10.114  0.2180  0.6394  0.5049
 5968SOL    HW129366   0.695   0.818  10.060 -1.6339  0.0607 -0.0644
 5968SOL    HW229367   0.564   0.892  10.088  0.1416  0.7140  0.7885
 5969SOL     OW29368   4.354   4.314  13.700 -0.4398  0.2319  0.7475
 5969SOL    HW129369   4.385   4.249  13.637  2.3689  2.3863 -0.0875
 5969SOL    HW229370   4.273   4.271  13.729 -1.1039 -1.2304 -3.2201
 5970SOL     OW29371   1.399   0.844  17.087 -0.5189  0.6971 -0.0148
 5970SOL    HW129372   1.353   0.774  17.040 -1.2298 -0.8766  3.0064
 5970SOL    HW229373   1.463   0.796  17.139 -1.9040 -1.1711 -0.0252
 5971SOL     OW29374   3.114   0.305   1.725  0.4897  0.1241  0.3822
 5971SOL    HW129375   3.150   0.221   1.751  1.0977  0.0216 -0.7988
 5971SOL    HW229376   3.070   0.318   1.810  1.6761  0.5558  0.9254
 5972SOL     OW29377   1.918   0.634   5.027 -0.8019 -0.8811  0.0399
 5972SOL    HW129378   1.906   0.589   5.111  2.5823 -1.1844  0.3615
 5972SOL    HW229379   1.967   0.568   4.978 -1.1906 -0.1987 -1.2756
 5973SOL     OW29380   2.545   1.048  12.446 -0.0081  0.5036  0.6369
 5973SOL    HW129381   2.530   1.094  12.363 -0.5592 -0.7309  0.0491
 5973SOL    HW229382   2.616   0.985  12.431 -1.2922 -0.8804  0.4143
 5974SOL     OW29383   0.029   2.237   4.048  0.0731  0.4045  0.2018
 5974SOL    HW129384   0.110   2.252   3.999 -1.9820  1.1436 -2.9440
 5974SOL    HW229385   0.003   2.327   4.064  0.1403  0.4045  0.3156
 5975SOL     OW29386   3.818   2.093  14.307 -0.1670 -0.1656  0.2575
 5975SOL    HW129387   3.769   2.167  14.343 -3.2848 -2.9782  1.8219
 5975SOL    HW229388   3.778   2.019  14.352  0.5300 -0.6364  0.1001
 5976SOL     OW29389   2.400   0.691  16.758  0.1709 -0.1655  0.5785
 5976SOL    HW129390   2.457   0.761  16.790 -0.5325  1.1066 -0.9135
 5976SOL    HW229391   2.426   0.682  16.666  0.1518  1.5982  0.4071
 5977SOL     OW29392   4.151   1.394   1.968  0.1755 -0.3437  0.4998
 5977SOL    HW129393   4.076   1.432   1.922 -1.0647 -2.0758  1.0730
 5977SOL    HW229394   4.103   1.340   2.031  0.5510  0.2120  1.2686
 5978SOL     OW29395   4.718   4.027  12.450 -0.1246  0.1570 -0.8453
 5978SOL    HW129396   4.719   4.122  12.462  1.5655  0.2152 -1.4271
 5978SOL    HW229397   0.055   4.015  12.375  0.1680  0.2953 -0.6413
 5979SOL     OW29398   3.619   4.374   9.996  0.6602  0.2195 -0.1556
 5979SOL    HW129399   3.614   4.470   9.998  2.0988  0.2307  2.4414
 5979SOL    HW229400   3.628   4.351  10.088  2.0723  0.4058 -0.2405
 5980SOL     OW29401   1.526   0.078   3.413  0.0887 -0.6790 -0.0923
 5980SOL    HW129402   1.598   0.015   3.410  0.6339 -0.0774  0.8718
 5980SOL    HW229403   1.573   0.161   3.413  0.2941 -0.8011  0.4823
 5981SOL     OW29404   4.543   1.462   1.926 -0.8251  0.0975 -0.0781
 5981SOL    HW129405   4.598   1.530   1.886 -1.3961  1.7130  1.8681
 5981SOL    HW229406   4.583   1.472   2.013 -1.6065 -0.2153  0.3110
 5982SOL     OW29407   0.777   4.269   4.803 -0.1791  0.2589  0.2593
 5982SOL    HW129408   0.789   4.318   4.885 -5.1153 -1.3439  1.9998
 5982SOL    HW229409   0.683   4.248   4.803  0.1884 -1.3575  0.2445
 5983SOL     OW29410   0.522   2.080  17.320 -0.2889  0.3336 -0.2351
 5983SOL    HW129411   0.490   2.169  17.309  0.6229  0.6636 -0.2110
 5983SOL    HW229412   0.475   2.065  17.402  0.0931  4.6801  0.7577
 5984SOL     OW29413   0.284   2.979  12.202 -0.2271  0.2046  0.0340
 5984SOL    HW129414   0.210   2.928  12.169 -0.0457  1.0392 -1.6663
 5984SOL    HW229415   0.239   3.063  12.215  0.2420  0.5502 -0.5503
 5985SOL     OW29416   2.193   3.961   8.189 -0.1758  0.0232 -0.0222
 5985SOL    HW129417   2.242   4.007   8.257  0.9413 -0.7440 -0.3093
 5985SOL    HW229418   2.257   3.919   8.133 -0.5666  0.6479 -0.9385
 5986SOL     OW29419   0.446   2.051   1.663 -0.5337 -0.1203  0.4788
 5986SOL    HW129420   0.422   2.058   1.570  0.4628  1.6045  0.3482
 5986SOL    HW229421   0.482   1.962   1.668  4.0233  1.6297 -1.7266
 5987SOL     OW29422   1.765   1.532   8.638 -0.2565 -0.7529  0.1022
 5987SOL    HW129423   1.818   1.462   8.598  0.6197 -0.1933  0.2972
 5987SOL    HW229424   1.684   1.511   8.590 -1.0187  1.4406  0.4471
 5988SOL     OW29425   0.002   1.465  17.543  0.6199 -0.1836  0.3986
 5988SOL    HW129426   0.067   1.483  17.475 -0.6923  0.6139 -0.6614
 5988SOL    HW229427   4.685   1.383  17.513 -0.3750  0.5265 -0.2840
 5989SOL     OW29428   3.027   3.926   9.820  0.1175 -0.5481  0.1740
 5989SOL    HW129429   3.114   3.965   9.830 -0.2392  0.7889 -1.8489
 5989SOL    HW229430   2.994   3.975   9.744  0.7822  0.7453  0.7167
 5990SOL     OW29431   4.540   3.303   6.187  0.5164 -0.4439 -0.2314
 5990SOL    HW129432   4.551   3.227   6.244  0.5405 -0.7265 -0.6126
 5990SOL    HW229433   4.540   3.261   6.101  0.2049 -0.5990 -0.1566
 5991SOL     OW29434   3.903   0.531   8.705 -0.7291  0.3111  0.3571
 5991SOL    HW129435   3.998   0.543   8.711 -0.8907  0.6771  2.1265
 5991SOL    HW229436   3.873   0.592   8.638 -0.3485  1.6559  1.4121
 5992SOL     OW29437   3.676   3.190   2.751 -0.2492  0.3538 -0.1706
 5992SOL    HW129438   3.636   3.276   2.767  0.4283  0.4399  1.0514
 5992SOL    HW229439   3.648   3.155   2.836 -0.5189 -2.0689 -1.2642
 5993SOL     OW29440   2.429   2.986  14.998  0.1983 -0.3529  0.1883
 5993SOL    HW129441   2.516   2.986  15.036 -0.3564  0.4798  1.4513
 5993SOL    HW229442   2.380   3.027  15.069 -1.9581 -0.1460 -1.4095
 5994SOL     OW29443   4.674   3.995  14.234  0.4761 -0.0926  0.6229
 5994SOL    HW129444   4.688   3.967  14.144  0.3826  1.2712  0.1823
 5994SOL    HW229445   0.018   3.937  14.271  3.1459  1.5531 -1.6183
 5995SOL     OW29446   2.093   4.033   8.727 -0.0612  0.2591  0.7823
 5995SOL    HW129447   2.048   3.980   8.792  0.7846 -0.0960  1.0808
 5995SOL    HW229448   2.168   3.980   8.700 -0.4664 -0.7481  1.6299
 5996SOL     OW29449   2.087   1.595   1.946  0.2338 -0.1957  0.4977
 5996SOL    HW129450   2.021   1.548   1.997 -0.8098 -1.0627 -1.6490
 5996SOL    HW229451   2.058   1.685   1.962  0.5606  0.1693 -0.9510
 5997SOL     OW29452   4.439   0.086   8.165 -0.5065  0.6342  0.5194
 5997SOL    HW129453   4.367   0.117   8.109 -0.8032  0.0210  0.5597
 5997SOL    HW229454   4.515   0.135   8.134 -1.1492  1.1366 -0.2793
 5998SOL     OW29455   1.770   0.169   0.575 -0.1900 -0.0281  0.0306
 5998SOL    HW129456   1.818   0.218   0.509  1.3107 -0.9076  0.4512
 5998SOL    HW229457   1.802   0.205   0.658 -1.6891  1.1653  0.0859
 5999SOL     OW29458   3.871   3.356   0.280 -0.2318  0.5416  0.5467
 5999SOL    HW129459   3.965   3.364   0.290 -0.3728  1.7399  0.9039
 5999SOL    HW229460   3.838   3.437   0.319 -2.0663  1.0542 -2.0358
 6000SOL     OW29461   2.844   3.243  15.472 -0.2962 -0.5975  0.3986
 6000SOL    HW129462   2.898   3.228  15.394  1.1866  2.7175  0.7784
 6000SOL    HW229463   2.829   3.153  15.502 -0.0039 -0.7823 -0.0127
 6001SOL     OW29464   2.977   2.337  14.778  0.2229 -0.4903 -0.1177
 6001SOL    HW129465   3.069   2.313  14.765  0.6071 -0.2727  2.3073
 6001SOL    HW229466   2.931   2.314  14.697 -1.3709 -1.4302  1.0589
 6002SOL     OW29467   0.586   1.424   2.651 -0.0652 -0.7516 -0.1776
 6002SOL    HW129468   0.657   1.390   2.705 -0.3936  1.2195  1.5166
 6002SOL    HW229469   0.551   1.335   2.638  0.1070 -1.0803  1.5991
 6003SOL     OW29470   4.715   2.609   3.135 -0.1827  0.3615  0.1906
 6003SOL    HW129471   4.660   2.685   3.116 -0.3586  0.3243  0.5599
 6003SOL    HW229472   0.014   2.581   3.046 -3.0036  1.7822 -0.8933
 6004SOL     OW29473   0.041   0.450   9.344 -0.5802 -0.0923  0.9581
 6004SOL    HW129474   0.133   0.464   9.364 -0.6888  0.9605  0.7500
 6004SOL    HW229475   0.019   0.359   9.362  1.1026 -0.6853 -0.0035
 6005SOL     OW29476   0.889   0.136  15.002  0.0459 -0.2288  0.2517
 6005SOL    HW129477   0.895   0.088  15.084  0.3687  0.9752  0.9390
 6005SOL    HW229478   0.907   0.225  15.032 -0.4410 -0.1248  0.2418
 6006SOL     OW29479   2.550   3.751   4.413  0.5334  0.1746  0.0648
 6006SOL    HW129480   2.466   3.726   4.374  1.6804 -1.4792 -1.3843
 6006SOL    HW229481   2.533   3.844   4.428 -1.1530 -0.1376  0.1097
 6007SOL     OW29482   2.475   0.347   6.284 -0.5375  0.3230  0.0272
 6007SOL    HW129483   2.568   0.329   6.269 -0.3622  0.3797  1.0098
 6007SOL    HW229484   2.488   0.391   6.369  0.7288  0.1584 -0.0781
 6008SOL     OW29485   2.122   1.428   4.734 -0.7997 -0.6574  0.3851
 6008SOL    HW129486   2.045   1.377   4.708 -1.4435  0.6823 -0.3028
 6008SOL    HW229487   2.103   1.452   4.825  0.2734  1.0735  0.1527
 6009SOL     OW29488   1.664   3.424   8.071 -0.4374  0.2118  0.0672
 6009SOL    HW129489   1.641   3.380   7.989  1.5257  0.1259 -0.4530
 6009SOL    HW229490   1.744   3.374   8.088  0.1236  1.3493  0.8342
 6010SOL     OW29491   4.518   2.831   6.493  1.2393 -0.1350 -0.0706
 6010SOL    HW129492   4.462   2.754   6.486 -1.1022  1.5685  0.0142
 6010SOL    HW229493   4.499   2.862   6.581 -0.4378 -2.5134  0.4057
 6011SOL     OW29494   0.338   1.388  15.633 -0.0256  0.4366  0.0862
 6011SOL    HW129495   0.401   1.383  15.562 -2.0401  1.4185 -1.7624
 6011SOL    HW229496   0.261   1.416  15.583  0.3764  0.7294 -0.3586
 6012SOL     OW29497   4.400   3.846   0.087  0.2963 -0.5846 -0.4584
 6012SOL    HW129498   4.353   3.780   0.139 -2.9316  2.1405  0.0861
 6012SOL    HW229499   4.434   3.785   0.021  2.3031  1.0471 -0.9247
 6013SOL     OW29500   0.794   1.377  13.218  0.1293  0.8745  0.2515
 6013SOL    HW129501   0.769   1.400  13.308 -1.3774 -1.0135  0.3346
 6013SOL    HW229502   0.870   1.431  13.200  1.0478 -0.0567  1.3429
 6014SOL     OW29503   1.362   0.794   2.250 -0.7107  0.1607 -0.2892
 6014SOL    HW129504   1.294   0.829   2.308  1.6057 -1.4315  3.3857
 6014SOL    HW229505   1.335   0.703   2.241 -2.8975  0.4497  3.3960
 6015SOL     OW29506   1.718   4.495   3.592  0.4310  0.5764 -0.1050
 6015SOL    HW129507   1.674   4.506   3.676  1.4794 -1.8074  0.7481
 6015SOL    HW229508   1.683   4.410   3.564  1.2097  0.7618 -1.6355
 6016SOL     OW29509   0.576   2.230   5.359  1.0583  0.7594  0.0819
 6016SOL    HW129510   0.645   2.192   5.412  0.1930  3.6286  3.2215
 6016SOL    HW229511   0.509   2.245   5.425  1.4940  0.5283  0.5707
 6017SOL     OW29512   4.414   1.756   8.700  0.0203  0.0342 -0.0515
 6017SOL    HW129513   4.435   1.664   8.685 -0.8734 -0.0161 -1.0425
 6017SOL    HW229514   4.453   1.807   8.630  1.2188 -0.7799  0.0276
 6018SOL     OW29515   4.159   2.463   3.935 -0.2776 -0.7270 -0.4532
 6018SOL    HW129516   4.137   2.519   4.009 -1.4558 -3.3284  1.1761
 6018SOL    HW229517   4.075   2.417   3.931 -0.4435 -0.2708 -2.1273
 6019SOL     OW29518   1.648   1.608   8.282 -0.3247  0.4840 -0.0422
 6019SOL    HW129519   1.586   1.626   8.211  0.7054  2.0048 -0.5407
 6019SOL    HW229520   1.600   1.589   8.363 -1.3310 -1.3169 -1.0510
 6020SOL     OW29521   0.653   3.411   8.072  0.4681 -0.2023  0.3385
 6020SOL    HW129522   0.700   3.439   8.151 -0.8673  1.0474  0.6866
 6020SOL    HW229523   0.562   3.415   8.101 -0.0970 -1.0250 -1.3549
 6021SOL     OW29524   2.784   2.085   6.550  0.7550  0.2982 -0.5466
 6021SOL    HW129525   2.761   1.993   6.561 -1.0209  0.4714 -2.6331
 6021SOL    HW229526   2.788   2.123   6.638  1.0515 -1.8519  0.3655
 6022SOL     OW29527   3.520   4.718   6.400  0.1790  0.0119 -0.6954
 6022SOL    HW129528   3.475   4.658   6.460 -0.8969 -0.1694 -1.6890
 6022SOL    HW229529   3.612   4.718   6.426 -0.0145 -0.3084  0.0138
 6023SOL     OW29530   4.473   3.158  17.350  0.4119  1.2741 -0.3421
 6023SOL    HW129531   4.515   3.240  17.374  1.1837  1.4835 -2.4192
 6023SOL    HW229532   4.546   3.096  17.354 -0.2751  0.6195  1.7919
 6024SOL     OW29533   3.916   1.474   0.643 -0.2661  0.0827 -0.0575
 6024SOL    HW129534   3.920   1.378   0.642 -1.5347  0.0161  1.0322
 6024SOL    HW229535   3.820   1.481   0.643 -0.3629 -1.2132  0.9704
 6025SOL     OW29536   0.871   0.867   2.905  0.9624  0.3786  0.0016
 6025SOL    HW129537   0.923   0.843   2.981 -0.2027 -2.8571 -0.2297
 6025SOL    HW229538   0.942   0.906   2.854  0.2419  1.1703 -0.3918
 6026SOL     OW29539   0.546   0.843  16.883  0.7945 -0.3119 -0.0282
 6026SOL    HW129540   0.606   0.900  16.931 -1.1983  2.0209 -0.3127
 6026SOL    HW229541   0.513   0.911  16.825  0.1514  1.4414  2.3594
 6027SOL     OW29542   0.475   4.260  14.113  0.3517 -0.1151 -0.3416
 6027SOL    HW129543   0.508   4.209  14.186  0.9436 -0.2836 -0.7291
 6027SOL    HW229544   0.408   4.303  14.166  0.7041  0.2041 -0.1611
 6028SOL     OW29545   3.120   0.334  11.189 -0.1208 -0.2332  0.0893
 6028SOL    HW129546   3.215   0.331  11.203 -0.0378  0.1196 -0.3758
 6028SOL    HW229547   3.096   0.249  11.224  2.2351 -0.9776 -0.1256
 6029SOL     OW29548   4.692   3.002  17.334 -0.0235 -0.3722 -0.1513
 6029SOL    HW129549   0.033   2.980  17.402 -0.2810 -0.0322  0.2004
 6029SOL    HW229550   0.020   2.989  17.253  1.5591 -0.8188  0.8925
 6030SOL     OW29551   3.599   0.492   4.706  0.0949 -0.0342  0.1824
 6030SOL    HW129552   3.688   0.459   4.693  0.7744  1.7030  0.5048
 6030SOL    HW229553   3.607   0.569   4.761  0.5771  0.3179 -0.3728
 6031SOL     OW29554   0.721   3.628  14.573 -0.0284  0.3688 -0.6700
 6031SOL    HW129555   0.743   3.668  14.658  1.1500 -0.4547 -0.5784
 6031SOL    HW229556   0.739   3.699  14.512  1.1989 -0.4807 -1.3038
 6032SOL     OW29557   3.036   4.177   7.423 -0.3435 -0.2697  0.1759
 6032SOL    HW129558   2.949   4.199   7.458  0.8304  1.4145  1.9703
 6032SOL    HW229559   3.015   4.111   7.356 -1.4515  0.1696  0.0955
 6033SOL     OW29560   1.036   0.861   4.762  0.1939 -1.1098 -0.4966
 6033SOL    HW129561   0.989   0.919   4.701 -0.9063 -1.3338  0.1389
 6033SOL    HW229562   1.123   0.868   4.722  1.2606  0.3776  2.1238
 6034SOL     OW29563   4.036   0.602   2.355 -0.2610  0.2790 -0.0079
 6034SOL    HW129564   3.990   0.637   2.432  0.2928 -2.0276  1.3570
 6034SOL    HW229565   3.968   0.621   2.290 -1.1376 -1.9590  0.2622
 6035SOL     OW29566   4.264   1.137   6.032 -0.7108 -0.6211 -0.9377
 6035SOL    HW129567   4.310   1.185   5.963 -1.5028 -2.2679 -2.5999
 6035SOL    HW229568   4.217   1.208   6.075  0.2128 -0.5390 -0.0500
 6036SOL     OW29569   1.793   2.405  15.330  0.1704 -0.1915  0.2265
 6036SOL    HW129570   1.717   2.462  15.342  0.9675  0.5182  1.8202
 6036SOL    HW229571   1.757   2.318  15.345 -2.2108  0.6810 -0.3924
 6037SOL     OW29572   4.002   4.027   6.962  0.0790 -0.2664 -0.4672
 6037SOL    HW129573   3.974   3.946   7.005  1.4264  0.4640  1.8239
 6037SOL    HW229574   3.939   4.082   7.008 -1.1052 -1.5884 -0.5275
 6038SOL     OW29575   3.140   2.337  17.604 -0.0741  0.0695 -0.0129
 6038SOL    HW129576   3.064   2.280  17.592 -1.3043  1.4444  1.2725
 6038SOL    HW229577   3.183   2.295  17.679 -1.9973  0.4808  1.3247
 6039SOL     OW29578   2.557   3.365  14.866  0.3258  0.0282  0.4009
 6039SOL    HW129579   2.585   3.420  14.939 -0.5431  2.0581 -0.7953
 6039SOL    HW229580   2.621   3.297  14.885  3.0028  2.3264 -0.3674
 6040SOL     OW29581   4.291   3.526   3.089  0.0979 -0.4922 -0.1646
 6040SOL    HW129582   4.287   3.515   2.994  0.5361 -0.3790 -0.1956
 6040SOL    HW229583   4.339   3.609   3.092 -1.1378  0.1969  0.4361
 6041SOL     OW29584   3.914   0.750   3.434 -0.4861  0.3462 -0.1767
 6041SOL    HW129585   3.919   0.842   3.459  1.3213  0.7102 -1.9248
 6041SOL    HW229586   3.989   0.737   3.377  0.2227 -1.0900  1.0897
 6042SOL     OW29587   4.534   3.877   5.820 -0.6112 -0.8829 -0.1044
 6042SOL    HW129588   4.447   3.918   5.820 -0.5314 -0.7360 -1.6459
 6042SOL    HW229589   4.544   3.834   5.905 -2.5224  2.3295  1.7694
 6043SOL     OW29590   2.319   2.986   4.626  0.2509  0.0391  0.7478
 6043SOL    HW129591   2.369   2.977   4.545 -0.0694 -1.0987  0.6787
 6043SOL    HW229592   2.246   3.035   4.587 -1.1959 -1.6242  1.3608
 6044SOL     OW29593   0.671   3.343   3.422  0.2965 -0.2405  0.0699
 6044SOL    HW129594   0.725   3.348   3.501  0.7552 -0.7106 -0.2100
 6044SOL    HW229595   0.722   3.381   3.350  1.6923 -0.3295  1.0275
 6045SOL     OW29596   4.082   3.332   6.597 -0.2201  0.6991  0.5434
 6045SOL    HW129597   3.996   3.309   6.561 -1.4740  2.0747  2.6819
 6045SOL    HW229598   4.110   3.401   6.537  0.2110 -0.2630 -0.3702
 6046SOL     OW29599   4.028   2.416   5.268  1.1907 -0.2461  0.0654
 6046SOL    HW129600   3.990   2.341   5.313 -2.1488  0.4031 -1.6783
 6046SOL    HW229601   4.086   2.445   5.338  0.4672 -1.3315  1.1265
 6047SOL     OW29602   1.254   2.098   2.671  0.1948  0.1549 -0.2939
 6047SOL    HW129603   1.206   2.106   2.588  2.0744  1.8987 -1.2307
 6047SOL    HW229604   1.340   2.102   2.629  0.2507 -2.8908 -0.5090
 6048SOL     OW29605   4.630   2.352   5.188  0.1916  0.5354  0.0511
 6048SOL    HW129606   4.698   2.401   5.232  0.2160  0.0144  0.5859
 6048SOL    HW229607   4.678   2.290   5.133 -0.0818  0.5103 -0.1657
 6049SOL     OW29608   3.037   2.812   9.126 -0.2699  0.3658  0.1548
 6049SOL    HW129609   3.093   2.830   9.050  2.2520 -1.6796  1.5051
 6049SOL    HW229610   2.947   2.815   9.095  0.4571  0.3022 -1.9756
 6050SOL     OW29611   2.572   1.029   4.888  0.2387  0.4953  0.5256
 6050SOL    HW129612   2.581   0.936   4.866  0.1126  0.3956  0.8995
 6050SOL    HW229613   2.530   1.065   4.810  1.3947 -0.2241 -0.4185
 6051SOL     OW29614   3.351   0.199   9.067  0.0700 -0.0696  0.3916
 6051SOL    HW129615   3.344   0.126   9.128  0.4919 -1.1550 -0.8641
 6051SOL    HW229616   3.442   0.230   9.065 -0.6191  1.8853 -1.3752
 6052SOL     OW29617   1.262   1.400   0.725  0.2374  0.3538 -0.5208
 6052SOL    HW129618   1.312   1.401   0.644 -0.4831 -0.1225 -0.9722
 6052SOL    HW229619   1.306   1.460   0.786 -2.6003  1.4149  0.4860
 6053SOL     OW29620   4.428   0.752   4.854  0.3568 -0.3058  0.0822
 6053SOL    HW129621   4.440   0.803   4.774 -0.2827 -1.2013 -0.5973
 6053SOL    HW229622   4.463   0.808   4.922  1.7976 -0.5410 -0.4640
 6054SOL     OW29623   2.646   3.228   0.277 -0.4180 -0.4515  0.7054
 6054SOL    HW129624   2.712   3.286   0.313  0.1680 -1.0421  0.5730
 6054SOL    HW229625   2.641   3.150   0.332 -1.6910 -0.4248  0.6459
 6055SOL     OW29626   3.624   3.827   4.957 -0.2164 -0.2676 -0.2934
 6055SOL    HW129627   3.553   3.852   4.898 -1.5624  0.0663  1.4855
 6055SOL    HW229628   3.589   3.762   5.017 -1.1671 -1.1700 -1.8471
 6056SOL     OW29629   3.470   3.889   2.061  0.2129  0.0707 -0.0272
 6056SOL    HW129630   3.496   3.799   2.080 -0.8109 -0.0416  0.8527
 6056SOL    HW229631   3.553   3.929   2.087  0.4009  0.4866 -1.2547
 6057SOL     OW29632   0.837   2.140  15.815  0.1395  0.0486 -0.0508
 6057SOL    HW129633   0.922   2.162  15.853 -0.2893 -0.3072  1.1181
 6057SOL    HW229634   0.852   2.058  15.767 -0.2088 -1.1576  1.8944
 6058SOL     OW29635   4.244   0.995   1.977  0.2633 -0.0301  0.0714
 6058SOL    HW129636   4.261   0.953   1.892 -0.9778 -1.9314  0.7621
 6058SOL    HW229637   4.281   0.928   2.034  1.9713  0.3571 -0.5821
 6059SOL     OW29638   2.543   2.655   4.135 -0.1396  0.4080 -0.3372
 6059SOL    HW129639   2.548   2.656   4.040 -1.1816  3.1312 -0.3627
 6059SOL    HW229640   2.613   2.592   4.154 -1.7599 -0.7285  1.8779
 6060SOL     OW29641   1.098   3.408   4.694  0.1288  0.3874  0.3244
 6060SOL    HW129642   1.060   3.376   4.776  1.8398  1.9024  1.6929
 6060SOL    HW229643   1.079   3.502   4.689 -0.3132  0.3145  0.6862
 6061SOL     OW29644   2.483   3.734   7.157  0.5978  0.2872 -0.0187
 6061SOL    HW129645   2.519   3.676   7.090 -0.2578  0.0330 -0.2572
 6061SOL    HW229646   2.561   3.746   7.210  0.8210 -2.2038  0.2344
 6062SOL     OW29647   0.195   3.421   2.237 -0.2665 -0.1980  0.1844
 6062SOL    HW129648   0.113   3.467   2.219 -0.0188  0.2918  0.2892
 6062SOL    HW229649   0.255   3.491   2.211  0.0396 -0.6184 -0.2199
 6063SOL     OW29650   3.413   3.695   4.622 -0.5050 -0.3360 -0.6398
 6063SOL    HW129651   3.429   3.613   4.577  1.9682  1.0154 -2.2226
 6063SOL    HW229652   3.443   3.759   4.557  0.5600 -0.4113 -0.2290
 6064SOL     OW29653   1.224   1.158   6.351 -0.9319 -0.4879  0.2435
 6064SOL    HW129654   1.227   1.254   6.345  0.0999 -0.5852 -0.7627
 6064SOL    HW229655   1.131   1.137   6.351 -0.7929 -1.1530 -2.0774
 6065SOL     OW29656   3.394   1.588   4.812  0.0586  0.2859 -0.1731
 6065SOL    HW129657   3.339   1.555   4.741  1.6609  0.9462 -1.7285
 6065SOL    HW229658   3.373   1.681   4.821  1.4119  0.4925  0.7784
 6066SOL     OW29659   3.190   1.085   1.098  0.2255 -0.0913 -0.3789
 6066SOL    HW129660   3.203   1.090   1.193  1.7369 -0.4878 -0.5690
 6066SOL    HW229661   3.095   1.098   1.095  0.2384 -0.8869 -4.1660
 6067SOL     OW29662   3.423   3.522   7.036 -0.4013 -0.0427 -0.1243
 6067SOL    HW129663   3.333   3.514   7.069  0.8564  1.5004  3.6571
 6067SOL    HW229664   3.457   3.581   7.103 -1.5500 -1.4918  1.7378
 6068SOL     OW29665   1.799   4.302   7.614  0.0563 -0.3587 -0.4494
 6068SOL    HW129666   1.801   4.325   7.522  0.3542  0.4125 -0.2531
 6068SOL    HW229667   1.835   4.385   7.647  0.3269 -1.0948  1.1201
 6069SOL     OW29668   2.502   3.548   2.677 -0.5039 -0.1852 -0.0190
 6069SOL    HW129669   2.585   3.568   2.635  0.6968 -3.1693  0.9705
 6069SOL    HW229670   2.443   3.548   2.601  2.4456  2.5134 -2.3117
 6070SOL     OW29671   0.270   1.416   5.070 -0.1588  0.1893 -0.2555
 6070SOL    HW129672   0.246   1.399   5.161  2.3484 -0.5893  0.2550
 6070SOL    HW229673   0.201   1.369   5.023 -0.9156  0.1875  0.8639
 6071SOL     OW29674   0.833   2.897   2.899 -0.0792 -0.3526 -0.1047
 6071SOL    HW129675   0.766   2.849   2.948  0.1662  0.5663  1.1442
 6071SOL    HW229676   0.904   2.834   2.890  0.5272  0.2140  0.6588
 6072SOL     OW29677   1.793   1.369   6.081  0.0248  0.0891  0.7386
 6072SOL    HW129678   1.768   1.427   6.153  1.7784  3.1824 -1.1168
 6072SOL    HW229679   1.719   1.308   6.074  0.7608 -0.7936  0.6281
 6073SOL     OW29680   0.288   3.088  16.101 -0.1296 -0.5014 -0.0108
 6073SOL    HW129681   0.201   3.063  16.069  0.1369 -0.6656 -0.6103
 6073SOL    HW229682   0.265   3.177  16.125 -1.0128 -0.5604 -0.6200
 6074SOL     OW29683   1.689   4.127   2.850  0.2601  0.0265 -0.4811
 6074SOL    HW129684   1.628   4.065   2.811  0.1041  0.2246 -0.5531
 6074SOL    HW229685   1.648   4.214   2.848 -1.4234 -0.7522  0.6987
 6075SOL     OW29686   0.993   3.467   6.023  0.1443 -0.3967 -0.7527
 6075SOL    HW129687   1.001   3.518   6.103  1.2859 -1.4023 -0.2059
 6075SOL    HW229688   1.048   3.391   6.043 -1.0004 -1.6378 -2.2770
 6076SOL     OW29689   1.921   0.291   4.228 -0.3725 -0.4134  0.1698
 6076SOL    HW129690   1.915   0.382   4.257 -1.0250 -0.4735  0.2373
 6076SOL    HW229691   1.851   0.255   4.283  0.8095 -0.2579  1.7784
 6077SOL     OW29692   0.504   2.920   1.240 -0.4545  0.3513 -0.0659
 6077SOL    HW129693   0.562   2.904   1.314  1.5768  1.2276 -1.4881
 6077SOL    HW229694   0.519   3.014   1.227 -1.5333  0.3612 -1.2355
 6078SOL     OW29695   4.222   1.842   5.063  0.3776  0.1788  0.9193
 6078SOL    HW129696   4.296   1.798   5.105 -1.1351 -1.8561  1.4314
 6078SOL    HW229697   4.161   1.770   5.072  1.9045 -1.2459 -0.1706
 6079SOL     OW29698   3.885   1.045   3.405  0.1372 -0.1581 -0.1276
 6079SOL    HW129699   3.835   1.062   3.326 -1.0195  1.6411  1.0057
 6079SOL    HW229700   3.949   1.113   3.384 -1.5012  0.8975 -1.6744
 6080SOL     OW29701   3.629   4.469   8.945 -0.2639  0.3092 -0.0728
 6080SOL    HW129702   3.624   4.548   8.998 -1.8297  0.6360 -0.7225
 6080SOL    HW229703   3.590   4.404   9.004  0.7029 -1.0335 -0.9067
 6081SOL     OW29704   2.220   2.558   2.827 -0.0921  0.5364 -0.6109
 6081SOL    HW129705   2.221   2.647   2.863 -1.8450 -0.5314  2.1592
 6081SOL    HW229706   2.135   2.557   2.784  0.6852 -1.4468 -2.0687
 6082SOL     OW29707   2.250   3.058  10.835  0.2910 -0.1700  0.0765
 6082SOL    HW129708   2.341   3.027  10.832  1.0211  1.9813  0.0144
 6082SOL    HW229709   2.202   2.986  10.877 -1.9567  1.4890  0.3318
 6083SOL     OW29710   4.161   2.174  14.174 -0.0941  0.7425 -0.2800
 6083SOL    HW129711   4.244   2.142  14.139  0.4319  1.1300  0.6346
 6083SOL    HW229712   4.193   2.188  14.263 -2.2363 -0.2272  0.6599
 6084SOL     OW29713   0.617   1.355   7.366  0.1058 -0.7328 -0.1427
 6084SOL    HW129714   0.692   1.378   7.312 -0.1962 -3.1431 -1.5845
 6084SOL    HW229715   0.644   1.368   7.457  1.1126 -0.7336 -0.4420
 6085SOL     OW29716   4.082   1.620  12.804  0.3818 -0.3180 -0.4016
 6085SOL    HW129717   4.167   1.653  12.776  0.7843  1.2321  2.6105
 6085SOL    HW229718   4.111   1.549  12.862  0.5998 -1.0330 -1.3989
 6086SOL     OW29719   2.421   0.591   3.043 -0.1147  0.1846  0.0501
 6086SOL    HW129720   2.502   0.601   2.993 -0.1870 -0.8654 -0.2871
 6086SOL    HW229721   2.402   0.678   3.079 -0.9281  1.2744 -2.9856
 6087SOL     OW29722   4.452   4.664   8.791 -0.1933  0.7912 -0.9140
 6087SOL    HW129723   4.368   4.666   8.837  0.0976 -0.4402 -0.3415
 6087SOL    HW229724   4.426   4.634   8.704  0.0869 -2.5543  0.1814
 6088SOL     OW29725   0.349   3.674   5.701  0.0270  0.4161  0.0809
 6088SOL    HW129726   0.315   3.630   5.779  1.6151  0.3871  0.7748
 6088SOL    HW229727   0.277   3.677   5.639 -0.6687 -0.0826  0.8670
 6089SOL     OW29728   1.149   4.271   6.607 -0.0710  0.0833 -0.0917
 6089SOL    HW129729   1.174   4.300   6.695 -0.8629  1.7181 -0.3919
 6089SOL    HW229730   1.207   4.323   6.551 -0.8285  0.4338 -0.5568
 6090SOL     OW29731   0.468   4.038   2.481 -0.0462 -0.5015  0.1034
 6090SOL    HW129732   0.552   3.991   2.484 -1.6117 -3.2322  1.3267
 6090SOL    HW229733   0.429   4.012   2.564  0.3156  1.2316  0.8151
 6091SOL     OW29734   3.938   3.494  10.692  0.1283  0.2486 -0.2203
 6091SOL    HW129735   4.021   3.469  10.733 -0.4464  0.8000  1.2713
 6091SOL    HW229736   3.882   3.455  10.759 -0.5164  0.3681 -0.6885
 6092SOL     OW29737   0.538   4.658   2.370 -0.4680 -0.6494  0.5293
 6092SOL    HW129738   0.493   4.699   2.296 -0.1852  1.1582  1.3544
 6092SOL    HW229739   0.591   4.593   2.325  0.1672  0.8748 -0.9455
 6093SOL     OW29740   2.341   0.130  13.820  0.5940 -0.1726  0.5054
 6093SOL    HW129741   2.407   0.139  13.752  0.2676  1.7029  0.4569
 6093SOL    HW229742   2.284   0.206  13.816  1.8714  0.8252  1.2704
 6094SOL     OW29743   1.723   3.736  11.951 -0.5041 -0.5124 -0.0369
 6094SOL    HW129744   1.788   3.676  11.914  0.6354 -0.2319  1.5007
 6094SOL    HW229745   1.650   3.730  11.889 -1.6905 -1.2549  1.4073
 6095SOL     OW29746   1.171   3.069   4.932 -0.1741 -0.0550  0.1319
 6095SOL    HW129747   1.173   3.061   4.836  0.4825  0.9434  0.0641
 6095SOL    HW229748   1.111   3.144   4.938 -1.1097 -0.7489 -0.4729
 6096SOL     OW29749   2.582   0.268   8.943 -0.2323 -0.3897 -0.1010
 6096SOL    HW129750   2.628   0.350   8.961  0.3431 -1.0021  1.1949
 6096SOL    HW229751   2.504   0.269   8.999 -0.2241  0.7872 -0.1066
 6097SOL     OW29752   2.516   4.023   7.342 -0.5209 -0.1725 -0.3429
 6097SOL    HW129753   2.570   3.945   7.354 -1.4387 -0.3992  2.1631
 6097SOL    HW229754   2.432   3.982   7.321  0.0122 -0.5964 -1.7097
 6098SOL     OW29755   0.603   3.881   3.266  0.1353  0.2761 -0.0015
 6098SOL    HW129756   0.577   3.865   3.175  0.3131 -2.4655  0.4262
 6098SOL    HW229757   0.631   3.792   3.290 -1.8241 -0.4226 -0.2739
 6099SOL     OW29758   1.957   3.723   4.888 -0.1914 -0.6665 -0.5414
 6099SOL    HW129759   1.913   3.790   4.942 -2.0357 -1.1276 -1.4521
 6099SOL    HW229760   1.875   3.678   4.866  0.8184 -1.6917 -2.2128
 6100SOL     OW29761   1.937   2.132   2.984 -1.0923  0.1399  0.3108
 6100SOL    HW129762   2.020   2.177   2.992 -1.0046 -0.5489  3.2014
 6100SOL    HW229763   1.952   2.053   3.036  3.3138  0.3869 -0.5922
 6101SOL     OW29764   0.435   4.418  11.845 -0.0850 -0.1900  0.2626
 6101SOL    HW129765   0.387   4.463  11.776  1.0967  0.8766  0.1386
 6101SOL    HW229766   0.518   4.389  11.808 -0.4873 -2.1091  0.8565
 6102SOL     OW29767   4.497   0.516   7.940  0.1627  0.1140  0.1320
 6102SOL    HW129768   4.477   0.432   7.981 -0.8409  1.4334  2.3464
 6102SOL    HW229769   4.529   0.574   8.009 -0.9096 -0.4430  1.0801
 6103SOL     OW29770   1.841   2.797  10.029  0.0075  0.3352 -0.2497
 6103SOL    HW129771   1.840   2.711  10.071  0.0561 -0.1713 -1.2762
 6103SOL    HW229772   1.771   2.846  10.071 -0.8927 -2.1266  1.1109
 6104SOL     OW29773   0.732   2.952   1.069 -0.0111  0.0195 -0.0352
 6104SOL    HW129774   0.666   2.914   1.127 -0.5351 -0.7192 -1.1143
 6104SOL    HW229775   0.699   3.042   1.063 -1.3172 -0.3918  0.8769
 6105SOL     OW29776   3.392   2.075   5.314 -0.0453  0.2536  0.3165
 6105SOL    HW129777   3.310   2.036   5.345  0.1651 -0.8397 -0.4990
 6105SOL    HW229778   3.363   2.165   5.301 -2.9530 -0.9223 -1.2369
 6106SOL     OW29779   4.503   1.353   3.772 -0.5019 -0.4723 -0.1159
 6106SOL    HW129780   4.525   1.345   3.679 -1.2620 -3.9343 -0.0028
 6106SOL    HW229781   4.434   1.288   3.760 -1.4032  0.5368 -0.3133
 6107SOL     OW29782   3.626   3.765  16.369  0.3725 -0.3817  0.1235
 6107SOL    HW129783   3.572   3.688  16.351 -0.3076  0.2222 -0.3955
 6107SOL    HW229784   3.653   3.774  16.278 -0.1066 -2.5034 -0.2199
 6108SOL     OW29785   1.866   0.033  17.454  0.0776 -0.1488 -0.0807
 6108SOL    HW129786   1.896   0.123  17.443  0.3554 -0.5884 -2.7478
 6108SOL    HW229787   1.908   0.011  17.538  1.1053  0.4655 -0.4412
 6109SOL     OW29788   4.400   2.945   8.855 -0.5763  0.3573  0.3447
 6109SOL    HW129789   4.417   3.012   8.788  0.7274 -0.0781  0.2418
 6109SOL    HW229790   4.484   2.900   8.867  0.1615  1.8703  0.7744
 6110SOL     OW29791   4.027   1.205   9.824 -0.1801 -0.2262 -0.0922
 6110SOL    HW129792   4.121   1.201   9.837 -0.4183 -1.3294  1.2395
 6110SOL    HW229793   4.028   1.299   9.843  1.6622 -1.1588  4.3961
 6111SOL     OW29794   3.388   2.203   9.287  0.6342  0.4674  0.0258
 6111SOL    HW129795   3.460   2.203   9.224  0.0136  1.4692 -0.6763
 6111SOL    HW229796   3.387   2.286   9.335  1.1403  0.6755 -0.3168
 6112SOL     OW29797   2.655   4.649   4.355  0.2943  0.4070  0.0242
 6112SOL    HW129798   2.716   4.619   4.287  0.8565  0.7654  0.3813
 6112SOL    HW229799   2.702   4.637   4.437  2.6083  1.2021 -1.1880
 6113SOL     OW29800   2.700   1.780   6.825  0.0116  0.1291  0.6161
 6113SOL    HW129801   2.728   1.769   6.734  0.4540  1.3714  0.5881
 6113SOL    HW229802   2.724   1.695   6.860  0.2632  0.5340  1.4414
 6114SOL     OW29803   0.619   0.963   6.659  0.2245  0.4366 -0.7747
 6114SOL    HW129804   0.591   1.024   6.590 -1.0147  0.2793 -0.3926
 6114SOL    HW229805   0.534   0.925   6.680  0.7611  1.7568  3.7301
 6115SOL     OW29806   0.493   0.207   2.764  0.4214  0.6879  0.2894
 6115SOL    HW129807   0.503   0.257   2.844  0.6037 -0.8692  1.2383
 6115SOL    HW229808   0.445   0.258   2.699  0.2268 -2.8023 -2.3333
 6116SOL     OW29809   1.233   1.332   4.967  0.2771  0.1652 -0.2048
 6116SOL    HW129810   1.308   1.323   5.026 -0.7262 -1.8312  0.7390
 6116SOL    HW229811   1.219   1.245   4.931  0.7437  0.7677 -1.8700
 6117SOL     OW29812   1.493   3.898   8.073  0.2603 -0.6308 -0.2045
 6117SOL    HW129813   1.532   3.814   8.094 -0.9199 -1.4548 -1.2253
 6117SOL    HW229814   1.568   3.945   8.038 -0.4694  2.4146  2.4025
 6118SOL     OW29815   2.211   1.036   8.885 -0.8294 -0.2708  0.1575
 6118SOL    HW129816   2.130   1.083   8.867 -0.9244 -0.8543 -0.9400
 6118SOL    HW229817   2.273   1.097   8.846 -1.9309  1.3967  1.0583
 6119SOL     OW29818   0.693   1.517  13.438 -0.1924 -0.0527 -0.3746
 6119SOL    HW129819   0.649   1.463  13.503 -1.3612 -0.6859 -1.7041
 6119SOL    HW229820   0.776   1.537  13.482  0.1328 -1.0674 -0.5167
 6120SOL     OW29821   1.039   0.095  13.365 -0.5701 -0.6774  0.1388
 6120SOL    HW129822   1.060   0.037  13.292  1.7035  1.9564 -1.3166
 6120SOL    HW229823   1.090   0.173  13.340  0.0314 -0.9381  0.5718
 6121SOL     OW29824   3.464   2.855   6.288  0.0201 -0.0541 -0.6639
 6121SOL    HW129825   3.477   2.774   6.337  0.7868  0.2428 -0.3840
 6121SOL    HW229826   3.410   2.819   6.217 -1.1163  0.5808 -0.1227
 6122SOL     OW29827   2.329   3.467   4.090  0.3883  0.1833 -0.3990
 6122SOL    HW129828   2.407   3.513   4.057  0.4526  0.2451 -0.1612
 6122SOL    HW229829   2.278   3.474   4.009  0.8629 -1.2265 -0.8232
 6123SOL     OW29830   0.167   1.178   5.240  0.2361 -0.1040  0.4383
 6123SOL    HW129831   0.251   1.215   5.265  1.3780 -1.4957 -1.2723
 6123SOL    HW229832   0.194   1.090   5.213  3.5293  0.6445  1.2986
 6124SOL     OW29833   4.028   0.217  15.149  0.3360 -0.6756  0.0298
 6124SOL    HW129834   4.095   0.156  15.117  1.1614 -0.7054  1.8395
 6124SOL    HW229835   4.043   0.289  15.087 -1.7080 -0.3231 -0.0555
 6125SOL     OW29836   1.490   0.587  11.876 -0.1588  0.0340  0.0348
 6125SOL    HW129837   1.523   0.503  11.842 -0.4891  0.8274 -2.2526
 6125SOL    HW229838   1.547   0.608  11.950  0.9601 -1.8002 -0.3012
 6126SOL     OW29839   3.599   2.078   8.507  0.2670 -0.1133  0.1755
 6126SOL    HW129840   3.649   2.081   8.589  1.1728 -0.1012 -0.3860
 6126SOL    HW229841   3.566   2.168   8.508  0.2384 -0.1381  1.4953
 6127SOL     OW29842   2.696   0.730   0.862  0.0403 -0.2926 -0.3810
 6127SOL    HW129843   2.700   0.637   0.882 -0.4224  0.1163  1.5517
 6127SOL    HW229844   2.733   0.728   0.773 -2.0386 -1.8817 -1.2168
 6128SOL     OW29845   3.279   1.661   5.369 -0.7127 -0.2698 -0.3702
 6128SOL    HW129846   3.310   1.666   5.279  1.1568 -1.6373  0.1890
 6128SOL    HW229847   3.361   1.649   5.417 -0.9369 -0.4244 -0.0220
 6129SOL     OW29848   4.157   2.155   2.361 -0.2311 -0.1665  0.1615
 6129SOL    HW129849   4.134   2.190   2.274  0.4598  0.2518  0.1416
 6129SOL    HW229850   4.073   2.140   2.403  1.5048 -2.5293  2.7284
 6130SOL     OW29851   3.554   1.542   7.881 -0.2242 -0.4146  0.2705
 6130SOL    HW129852   3.554   1.478   7.810  1.7049  1.0859 -1.0792
 6130SOL    HW229853   3.622   1.513   7.942 -1.2375  0.0039  1.6047
 6131SOL     OW29854   1.610   4.172   0.206 -0.2423  0.2218  0.3190
 6131SOL    HW129855   1.553   4.147   0.279  0.1471  1.2087  0.9800
 6131SOL    HW229856   1.578   4.115   0.137  0.8253  0.3206 -0.2544
 6132SOL     OW29857   4.124   1.938   7.340  0.0479  0.0433 -0.5126
 6132SOL    HW129858   4.206   1.980   7.367  1.3334 -2.6757 -0.2310
 6132SOL    HW229859   4.077   2.013   7.301 -0.5401 -0.8547 -1.5207
 6133SOL     OW29860   2.004   1.155   2.534 -0.0245 -0.3426  0.3794
 6133SOL    HW129861   2.061   1.232   2.544  2.2494 -2.0516  0.7962
 6133SOL    HW229862   1.993   1.150   2.439  0.5411 -2.3635  0.4146
 6134SOL     OW29863   2.777   3.950   3.462 -0.7556 -0.0823 -0.3037
 6134SOL    HW129864   2.695   3.929   3.417 -0.4160  0.7069 -1.2810
 6134SOL    HW229865   2.800   3.858   3.481 -0.2040 -0.1063 -1.0771
 6135SOL     OW29866   2.158   0.782   3.308 -0.0023 -0.1813 -0.4333
 6135SOL    HW129867   2.233   0.823   3.265 -0.4777  1.1582  0.0117
 6135SOL    HW229868   2.166   0.818   3.397  1.6358  0.2765 -0.7655
 6136SOL     OW29869   3.384   0.449   3.652 -0.6776 -0.7543  0.0010
 6136SOL    HW129870   3.320   0.423   3.586 -0.8748  0.7219 -0.3766
 6136SOL    HW229871   3.415   0.533   3.619 -2.2210 -0.0890  0.2043
 6137SOL     OW29872   2.864   4.535   4.134 -0.1790  0.0175 -0.3677
 6137SOL    HW129873   2.867   4.440   4.127 -0.2773 -0.1127  1.2649
 6137SOL    HW229874   2.783   4.554   4.087 -0.8057  1.3211  1.2583
 6138SOL     OW29875   1.053   2.512   3.628  0.3548  0.4053 -0.2635
 6138SOL    HW129876   1.145   2.491   3.642  0.6017  0.5370 -1.6980
 6138SOL    HW229877   1.044   2.531   3.534 -0.2779 -2.4689 -0.7756
 6139SOL     OW29878   2.472   0.520   6.930 -0.0468  0.1192 -0.1839
 6139SOL    HW129879   2.402   0.571   6.889 -1.9862 -2.1820  0.2446
 6139SOL    HW229880   2.469   0.435   6.885 -1.4055  1.1258 -1.9891
 6140SOL     OW29881   1.508   4.023   5.503 -0.1359  0.3694 -0.1179
 6140SOL    HW129882   1.461   4.094   5.547  2.2280  1.9437 -0.1218
 6140SOL    HW229883   1.598   4.038   5.530  0.0920  0.3622 -0.8550
 6141SOL     OW29884   2.616   2.857   4.798  0.0833 -0.3096  0.2288
 6141SOL    HW129885   2.648   2.901   4.719  3.3138 -2.3630  0.3575
 6141SOL    HW229886   2.628   2.765   4.774  0.5406  0.1144 -1.2079
 6142SOL     OW29887   0.785   0.782   8.413 -0.5659 -0.2010  0.1659
 6142SOL    HW129888   0.833   0.717   8.362  0.1616 -0.5792  1.3135
 6142SOL    HW229889   0.708   0.793   8.358  0.0051 -0.9957 -0.7721
 6143SOL     OW29890   4.484   1.693   3.385 -0.6208 -0.5375  0.6105
 6143SOL    HW129891   4.507   1.701   3.292 -0.2618  1.5893  0.8915
 6143SOL    HW229892   4.510   1.778   3.420  0.0467  0.7358 -2.9138
 6144SOL     OW29893   4.361   0.030   9.843  0.1792 -0.6141 -0.0865
 6144SOL    HW129894   4.334   0.050   9.754  0.3728  1.6807  0.3525
 6144SOL    HW229895   4.455   0.047   9.842  0.0947  0.0839  2.0516
 6145SOL     OW29896   4.148   3.568   3.540  0.0159 -0.0088  0.1939
 6145SOL    HW129897   4.221   3.596   3.595 -0.8270  2.0646  0.2715
 6145SOL    HW229898   4.198   3.526   3.470  1.8182  0.9645  0.8884
 6146SOL     OW29899   3.106   1.639   3.966  0.0236  0.5629  0.3236
 6146SOL    HW129900   3.164   1.697   4.014  0.3638  0.7323 -0.2876
 6146SOL    HW229901   3.073   1.702   3.901  0.5295  1.2409  0.7321
 6147SOL     OW29902   2.526   0.277   1.232 -0.0970 -0.0798 -0.0284
 6147SOL    HW129903   2.556   0.230   1.154  1.9790  0.3027  0.5424
 6147SOL    HW229904   2.482   0.347   1.184 -0.7770 -0.3439  0.2087
 6148SOL     OW29905   1.674   2.547   5.093  0.4670 -0.1964 -0.0619
 6148SOL    HW129906   1.754   2.526   5.141  0.7010  0.2414 -0.2585
 6148SOL    HW229907   1.656   2.640   5.111 -2.2527 -0.9430  1.1197
 6149SOL     OW29908   3.934   2.665   5.216 -0.2404  0.3037  0.3047
 6149SOL    HW129909   3.964   2.575   5.228 -0.1178  0.1533 -1.2115
 6149SOL    HW229910   3.872   2.650   5.145  0.2001  1.1880 -0.2597
 6150SOL     OW29911   2.930   3.503  13.065 -0.8147  0.3185 -0.6393
 6150SOL    HW129912   2.931   3.517  13.159  0.1687 -0.2135 -0.5634
 6150SOL    HW229913   2.971   3.418  13.050 -1.6109 -0.1682 -0.0179
 6151SOL     OW29914   2.894   2.670   8.660  0.3082  0.1435 -0.3640
 6151SOL    HW129915   2.815   2.677   8.713  0.4756 -1.6563  0.1342
 6151SOL    HW229916   2.947   2.749   8.664 -1.0278  1.0926 -1.3244
 6152SOL     OW29917   3.040   1.220  16.074 -0.3342  0.2990  0.3254
 6152SOL    HW129918   2.994   1.304  16.071 -0.1390  0.4063  0.3871
 6152SOL    HW229919   3.131   1.250  16.074  0.0834 -0.9555  1.0723
 6153SOL     OW29920   1.241   0.015  15.467  0.5914 -0.1468 -0.6546
 6153SOL    HW129921   1.252   4.665  15.405  0.7019 -0.8703  0.1989
 6153SOL    HW229922   1.301   0.081  15.433  1.9838 -1.3363 -0.4910
 6154SOL     OW29923   2.932   1.300   7.609  0.1463  0.1778 -0.0015
 6154SOL    HW129924   2.901   1.261   7.691  0.4331  0.7514  0.3857
 6154SOL    HW229925   2.990   1.232   7.575 -1.4891  0.2241 -2.8326
 6155SOL     OW29926   3.057   1.766   7.945  0.6024 -0.2663 -0.2332
 6155SOL    HW129927   3.113   1.689   7.945  2.8176  1.3608  1.4613
 6155SOL    HW229928   3.049   1.804   8.033 -2.0740  1.6316 -1.2760
 6156SOL     OW29929   1.666   4.497   9.597 -0.4836 -0.1637  0.7102
 6156SOL    HW129930   1.740   4.542   9.557 -0.0573 -2.5725 -1.2170
 6156SOL    HW229931   1.696   4.438   9.666 -0.2370 -0.3816  0.4195
 6157SOL     OW29932   0.619   0.904   4.237 -0.3089 -0.9358  0.3532
 6157SOL    HW129933   0.642   0.913   4.329  1.4729  0.8047 -0.2591
 6157SOL    HW229934   0.566   0.825   4.248 -1.1978 -0.4254 -0.3535
 6158SOL     OW29935   3.495   4.038  13.341  0.2908 -0.1088  0.1803
 6158SOL    HW129936   3.459   4.087  13.268  1.8363  1.0485  0.1782
 6158SOL    HW229937   3.586   4.031  13.310 -1.1527  0.6477 -4.1834
 6159SOL     OW29938   3.028   0.540   6.672 -0.1015  0.1166 -0.3016
 6159SOL    HW129939   3.088   0.523   6.745  0.9447 -0.4982 -1.2980
 6159SOL    HW229940   3.043   0.458   6.625 -0.3683  0.0592 -0.2836
 6160SOL     OW29941   2.586   2.426   7.036  0.1175  0.5924  0.4679
 6160SOL    HW129942   2.502   2.403   6.997  0.8414  0.8048 -1.2635
 6160SOL    HW229943   2.576   2.411   7.130 -1.6098  2.2368  0.5262
 6161SOL     OW29944   4.418   4.258   3.310 -0.1904 -0.2021 -0.1485
 6161SOL    HW129945   4.396   4.326   3.247 -1.0845 -0.7442 -0.4269
 6161SOL    HW229946   4.330   4.221   3.318 -0.7585  1.2308  0.1997
 6162SOL     OW29947   3.739   4.473   3.094 -0.0173 -0.4772 -0.5022
 6162SOL    HW129948   3.817   4.521   3.065  0.7305 -0.4122  1.6615
 6162SOL    HW229949   3.781   4.394   3.126 -0.1161 -0.1957  0.3053
 6163SOL     OW29950   1.856   2.183   7.512 -0.1038  0.3310  0.3510
 6163SOL    HW129951   1.893   2.231   7.438  1.2609  0.5612  1.1709
 6163SOL    HW229952   1.769   2.221   7.507 -0.2990  0.0472  1.4525
 6164SOL     OW29953   4.453   2.104   9.718 -0.2507 -0.3207  0.2563
 6164SOL    HW129954   4.519   2.157   9.675 -0.9588 -0.1299 -0.5814
 6164SOL    HW229955   4.501   2.055   9.785 -0.7391 -0.7445  0.2987
 6165SOL     OW29956   3.271   2.918   2.118  0.2181 -0.0017 -0.3672
 6165SOL    HW129957   3.284   3.011   2.134 -0.8554  0.3853 -1.7453
 6165SOL    HW229958   3.194   2.904   2.173  0.5504 -3.7075 -0.8319
 6166SOL     OW29959   4.019   4.398  16.402 -0.2005  0.3685  0.2453
 6166SOL    HW129960   4.039   4.490  16.383  2.0549  0.0934  1.1547
 6166SOL    HW229961   4.014   4.359  16.315 -0.6229 -1.8757  1.2780
 6167SOL     OW29962   1.368   2.226  15.222  0.5048 -0.5197  0.4990
 6167SOL    HW129963   1.414   2.155  15.267  0.2740 -0.9400  0.0783
 6167SOL    HW229964   1.428   2.300  15.229 -1.3437  1.0500 -0.3019
 6168SOL     OW29965   0.903   3.319   1.165 -0.3192 -0.1260 -0.1702
 6168SOL    HW129966   0.966   3.319   1.093 -0.7587 -1.6125 -0.5475
 6168SOL    HW229967   0.855   3.399   1.141 -0.3385 -1.2448 -3.8663
 6169SOL     OW29968   3.711   3.326  11.818 -0.2007  0.1842 -0.3637
 6169SOL    HW129969   3.712   3.407  11.767 -2.7198  0.4589  0.0179
 6169SOL    HW229970   3.635   3.287  11.775  0.9468  0.0987 -2.3101
 6170SOL     OW29971   0.743   0.604   3.214  0.1974  0.3895  0.2326
 6170SOL    HW129972   0.824   0.571   3.176  1.5950  0.4979  3.1820
 6170SOL    HW229973   0.736   0.550   3.292  0.8470  0.1077  0.0952
 6171SOL     OW29974   2.421   1.834   2.580 -0.5345  1.0325  0.1710
 6171SOL    HW129975   2.410   1.929   2.571  0.1052  0.9983 -0.9468
 6171SOL    HW229976   2.372   1.807   2.503  2.1290 -1.1702 -0.7627
 6172SOL     OW29977   0.904   1.175   6.553 -0.4245 -0.4429  0.1239
 6172SOL    HW129978   0.816   1.207   6.534 -0.3776  0.2421  1.0591
 6172SOL    HW229979   0.920   1.129   6.471  2.8248  0.9354 -0.0235
 6173SOL     OW29980   1.974   3.668   4.263  0.6464  0.2968  0.3861
 6173SOL    HW129981   1.885   3.701   4.257  0.0195 -1.3949  0.5144
 6173SOL    HW229982   1.980   3.671   4.359  1.9897  0.8668  0.2863
 6174SOL     OW29983   1.940   0.904  12.520 -0.2663  0.3103  0.0638
 6174SOL    HW129984   1.934   0.813  12.550 -0.1983  0.0648 -0.6681
 6174SOL    HW229985   1.849   0.925  12.497  0.3667 -0.2127 -2.8466
 6175SOL     OW29986   3.578   2.915   1.405 -0.2500  0.4758 -0.0911
 6175SOL    HW129987   3.551   3.006   1.391  2.2704  1.3080  0.5838
 6175SOL    HW229988   3.636   2.928   1.480 -1.5899  0.2788  0.9964
 6176SOL     OW29989   1.571   0.221  12.688  0.4282 -0.1889  0.1543
 6176SOL    HW129990   1.628   0.295  12.709  0.1709 -0.0292  0.2906
 6176SOL    HW229991   1.575   0.178  12.773 -0.9178 -0.4992  0.0476
 6177SOL     OW29992   2.968   3.333   7.637  0.3960 -0.8493 -0.6759
 6177SOL    HW129993   3.009   3.412   7.601 -0.8976  1.1121  2.1294
 6177SOL    HW229994   2.968   3.355   7.730  1.6715 -1.5125 -0.5091
 6178SOL     OW29995   3.048   3.472   8.938  0.4299 -0.2939  0.2269
 6178SOL    HW129996   3.077   3.485   9.029  0.0312  0.1455  0.2933
 6178SOL    HW229997   3.128   3.435   8.900 -0.4984 -0.3406 -1.6469
 6179SOL     OW29998   0.353   1.073   4.977 -0.1756  0.3049 -0.2076
 6179SOL    HW129999   0.343   1.050   5.069  1.2841 -2.7820 -0.8412
 6179SOL    HW230000   0.447   1.089   4.968  0.1324 -0.8651  1.1062
 6180SOL     OW30001   3.899   4.257   3.111 -0.2399 -0.2332  0.2669
 6180SOL    HW130002   3.991   4.281   3.128 -0.4847  1.9243 -1.4432
 6180SOL    HW230003   3.896   4.191   3.042  2.0123  1.3734 -1.3681
 6181SOL     OW30004   4.036   3.001   4.416 -0.1736  0.2452  1.0555
 6181SOL    HW130005   4.084   3.008   4.498  1.3644  1.6254  0.0417
 6181SOL    HW230006   3.977   3.077   4.424  1.4299  1.5042  0.9310
 6182SOL     OW30007   2.292   1.228  15.854  0.1602  0.1216  0.0824
 6182SOL    HW130008   2.301   1.192  15.942  1.1336 -0.3646 -0.2123
 6182SOL    HW230009   2.205   1.204  15.821  0.0900 -0.8429  0.9880
 6183SOL     OW30010   0.442   0.371   2.987  0.7754 -0.1896  0.4091
 6183SOL    HW130011   0.352   0.397   2.971  1.8957  0.7546 -4.3335
 6183SOL    HW230012   0.428   0.287   3.032  1.3615  0.0264  0.9994
 6184SOL     OW30013   0.954   0.768  10.285 -0.0929  0.5599 -0.2077
 6184SOL    HW130014   0.872   0.769  10.334 -0.5508 -1.4612 -0.9355
 6184SOL    HW230015   0.944   0.702  10.217  0.9037  0.5971 -0.4003
 6185SOL     OW30016   1.694   1.093   2.221 -0.5220  0.1674  0.0873
 6185SOL    HW130017   1.602   1.118   2.233 -0.4018 -0.3582  2.1782
 6185SOL    HW230018   1.724   1.126   2.306 -1.1293 -2.5019  1.3554
 6186SOL     OW30019   0.850   3.342   3.661 -0.0008 -0.1867 -0.0870
 6186SOL    HW130020   0.912   3.301   3.721  0.9415 -1.1732 -1.7643
 6186SOL    HW230021   0.823   3.422   3.707  0.9542 -0.3482  0.7354
 6187SOL     OW30022   1.097   1.582  15.796 -0.2007  0.2004 -0.3234
 6187SOL    HW130023   1.176   1.532  15.814  0.3382  0.4435 -2.0730
 6187SOL    HW230024   1.071   1.588  15.888  0.1746  0.1100 -0.2148
 6188SOL     OW30025   4.003   0.521  12.017  0.0901 -0.0795 -0.2719
 6188SOL    HW130026   3.919   0.476  12.019 -0.3703  0.7385 -0.9478
 6188SOL    HW230027   4.057   0.459  12.067 -0.1911 -0.9867 -1.0942
 6189SOL     OW30028   3.807   3.967   7.245 -0.2309  0.5307 -0.0973
 6189SOL    HW130029   3.770   4.001   7.327 -1.2833  1.0582 -0.8040
 6189SOL    HW230030   3.809   4.043   7.187  1.0064  0.5518 -0.0475
 6190SOL     OW30031   3.211   1.677   6.093  0.2360 -0.1678  0.0247
 6190SOL    HW130032   3.210   1.616   6.166  1.0490 -0.8355 -0.5217
 6190SOL    HW230033   3.133   1.722   6.124 -0.3979 -1.7945  0.7665
 6191SOL     OW30034   2.817   2.403   6.845  0.1040 -0.0372 -0.2162
 6191SOL    HW130035   2.851   2.314   6.846  1.9662  0.6841  2.3723
 6191SOL    HW230036   2.745   2.402   6.908 -0.3970 -1.2371 -0.8199
 6192SOL     OW30037   3.431   3.052  14.199  0.2232 -0.4739  0.1507
 6192SOL    HW130038   3.465   3.140  14.217  1.5744 -1.0525  0.3880
 6192SOL    HW230039   3.487   3.022  14.128  0.8844  1.4617 -0.1585
 6193SOL     OW30040   3.815   3.502  16.224 -0.7484  0.2654  0.5381
 6193SOL    HW130041   3.817   3.507  16.319  1.3795  0.6712  0.4538
 6193SOL    HW230042   3.754   3.431  16.204 -0.7473  0.2273  0.6704
 6194SOL     OW30043   0.370   1.885   8.311 -0.7142  0.6791  0.0669
 6194SOL    HW130044   0.319   1.922   8.383 -0.4061  0.4776  0.3937
 6194SOL    HW230045   0.420   1.958   8.275 -0.6762  0.7258  0.2138
 6195SOL     OW30046   0.952   1.814   8.270 -0.1008 -0.6701  0.1563
 6195SOL    HW130047   0.946   1.874   8.345 -0.3958  0.1578 -0.5283
 6195SOL    HW230048   0.867   1.828   8.227  1.2665 -1.7285 -2.8971
 6196SOL     OW30049   2.025   0.065   0.344 -0.1132 -0.5623  0.0555
 6196SOL    HW130050   1.965   0.139   0.337  0.2526 -0.3707 -1.0496
 6196SOL    HW230051   2.008   0.032   0.433  0.5990 -0.1623  0.3399
 6197SOL     OW30052   0.167   4.049   4.833 -0.0142  0.4625  0.0953
 6197SOL    HW130053   0.149   4.062   4.927 -0.1319  2.2600 -0.1789
 6197SOL    HW230054   0.228   3.975   4.832 -0.5292  0.0660 -1.8104
 6198SOL     OW30055   3.130   1.151   0.073 -0.3154  0.1677 -0.0720
 6198SOL    HW130056   3.192   1.166   0.002 -0.4453  1.3204  0.0505
 6198SOL    HW230057   3.047   1.129   0.031 -0.2421 -0.8901  0.3559
 6199SOL     OW30058   0.937   0.375  15.176 -0.2116 -0.3326  0.2429
 6199SOL    HW130059   0.972   0.463  15.188 -2.3942  0.3810  1.3347
 6199SOL    HW230060   0.967   0.339  15.259  0.1707 -0.6186 -0.0155
 6200SOL     OW30061   3.105   2.053   4.049 -0.3919 -0.4827  0.0847
 6200SOL    HW130062   3.035   2.009   4.098 -0.7494 -0.6684 -0.5859
 6200SOL    HW230063   3.070   2.039   3.961  0.0181 -2.5198  0.2509
 6201SOL     OW30064   2.190   4.639   6.981 -0.2671  0.5520 -0.6234
 6201SOL    HW130065   2.213   4.608   6.894 -0.7608  1.1032 -0.9465
 6201SOL    HW230066   2.165   0.007   6.959  1.0177  1.1970  0.6106
 6202SOL     OW30067   0.860   1.094   7.437  0.2884  0.0862  0.1327
 6202SOL    HW130068   0.889   1.126   7.522  2.2430 -1.4834  0.0612
 6202SOL    HW230069   0.798   1.032   7.473  1.6636 -1.9833 -1.0483
 6203SOL     OW30070   2.657   2.921   5.514 -0.0554 -0.1364  0.6643
 6203SOL    HW130071   2.739   2.951   5.555 -0.1063 -0.6291  1.1275
 6203SOL    HW230072   2.689   2.878   5.435  0.3199  0.0145  0.7313
 6204SOL     OW30073   3.801   0.278  10.480  0.5114  0.1685  0.3100
 6204SOL    HW130074   3.838   0.190  10.482 -0.7681 -0.3712  0.0992
 6204SOL    HW230075   3.885   0.323  10.491 -1.2857  3.7463 -0.7169
 6205SOL     OW30076   1.690   4.308   3.334 -0.1894 -0.5278 -0.7713
 6205SOL    HW130077   1.664   4.281   3.246 -2.2340  1.8366 -0.8906
 6205SOL    HW230078   1.690   4.401   3.309 -1.2746 -0.6671 -1.2949
 6206SOL     OW30079   3.538   0.013   3.239  0.0312  0.3400 -0.6020
 6206SOL    HW130080   3.500   0.057   3.315  0.3817 -1.2872  0.4937
 6206SOL    HW230081   3.583   4.656   3.267  0.0380  0.4091 -0.4211
 6207SOL     OW30082   4.595   0.478   4.588  0.2651 -0.3483  0.2402
 6207SOL    HW130083   4.623   0.388   4.573 -0.6153 -0.0477 -3.0409
 6207SOL    HW230084   4.601   0.512   4.499  1.5940 -0.5860  0.2311
 6208SOL     OW30085   3.229   3.979   2.655 -0.2309 -0.0717  0.5123
 6208SOL    HW130086   3.204   3.891   2.683  2.4287 -0.7716  0.7054
 6208SOL    HW230087   3.218   3.979   2.560  1.2028  0.8393  0.3424
 6209SOL     OW30088   3.708   3.688   2.995  0.2173 -0.0328 -0.2170
 6209SOL    HW130089   3.737   3.602   3.025  1.1000  0.3787  0.0990
 6209SOL    HW230090   3.641   3.666   2.931  0.0158  1.3566 -0.4840
 6210SOL     OW30091   2.642   0.039   4.053  0.2756  0.0501 -0.3187
 6210SOL    HW130092   2.613   4.670   4.046  1.7370 -0.4574  0.2122
 6210SOL    HW230093   2.557   0.082   4.067  0.0849 -0.3339 -0.2924
 6211SOL     OW30094   1.324   0.575   1.944  0.2622 -0.6477  0.2201
 6211SOL    HW130095   1.399   0.516   1.939 -2.0377 -3.7892  2.1147
 6211SOL    HW230096   1.299   0.567   2.036 -1.0418  2.5766  0.1464
 6212SOL     OW30097   4.579   3.351   7.297  0.7849 -0.5884  0.5026
 6212SOL    HW130098   4.546   3.440   7.311  2.2405 -0.1708  1.3540
 6212SOL    HW230099   4.536   3.344   7.212  0.6471 -1.4198  0.6401
 6213SOL     OW30100   2.943   0.346   9.012  0.5163  0.2877  0.7367
 6213SOL    HW130101   2.897   0.334   9.095  0.0873 -0.3774  0.4048
 6213SOL    HW230102   3.006   0.277   9.029  0.2693 -0.3887 -1.0559
 6214SOL     OW30103   3.694   4.498   1.903 -0.0086  0.4865 -0.1294
 6214SOL    HW130104   3.621   4.557   1.925 -0.7929 -0.8302  0.8373
 6214SOL    HW230105   3.656   4.416   1.936  1.4172  0.0381  0.3911
 6215SOL     OW30106   2.866   3.905   5.065 -0.4099  0.0549 -0.2269
 6215SOL    HW130107   2.958   3.920   5.087 -0.6878  1.7908 -0.2717
 6215SOL    HW230108   2.841   3.991   5.032  3.4132  0.1242 -2.9406
 6216SOL     OW30109   4.317   1.357  12.579  0.3335  0.5521  0.1477
 6216SOL    HW130110   4.384   1.341  12.513 -0.2849  0.6085 -0.4904
 6216SOL    HW230111   4.294   1.265  12.594 -0.4457  0.6359 -0.5609
 6217SOL     OW30112   4.452   1.897   3.982  0.9040  0.4752  0.6372
 6217SOL    HW130113   4.450   1.900   4.078 -1.9200 -1.5622  0.6335
 6217SOL    HW230114   4.405   1.976   3.953  0.4954  0.4780  1.2959
 6218SOL     OW30115   3.717   4.050  10.376 -0.2828  0.3326  0.1741
 6218SOL    HW130116   3.798   4.047  10.428 -1.4264 -0.9415  1.8748
 6218SOL    HW230117   3.652   4.039  10.444 -0.0132 -2.6326 -0.0346
 6219SOL     OW30118   1.443   1.408   4.273 -0.1267 -0.5109  0.2302
 6219SOL    HW130119   1.400   1.424   4.189 -0.3919 -0.5021  0.3674
 6219SOL    HW230120   1.391   1.472   4.321 -0.1891 -0.8469  0.6074
 6220SOL     OW30121   3.752   2.912   1.653  0.4386  0.0656 -0.8380
 6220SOL    HW130122   3.718   2.823   1.659 -1.6551  0.9695  0.4133
 6220SOL    HW230123   3.786   2.929   1.740 -0.3148 -0.6246 -0.4109
 6221SOL     OW30124   2.934   2.678  10.202 -0.1224 -0.3239  0.0546
 6221SOL    HW130125   2.943   2.645  10.291 -1.1486  1.2398  0.7525
 6221SOL    HW230126   2.849   2.722  10.204 -0.0155 -0.1523  1.1906
 6222SOL     OW30127   2.197   2.377   7.103  1.2430  0.0152  0.7736
 6222SOL    HW130128   2.236   2.324   7.034 -0.5692 -0.0683 -0.1881
 6222SOL    HW230129   2.243   2.338   7.177  2.1538  0.0278  0.2124
 6223SOL     OW30130   0.358   0.120   3.056  0.0680  0.0767 -0.2323
 6223SOL    HW130131   0.265   0.129   3.078 -0.4270 -0.5290 -2.0278
 6223SOL    HW230132   0.391   0.059   3.121  1.5777 -0.9326 -1.9499
 6224SOL     OW30133   3.323   0.173   7.045 -0.4594  0.2044  0.2943
 6224SOL    HW130134   3.366   0.111   7.104  0.9557 -0.5528 -1.5155
 6224SOL    HW230135   3.388   0.181   6.975 -2.8462  1.7396 -1.7089
 6225SOL     OW30136   3.855   0.067  13.920  0.6020  0.4618 -0.5222
 6225SOL    HW130137   3.837   4.696  13.909 -1.9715  0.9380 -0.4484
 6225SOL    HW230138   3.890   0.088  13.834  0.7551 -0.2551 -0.6280
 6226SOL     OW30139   3.754   2.184   7.618 -0.2260 -0.1013 -0.2752
 6226SOL    HW130140   3.737   2.277   7.632 -2.8094 -0.6277  0.1726
 6226SOL    HW230141   3.740   2.150   7.707 -0.1893 -0.2691 -0.3350
 6227SOL     OW30142   3.409   1.734   4.502  0.0468 -0.5242 -0.3064
 6227SOL    HW130143   3.474   1.723   4.432 -0.6803 -1.1617 -0.8788
 6227SOL    HW230144   3.354   1.657   4.485  0.1604 -0.1329 -2.4802
 6228SOL     OW30145   0.818   3.492   6.387 -0.8580  0.4737  0.4958
 6228SOL    HW130146   0.795   3.584   6.377  0.5923  0.7580 -0.2036
 6228SOL    HW230147   0.787   3.460   6.302  2.0193 -0.1066 -0.3419
 6229SOL     OW30148   0.156   2.749   7.291 -0.0470 -0.9198  0.8553
 6229SOL    HW130149   0.241   2.791   7.306  0.9914 -1.6392 -3.1296
 6229SOL    HW230150   0.108   2.815   7.241 -0.5181 -0.4197  1.9493
 6230SOL     OW30151   3.965   1.219   8.245  0.4031  0.1880  0.4018
 6230SOL    HW130152   3.873   1.210   8.219  1.2806  0.4546 -2.7353
 6230SOL    HW230153   3.958   1.308   8.279  0.1214  0.1417  0.4692
 6231SOL     OW30154   2.626   3.089  10.076  0.4824  0.5338  0.2171
 6231SOL    HW130155   2.588   3.001  10.085 -0.1524  0.6602 -1.3577
 6231SOL    HW230156   2.682   3.076   9.999 -0.7973  2.5664 -1.0289
 6232SOL     OW30157   3.487   4.519   6.197  0.5581 -0.0145  0.0496
 6232SOL    HW130158   3.569   4.470   6.192  0.8431  0.6384 -1.7876
 6232SOL    HW230159   3.509   4.600   6.244 -0.9407 -0.3171  1.2636
 6233SOL     OW30160   1.785   2.489   4.660  0.1172  0.1872  0.7650
 6233SOL    HW130161   1.785   2.582   4.678  2.2275  0.8190 -2.4432
 6233SOL    HW230162   1.844   2.489   4.585  1.3048  2.0970  1.6969
 6234SOL     OW30163   4.189   4.058   5.532 -0.2354 -0.6767  0.3518
 6234SOL    HW130164   4.166   3.970   5.560  0.0026 -0.9188 -0.2249
 6234SOL    HW230165   4.132   4.099   5.598  0.1565  1.7898 -0.8314
 6235SOL     OW30166   0.161   3.581   8.572 -0.3239 -0.0312 -0.1463
 6235SOL    HW130167   0.080   3.603   8.526  1.3251  0.0103 -3.0324
 6235SOL    HW230168   0.204   3.538   8.498  0.0902 -1.9819  1.2371
 6236SOL     OW30169   1.097   0.698   2.763 -0.1299 -0.5427 -0.7297
 6236SOL    HW130170   1.019   0.678   2.814  0.1781  0.5914  0.1719
 6236SOL    HW230171   1.131   0.624   2.713  2.1430  0.2391 -0.3366
 6237SOL     OW30172   2.220   4.054   1.625  0.8144 -0.0683 -0.2896
 6237SOL    HW130173   2.257   4.015   1.704  0.3471 -0.9789 -0.5280
 6237SOL    HW230174   2.128   4.045   1.649  0.1815  4.6150 -0.9455
 6238SOL     OW30175   2.553   1.186   0.410 -0.1008  0.2502  0.4155
 6238SOL    HW130176   2.622   1.235   0.455  0.7010  0.3735 -0.9584
 6238SOL    HW230177   2.511   1.139   0.482 -0.2736 -0.1487  0.0525
 6239SOL     OW30178   4.350   1.137   3.716 -0.0100 -0.2775  0.2440
 6239SOL    HW130179   4.420   1.094   3.666 -0.7234 -0.5385 -0.5171
 6239SOL    HW230180   4.289   1.064   3.723  2.0575 -2.2384 -1.8378
 6240SOL     OW30181   2.039   2.018   8.537 -0.3259 -0.5923  0.0172
 6240SOL    HW130182   2.051   2.101   8.491 -0.6967  1.1846  3.0532
 6240SOL    HW230183   2.012   1.956   8.470 -0.6520  1.8171 -2.0380
 6241SOL     OW30184   3.532   4.353  11.821  0.4131 -0.4065  0.1875
 6241SOL    HW130185   3.545   4.431  11.767 -2.2196 -1.0740 -1.3880
 6241SOL    HW230186   3.437   4.352  11.818  0.4686 -0.2222 -1.7001
 6242SOL     OW30187   1.664   2.867   4.966  0.0520  0.1865  0.0845
 6242SOL    HW130188   1.697   2.908   5.046 -3.1719 -1.4610  2.2243
 6242SOL    HW230189   1.584   2.829   5.001  0.2909  0.4971  0.9542
 6243SOL     OW30190   2.448   4.630   2.605  0.0973 -0.1165 -0.0396
 6243SOL    HW130191   2.536   4.666   2.600 -0.2381  0.8576  0.9812
 6243SOL    HW230192   2.471   4.538   2.594  1.3789  0.6312 -3.4571
 6244SOL     OW30193   2.671   4.658   8.186  0.7406  0.2130 -0.0871
 6244SOL    HW130194   2.605   0.005   8.188  1.8648  1.1925  2.9847
 6244SOL    HW230195   2.647   4.623   8.272  1.8579 -2.1363 -0.7298
 6245SOL     OW30196   1.077   2.514   7.745 -0.4912  0.0042 -0.1310
 6245SOL    HW130197   1.133   2.439   7.724  0.3527  1.0630 -1.6556
 6245SOL    HW230198   1.116   2.579   7.687  0.2195 -2.2361 -2.1791
 6246SOL     OW30199   0.617   1.789  11.950 -0.0715 -0.0623  0.1529
 6246SOL    HW130200   0.523   1.799  11.964 -0.0445  0.1140  0.2082
 6246SOL    HW230201   0.637   1.852  12.019 -1.4776  0.6696 -0.1028
 6247SOL     OW30202   3.819   4.232   1.313 -0.3774 -0.1543  0.2859
 6247SOL    HW130203   3.891   4.184   1.355 -0.1983 -1.2153 -1.2324
 6247SOL    HW230204   3.772   4.263   1.391 -1.0392 -0.1556 -0.1162
 6248SOL     OW30205   3.335   0.856  10.605 -0.4210  0.1066 -0.6671
 6248SOL    HW130206   3.266   0.884  10.545  1.9639  4.0892 -1.4780
 6248SOL    HW230207   3.338   0.937  10.655 -2.3584 -0.7552  0.8404
 6249SOL     OW30208   3.586   2.112   2.819  0.4120 -0.0862 -0.5282
 6249SOL    HW130209   3.600   2.073   2.733 -2.9794  0.9350 -1.5527
 6249SOL    HW230210   3.672   2.092   2.856  0.1659 -1.8864 -0.9546
 6250SOL     OW30211   3.415   2.789  11.118  0.1304  0.1388 -0.3993
 6250SOL    HW130212   3.444   2.728  11.051  1.8435  2.0116 -1.3643
 6250SOL    HW230213   3.446   2.750  11.200 -0.6176  2.7365  1.1350
 6251SOL     OW30214   3.017   0.812   2.817  0.1678 -0.8026  0.1145
 6251SOL    HW130215   3.111   0.804   2.833  0.5211 -1.5213 -2.2782
 6251SOL    HW230216   2.987   0.767   2.896  1.2958 -1.1708  0.3329
 6252SOL     OW30217   3.809   0.757   6.149  0.1927  0.0666  0.1125
 6252SOL    HW130218   3.876   0.806   6.102  0.4168  0.3136  0.6884
 6252SOL    HW230219   3.844   0.669   6.147  2.1971  0.8268  1.6017
 6253SOL     OW30220   3.369   3.589  10.363 -0.5172 -0.2234 -0.1809
 6253SOL    HW130221   3.434   3.578  10.294  0.7272 -0.1213  0.9573
 6253SOL    HW230222   3.384   3.507  10.409  0.5234 -0.1021 -0.3034
 6254SOL     OW30223   4.423   0.503   0.358  0.1519 -0.0359 -0.2695
 6254SOL    HW130224   4.509   0.483   0.321  1.1244  2.1899  0.8239
 6254SOL    HW230225   4.409   0.592   0.325 -0.3062 -0.1714 -0.4527
 6255SOL     OW30226   0.273   3.082   6.646 -0.5498 -0.3552 -0.0333
 6255SOL    HW130227   0.276   3.095   6.551 -2.4406 -2.2817 -0.3396
 6255SOL    HW230228   0.221   3.003   6.661  0.4805 -1.3637 -1.7624
 6256SOL     OW30229   0.005   0.667   1.994  0.7692  0.3923 -0.0586
 6256SOL    HW130230   0.018   0.579   2.028  0.6226  0.0286 -0.9291
 6256SOL    HW230231   4.655   0.659   1.932  0.2401 -1.4743  0.7896
 6257SOL     OW30232   0.176   1.785   5.099 -0.1165  0.0106  0.0445
 6257SOL    HW130233   0.121   1.846   5.049  0.9299 -0.2481 -1.4222
 6257SOL    HW230234   0.137   1.792   5.186 -0.8265  0.9022 -0.3368
 6258SOL     OW30235   1.734   1.486   6.322 -0.7040 -0.1474 -0.4003
 6258SOL    HW130236   1.824   1.478   6.353 -1.4418 -1.7146  1.3263
 6258SOL    HW230237   1.688   1.428   6.383  1.4937 -0.9146  0.5141
 6259SOL     OW30238   2.692   1.983   3.244 -0.3624 -1.0437  0.0980
 6259SOL    HW130239   2.735   1.942   3.169  1.3489  1.3684 -0.2363
 6259SOL    HW230240   2.611   1.932   3.248  0.2570 -2.3819 -4.4822
 6260SOL     OW30241   2.500   0.738   0.065  0.3689 -0.4907 -0.8343
 6260SOL    HW130242   2.437   0.794   0.020  0.6857  0.7352  0.2408
 6260SOL    HW230243   2.581   0.771   0.027  0.0395  0.4056 -0.7585
 6261SOL     OW30244   0.633   4.536  13.515 -0.1231 -0.3463 -0.4249
 6261SOL    HW130245   0.689   4.613  13.518 -0.3855 -0.1253 -1.1822
 6261SOL    HW230246   0.692   4.470  13.479  0.7233  0.0455  0.2450
 6262SOL     OW30247   0.801   3.547   5.433  0.8324 -0.0446 -0.0304
 6262SOL    HW130248   0.877   3.537   5.491 -0.6822  1.1228  2.1850
 6262SOL    HW230249   0.728   3.534   5.494 -1.2361  2.5178 -1.9942
 6263SOL     OW30250   0.713   0.089   3.273 -0.1364  0.2577 -0.5021
 6263SOL    HW130251   0.773   0.125   3.338  0.9170  0.0881 -1.3832
 6263SOL    HW230252   0.772   0.083   3.197  0.8857  1.4908  0.2131
 6264SOL     OW30253   0.438   0.312   1.466 -0.1226  0.1826  0.1520
 6264SOL    HW130254   0.445   0.400   1.504  2.7546  0.2343 -0.4893
 6264SOL    HW230255   0.527   0.285   1.443 -0.1708  0.5509 -0.4714
 6265SOL     OW30256   0.306   0.332   5.501  0.3496  0.5586 -0.5860
 6265SOL    HW130257   0.266   0.345   5.587  1.4982 -0.8984  0.1716
 6265SOL    HW230258   0.256   0.404   5.463 -0.9811  0.6997  1.4031
 6266SOL     OW30259   0.398   3.960   5.381 -0.3694 -0.1542  0.2744
 6266SOL    HW130260   0.461   3.950   5.452 -0.8400 -1.1887  0.5399
 6266SOL    HW230261   0.455   3.930   5.311  1.5221  0.5911  1.4988
 6267SOL     OW30262   2.646   4.386   8.217  0.3973  0.0283 -0.1513
 6267SOL    HW130263   2.622   4.423   8.302  0.6570 -0.1494 -0.0028
 6267SOL    HW230264   2.645   4.465   8.163 -3.1624 -0.0321 -0.2285
 6268SOL     OW30265   0.493   2.383  16.710 -0.5052 -0.1972  0.3092
 6268SOL    HW130266   0.483   2.378  16.805 -0.9181  0.1696  0.2899
 6268SOL    HW230267   0.560   2.320  16.687  0.5502  1.3285 -0.7643
 6269SOL     OW30268   3.355   3.598  11.255 -0.1124  0.1900 -0.3744
 6269SOL    HW130269   3.312   3.583  11.171  1.9329  0.1632 -1.4144
 6269SOL    HW230270   3.439   3.631  11.223  0.3815  0.5904  1.3150
 6270SOL     OW30271   2.456   3.523   1.303  0.1754 -0.4763  0.4324
 6270SOL    HW130272   2.432   3.456   1.367  1.0330 -0.1548  1.0845
 6270SOL    HW230273   2.370   3.556   1.275  0.8376  0.3722 -0.6177
 6271SOL     OW30274   4.579   0.261   5.768  0.4337  0.2425 -0.8768
 6271SOL    HW130275   4.639   0.244   5.841 -0.5613  3.4290  0.6904
 6271SOL    HW230276   4.561   0.355   5.773 -0.7426 -0.0004 -0.6750
 6272SOL     OW30277   4.196   3.686   4.361 -0.1055 -0.1763 -0.0899
 6272SOL    HW130278   4.263   3.637   4.313 -1.7141 -1.2600 -1.2250
 6272SOL    HW230279   4.244   3.716   4.438 -0.0846  1.1170 -0.6235
 6273SOL     OW30280   4.176   3.355   4.133  0.1967  0.1003  0.3712
 6273SOL    HW130281   4.212   3.288   4.191 -2.2475 -0.5720  1.1226
 6273SOL    HW230282   4.255   3.408   4.122 -0.3392  0.6316 -0.9358
 6274SOL     OW30283   1.400   3.200  10.754  0.5341  0.0390  0.4252
 6274SOL    HW130284   1.335   3.269  10.771 -0.4623 -0.6628 -0.5329
 6274SOL    HW230285   1.369   3.167  10.669  0.5565  1.6720 -0.2204
 6275SOL     OW30286   4.139   0.474  15.510 -0.7566  0.2402 -0.3309
 6275SOL    HW130287   4.222   0.472  15.461 -0.1872 -1.4742  0.6799
 6275SOL    HW230288   4.125   0.380  15.495  0.4464  0.2216 -1.3000
 6276SOL     OW30289   2.576   2.727   1.137  0.5838  0.1416  0.0577
 6276SOL    HW130290   2.630   2.703   1.213  0.6675 -1.1529 -0.4086
 6276SOL    HW230291   2.625   2.684   1.067  0.4160  1.6885 -0.9996
 6277SOL     OW30292   2.467   0.904  11.972  0.9390 -0.1539 -0.3126
 6277SOL    HW130293   2.470   0.812  11.946  1.0531 -0.2808  0.1475
 6277SOL    HW230294   2.471   0.946  11.886  0.3390 -0.7887 -0.6479
 6278SOL     OW30295   3.770   4.525   6.879  0.0448  0.7084  0.5038
 6278SOL    HW130296   3.761   4.435   6.909 -2.1014  1.6728  2.7290
 6278SOL    HW230297   3.683   4.546   6.847  0.6003 -0.3993 -1.7016
 6279SOL     OW30298   2.099   0.413  11.781  0.0686  0.2656 -0.0347
 6279SOL    HW130299   2.122   0.324  11.754 -0.2400  0.7255 -1.8266
 6279SOL    HW230300   2.133   0.423  11.870 -0.6268  0.5326  0.2048
 6280SOL     OW30301   3.687   1.166   6.296  0.2986  0.4360  0.2749
 6280SOL    HW130302   3.677   1.165   6.201 -1.1739 -3.3441  0.4573
 6280SOL    HW230303   3.739   1.242   6.322 -1.2696  2.0068 -1.2172
 6281SOL     OW30304   3.961   4.652   3.160 -0.0970  0.2682 -0.3374
 6281SOL    HW130305   3.926   0.020   3.162 -1.2954 -0.2630  2.4258
 6281SOL    HW230306   4.009   4.655   3.077 -0.3549 -0.5172 -0.5123
 6282SOL     OW30307   3.511   2.739   9.140 -0.6728 -0.1688  0.6698
 6282SOL    HW130308   3.529   2.770   9.051 -2.1581 -0.8669  0.1320
 6282SOL    HW230309   3.481   2.650   9.120  0.1074 -0.0896 -0.9019
 6283SOL     OW30310   4.363   0.705   2.813 -0.1594 -0.7807 -0.5557
 6283SOL    HW130311   4.442   0.651   2.815  0.2242 -0.2809 -2.3985
 6283SOL    HW230312   4.365   0.729   2.720  0.7790 -1.0111 -0.5957
 6284SOL     OW30313   3.046   3.431   9.690  0.2258 -0.1413 -0.6163
 6284SOL    HW130314   3.028   3.510   9.741 -2.3735 -1.5881  0.6849
 6284SOL    HW230315   3.077   3.371   9.757  1.6053  1.5489  0.2430
 6285SOL     OW30316   3.453   0.660   6.991  0.1795 -0.2386  0.1342
 6285SOL    HW130317   3.536   0.625   7.024  0.5323 -0.6086 -1.1475
 6285SOL    HW230318   3.478   0.751   6.971  0.4456 -0.5621 -1.0191
 6286SOL     OW30319   3.364   4.363   6.935  0.2224  0.2509 -0.2848
 6286SOL    HW130320   3.298   4.384   6.869  1.9507  1.0494 -1.7822
 6286SOL    HW230321   3.396   4.448   6.966  0.7070  0.0731 -0.3017
 6287SOL     OW30322   0.657   0.379   7.465  0.3461 -0.3675  0.2357
 6287SOL    HW130323   0.588   0.401   7.402  0.7323  2.0066  0.6389
 6287SOL    HW230324   0.602   0.337   7.532  1.9134 -2.3755  0.2537
 6288SOL     OW30325   1.636   1.942  17.297  0.1480  0.2624 -0.8223
 6288SOL    HW130326   1.634   1.925  17.391 -1.4295  0.4901 -0.8170
 6288SOL    HW230327   1.643   2.037  17.300 -0.4986  0.3390 -1.9409
 6289SOL     OW30328   4.589   4.235   1.411 -0.0839  0.1020 -0.7125
 6289SOL    HW130329   4.536   4.314   1.398  0.5315  0.2589 -2.2343
 6289SOL    HW230330   4.625   4.222   1.323  1.8726  1.1445 -0.0655
 6290SOL     OW30331   1.483   0.226  10.364 -0.0002  0.0988  0.3789
 6290SOL    HW130332   1.403   0.264  10.328 -0.8051 -1.5421  0.4590
 6290SOL    HW230333   1.453   0.139  10.388  1.4256  0.0007  1.7563
 6291SOL     OW30334   4.441   2.435   2.841  0.0514  0.2716 -0.1974
 6291SOL    HW130335   4.479   2.518   2.812 -0.1472  0.5291  0.2818
 6291SOL    HW230336   4.472   2.371   2.777  2.7523 -0.7517  2.1703
 6292SOL     OW30337   4.283   0.722   8.106 -0.0174  0.5083 -0.0835
 6292SOL    HW130338   4.301   0.632   8.136 -0.7345 -0.3381 -2.1988
 6292SOL    HW230339   4.188   0.709   8.096 -0.2463  1.2772  1.0278
 6293SOL     OW30340   1.742   1.631  11.446  0.0255  0.4596  0.0177
 6293SOL    HW130341   1.819   1.576  11.429 -0.5908 -0.3981  0.0182
 6293SOL    HW230342   1.782   1.718  11.451  1.6068 -0.2494 -0.3107
 6294SOL     OW30343   2.949   3.229   4.780  0.1267 -0.2339 -0.6525
 6294SOL    HW130344   2.947   3.133   4.783  0.8593 -0.2190  0.2183
 6294SOL    HW230345   2.858   3.256   4.785 -0.0334 -0.5397 -1.8283
 6295SOL     OW30346   3.892   1.341   3.859  0.5142  0.3087  0.0252
 6295SOL    HW130347   3.841   1.280   3.807 -0.7646  1.3324  0.0722
 6295SOL    HW230348   3.957   1.372   3.796 -0.2607  0.4494 -0.7070
 6296SOL     OW30349   1.159   1.704   2.307  0.0633 -0.3471 -0.1920
 6296SOL    HW130350   1.076   1.737   2.341  0.5030 -1.4677  1.9538
 6296SOL    HW230351   1.126   1.676   2.221 -0.2921 -0.4067 -0.0345
 6297SOL     OW30352   3.786   2.885   7.448 -0.8247  0.2439 -0.4078
 6297SOL    HW130353   3.691   2.888   7.454 -0.8710  0.4998 -1.2082
 6297SOL    HW230354   3.809   2.968   7.489  0.6341 -1.0613  1.3817
 6298SOL     OW30355   0.725   4.165   5.402  0.2800  0.1128 -0.2074
 6298SOL    HW130356   0.705   4.187   5.311 -2.0030 -1.4175 -0.0719
 6298SOL    HW230357   0.794   4.101   5.382  1.3591  1.6160 -1.2898
 6299SOL     OW30358   2.696   3.435  10.412 -0.3477  0.3805 -0.3554
 6299SOL    HW130359   2.707   3.392  10.497 -0.0391  0.4984 -0.3391
 6299SOL    HW230360   2.772   3.398  10.368  0.7371  1.6693  0.4617
 6300SOL     OW30361   4.219   2.050   4.879 -0.6189  0.0595  0.6537
 6300SOL    HW130362   4.223   1.967   4.928 -1.1513  0.1618  0.8678
 6300SOL    HW230363   4.307   2.052   4.841 -1.7908  0.0275 -2.0509
 6301SOL     OW30364   3.533   1.050   0.230 -0.1004  0.0714  0.5274
 6301SOL    HW130365   3.462   1.001   0.187  0.2103  0.7292 -0.7234
 6301SOL    HW230366   3.603   1.016   0.176 -0.2504  1.7798 -0.7266
 6302SOL     OW30367   1.055   1.451   2.861 -0.3021  0.0292 -0.0590
 6302SOL    HW130368   1.131   1.392   2.862 -0.0008  0.4648  2.4236
 6302SOL    HW230369   1.099   1.526   2.901 -3.5395  2.1210 -0.4494
 6303SOL     OW30370   0.014   4.317   1.947 -0.2279  0.0309  0.3925
 6303SOL    HW130371   4.694   4.336   2.031 -0.0081  0.5308  0.3922
 6303SOL    HW230372   0.099   4.278   1.969  0.0765  1.1694  1.2600
 6304SOL     OW30373   3.376   0.697  12.510  0.5298 -0.1275 -0.3922
 6304SOL    HW130374   3.355   0.614  12.552 -1.5153  1.5527  1.8284
 6304SOL    HW230375   3.394   0.667  12.421  1.0536 -0.6265 -0.1181
 6305SOL     OW30376   3.669   2.913  12.823  0.0321  0.9025 -0.2105
 6305SOL    HW130377   3.618   2.936  12.901  0.1523  0.6954 -0.0733
 6305SOL    HW230378   3.605   2.857  12.780  0.2482  0.9452 -0.5922
 6306SOL     OW30379   3.099   2.881   9.400  0.0797 -0.1076  0.1966
 6306SOL    HW130380   3.024   2.939   9.413  0.4832  0.6698 -1.0326
 6306SOL    HW230381   3.079   2.859   9.309  0.3230 -0.4972  0.2389
 6307SOL     OW30382   1.981   2.878   5.112  0.0938  0.0495  0.5856
 6307SOL    HW130383   2.032   2.825   5.051  1.2417 -2.1237  3.4160
 6307SOL    HW230384   1.997   2.827   5.191  1.6300  0.3171  0.4485
 6308SOL     OW30385   0.053   2.838   1.089  0.2718  0.3931 -0.3929
 6308SOL    HW130386   0.099   2.764   1.048  0.5759  0.1759  0.3259
 6308SOL    HW230387   0.128   2.893   1.113 -0.1401  0.9061 -0.2989
 6309SOL     OW30388   2.305   2.937  11.563 -0.3903  0.3796 -0.3350
 6309SOL    HW130389   2.286   2.896  11.479 -1.3802 -3.3993  1.6893
 6309SOL    HW230390   2.399   2.918  11.568 -0.5941  0.3548  3.3266
 6310SOL     OW30391   1.111   2.281   6.152 -0.2482 -0.6451 -0.3019
 6310SOL    HW130392   1.039   2.252   6.208  0.4538  1.0248  1.4861
 6310SOL    HW230393   1.171   2.319   6.217 -1.9820  0.4181  0.6619
 6311SOL     OW30394   3.750   0.700   1.583 -0.2484 -0.1483  0.5146
 6311SOL    HW130395   3.755   0.757   1.660  1.7253 -1.4745  1.3649
 6311SOL    HW230396   3.658   0.705   1.556 -0.0904 -1.3456 -0.2590
 6312SOL     OW30397   3.779   3.812   6.343 -0.5304 -0.5458  0.5010
 6312SOL    HW130398   3.826   3.750   6.399 -0.0007 -0.2131  0.4238
 6312SOL    HW230399   3.828   3.894   6.344 -1.0271 -0.2884  3.3182
 6313SOL     OW30400   2.301   4.374   3.168  0.3031 -0.4230 -0.1591
 6313SOL    HW130401   2.213   4.404   3.144  0.4118 -0.0062 -0.0232
 6313SOL    HW230402   2.313   4.408   3.257  0.8571 -0.1339 -0.3472
 6314SOL     OW30403   2.924   3.106  16.031 -0.1244 -0.0109  0.3365
 6314SOL    HW130404   2.957   3.097  15.942 -1.2664  0.7742 -0.1633
 6314SOL    HW230405   2.856   3.040  16.025 -0.3372  0.3396 -1.0725
 6315SOL     OW30406   2.300   1.525   3.007  0.7165 -0.5653 -0.1321
 6315SOL    HW130407   2.368   1.507   2.941  1.4333  2.8049 -0.2811
 6315SOL    HW230408   2.224   1.486   2.964  0.3978 -0.9608  0.7868
 6316SOL     OW30409   1.749   4.519   6.167  0.3299  0.7958 -0.2389
 6316SOL    HW130410   1.719   4.602   6.130 -0.6552  1.5696  2.2685
 6316SOL    HW230411   1.800   4.477   6.098 -0.4543  0.4221 -0.5781
 6317SOL     OW30412   1.102   1.325   4.200 -0.0500  0.0102 -0.3340
 6317SOL    HW130413   1.032   1.343   4.262  0.2088  0.4079 -0.1597
 6317SOL    HW230414   1.055   1.357   4.123 -0.2092  0.7054  0.0503
 6318SOL     OW30415   1.612   2.510   2.078  0.1610  0.4084 -0.4029
 6318SOL    HW130416   1.594   2.567   2.152 -1.2555 -0.9793  0.3234
 6318SOL    HW230417   1.552   2.550   2.015 -1.8240  0.1300  1.2991
 6319SOL     OW30418   1.502   0.682   7.706  0.3307 -0.3153  0.0747
 6319SOL    HW130419   1.473   0.752   7.647  1.0219  0.0476  0.1617
 6319SOL    HW230420   1.465   0.599   7.676 -1.5014  0.6436 -0.3304
 6320SOL     OW30421   3.150   2.010   4.382  0.5159 -0.5633 -0.3810
 6320SOL    HW130422   3.085   2.079   4.369  0.1823 -1.2517 -2.3482
 6320SOL    HW230423   3.237   2.052   4.379  1.5983 -2.6066  2.5821
 6321SOL     OW30424   4.718   1.777   7.862  0.0573 -0.6405 -0.3667
 6321SOL    HW130425   0.005   1.865   7.898  0.9286 -0.3162 -1.3528
 6321SOL    HW230426   0.052   1.718   7.912  3.6858  3.7113  0.7564
 6322SOL     OW30427   1.002   2.353   5.334  0.1423  0.2489  0.3278
 6322SOL    HW130428   1.079   2.353   5.277 -1.1009  1.9302 -1.3683
 6322SOL    HW230429   1.024   2.428   5.389 -1.9819  1.8289 -0.9838
 6323SOL     OW30430   1.651   0.841   2.053 -0.1522  0.4057 -0.1835
 6323SOL    HW130431   1.606   0.788   2.119 -0.8008 -0.6637 -1.5096
 6323SOL    HW230432   1.690   0.912   2.104  0.8316  0.6982 -1.3483
 6324SOL     OW30433   1.677   1.479   5.455  0.2289 -0.0113 -0.4107
 6324SOL    HW130434   1.583   1.486   5.466  0.2157 -0.6225 -0.0913
 6324SOL    HW230435   1.711   1.529   5.529  0.2838  1.3545 -1.3659
 6325SOL     OW30436   1.001   2.250  11.974  0.3630 -0.1259  0.4467
 6325SOL    HW130437   1.040   2.165  11.954 -1.2520 -0.5485 -0.9552
 6325SOL    HW230438   0.991   2.288  11.887 -2.2656  2.4908  1.8631
 6326SOL     OW30439   0.984   3.731   3.497 -0.0038 -0.1628 -0.4542
 6326SOL    HW130440   0.946   3.670   3.434 -1.1943  0.2291 -0.1187
 6326SOL    HW230441   0.952   3.811   3.456 -0.1555  1.1363  2.1516
 6327SOL     OW30442   3.684   0.811   0.102 -0.2847 -0.6291  0.1123
 6327SOL    HW130443   3.750   0.859   0.052 -0.5857  0.9160  1.1721
 6327SOL    HW230444   3.625   0.791   0.030  0.5605  0.7554 -0.9679
 6328SOL     OW30445   2.625   0.495   8.037 -0.2398 -0.2473 -0.4830
 6328SOL    HW130446   2.594   0.535   7.956 -2.6967  2.7130  1.8889
 6328SOL    HW230447   2.641   0.406   8.006 -0.1298  0.2532 -1.8892
 6329SOL     OW30448   2.076   0.157   7.330 -0.5436  0.4416 -0.0276
 6329SOL    HW130449   2.048   0.109   7.408  1.0334  1.5024  1.1953
 6329SOL    HW230450   2.123   0.223   7.381 -1.8634  0.9941  0.4749
 6330SOL     OW30451   0.989   1.981   9.357 -0.6459  0.2784 -0.4709
 6330SOL    HW130452   0.945   1.995   9.441  0.2616  0.0552  0.0465
 6330SOL    HW230453   1.035   2.065   9.354 -0.3931  0.3363  4.0809
 6331SOL     OW30454   4.550   1.055   6.570  0.2563  0.3773 -0.4561
 6331SOL    HW130455   4.615   1.060   6.640  0.8455 -1.9884 -0.8259
 6331SOL    HW230456   4.610   1.059   6.495 -0.8498  4.1738 -1.0990
 6332SOL     OW30457   0.230   1.547   6.128  0.0020  0.0668  0.5391
 6332SOL    HW130458   0.150   1.536   6.179 -0.7538 -0.8057 -0.8551
 6332SOL    HW230459   0.191   1.598   6.057 -0.4793  1.5759  1.8944
 6333SOL     OW30460   0.232   0.223  16.712  0.5330 -0.3390  0.3588
 6333SOL    HW130461   0.268   0.238  16.799  2.4455 -1.5507 -0.2312
 6333SOL    HW230462   0.297   0.165  16.671 -0.1467  0.9513 -2.5813
 6334SOL     OW30463   3.078   0.079   6.421 -0.1271 -0.3452  0.1966
 6334SOL    HW130464   3.118   0.025   6.353 -0.2656 -1.6519  1.1634
 6334SOL    HW230465   2.986   0.056   6.416 -0.0800 -0.0984 -2.0695
 6335SOL     OW30466   4.228   3.710  11.109  0.3754  0.0126  0.0260
 6335SOL    HW130467   4.255   3.757  11.030  0.2961 -0.3432 -0.2139
 6335SOL    HW230468   4.233   3.619  11.077 -0.6048  0.0858 -0.3290
 6336SOL     OW30469   1.441   3.234  17.476 -0.0559  0.0169  0.3028
 6336SOL    HW130470   1.413   3.188  17.397  2.3843  0.2767 -0.6980
 6336SOL    HW230471   1.525   3.266  17.445 -0.3125 -0.5813 -1.0135
 6337SOL     OW30472   0.938   0.226   4.597  0.5674 -0.2414 -0.2846
 6337SOL    HW130473   0.865   0.288   4.596  1.4914  0.8552 -0.5123
 6337SOL    HW230474   0.998   0.278   4.544  1.6646 -2.5113 -1.2794
 6338SOL     OW30475   2.238   3.704   7.902 -0.3018  0.2807 -0.3240
 6338SOL    HW130476   2.326   3.698   7.864 -1.1537 -1.4467 -2.0211
 6338SOL    HW230477   2.201   3.789   7.879 -2.2551 -0.8037 -1.1412
 6339SOL     OW30478   3.846   2.039   2.886 -0.3122 -0.5810  0.1005
 6339SOL    HW130479   3.882   1.995   2.963  0.2913  0.2777  0.3214
 6339SOL    HW230480   3.838   1.952   2.846 -0.7068 -0.8020  0.6746
 6340SOL     OW30481   2.427   1.136   6.858 -0.6326  0.7299  0.7811
 6340SOL    HW130482   2.485   1.059   6.856  0.8041  1.8676 -1.3106
 6340SOL    HW230483   2.489   1.208   6.864  0.5976 -0.5223  3.4111
 6341SOL     OW30484   1.990   4.273   0.940 -0.2609  0.2563  0.1610
 6341SOL    HW130485   2.081   4.294   0.963  0.0066 -2.3903  1.5635
 6341SOL    HW230486   1.955   4.362   0.939  0.5170  0.5705  0.9269
 6342SOL     OW30487   0.550   2.169  15.264 -0.2795 -0.0833  0.1528
 6342SOL    HW130488   0.578   2.110  15.333  1.7251  0.2743 -0.3588
 6342SOL    HW230489   0.593   2.140  15.183 -0.5526 -0.4728  0.1446
 6343SOL     OW30490   3.363   3.783   9.261  0.3062 -0.7856 -0.6809
 6343SOL    HW130491   3.417   3.863   9.257 -1.2496  0.4167  2.5416
 6343SOL    HW230492   3.310   3.816   9.333  1.3602  0.3697 -0.4222
 6344SOL     OW30493   3.803   3.361  12.099 -0.0333 -0.4709  0.3670
 6344SOL    HW130494   3.782   3.413  12.022  1.3640  2.1836  1.7768
 6344SOL    HW230495   3.764   3.407  12.174 -4.7858 -1.4588 -1.5010
 6345SOL     OW30496   2.188   0.365   8.030 -0.2399  0.0272  0.3682
 6345SOL    HW130497   2.259   0.382   8.092 -0.1737  1.4354 -0.1169
 6345SOL    HW230498   2.115   0.365   8.093  0.2820 -1.5269  0.9961
 6346SOL     OW30499   0.543   2.635   3.974 -0.2965 -0.1401  0.5693
 6346SOL    HW130500   0.479   2.629   4.044  0.1760  1.4734  1.1509
 6346SOL    HW230501   0.492   2.692   3.916 -1.7555 -1.3483  0.6678
 6347SOL     OW30502   4.196   0.765   7.279  0.3252 -0.3639  0.5334
 6347SOL    HW130503   4.174   0.858   7.271  0.6934 -0.3704 -0.5509
 6347SOL    HW230504   4.264   0.768   7.346 -0.1819 -0.4547  1.0525
 6348SOL     OW30505   0.991   0.312  10.467 -0.0474 -0.3698  0.1185
 6348SOL    HW130506   0.998   0.407  10.472  3.3346 -0.6799  1.5006
 6348SOL    HW230507   0.900   0.303  10.495 -0.4448  1.7813 -0.5098
 6349SOL     OW30508   3.249   4.381   8.745 -0.1326 -0.8107 -0.1831
 6349SOL    HW130509   3.343   4.386   8.724  0.3178 -0.1300  1.8976
 6349SOL    HW230510   3.210   4.348   8.665 -1.0532 -2.2888  0.8960
 6350SOL     OW30511   0.836   1.960   9.043 -0.0339  0.3739 -0.1281
 6350SOL    HW130512   0.766   2.019   9.019  0.3897 -0.0803 -2.4494
 6350SOL    HW230513   0.790   1.879   9.066  2.9828 -1.3746 -0.2376
 6351SOL     OW30514   4.269   3.240  12.249  0.2793 -0.0029  0.0189
 6351SOL    HW130515   4.189   3.286  12.223 -0.6018 -1.9011 -0.7000
 6351SOL    HW230516   4.294   3.202  12.164  1.1175 -0.6754  0.5673
 6352SOL     OW30517   2.384   2.050   4.369  1.2135 -0.0075  0.1760
 6352SOL    HW130518   2.396   2.132   4.321  2.7264 -1.3304 -1.7205
 6352SOL    HW230519   2.451   2.049   4.437  0.8341  0.0436  0.5484
 6353SOL     OW30520   1.176   4.074   9.020  0.4162  0.0974 -0.2925
 6353SOL    HW130521   1.144   3.989   8.989 -0.1711 -0.1012  0.8545
 6353SOL    HW230522   1.157   4.134   8.948  3.0874  2.3643  0.9238
 6354SOL     OW30523   4.281   2.759   8.719  0.1954 -0.1076 -0.1900
 6354SOL    HW130524   4.322   2.834   8.763 -1.1745  0.5895 -0.0929
 6354SOL    HW230525   4.335   2.682   8.734  0.3112 -0.3746 -1.9101
 6355SOL     OW30526   3.603   1.238   1.155  1.0776  0.3098 -0.4127
 6355SOL    HW130527   3.548   1.250   1.232 -0.6909 -1.1136 -1.4514
 6355SOL    HW230528   3.620   1.326   1.121 -0.7460  0.6440 -0.4967
 6356SOL     OW30529   1.474   2.004   1.887  0.8996 -0.0843  0.2104
 6356SOL    HW130530   1.565   2.028   1.904  1.0094 -0.0024 -0.5274
 6356SOL    HW230531   1.467   2.023   1.794 -0.1391  0.7774  0.4631
 6357SOL     OW30532   3.666   1.617   8.340  0.3202  0.3970 -0.7505
 6357SOL    HW130533   3.748   1.568   8.350 -0.0181  0.3166  1.4865
 6357SOL    HW230534   3.676   1.683   8.408  3.1355  1.5524 -2.2693
 6358SOL     OW30535   4.355   1.268   5.784  0.3620  0.3010 -0.0012
 6358SOL    HW130536   4.420   1.309   5.727  0.3843  0.5475  0.2036
 6358SOL    HW230537   4.339   1.180   5.750  0.6287  0.7893 -1.3870
 6359SOL     OW30538   0.393   3.096   1.488 -0.2681  0.0444  0.4000
 6359SOL    HW130539   0.390   3.192   1.496 -1.5011  0.1938 -1.9398
 6359SOL    HW230540   0.489   3.095   1.488 -0.2967 -1.3314 -0.7618
 6360SOL     OW30541   3.580   4.662   4.932  0.9999  0.2696  0.6416
 6360SOL    HW130542   3.581   4.670   4.837 -1.0714  0.2243  0.6354
 6360SOL    HW230543   3.516   0.007   4.954 -1.1342 -1.5118 -0.2302
 6361SOL     OW30544   3.343   0.899   5.854  0.3332  0.1520 -0.1153
 6361SOL    HW130545   3.374   0.905   5.945  0.0693 -0.4355  0.0162
 6361SOL    HW230546   3.264   0.950   5.871  1.0337  0.4536  2.3311
 6362SOL     OW30547   0.867   2.593   4.706 -0.6539 -0.3080 -0.3916
 6362SOL    HW130548   0.962   2.597   4.717 -0.4245 -0.7320 -2.2707
 6362SOL    HW230549   0.842   2.554   4.790 -0.4618  1.0969  0.3205
 6363SOL     OW30550   0.096   3.895  11.771  0.3143  0.8191 -0.3192
 6363SOL    HW130551   0.074   3.890  11.865 -1.1477  1.3365 -0.6327
 6363SOL    HW230552   0.147   3.814  11.763 -1.7126 -0.7921  2.8058
 6364SOL     OW30553   1.090   0.182   3.661  0.0081 -0.3301  0.0136
 6364SOL    HW130554   1.017   0.176   3.600 -0.1213  1.4180 -0.0274
 6364SOL    HW230555   1.106   0.275   3.643  1.3455 -0.7680 -1.0874
 6365SOL     OW30556   1.271   3.202  14.980  0.1140  0.0383 -0.1162
 6365SOL    HW130557   1.232   3.121  14.947 -2.3202  0.3947  1.8773
 6365SOL    HW230558   1.246   3.260  14.908  0.1960  0.6934  0.3814
 6366SOL     OW30559   2.489   1.608  11.605 -0.0379 -0.7218  0.6799
 6366SOL    HW130560   2.484   1.692  11.650 -1.6487 -0.1379 -0.5689
 6366SOL    HW230561   2.470   1.553  11.681 -2.4654 -1.0284 -0.1522
 6367SOL     OW30562   3.799   3.851   9.295  0.0305  0.0035  0.7316
 6367SOL    HW130563   3.715   3.896   9.286 -1.2459 -2.0283  2.4283
 6367SOL    HW230564   3.775   3.792   9.366  0.1663  5.2187  5.1409
 6368SOL     OW30565   1.365   3.069   8.405 -0.0196 -0.9801 -0.3639
 6368SOL    HW130566   1.427   3.138   8.385  0.4176 -2.2203 -3.2443
 6368SOL    HW230567   1.296   3.124   8.443 -0.1391 -1.1964 -0.2640
 6369SOL     OW30568   1.716   0.189  11.580 -0.0374 -0.2659 -0.3815
 6369SOL    HW130569   1.710   0.252  11.508  0.7358  1.3595  0.9640
 6369SOL    HW230570   1.666   0.236  11.647  0.0150 -2.6651  1.3177
 6370SOL     OW30571   4.031   0.758  12.731 -0.2047 -0.0246  0.6534
 6370SOL    HW130572   3.960   0.697  12.750 -0.4327 -0.0167 -0.1634
 6370SOL    HW230573   3.981   0.840  12.742  0.3373  0.3146  0.5691
 6371SOL     OW30574   4.525   4.078   5.167  0.2885 -0.1371  0.3473
 6371SOL    HW130575   4.495   4.055   5.255  1.2732  0.0436  0.7282
 6371SOL    HW230576   4.510   3.988   5.138  0.3993 -1.1063  3.2559
 6372SOL     OW30577   4.065   3.185   0.740 -0.4931  0.4771 -0.3082
 6372SOL    HW130578   3.999   3.169   0.807  0.0424  0.1110  0.1360
 6372SOL    HW230579   4.124   3.239   0.793  0.3580 -0.3107 -0.4438
 6373SOL     OW30580   1.217   4.463  16.269  0.0816  0.7142 -0.8370
 6373SOL    HW130581   1.204   4.490  16.360  1.8504 -0.9631 -0.0958
 6373SOL    HW230582   1.207   4.546  16.222  0.3216  1.0081 -0.3664
 6374SOL     OW30583   3.030   1.725  10.934  0.5489  0.5690  0.1698
 6374SOL    HW130584   3.099   1.777  10.976 -0.4585  0.7102  1.6504
 6374SOL    HW230585   3.080   1.674  10.871 -0.2227 -1.2237  1.0326
 6375SOL     OW30586   0.415   2.506   6.143 -0.0363 -0.1421  0.1786
 6375SOL    HW130587   0.437   2.432   6.199  1.9666 -0.1211 -0.5907
 6375SOL    HW230588   0.498   2.519   6.097  0.6120 -0.3519  1.3115
 6376SOL     OW30589   3.965   3.950   4.672 -0.4191  0.3136  0.6937
 6376SOL    HW130590   4.037   4.002   4.709 -0.4489 -0.1106  1.3371
 6376SOL    HW230591   3.945   3.990   4.588  1.5341 -1.8161 -0.7763
 6377SOL     OW30592   4.256   4.700   3.816  0.3260 -0.1540  0.1493
 6377SOL    HW130593   4.169   4.687   3.779 -0.0393 -0.1449  1.0093
 6377SOL    HW230594   4.247   0.049   3.880  0.3380 -1.0494  1.1502
 6378SOL     OW30595   4.018   2.716   7.502 -0.6971  0.5592 -0.3222
 6378SOL    HW130596   4.069   2.782   7.546  1.9323 -0.4821 -1.8010
 6378SOL    HW230597   3.930   2.754   7.508 -0.4111  1.1883 -0.1755
 6379SOL     OW30598   1.887   4.564   1.000  0.2156  0.1119 -0.2989
 6379SOL    HW130599   1.911   4.578   0.908 -0.2298 -1.5075 -0.6592
 6379SOL    HW230600   1.889   4.653   1.036  1.4582 -0.8132  1.9071
 6380SOL     OW30601   1.394   4.565   8.742  0.6212 -0.0950  0.3029
 6380SOL    HW130602   1.417   4.622   8.816 -1.7692 -0.4757  1.3356
 6380SOL    HW230603   1.302   4.589   8.731  1.0907  1.9458  0.7935
 6381SOL     OW30604   3.934   0.890   3.866 -0.1768  0.1156  0.3309
 6381SOL    HW130605   3.878   0.958   3.829  2.9082  2.5519  0.1570
 6381SOL    HW230606   3.884   0.811   3.845 -0.0317  0.4577 -1.2916
 6382SOL     OW30607   2.728   0.909   2.032  0.0176 -0.4777  0.2158
 6382SOL    HW130608   2.659   0.843   2.029 -0.1546 -0.3408  1.4113
 6382SOL    HW230609   2.697   0.980   2.089 -0.9203 -1.0086  0.3718
 6383SOL     OW30610   3.132   4.346   5.413  0.5014  0.5810  0.6074
 6383SOL    HW130611   3.212   4.381   5.451 -0.1387  2.6812  0.0334
 6383SOL    HW230612   3.094   4.288   5.479 -0.4617  1.2424  0.6396
 6384SOL     OW30613   0.867   0.956   6.738 -0.1685  0.1190  0.0694
 6384SOL    HW130614   0.773   0.958   6.723  0.5507  3.5922 -4.0828
 6384SOL    HW230615   0.892   1.031   6.683  0.3622 -1.3928 -1.7305
 6385SOL     OW30616   4.006   1.284   0.221 -0.1707 -0.1554 -0.2044
 6385SOL    HW130617   4.060   1.363   0.212 -0.2755 -0.1192 -0.5409
 6385SOL    HW230618   4.024   1.249   0.134  2.0882  0.1306  0.1491
 6386SOL     OW30619   0.314   0.584   4.977 -0.6311  0.2618  0.2158
 6386SOL    HW130620   0.224   0.607   5.004  1.1323  3.5433  3.3081
 6386SOL    HW230621   0.300   0.587   4.883  0.9223  2.2611  0.0561
 6387SOL     OW30622   1.072   2.177  12.560 -0.6019  0.0247  0.1813
 6387SOL    HW130623   1.161   2.179  12.525 -1.3423  2.7538 -1.5776
 6387SOL    HW230624   1.035   2.100  12.517  1.1799 -1.1013  0.6692
 6388SOL     OW30625   1.047   3.727  13.285  0.2466 -0.5940  0.3795
 6388SOL    HW130626   1.021   3.814  13.316 -0.1264 -0.4056 -0.4442
 6388SOL    HW230627   1.133   3.724  13.326 -0.5980  2.4399  2.3787
 6389SOL     OW30628   3.842   1.751   5.019 -0.0463 -0.0877 -0.5552
 6389SOL    HW130629   3.919   1.700   4.998 -0.5069  0.0250 -2.4890
 6389SOL    HW230630   3.792   1.677   5.052  2.2558 -1.6243 -0.5300
 6390SOL     OW30631   1.191   3.143   3.196 -0.2606  0.1503 -0.1313
 6390SOL    HW130632   1.144   3.119   3.116 -2.3475 -1.6499  1.6239
 6390SOL    HW230633   1.142   3.093   3.263  0.3485 -0.8873 -0.4550
 6391SOL     OW30634   3.116   2.961   2.962  0.1134  0.3173 -0.0858
 6391SOL    HW130635   3.109   2.878   3.008 -1.5222  0.4728 -0.0523
 6391SOL    HW230636   3.207   2.956   2.933  0.3992  0.4619  0.7905
 6392SOL     OW30637   3.506   2.451   8.085 -0.1359  0.1462  0.8675
 6392SOL    HW130638   3.465   2.515   8.026  1.6076  0.1018 -0.3979
 6392SOL    HW230639   3.428   2.445   8.141 -0.9691 -0.8749 -0.3789
 6393SOL     OW30640   0.560   2.714   6.944  0.0200  0.1302 -0.3110
 6393SOL    HW130641   0.530   2.804   6.926  0.1211  0.2634  0.1870
 6393SOL    HW230642   0.519   2.671   6.869 -0.8265  1.9917 -0.9366
 6394SOL     OW30643   3.341   1.131  11.139 -0.0211  0.7205  0.3102
 6394SOL    HW130644   3.309   1.053  11.185  1.2831 -1.6597 -2.8056
 6394SOL    HW230645   3.433   1.135  11.168  0.2396 -0.3634 -0.3579
 6395SOL     OW30646   2.758   3.956   1.656 -0.1497 -0.1045  0.0851
 6395SOL    HW130647   2.672   3.922   1.635 -0.6788  1.8691 -0.8469
 6395SOL    HW230648   2.783   3.979   1.567 -1.4936  1.1113  0.0292
 6396SOL     OW30649   1.302   3.199   8.814  0.1952  0.2781  0.5290
 6396SOL    HW130650   1.216   3.236   8.795  0.1950  0.2305  0.4370
 6396SOL    HW230651   1.288   3.147   8.893  0.5268  0.2155  0.5444
 6397SOL     OW30652   0.285   2.918   3.088  0.5130 -0.2665 -0.2360
 6397SOL    HW130653   0.234   2.999   3.088 -1.1341 -1.3110 -0.1963
 6397SOL    HW230654   0.366   2.968   3.094 -0.3704  1.2129 -0.7034
 6398SOL     OW30655   1.114   1.601   5.352  0.1816  0.5162  0.5467
 6398SOL    HW130656   1.085   1.670   5.410  1.2098  0.2471  1.3717
 6398SOL    HW230657   1.047   1.612   5.284  0.9448  0.1925 -0.2553
 6399SOL     OW30658   2.056   0.429   4.529 -0.1010  0.3695  0.1075
 6399SOL    HW130659   2.086   0.360   4.588 -0.7003  1.8280  2.1268
 6399SOL    HW230660   1.962   0.434   4.545 -0.0030 -1.9274  1.3326
 6400SOL     OW30661   0.049   4.051  10.725 -0.2836  0.5494  0.2304
 6400SOL    HW130662   4.677   4.063  10.739  0.2204  1.5266  2.8642
 6400SOL    HW230663   0.086   4.071  10.811 -1.1734  0.8429  0.5416
 6401SOL     OW30664   0.173   4.132   7.361  0.2885 -0.1764 -0.6344
 6401SOL    HW130665   0.253   4.182   7.345  1.0404 -1.1445  0.0927
 6401SOL    HW230666   0.206   4.067   7.423 -0.8460 -0.3406 -0.2094
 6402SOL     OW30667   1.987   4.601   3.799  0.2446  0.2855 -0.4410
 6402SOL    HW130668   1.915   4.545   3.827 -1.6400  1.4683 -2.8855
 6402SOL    HW230669   2.059   4.566   3.851  3.0289  1.9129 -3.2329
 6403SOL     OW30670   2.267   2.075   3.762 -0.3677  0.3956 -0.1011
 6403SOL    HW130671   2.340   2.136   3.776  0.1682 -0.6563  1.7305
 6403SOL    HW230672   2.286   2.014   3.833 -0.9802  0.7951  0.4108
 6404SOL     OW30673   2.722   2.297   5.366  0.4771  0.5166 -0.1815
 6404SOL    HW130674   2.816   2.292   5.348  0.4143  1.0932 -0.6890
 6404SOL    HW230675   2.693   2.271   5.279 -0.4165 -1.4395  0.7139
 6405SOL     OW30676   3.016   2.942   4.816 -0.1665  0.2294  0.2912
 6405SOL    HW130677   2.986   2.857   4.783 -1.9964  0.4075  1.4766
 6405SOL    HW230678   2.947   2.947   4.883  1.1722  1.2426  1.6055
 6406SOL     OW30679   3.717   3.764   5.604 -0.2058 -0.0177 -0.0581
 6406SOL    HW130680   3.762   3.696   5.654 -0.7163 -1.1314 -1.1189
 6406SOL    HW230681   3.654   3.716   5.552 -0.0696 -1.4220  1.0826
 6407SOL     OW30682   3.925   0.983   9.628 -0.5051  0.0659 -0.5906
 6407SOL    HW130683   3.873   1.046   9.578 -0.3701  1.6926  1.3557
 6407SOL    HW230684   3.949   1.031   9.707  0.8185 -1.6356  0.0417
 6408SOL     OW30685   2.361   0.272   9.134  0.0966  0.3402  0.2237
 6408SOL    HW130686   2.372   0.366   9.151  0.8339  0.3004 -0.0486
 6408SOL    HW230687   2.285   0.271   9.076  2.4630  1.1413 -2.8741
 6409SOL     OW30688   4.652   1.182   3.956 -0.1490  0.3143  0.0647
 6409SOL    HW130689   4.604   1.229   3.888 -0.4454  1.0775  0.8076
 6409SOL    HW230690   4.636   1.233   4.035  0.6760 -0.9678  1.0508
 6410SOL     OW30691   3.702   1.853   5.432 -0.4421  0.3485  0.1309
 6410SOL    HW130692   3.687   1.940   5.469 -4.0436  0.5699 -1.8884
 6410SOL    HW230693   3.667   1.874   5.345 -0.7788 -0.5908  0.0490
 6411SOL     OW30694   0.195   1.848   4.441  0.2830  0.1180 -0.3461
 6411SOL    HW130695   0.142   1.870   4.364 -1.1251  1.0362  0.8632
 6411SOL    HW230696   0.203   1.754   4.426 -0.5712 -0.2069  1.1870
 6412SOL     OW30697   4.581   3.228  12.296 -0.2987  0.0456 -0.6330
 6412SOL    HW130698   4.538   3.314  12.301 -1.0357 -0.4687  2.1857
 6412SOL    HW230699   4.538   3.201  12.215 -0.5259  0.5137 -0.6688
 6413SOL     OW30700   0.377   0.814  10.077  0.6433 -0.1622 -0.6586
 6413SOL    HW130701   0.363   0.719  10.072 -0.4264 -0.0868  0.7970
 6413SOL    HW230702   0.293   0.859  10.085  1.5694  1.4654 -0.0440
 6414SOL     OW30703   2.080   3.723   0.418  0.4908  0.0457 -0.0585
 6414SOL    HW130704   1.989   3.753   0.413  0.8654  0.8632 -2.0260
 6414SOL    HW230705   2.107   3.751   0.330  0.7246 -0.2977 -0.0954
 6415SOL     OW30706   0.917   1.186   7.699  0.1219 -0.6606  0.2610
 6415SOL    HW130707   0.946   1.257   7.756  0.1549  1.1476 -1.9939
 6415SOL    HW230708   0.947   1.110   7.748  0.2462 -0.0395  1.1454
 6416SOL     OW30709   0.499   4.596  11.495 -0.4289  0.1842  0.1289
 6416SOL    HW130710   0.527   4.625  11.408 -1.6631  3.0630  0.7056
 6416SOL    HW230711   0.432   4.657  11.525 -0.1143 -0.4003  2.0333
 6417SOL     OW30712   0.121   1.250   4.318 -1.1247  0.1606 -0.0348
 6417SOL    HW130713   0.145   1.333   4.359  1.4282 -0.2059 -0.8163
 6417SOL    HW230714   0.124   1.182   4.385  1.8842 -0.5937 -0.9502
 6418SOL     OW30715   3.416   3.245   4.228  0.4969 -0.2923 -0.3214
 6418SOL    HW130716   3.353   3.274   4.293 -0.4457 -1.2274 -0.8282
 6418SOL    HW230717   3.357   3.259   4.154  2.9853  0.1280 -2.2371
 6419SOL     OW30718   0.145   1.233  14.682  0.2868  0.2706  0.2085
 6419SOL    HW130719   0.090   1.191  14.616  0.5182  3.2124 -1.8601
 6419SOL    HW230720   0.220   1.251  14.625 -0.7589  1.6590 -0.7251
 6420SOL     OW30721   3.258   4.112   9.789  0.6029 -0.2640 -0.3393
 6420SOL    HW130722   3.275   4.103   9.883 -0.6684  2.9076  0.1839
 6420SOL    HW230723   3.238   4.205   9.786  1.7571 -0.0171 -0.1945
 6421SOL     OW30724   1.142   4.379   4.437 -0.1775  0.3280  0.1360
 6421SOL    HW130725   1.227   4.338   4.450  0.7930  1.2430 -3.1426
 6421SOL    HW230726   1.113   4.357   4.525 -1.8387  2.4603  0.1311
 6422SOL     OW30727   0.432   4.269   4.583  0.5559  0.0092 -0.4759
 6422SOL    HW130728   0.466   4.248   4.495 -0.8742  1.4323 -1.3640
 6422SOL    HW230729   0.342   4.295   4.562  0.3238  1.4508  2.3201
 6423SOL     OW30730   3.285   1.815   6.643  0.5025 -0.0576  0.1077
 6423SOL    HW130731   3.309   1.810   6.735 -0.5290  1.5055  0.4658
 6423SOL    HW230732   3.271   1.725   6.615  0.4041 -0.0518  0.1385
 6424SOL     OW30733   1.214   3.318   4.117 -0.5844 -0.2029  0.0462
 6424SOL    HW130734   1.169   3.235   4.102 -0.5577 -0.0829 -0.7315
 6424SOL    HW230735   1.234   3.342   4.026 -0.4931 -1.7300 -0.3410
 6425SOL     OW30736   2.218   1.949   6.206 -0.6684 -0.1624 -0.1475
 6425SOL    HW130737   2.174   1.865   6.192  0.0369 -0.4721 -0.4700
 6425SOL    HW230738   2.141   2.005   6.213 -1.3236 -0.9888 -0.6701
 6426SOL     OW30739   3.585   0.361   3.282  0.0651  0.1769  1.1992
 6426SOL    HW130740   3.505   0.412   3.266  2.1977  2.9265 -0.7464
 6426SOL    HW230741   3.574   0.304   3.358 -1.4272  0.5882  1.3002
 6427SOL     OW30742   0.447   1.869   2.604  0.1647 -1.1776 -0.2570
 6427SOL    HW130743   0.541   1.878   2.613 -0.1088  0.6147  0.8693
 6427SOL    HW230744   0.435   1.899   2.513 -0.6968  0.9916  0.5638
 6428SOL     OW30745   0.205   0.312   4.313 -0.1480  0.2522 -0.1309
 6428SOL    HW130746   0.232   0.221   4.316  0.3565  0.4381  1.2483
 6428SOL    HW230747   0.274   0.339   4.373  0.1967 -0.6976 -0.1026
 6429SOL     OW30748   1.336   3.488  11.237  0.1983 -0.0742 -0.0849
 6429SOL    HW130749   1.254   3.522  11.202 -0.3687 -1.0544  0.2900
 6429SOL    HW230750   1.302   3.449  11.317 -0.2252  0.4246 -0.0252
 6430SOL     OW30751   3.854   3.001   3.892 -0.2080 -0.0826 -0.4658
 6430SOL    HW130752   3.810   2.951   3.824 -1.6066  2.3393 -1.3295
 6430SOL    HW230753   3.944   2.984   3.865 -0.9608 -1.7297 -1.9185
 6431SOL     OW30754   3.361   0.120   5.904 -0.0266  0.1144 -0.2042
 6431SOL    HW130755   3.365   0.025   5.919 -0.9391  0.4574  2.1891
 6431SOL    HW230756   3.300   0.121   5.830 -0.3167  1.0151  0.0454
 6432SOL     OW30757   0.151   2.971   1.628  0.7129 -0.3571 -0.1029
 6432SOL    HW130758   0.164   2.941   1.718  4.0029  0.7977 -0.1857
 6432SOL    HW230759   0.242   2.967   1.599  1.0568 -3.4571  1.4698
 6433SOL     OW30760   2.434   2.041   7.722  0.1892  0.4486 -0.1002
 6433SOL    HW130761   2.393   2.057   7.807  2.1589  1.7253  0.6152
 6433SOL    HW230762   2.491   1.969   7.746 -0.6195 -0.2050 -0.1290
 6434SOL     OW30763   0.068   1.726   1.924 -0.3422  0.8189  0.0191
 6434SOL    HW130764   0.064   1.677   2.006 -1.8744  0.2791 -0.3691
 6434SOL    HW230765   0.015   1.802   1.945  0.5519  2.2422 -2.8925
 6435SOL     OW30766   3.271   3.031  14.791 -0.0711 -0.2354  0.2353
 6435SOL    HW130767   3.221   3.012  14.712  1.3700 -2.9540 -0.0233
 6435SOL    HW230768   3.329   3.100  14.760 -0.3025  0.8272  2.1339
 6436SOL     OW30769   0.775   3.978  16.971 -0.1634 -0.3431 -0.2594
 6436SOL    HW130770   0.782   4.018  16.884 -1.0715 -0.0532 -0.1952
 6436SOL    HW230771   0.772   3.885  16.949  1.4234 -0.3929 -0.2863
 6437SOL     OW30772   0.382   1.786   5.734  0.8254  0.4395 -0.2251
 6437SOL    HW130773   0.357   1.869   5.692 -0.1461 -0.0471 -0.6036
 6437SOL    HW230774   0.433   1.813   5.810  0.6866 -0.2955  0.1327
 6438SOL     OW30775   1.854   2.614  16.423 -0.1071 -0.7593 -0.0342
 6438SOL    HW130776   1.791   2.607  16.495  0.1013 -1.5488  0.0752
 6438SOL    HW230777   1.856   2.708  16.407  0.3169 -0.5562  1.2085
 6439SOL     OW30778   0.971   1.050  12.194  0.5084  0.1551 -0.4701
 6439SOL    HW130779   0.916   1.128  12.196  2.9628  1.8798  0.2909
 6439SOL    HW230780   0.986   1.035  12.287 -2.2913 -1.8792 -0.3555
 6440SOL     OW30781   0.365   0.545  12.108 -0.1269  0.6869 -0.1215
 6440SOL    HW130782   0.342   0.617  12.049 -1.6250 -0.1507 -0.5589
 6440SOL    HW230783   0.371   0.587  12.194  0.9269  2.9777 -1.2850
 6441SOL     OW30784   3.547   3.809   7.748 -0.4524 -0.0895  0.5786
 6441SOL    HW130785   3.573   3.881   7.805 -1.6942  1.2529 -0.5156
 6441SOL    HW230786   3.461   3.843   7.721  1.0917  2.4497 -1.1679
 6442SOL     OW30787   2.540   3.658  10.454  0.4105  0.0085 -0.7593
 6442SOL    HW130788   2.617   3.714  10.461  0.8127 -0.3713 -2.3240
 6442SOL    HW230789   2.579   3.574  10.433 -3.1587 -1.9911  0.5708
 6443SOL     OW30790   2.018   4.060   7.114  0.1315 -0.1501 -0.2802
 6443SOL    HW130791   1.956   4.024   7.050  0.3572 -1.8619  0.4612
 6443SOL    HW230792   2.028   3.982   7.169  1.4005 -0.5093 -0.9980
 6444SOL     OW30793   2.433   4.345   6.994 -0.0948 -0.8201 -0.3401
 6444SOL    HW130794   2.389   4.260   6.986 -0.6219 -0.6905  1.1711
 6444SOL    HW230795   2.402   4.382   6.911 -1.2882  0.3821  0.6390
 6445SOL     OW30796   4.113   1.834   4.028 -0.2848 -0.2142 -0.0889
 6445SOL    HW130797   4.070   1.749   4.020 -0.1120 -0.3915  0.7922
 6445SOL    HW230798   4.184   1.809   4.088  0.3429 -0.3718 -0.9014
 6446SOL     OW30799   3.648   3.856   8.289  0.2663  0.0268  0.0064
 6446SOL    HW130800   3.722   3.914   8.307 -1.7328  1.9893  1.9491
 6446SOL    HW230801   3.582   3.925   8.295 -1.3934 -1.4592 -1.2743
 6447SOL     OW30802   0.509   2.404   2.299 -0.6417  0.2280 -0.2957
 6447SOL    HW130803   0.570   2.460   2.251 -2.0675  2.6246  0.6881
 6447SOL    HW230804   0.428   2.450   2.277 -1.1537 -0.6154 -0.2087
 6448SOL     OW30805   2.413   1.106   3.240  0.3557  0.2080  0.2810
 6448SOL    HW130806   2.448   1.182   3.194  2.6164 -1.3375 -0.5854
 6448SOL    HW230807   2.495   1.061   3.261  1.0698  1.7822  0.8455
 6449SOL     OW30808   1.325   0.223   9.569 -0.2607  0.0247 -0.1712
 6449SOL    HW130809   1.282   0.259   9.647 -0.1580 -0.0821 -0.0649
 6449SOL    HW230810   1.414   0.258   9.575 -0.2182  0.0212 -0.8681
 6450SOL     OW30811   1.611   3.411   9.879  0.1231  0.4089 -0.4994
 6450SOL    HW130812   1.554   3.485   9.900 -1.2445 -0.2345 -1.9951
 6450SOL    HW230813   1.666   3.447   9.809  1.2212 -0.0710  0.1255
 6451SOL     OW30814   1.527   1.075   4.140 -0.2737 -0.0141 -0.2328
 6451SOL    HW130815   1.489   1.004   4.190 -1.5163  0.3796 -0.6167
 6451SOL    HW230816   1.460   1.074   4.071  0.5448  0.4834 -1.0355
 6452SOL     OW30817   3.880   4.502   2.576  0.1868 -0.1276 -0.1878
 6452SOL    HW130818   3.822   4.573   2.547  0.0356  0.3831  1.3616
 6452SOL    HW230819   3.881   4.456   2.492 -2.2935 -0.4441 -0.0655
 6453SOL     OW30820   3.586   0.899   6.944 -0.2904 -0.6565 -0.8441
 6453SOL    HW130821   3.611   0.968   7.006 -0.3924 -1.1514 -0.2617
 6453SOL    HW230822   3.676   0.880   6.915  0.5480  0.8316  0.7637
 6454SOL     OW30823   0.649   0.825   0.999  0.0923  0.0539  1.1054
 6454SOL    HW130824   0.614   0.896   1.054 -1.3814 -1.6415  2.3426
 6454SOL    HW230825   0.569   0.799   0.955  0.8957 -1.0578  0.2908
 6455SOL     OW30826   0.471   4.159  10.066  0.2131  0.7276  0.1679
 6455SOL    HW130827   0.395   4.206  10.031 -1.2958 -1.1013  0.9919
 6455SOL    HW230828   0.449   4.072  10.034  0.0260  1.0529 -0.5870
 6456SOL     OW30829   1.169   1.523   6.607  0.6462  0.4414  0.6452
 6456SOL    HW130830   1.251   1.562   6.638  2.0844 -1.9442 -0.1207
 6456SOL    HW230831   1.127   1.481   6.682 -0.3610 -0.8010 -0.6038
 6457SOL     OW30832   4.172   2.136  16.483 -0.4371 -0.4515  0.4179
 6457SOL    HW130833   4.107   2.162  16.417  0.8551  0.0444 -0.6519
 6457SOL    HW230834   4.255   2.139  16.436  0.1213 -1.0527  1.3805
 6458SOL     OW30835   0.844   1.246  15.799 -0.0205  0.0798  0.1214
 6458SOL    HW130836   0.845   1.187  15.724 -0.8290 -0.3299  0.4395
 6458SOL    HW230837   0.765   1.221  15.847  0.0903 -1.3086 -0.4383
 6459SOL     OW30838   2.305   0.090   4.547  0.4735  0.4740 -0.2697
 6459SOL    HW130839   2.321   0.010   4.497 -0.8090 -0.1150  0.2464
 6459SOL    HW230840   2.380   0.147   4.529  0.5602  0.1755 -0.8487
 6460SOL     OW30841   4.634   2.606   3.886  0.1940 -0.5918  0.6109
 6460SOL    HW130842   4.719   2.649   3.885  0.3525 -0.9221 -1.1646
 6460SOL    HW230843   4.592   2.657   3.817 -1.9628 -1.9883  0.9031
 6461SOL     OW30844   3.841   1.597  13.363  0.8493 -0.2225 -0.0947
 6461SOL    HW130845   3.830   1.689  13.337 -0.2036 -0.0678  0.9080
 6461SOL    HW230846   3.785   1.602  13.441 -0.3964  1.6843 -1.0896
 6462SOL     OW30847   3.336   3.428   6.740  0.0588  0.1531 -0.4506
 6462SOL    HW130848   3.420   3.421   6.786 -0.6512 -0.7354  0.7204
 6462SOL    HW230849   3.324   3.516   6.706 -0.4644  0.7302  1.2197
 6463SOL     OW30850   0.585   1.506   0.844 -0.4904 -0.4732 -0.0705
 6463SOL    HW130851   0.645   1.562   0.794 -2.3048 -2.3042 -4.3168
 6463SOL    HW230852   0.531   1.576   0.881 -0.6396 -1.4881  1.6129
 6464SOL     OW30853   1.182   0.689   8.467  0.6431 -0.1181  0.8556
 6464SOL    HW130854   1.151   0.756   8.528  0.2557  0.2855  0.2294
 6464SOL    HW230855   1.137   0.612   8.500 -0.3889 -0.5913 -1.6290
 6465SOL     OW30856   2.231   0.413   8.315  0.3581  0.5562 -0.6414
 6465SOL    HW130857   2.166   0.454   8.371  0.3447 -0.2883 -0.0437
 6465SOL    HW230858   2.255   0.340   8.372 -0.6673  0.5012 -0.2876
 6466SOL     OW30859   4.364   3.981   3.117 -0.4042  0.2969 -0.1525
 6466SOL    HW130860   4.426   4.054   3.127  1.3420 -1.0215 -1.4498
 6466SOL    HW230861   4.348   3.971   3.023 -2.5601 -0.5630  0.2999
 6467SOL     OW30862   1.534   2.403   2.774  0.2003  0.0237  0.1464
 6467SOL    HW130863   1.604   2.338   2.775  0.6051  0.4443 -0.5485
 6467SOL    HW230864   1.501   2.391   2.685 -0.2589  0.5654  0.2469
 6468SOL     OW30865   1.526   0.443  14.306  0.0034 -0.0468 -0.1218
 6468SOL    HW130866   1.441   0.479  14.331 -0.1456  0.0211 -0.7262
 6468SOL    HW230867   1.574   0.433  14.389  1.4011 -2.2604 -1.2092
 6469SOL     OW30868   4.279   4.387   9.381 -0.1440 -0.2019  0.4071
 6469SOL    HW130869   4.375   4.391   9.383 -0.2016  1.3383  0.3098
 6469SOL    HW230870   4.277   4.293   9.396 -0.4768 -0.6188 -2.2456
 6470SOL     OW30871   3.855   0.455  13.210 -0.0731  0.6291  0.2645
 6470SOL    HW130872   3.831   0.527  13.268  0.0249  2.8996 -2.5399
 6470SOL    HW230873   3.871   0.495  13.125  0.2997 -0.0280  0.0199
 6471SOL     OW30874   3.193   0.117  13.431  0.9899  1.1108  0.3723
 6471SOL    HW130875   3.200   0.162  13.347 -0.2428  0.1258 -0.2479
 6471SOL    HW230876   3.111   0.153  13.464  0.4842 -0.7651  1.1127
 6472SOL     OW30877   0.689   0.174   2.414 -0.3484  0.1426  0.1159
 6472SOL    HW130878   0.630   0.100   2.402 -1.8580  1.1056  1.5174
 6472SOL    HW230879   0.735   0.152   2.495 -0.6333  0.5877  0.4021
 6473SOL     OW30880   1.534   2.630  16.997 -0.8468  0.0265  0.4602
 6473SOL    HW130881   1.439   2.645  16.995 -0.8438 -0.0857 -0.6706
 6473SOL    HW230882   1.532   2.538  16.971  1.1072 -0.4343  2.0169
 6474SOL     OW30883   1.942   0.668  12.664  0.2629 -0.8810  0.2610
 6474SOL    HW130884   1.940   0.581  12.625 -2.7514 -1.2934  1.3324
 6474SOL    HW230885   2.016   0.656  12.723 -1.5116 -2.7550  2.0700
 6475SOL     OW30886   3.800   2.034   9.291  0.2996 -0.5194 -0.5549
 6475SOL    HW130887   3.813   2.106   9.230 -0.1662 -1.1687 -1.4177
 6475SOL    HW230888   3.801   1.967   9.223  1.2544 -1.5820  0.5080
 6476SOL     OW30889   3.523   4.118   3.725  0.5321  0.5173  0.1395
 6476SOL    HW130890   3.583   4.045   3.739 -0.8394 -0.1596  2.4533
 6476SOL    HW230891   3.502   4.092   3.635 -0.7125 -1.4566  1.0076
 6477SOL     OW30892   1.541   3.091   1.781 -0.4995 -0.0074  0.1038
 6477SOL    HW130893   1.614   3.063   1.835  2.1405  1.7690 -2.5488
 6477SOL    HW230894   1.580   3.098   1.694  0.5210 -1.3162  0.4536
 6478SOL     OW30895   2.361   2.622   7.859  0.5912  0.3153 -0.3481
 6478SOL    HW130896   2.303   2.697   7.843  0.7278  0.7864  1.3858
 6478SOL    HW230897   2.435   2.649   7.804  0.4637  1.2146 -0.0882
 6479SOL     OW30898   4.065   1.573   7.294 -0.6587  0.0865 -0.5474
 6479SOL    HW130899   4.137   1.626   7.325 -0.7702  0.3662 -0.7678
 6479SOL    HW230900   4.099   1.560   7.205 -0.3887  2.2803 -0.7657
 6480SOL     OW30901   4.137   1.046   4.960 -0.2386 -0.1409 -0.0081
 6480SOL    HW130902   4.061   1.055   5.017 -0.3583 -3.0658  0.2992
 6480SOL    HW230903   4.192   0.993   5.017  2.1682 -0.0432 -2.2155
 6481SOL     OW30904   2.617   3.375  17.437  0.1370 -0.2561  0.3485
 6481SOL    HW130905   2.631   3.469  17.446  1.5695 -0.3131 -1.2413
 6481SOL    HW230906   2.571   3.379  17.353  2.2789 -0.0014 -0.8280
 6482SOL     OW30907   3.004   1.644   6.819 -0.1251  0.1459 -0.2154
 6482SOL    HW130908   3.010   1.598   6.736  1.6997  1.2167 -0.6680
 6482SOL    HW230909   2.951   1.580   6.866 -0.8914  1.5254  0.8224
 6483SOL     OW30910   3.930   1.352   9.340  0.0065  0.0598  0.3471
 6483SOL    HW130911   4.013   1.381   9.378 -1.0847  1.3506  1.7577
 6483SOL    HW230912   3.894   1.288   9.402 -2.9515  1.2355 -0.1303
 6484SOL     OW30913   3.146   0.678  11.928  0.1059 -0.2956 -0.1907
 6484SOL    HW130914   3.212   0.722  11.874 -0.8717 -1.4748 -2.3446
 6484SOL    HW230915   3.085   0.752  11.937  2.4788  1.8617 -1.7374
 6485SOL     OW30916   1.869   3.186   6.043 -0.2362  0.1774 -0.2478
 6485SOL    HW130917   1.941   3.124   6.035  2.9262  3.7169  0.8506
 6485SOL    HW230918   1.782   3.148   6.052  0.6299 -1.5420  0.8007
 6486SOL     OW30919   1.460   1.021   8.835  0.4672 -0.0657 -0.3841
 6486SOL    HW130920   1.448   0.927   8.840  0.3681 -0.0310  0.0108
 6486SOL    HW230921   1.424   1.054   8.753 -1.5903 -1.7930 -0.1490
 6487SOL     OW30922   3.853   4.621   4.410 -0.3942 -0.5378 -0.5064
 6487SOL    HW130923   3.768   4.580   4.392  0.1863 -1.8207 -0.3274
 6487SOL    HW230924   3.906   4.544   4.388  1.1773  0.6231 -0.7671
 6488SOL     OW30925   1.795   1.867   8.078 -0.1302  0.2169 -0.3471
 6488SOL    HW130926   1.802   1.956   8.111 -1.1831 -0.9766  3.1393
 6488SOL    HW230927   1.732   1.835   8.143  0.7496  1.0019  0.8878
 6489SOL     OW30928   1.795   0.082   1.280  0.2782  0.4401  0.3746
 6489SOL    HW130929   1.886   0.057   1.267 -0.3163 -1.4411 -0.2291
 6489SOL    HW230930   1.745   0.003   1.256 -0.1447  0.8468 -0.0828
 6490SOL     OW30931   0.219   0.896   5.989 -0.1585  0.0791 -0.0077
 6490SOL    HW130932   0.212   0.827   6.055 -1.8193 -0.0217 -0.2851
 6490SOL    HW230933   0.161   0.965   6.022 -0.3525  0.9814 -2.2317
 6491SOL     OW30934   1.978   3.660   7.679  0.0583 -0.1617 -0.1015
 6491SOL    HW130935   1.964   3.568   7.701  0.9267 -0.5595 -1.2125
 6491SOL    HW230936   2.074   3.654   7.678  0.1853  2.0465 -0.6483
 6492SOL     OW30937   3.861   2.804   3.346  0.3227  0.1790  0.7021
 6492SOL    HW130938   3.877   2.746   3.272 -0.5538 -0.1699  0.7898
 6492SOL    HW230939   3.809   2.753   3.408 -2.6522 -0.0284 -1.9935
 6493SOL     OW30940   3.711   0.819   7.521  0.0682  0.0478  0.2589
 6493SOL    HW130941   3.770   0.747   7.498 -0.4588 -0.0507 -0.7795
 6493SOL    HW230942   3.644   0.799   7.456 -0.6877  4.0804 -0.1916
 6494SOL     OW30943   3.136   3.826   6.871  0.1777 -0.1990  0.2709
 6494SOL    HW130944   3.067   3.813   6.806 -0.5943  1.7800  0.7057
 6494SOL    HW230945   3.177   3.904   6.834 -0.5578  0.2400  0.3832
 6495SOL     OW30946   3.044   0.514   4.643 -0.6311 -0.2137 -0.4004
 6495SOL    HW130947   3.022   0.422   4.655  1.1756 -0.7571 -1.2758
 6495SOL    HW230948   3.090   0.507   4.559  0.5793 -0.5257  0.2841
 6496SOL     OW30949   2.958   2.475   9.896 -0.1108 -0.0898 -0.0883
 6496SOL    HW130950   2.943   2.418   9.972 -2.3082 -0.1450 -0.5509
 6496SOL    HW230951   3.027   2.537   9.920  1.0929 -0.5920 -2.2799
 6497SOL     OW30952   3.792   1.771   7.465 -0.3339  0.3818 -0.1387
 6497SOL    HW130953   3.738   1.693   7.477  1.4604 -1.0142 -1.1974
 6497SOL    HW230954   3.807   1.763   7.371  0.4768 -0.4428  0.0656
 6498SOL     OW30955   4.544   2.694   1.461 -0.1067 -0.5062 -0.7028
 6498SOL    HW130956   4.623   2.653   1.497  0.6853  1.0408 -0.6931
 6498SOL    HW230957   4.546   2.777   1.509  2.5224 -0.2795 -1.1950
 6499SOL     OW30958   0.408   0.378   2.535 -0.3332  0.0797 -0.1256
 6499SOL    HW130959   0.422   0.473   2.535  3.4629 -0.4681 -0.1449
 6499SOL    HW230960   0.463   0.358   2.459  1.2462 -1.0061  1.3030
 6500SOL     OW30961   0.009   0.357   2.773  1.0006  0.4011  0.3152
 6500SOL    HW130962   0.024   0.263   2.763 -3.3498 -0.1266 -1.1686
 6500SOL    HW230963   0.005   0.389   2.683 -1.3742  0.6349  0.5158
 6501SOL     OW30964   2.689   2.374  12.759 -0.0025  0.6754 -0.1048
 6501SOL    HW130965   2.745   2.403  12.687  0.9092  0.1437  0.3762
 6501SOL    HW230966   2.751   2.332  12.820  0.1516  1.5065  0.3214
 6502SOL     OW30967   0.696   3.225   7.062 -0.1927 -0.0762 -0.0675
 6502SOL    HW130968   0.693   3.294   7.128 -1.0953  0.5713 -0.7889
 6502SOL    HW230969   0.726   3.152   7.115  0.6343  0.2182 -0.1227
 6503SOL     OW30970   3.639   1.004   2.679  0.0774 -0.2286  0.0822
 6503SOL    HW130971   3.713   1.053   2.717  0.6488 -1.6854  0.8380
 6503SOL    HW230972   3.652   1.032   2.589 -0.1158 -2.1827 -0.5503
 6504SOL     OW30973   3.737   3.210   2.000 -0.3198  0.1441  0.8255
 6504SOL    HW130974   3.669   3.150   1.969 -0.9877  1.0886  0.4759
 6504SOL    HW230975   3.719   3.299   1.973 -1.9889 -0.5114 -0.1780
 6505SOL     OW30976   3.158   0.892   5.615 -0.0660  0.5169  0.7023
 6505SOL    HW130977   3.173   0.798   5.624  1.0085  0.4984 -1.4050
 6505SOL    HW230978   3.223   0.934   5.671  0.9573  0.2730 -0.3027
 6506SOL     OW30979   1.475   2.023   3.033 -0.1996  0.0811  0.1689
 6506SOL    HW130980   1.410   2.071   2.981  0.0569  0.6411  0.3650
 6506SOL    HW230981   1.420   1.954   3.069 -1.5342  2.2492  2.3308
 6507SOL     OW30982   0.982   2.906  12.190  0.1032  0.0604 -0.7517
 6507SOL    HW130983   0.911   2.842  12.197 -1.1351  1.7673  2.0879
 6507SOL    HW230984   0.959   2.966  12.261  1.1580 -0.6641  0.1955
 6508SOL     OW30985   4.298   0.431   6.561  0.6367  0.0104 -0.2654
 6508SOL    HW130986   4.245   0.352   6.569 -0.3224  0.7426  0.6778
 6508SOL    HW230987   4.234   0.500   6.543  0.9158  0.4900  0.5856
 6509SOL     OW30988   0.734   2.521   5.485  0.0320 -0.6712 -0.4668
 6509SOL    HW130989   0.674   2.504   5.413 -0.3921 -0.4354 -0.1701
 6509SOL    HW230990   0.786   2.441   5.488 -1.5483 -1.7147 -1.0111
 6510SOL     OW30991   2.731   0.131   1.831  0.4608  0.3982 -0.1563
 6510SOL    HW130992   2.806   0.171   1.875 -1.7234 -0.3044  4.1343
 6510SOL    HW230993   2.673   0.131   1.907  0.3524  1.3406 -0.2359
 6511SOL     OW30994   0.564   1.198   8.886  0.2436  0.4389  0.2909
 6511SOL    HW130995   0.493   1.150   8.842  0.3150  1.8478 -1.3440
 6511SOL    HW230996   0.519   1.238   8.960 -0.8629 -1.3537  0.5943
 6512SOL     OW30997   0.012   0.806   6.443  0.3458  0.4855 -0.5394
 6512SOL    HW130998   4.664   0.749   6.475  1.8692  0.5512  2.9005
 6512SOL    HW230999   4.690   0.842   6.366  0.9047  1.8293 -0.2242
 6513SOL     OW31000   3.892   1.882  13.617 -0.1951  0.9189  0.3102
 6513SOL    HW131001   3.947   1.912  13.689  2.5880  0.4694 -1.6267
 6513SOL    HW231002   3.954   1.874  13.545 -1.0168 -1.1493 -0.1626
 6514SOL     OW31003   4.155   2.191  17.347 -0.1952 -0.2842 -0.3323
 6514SOL    HW131004   4.245   2.177  17.317 -0.0105 -0.1490  0.1678
 6514SOL    HW231005   4.142   2.110  17.397  2.7466  0.9660  2.4840
 6515SOL     OW31006   0.773   0.430  15.425 -0.2294  0.1481 -1.1219
 6515SOL    HW131007   0.862   0.447  15.455 -0.1049 -1.5927 -0.4890
 6515SOL    HW231008   0.750   0.344  15.460  0.8790  1.8120  3.7314
 6516SOL     OW31009   2.794   0.897  12.455  0.3099  0.2419 -0.6076
 6516SOL    HW131010   2.755   0.848  12.527  0.9937  0.0287 -0.3864
 6516SOL    HW231011   2.868   0.932  12.504 -0.1223  0.6236 -0.2223
 6517SOL     OW31012   0.328   0.206  10.367  0.5598 -0.2102 -0.0545
 6517SOL    HW131013   0.372   0.264  10.429  0.5616 -1.5723  1.2032
 6517SOL    HW231014   0.392   0.135  10.367  0.6778 -0.1072 -1.4448
 6518SOL     OW31015   4.029   0.448   7.809 -0.1240 -0.2047  0.1224
 6518SOL    HW131016   4.026   0.509   7.882 -0.1560 -1.0194  0.7910
 6518SOL    HW231017   4.120   0.461   7.780  0.4095 -1.5959  1.1959
 6519SOL     OW31018   3.541   2.919   8.264  0.7026 -0.1444  0.8073
 6519SOL    HW131019   3.544   2.833   8.307  1.3649 -0.9284 -0.8330
 6519SOL    HW231020   3.463   2.906   8.210  0.4268 -0.1986  1.2147
 6520SOL     OW31021   0.341   3.188   9.796 -0.2855  0.8499  0.1874
 6520SOL    HW131022   0.432   3.171   9.822 -0.8794 -1.1076  0.9865
 6520SOL    HW231023   0.350   3.267   9.743 -0.4909  1.5905  1.2582
 6521SOL     OW31024   1.252   3.151  11.944  0.3911  0.0681 -0.1788
 6521SOL    HW131025   1.306   3.170  11.867  0.2883  0.8824 -0.0475
 6521SOL    HW231026   1.321   3.148  12.011 -0.4298 -0.1542  0.6515
 6522SOL     OW31027   2.008   0.272   3.404  0.7261  0.1506 -0.2187
 6522SOL    HW131028   2.085   0.215   3.398 -0.1227 -1.1160  0.8215
 6522SOL    HW231029   1.961   0.232   3.477  1.1299  0.0970  0.0123
 6523SOL     OW31030   4.130   2.988   2.910  0.5698 -0.2703 -0.1178
 6523SOL    HW131031   4.166   2.957   2.993 -0.7071 -0.1069  0.4930
 6523SOL    HW231032   4.144   3.083   2.912  0.0222 -0.2121  1.2240
 6524SOL     OW31033   2.497   1.462  11.830 -0.4915 -0.1111  0.3747
 6524SOL    HW131034   2.522   1.485  11.919 -2.7275 -0.2193  1.0087
 6524SOL    HW231035   2.429   1.394  11.828 -1.5655  1.0067 -1.3232
 6525SOL     OW31036   2.200   1.071   2.739  0.3455  0.0815  0.2897
 6525SOL    HW131037   2.167   0.988   2.704 -0.1704  0.8584 -1.0673
 6525SOL    HW231038   2.167   1.126   2.668 -1.4882 -1.0150  0.2893
 6526SOL     OW31039   3.690   1.174   4.122 -0.2824  0.1653 -0.1416
 6526SOL    HW131040   3.685   1.105   4.188 -0.2091 -0.5375 -0.8679
 6526SOL    HW231041   3.772   1.218   4.144 -1.7261  2.1521  1.2594
 6527SOL     OW31042   3.092   2.542  17.408  0.2807 -0.0315  0.1035
 6527SOL    HW131043   3.002   2.522  17.382  0.6245  0.5078 -1.4620
 6527SOL    HW231044   3.107   2.472  17.472  0.3585 -2.2180 -2.3304
 6528SOL     OW31045   4.649   3.957  16.850 -0.3002 -0.2717  0.2083
 6528SOL    HW131046   4.613   3.983  16.765  1.0391  1.1541  0.0857
 6528SOL    HW231047   0.002   3.899  16.832  1.1259  1.1775  1.5324
 6529SOL     OW31048   0.931   0.473   9.156  0.6569 -0.3813  0.6315
 6529SOL    HW131049   0.837   0.475   9.172  0.5238  0.3530 -0.2162
 6529SOL    HW231050   0.940   0.476   9.060  2.5340  0.2125  0.8229
 6530SOL     OW31051   4.611   4.002   4.355 -0.5133  0.8038 -0.3292
 6530SOL    HW131052   4.684   3.942   4.342  0.0756  1.5251 -0.3558
 6530SOL    HW231053   4.634   4.033   4.443 -1.8077  0.9210 -0.0309
 6531SOL     OW31054   1.309   0.635   8.200  0.0025  0.4318 -0.0998
 6531SOL    HW131055   1.237   0.626   8.263  2.2628 -3.0025  1.9557
 6531SOL    HW231056   1.312   0.544   8.168  0.1401  0.8388 -1.2494
 6532SOL     OW31057   2.179   2.686  14.427  0.3689  0.9937 -0.1316
 6532SOL    HW131058   2.170   2.600  14.470  1.5218  1.2177  0.5501
 6532SOL    HW231059   2.212   2.741  14.498  0.0955  0.5373  0.3585
 6533SOL     OW31060   2.631   3.381  15.796 -0.1226  0.0632  0.1275
 6533SOL    HW131061   2.640   3.326  15.874  2.5661 -0.7486 -0.7636
 6533SOL    HW231062   2.720   3.369  15.763  0.5264  1.4328  1.3611
 6534SOL     OW31063   1.343   2.651   3.399 -0.4899 -0.5375 -0.0365
 6534SOL    HW131064   1.341   2.714   3.471 -2.2268 -0.3891 -0.2200
 6534SOL    HW231065   1.254   2.617   3.389 -0.7315  0.5050 -1.3214
 6535SOL     OW31066   3.770   0.305   3.092 -0.2124 -0.1377  0.6504
 6535SOL    HW131067   3.839   0.277   3.152  0.0287 -0.6659  0.1312
 6535SOL    HW231068   3.711   0.342   3.157  1.5648  1.6096  1.2838
 6536SOL     OW31069   0.880   1.386  11.759  0.2431 -0.4626 -0.0822
 6536SOL    HW131070   0.862   1.296  11.786 -0.0158 -0.7785 -1.3102
 6536SOL    HW231071   0.836   1.382  11.674  1.7748  1.3304 -0.9679
 6537SOL     OW31072   0.807   3.167  12.910  0.3525  0.7928  0.2302
 6537SOL    HW131073   0.878   3.187  12.971  2.0519 -0.0636 -1.4705
 6537SOL    HW231074   0.722   3.165  12.955  0.1929  0.6530 -0.0712
 6538SOL     OW31075   0.796   3.539   6.783  0.0118  0.5687  0.0548
 6538SOL    HW131076   0.747   3.477   6.837 -0.2207  2.1233  1.6182
 6538SOL    HW231077   0.853   3.486   6.726 -0.6139 -1.7221  1.5592
 6539SOL     OW31078   1.762   1.213   3.040 -0.0651 -0.9323  0.0168
 6539SOL    HW131079   1.854   1.228   3.019 -0.2872 -2.6723 -2.2442
 6539SOL    HW231080   1.768   1.120   3.063  0.2975 -0.7018  0.8303
 6540SOL     OW31081   0.120   4.521  10.167 -0.6063 -0.5819  0.1158
 6540SOL    HW131082   0.094   4.550  10.080  1.3742  0.8934  0.0032
 6540SOL    HW231083   0.056   4.452  10.178  0.0038 -1.3282 -1.0898
 6541SOL     OW31084   2.499   1.747   6.546 -0.1439  0.6376  0.0399
 6541SOL    HW131085   2.474   1.698   6.625  2.4726 -1.0275 -0.1542
 6541SOL    HW231086   2.567   1.682   6.524  0.2566 -0.0426  3.2615
 6542SOL     OW31087   2.780   2.335   1.721 -0.2580 -0.3522  0.1362
 6542SOL    HW131088   2.797   2.406   1.660  1.2293 -0.7807  0.0525
 6542SOL    HW231089   2.870   2.317   1.750 -0.1652  1.8459  1.2503
 6543SOL     OW31090   1.990   3.449   3.581  0.5826 -0.1873  0.0639
 6543SOL    HW131091   2.071   3.464   3.531  0.7553 -0.8893  0.1429
 6543SOL    HW231092   1.975   3.358   3.557 -1.1612 -0.0177  0.4934
 6544SOL     OW31093   0.437   2.953   6.815  0.1121 -0.1090  0.2059
 6544SOL    HW131094   0.475   3.040   6.828  0.6239 -0.0747 -1.5896
 6544SOL    HW231095   0.388   2.993   6.744  0.2599 -2.5543 -1.2417
 6545SOL     OW31096   0.675   2.979   4.880  0.0948 -0.4232  0.1943
 6545SOL    HW131097   0.691   2.924   4.803 -2.4639 -1.0900  0.1402
 6545SOL    HW231098   0.763   2.984   4.917  1.1141 -1.6777 -2.0160
 6546SOL     OW31099   3.469   3.380   9.242  0.2490 -0.0669  0.1151
 6546SOL    HW131100   3.414   3.302   9.240  2.6764 -1.7423 -1.2957
 6546SOL    HW231101   3.504   3.375   9.331 -0.4586 -0.2578  0.3766
 6547SOL     OW31102   3.620   3.957   8.972 -0.5553 -0.2543  0.3645
 6547SOL    HW131103   3.606   3.991   9.060 -2.2309  1.0475 -0.3879
 6547SOL    HW231104   3.532   3.931   8.944 -1.4735  1.0054  2.0650
 6548SOL     OW31105   2.234   3.197   7.178  0.2031  0.2314  0.7845
 6548SOL    HW131106   2.311   3.141   7.170  0.1275  0.5199 -1.8592
 6548SOL    HW231107   2.234   3.221   7.271  1.1113 -1.5308  1.2375
 6549SOL     OW31108   1.478   0.507  14.870 -0.0037  0.3180 -0.3073
 6549SOL    HW131109   1.562   0.476  14.836 -0.2243  0.6060 -1.1174
 6549SOL    HW231110   1.498   0.601  14.867  1.5461 -0.0396 -0.9565
 6550SOL     OW31111   2.977   0.653  13.692  0.3500  0.2904 -0.0808
 6550SOL    HW131112   2.888   0.619  13.684  0.1753  1.0073 -1.2023
 6550SOL    HW231113   2.969   0.738  13.736  2.5662  1.5339 -2.1136
 6551SOL     OW31114   2.473   1.709  16.154  0.2449  0.2856  0.3407
 6551SOL    HW131115   2.423   1.756  16.221  0.2873  0.5611  0.1794
 6551SOL    HW231116   2.474   1.764  16.075  2.3326  1.4227  1.1476
 6552SOL     OW31117   2.826   0.146   3.456  0.2597  0.8530  0.6310
 6552SOL    HW131118   2.791   0.187   3.535  1.0362  0.8179  0.9876
 6552SOL    HW231119   2.775   0.198   3.394  0.0479  0.9633  0.8936
 6553SOL     OW31120   2.782   3.165  17.413 -0.0836 -0.6856 -0.2900
 6553SOL    HW131121   2.797   3.137  17.503  1.4293  0.4732 -0.1917
 6553SOL    HW231122   2.723   3.236  17.441  2.2701  1.8779 -1.8675
 6554SOL     OW31123   1.698   2.990   7.835  1.1643 -0.2787  0.1839
 6554SOL    HW131124   1.757   2.919   7.812 -0.1682 -0.7439 -1.7955
 6554SOL    HW231125   1.719   3.017   7.924 -0.7884  1.4782  0.0953
 6555SOL     OW31126   2.545   1.319   7.803 -0.1921 -0.2833 -0.1966
 6555SOL    HW131127   2.570   1.310   7.895  0.2951  2.2255 -0.1037
 6555SOL    HW231128   2.464   1.268   7.799 -1.0817  1.0887  0.3890
 6556SOL     OW31129   2.789   4.606  11.471 -0.1293 -0.6632 -0.2388
 6556SOL    HW131130   2.745   4.650  11.398 -3.2622 -1.3597  1.2300
 6556SOL    HW231131   2.879   4.598  11.442 -0.4503  1.9869 -1.9948
 6557SOL     OW31132   4.398   4.621   6.759 -0.0088 -0.2222 -0.2536
 6557SOL    HW131133   4.449   4.547   6.793  1.1189  1.0635  0.8601
 6557SOL    HW231134   4.376   4.593   6.670  0.4504 -1.7147  0.1104
 6558SOL     OW31135   4.470   3.225   9.348 -0.1517 -0.0387 -0.5569
 6558SOL    HW131136   4.449   3.179   9.430  0.9022 -2.3520 -1.5916
 6558SOL    HW231137   4.537   3.286   9.377 -0.2445  0.8013 -2.1461
 6559SOL     OW31138   0.102   1.927   6.696 -0.0980 -0.3986  0.9292
 6559SOL    HW131139   0.065   2.008   6.660  0.0177 -0.2192  1.2095
 6559SOL    HW231140   0.188   1.964   6.719  0.2340 -0.8606  0.4374
 6560SOL     OW31141   0.873   0.100  14.724 -0.0317 -0.2696 -0.5935
 6560SOL    HW131142   0.877   0.090  14.819  0.4587  1.5001 -0.4189
 6560SOL    HW231143   0.936   0.172  14.713  0.3528 -0.4586  0.4112
 6561SOL     OW31144   2.280   1.377   9.308 -0.7756 -0.7135 -0.1343
 6561SOL    HW131145   2.236   1.321   9.373 -1.2746 -0.4958 -0.2819
 6561SOL    HW231146   2.245   1.465   9.325  0.2762 -0.4575  0.6838
 6562SOL     OW31147   1.634   3.663   0.499  0.6411 -0.0194  0.1709
 6562SOL    HW131148   1.559   3.670   0.440  0.3955  0.7711  0.5712
 6562SOL    HW231149   1.703   3.707   0.450  1.3408  0.5058  1.6095
 6563SOL     OW31150   2.285   3.418  10.701 -0.2485  0.3801 -0.1095
 6563SOL    HW131151   2.210   3.362  10.680  1.2877 -0.7238 -2.7078
 6563SOL    HW231152   2.258   3.506  10.728 -0.2515  0.0252  1.0599
 6564SOL     OW31153   3.262   1.836   3.216 -0.3452  0.1114  0.3103
 6564SOL    HW131154   3.235   1.921   3.250 -0.2977 -0.5452  1.9818
 6564SOL    HW231155   3.316   1.861   3.142  1.1002 -1.1150  0.9595
 6565SOL     OW31156   3.283   1.113   9.493 -0.5742 -0.3574 -0.2362
 6565SOL    HW131157   3.221   1.178   9.526 -0.8005 -1.4904  1.5673
 6565SOL    HW231158   3.238   1.094   9.411  0.4748  0.6271 -1.0405
 6566SOL     OW31159   1.216   1.614   5.072 -0.8378  0.7351  0.3735
 6566SOL    HW131160   1.248   1.549   5.009  1.4643 -0.4193  2.7083
 6566SOL    HW231161   1.124   1.624   5.051 -0.4833 -1.7686 -2.3217
 6567SOL     OW31162   4.457   4.617   0.644  0.2433  0.1576 -0.0828
 6567SOL    HW131163   4.546   4.652   0.649 -0.3133  1.3454  1.3576
 6567SOL    HW231164   4.437   4.672   0.568  2.2973  0.9274 -0.0533
 6568SOL     OW31165   0.936   2.177   7.292 -0.5473 -0.0623 -0.9883
 6568SOL    HW131166   0.899   2.154   7.207 -1.2814  2.8692 -1.4512
 6568SOL    HW231167   1.020   2.134   7.281 -0.5815 -1.2550  3.3098
 6569SOL     OW31168   0.902   0.097   6.765 -0.4909  0.1785 -0.0354
 6569SOL    HW131169   0.976   0.057   6.809  0.9872  1.9179 -0.9580
 6569SOL    HW231170   0.896   0.184   6.805  0.6366  0.4507 -0.4758
 6570SOL     OW31171   2.342   4.495   5.860  0.1803  0.6825 -0.0173
 6570SOL    HW131172   2.333   4.476   5.766  0.2194  1.8618 -0.2684
 6570SOL    HW231173   2.417   4.440   5.883 -1.9984 -2.1998  0.1693
 6571SOL     OW31174   1.746   2.760   4.727  0.6965  0.0143 -0.1348
 6571SOL    HW131175   1.745   2.808   4.810  0.6236  1.3294 -0.8893
 6571SOL    HW231176   1.653   2.769   4.709  0.3212 -0.8494  1.4830
 6572SOL     OW31177   4.561   0.596   9.832 -0.5372 -0.1440 -0.1630
 6572SOL    HW131178   4.515   0.662   9.884  0.8135  1.1421 -0.6124
 6572SOL    HW231179   4.610   0.547   9.898  0.6212  1.6451  0.3200
 6573SOL     OW31180   2.758   2.763   8.932 -0.0360 -0.4961 -0.1222
 6573SOL    HW131181   2.742   2.817   9.010 -0.9958 -1.4014  0.3052
 6573SOL    HW231182   2.714   2.684   8.965  2.0730 -1.1848  1.0498
 6574SOL     OW31183   0.055   0.095  12.447 -0.1389 -0.9889 -0.4301
 6574SOL    HW131184   0.033   0.175  12.399  1.5998 -1.4715 -2.0348
 6574SOL    HW231185   4.700   0.097  12.504 -1.3720 -0.9344 -2.0924
 6575SOL     OW31186   1.790   2.374  16.272  0.5927  0.0476 -0.1253
 6575SOL    HW131187   1.847   2.387  16.197  1.7055 -1.0135  0.5369
 6575SOL    HW231188   1.824   2.446  16.325 -0.2015  1.1382 -1.0927
 6576SOL     OW31189   2.492   2.378   0.982  0.5803  0.6562 -0.6539
 6576SOL    HW131190   2.518   2.459   0.938 -1.5440  2.5219  1.5686
 6576SOL    HW231191   2.440   2.424   1.048 -0.3493 -0.5029 -0.5717
 6577SOL     OW31192   4.706   1.897   4.927  0.5986  0.2255  0.1628
 6577SOL    HW131193   4.681   1.985   4.955 -0.5304 -0.0420 -0.0100
 6577SOL    HW231194   0.020   1.917   4.840 -1.0769  1.5298 -0.2207
 6578SOL     OW31195   0.654   3.704  16.656 -0.3139 -0.2830  0.5935
 6578SOL    HW131196   0.747   3.725  16.664 -0.2219  0.9172 -3.4887
 6578SOL    HW231197   0.647   3.675  16.565 -1.9137 -1.5858  1.1312
 6579SOL     OW31198   2.064   0.322   0.551  0.2506 -0.4570 -0.0870
 6579SOL    HW131199   2.007   0.305   0.476  1.2031  0.0578 -0.9319
 6579SOL    HW231200   2.089   0.414   0.535 -0.6385 -0.2067 -0.0262
 6580SOL     OW31201   3.673   3.828  11.404 -0.3310  0.3202  0.4071
 6580SOL    HW131202   3.753   3.856  11.449  1.7782 -4.4399 -0.3274
 6580SOL    HW231203   3.654   3.752  11.459  1.8748 -1.2536 -0.9760
 6581SOL     OW31204   4.607   0.203   7.282  0.0412 -0.1277 -1.0384
 6581SOL    HW131205   4.647   0.215   7.196  1.6026 -0.7008 -0.4029
 6581SOL    HW231206   4.512   0.208   7.282  0.0212 -0.6188  2.1547
 6582SOL     OW31207   3.765   2.407   8.381  0.3132  0.9240 -0.3277
 6582SOL    HW131208   3.821   2.344   8.336  1.1586  0.4906  1.3579
 6582SOL    HW231209   3.710   2.356   8.439 -1.4439  1.2031 -1.7241
 6583SOL     OW31210   0.212   2.901   1.895  0.5918  0.2373  0.4119
 6583SOL    HW131211   0.297   2.941   1.880 -0.7116  1.5350 -3.4573
 6583SOL    HW231212   0.225   2.856   1.978 -0.0207 -0.1215  0.3116
 6584SOL     OW31213   0.606   2.295  14.558 -0.0179 -0.1127  0.1506
 6584SOL    HW131214   0.664   2.372  14.553 -1.6211  1.1895  1.5493
 6584SOL    HW231215   0.583   2.287  14.465  0.7504 -0.9099  0.0313
 6585SOL     OW31216   3.127   0.975   8.075  0.1236  0.1155 -0.1234
 6585SOL    HW131217   3.213   0.949   8.109 -1.3592 -1.2099  2.5724
 6585SOL    HW231218   3.141   1.069   8.084  0.1829  0.0853  0.1011
 6586SOL     OW31219   2.304   1.549  13.398 -0.0196 -0.4312  0.0692
 6586SOL    HW131220   2.297   1.622  13.336 -2.0494 -1.1801 -0.5877
 6586SOL    HW231221   2.210   1.528  13.402  0.1622 -1.3757 -0.6246
 6587SOL     OW31222   3.140   1.721  12.744  0.0308  0.1492 -0.3958
 6587SOL    HW131223   3.113   1.660  12.813 -1.3625  1.5516  0.3181
 6587SOL    HW231224   3.144   1.806  12.788  1.6759 -0.2023  0.1314
 6588SOL     OW31225   3.989   2.861   1.120  0.4030 -0.0401 -0.0297
 6588SOL    HW131226   4.014   2.943   1.163  1.1548 -1.4039  2.1330
 6588SOL    HW231227   4.071   2.825   1.088  1.2006  1.3504  0.4698
 6589SOL     OW31228   3.200   0.958   3.522 -0.2346  0.3318  0.1376
 6589SOL    HW131229   3.108   0.954   3.494  0.0283 -1.6624 -0.4702
 6589SOL    HW231230   3.216   0.868   3.550  0.4074  0.3500 -0.1722
 6590SOL     OW31231   2.540   0.403  10.596 -0.0792 -0.1855 -0.7193
 6590SOL    HW131232   2.535   0.342  10.522  1.1835 -2.0239  0.7196
 6590SOL    HW231233   2.447   0.406  10.620  0.3831  2.6899  0.7383
 6591SOL     OW31234   3.297   2.846  13.814 -0.3891 -0.1643  0.4848
 6591SOL    HW131235   3.286   2.921  13.872 -0.2441  1.2576 -1.3135
 6591SOL    HW231236   3.320   2.782  13.881 -1.8192 -0.8942  0.2702
 6592SOL     OW31237   2.770   4.119   0.577 -0.2815  0.2400  0.5800
 6592SOL    HW131238   2.813   4.193   0.619 -1.2115 -0.2117  2.3394
 6592SOL    HW231239   2.688   4.109   0.626  1.0761  3.0414  3.4412
 6593SOL     OW31240   4.237   1.780   6.853  0.0299  0.8646 -0.2780
 6593SOL    HW131241   4.239   1.798   6.947 -1.6417 -0.1027 -0.0604
 6593SOL    HW231242   4.162   1.723   6.839  0.9312  0.0170 -1.6744
 6594SOL     OW31243   2.356   1.472   8.864  0.3810  0.1057 -1.2197
 6594SOL    HW131244   2.272   1.492   8.905  1.2067 -1.5699  1.2686
 6594SOL    HW231245   2.341   1.386   8.825  0.2734 -1.1826  1.7097
 6595SOL     OW31246   1.390   0.578   2.680 -0.0806  0.0363 -0.3944
 6595SOL    HW131247   1.338   0.587   2.600  1.8298  0.5779 -1.5719
 6595SOL    HW231248   1.363   0.657   2.726 -2.6069 -3.7831  4.7214
 6596SOL     OW31249   2.636   3.679  15.499  0.5772  0.1243 -0.4076
 6596SOL    HW131250   2.633   3.757  15.444 -1.8439  0.2395 -0.1411
 6596SOL    HW231251   2.548   3.684  15.537  2.2506 -0.9247  3.6196
 6597SOL     OW31252   0.807   0.251   7.669 -0.4721 -0.5303  0.3205
 6597SOL    HW131253   0.854   0.182   7.715 -1.5090 -0.6238  1.2127
 6597SOL    HW231254   0.783   0.209   7.586  0.9266  0.9513 -0.8531
 6598SOL     OW31255   2.434   1.441   3.724  0.0259 -0.2961  0.4676
 6598SOL    HW131256   2.464   1.504   3.789  0.1294  0.1139  0.0273
 6598SOL    HW231257   2.488   1.466   3.649  1.3288 -0.2113  1.4347
 6599SOL     OW31258   4.546   4.273   6.459  0.2182 -0.0910 -0.3631
 6599SOL    HW131259   4.509   4.232   6.380  0.1479  0.1134 -0.4346
 6599SOL    HW231260   4.563   4.359   6.421  0.4633  0.2799  0.6003
 6600SOL     OW31261   1.554   3.161   6.002  0.1189 -0.4465  0.0559
 6600SOL    HW131262   1.537   3.255   5.991 -3.1110 -0.8115  2.0811
 6600SOL    HW231263   1.575   3.149   5.910  1.4521 -0.1833  0.3295
 6601SOL     OW31264   3.995   4.387  16.123  0.3586  0.2030 -0.3515
 6601SOL    HW131265   4.041   4.365  16.042 -1.9594 -1.0385 -1.3175
 6601SOL    HW231266   3.906   4.366  16.095  0.0714  3.5783 -1.9217
 6602SOL     OW31267   2.558   2.215   4.804 -0.3582  0.1932  0.0171
 6602SOL    HW131268   2.532   2.185   4.891 -0.9761 -0.2929 -0.3295
 6602SOL    HW231269   2.479   2.264   4.783 -0.2989 -0.2295 -1.1910
 6603SOL     OW31270   1.768   4.715   3.441 -0.0386 -0.0945  0.3487
 6603SOL    HW131271   1.836   4.699   3.375 -0.7547  0.1576 -0.4380
 6603SOL    HW231272   1.766   4.629   3.484 -1.4949  0.4128  1.2695
 6604SOL     OW31273   4.182   2.885   9.952  0.5282 -0.1902  0.7811
 6604SOL    HW131274   4.103   2.917   9.909  2.8646  1.1297 -2.5500
 6604SOL    HW231275   4.147   2.840  10.029 -0.1574 -0.2579  0.4263
 6605SOL     OW31276   1.249   2.250   6.991 -0.0023 -0.2143  0.6953
 6605SOL    HW131277   1.203   2.214   7.067 -0.4414 -2.2696 -0.5458
 6605SOL    HW231278   1.249   2.174   6.933  1.6931  0.8503 -0.6974
 6606SOL     OW31279   4.560   1.900  15.971  0.3377  0.2091  0.5516
 6606SOL    HW131280   4.584   1.903  16.064  0.6842  1.8616  0.3962
 6606SOL    HW231281   4.468   1.925  15.978  0.3889  0.1645  1.3827
 6607SOL     OW31282   2.797   2.430   9.376 -0.0938  0.1801 -0.0195
 6607SOL    HW131283   2.866   2.485   9.337  1.2343 -1.2274  0.3336
 6607SOL    HW231284   2.837   2.416   9.461 -0.9150 -0.8494  0.1982
 6608SOL     OW31285   1.105   0.737   4.999 -0.0132  0.4346  0.2212
 6608SOL    HW131286   1.086   0.789   4.921  1.1275  1.8355  0.8871
 6608SOL    HW231287   1.087   0.647   4.970 -1.3100  1.2454 -1.4814
 6609SOL     OW31288   4.252   3.740  17.249  0.6799 -0.9404 -0.0216
 6609SOL    HW131289   4.212   3.766  17.332  1.0973  0.9122 -0.3957
 6609SOL    HW231290   4.201   3.666  17.218 -0.1590 -0.3685 -0.0157
 6610SOL     OW31291   3.555   3.082   7.944  0.4115 -0.5411  0.1156
 6610SOL    HW131292   3.509   3.031   8.010 -2.0982  2.3612  0.6029
 6610SOL    HW231293   3.639   3.107   7.982  0.7516  0.0695 -1.0249
 6611SOL     OW31294   2.330   0.052   1.902  0.6764  0.2046  0.2705
 6611SOL    HW131295   2.390   4.701   1.889 -0.4049 -0.7929  0.8968
 6611SOL    HW231296   2.350   0.062   1.995 -1.9608 -2.4500  1.1114
 6612SOL     OW31297   3.924   4.372   7.772 -0.1487  0.2363 -0.1751
 6612SOL    HW131298   3.849   4.404   7.822 -0.9065 -2.2082  0.2422
 6612SOL    HW231299   3.933   4.448   7.715  0.6281  0.3383  0.0958
 6613SOL     OW31300   1.772   2.263  17.221  0.1449  0.0791 -0.4948
 6613SOL    HW131301   1.678   2.272  17.234  0.4935  0.0915  2.0592
 6613SOL    HW231302   1.804   2.214  17.298 -1.5349 -1.3377 -0.7075
 6614SOL     OW31303   2.098   1.238   5.118 -0.0791  0.1398  0.2353
 6614SOL    HW131304   2.082   1.331   5.105 -4.0175 -0.7131 -0.9853
 6614SOL    HW231305   2.182   1.229   5.072  0.2743  0.7985  0.7516
 6615SOL     OW31306   2.718   1.908  11.538  1.0453 -0.1123  0.0384
 6615SOL    HW131307   2.794   1.896  11.595  0.2519 -0.5036  1.0292
 6615SOL    HW231308   2.638   1.900  11.591  0.1005  1.2490 -1.1652
 6616SOL     OW31309   4.416   0.493  14.647 -0.0718 -0.4135  0.3549
 6616SOL    HW131310   4.377   0.519  14.563  0.7539 -1.7662 -0.4496
 6616SOL    HW231311   4.500   0.464  14.613  0.1476  0.6482 -0.0082
 6617SOL     OW31312   0.098   1.309   5.750  0.0481 -0.2547  0.0868
 6617SOL    HW131313   0.193   1.320   5.742  0.2531 -0.5029  2.1716
 6617SOL    HW231314   0.076   1.224   5.713 -0.7910 -0.4653  1.0839
 6618SOL     OW31315   3.206   4.387  10.747  0.8769  0.0723 -0.5029
 6618SOL    HW131316   3.136   4.405  10.810 -0.9858 -1.6211 -2.0822
 6618SOL    HW231317   3.166   4.334  10.678  0.3118 -0.5030  0.2595
 6619SOL     OW31318   2.418   2.882  10.603 -0.0533  0.4068  0.4947
 6619SOL    HW131319   2.430   2.899  10.696  1.2558  1.9093  0.0457
 6619SOL    HW231320   2.497   2.924  10.568 -1.1842  0.4428 -2.0307
 6620SOL     OW31321   1.932   0.339   8.131  0.4009 -0.3639  0.1835
 6620SOL    HW131322   1.891   0.384   8.057 -0.0035 -0.4493  0.3542
 6620SOL    HW231323   1.895   0.396   8.199  1.2102  0.8523 -0.3899
 6621SOL     OW31324   0.658   0.299  15.759 -0.3883  0.0869  0.5959
 6621SOL    HW131325   0.644   0.211  15.724 -0.2862  1.0338 -1.8858
 6621SOL    HW231326   0.748   0.300  15.725 -0.0678  0.2305  1.4461
 6622SOL     OW31327   1.787   0.991   2.602  0.7057 -0.3469  0.3989
 6622SOL    HW131328   1.831   1.071   2.573  0.9010 -0.1689  1.1789
 6622SOL    HW231329   1.792   0.944   2.519 -0.3962  0.2473 -0.0076
 6623SOL     OW31330   3.675   3.527   7.432 -0.1847  0.7187  0.1882
 6623SOL    HW131331   3.698   3.550   7.343  1.3451  0.4262  0.5068
 6623SOL    HW231332   3.581   3.507   7.432 -0.0361 -0.0622  1.4938
 6624SOL     OW31333   2.967   4.164   6.824 -0.3299  0.3597 -0.1409
 6624SOL    HW131334   3.059   4.174   6.802  0.0978 -1.0155  0.9972
 6624SOL    HW231335   2.983   4.106   6.899 -0.9031 -1.7175 -1.6145
 6625SOL     OW31336   0.972   2.953   8.169 -0.5963  0.0196  0.4094
 6625SOL    HW131337   0.878   2.962   8.185 -0.6955  2.7936 -1.5861
 6625SOL    HW231338   0.997   2.866   8.199  0.9602 -0.3074 -1.7842
 6626SOL     OW31339   1.042   3.972   2.943  0.1141  0.2069 -0.3099
 6626SOL    HW131340   1.059   4.066   2.950 -1.3618  0.5927 -1.8459
 6626SOL    HW231341   1.020   3.953   3.035 -1.6047 -0.3518 -0.8410
 6627SOL     OW31342   3.670   2.468  17.034 -0.1386  0.3186  0.3898
 6627SOL    HW131343   3.675   2.546  16.979 -0.0288  0.5003  0.6585
 6627SOL    HW231344   3.587   2.494  17.073 -1.2165 -0.5900 -1.3335
 6628SOL     OW31345   1.866   2.036   4.317 -0.0780 -0.0044 -0.0707
 6628SOL    HW131346   1.853   2.011   4.226  3.1584 -1.4748 -0.1138
 6628SOL    HW231347   1.959   2.018   4.321 -0.2253 -0.7329  0.0925
 6629SOL     OW31348   1.047   4.041  14.491  0.1194  0.1536 -0.1363
 6629SOL    HW131349   1.093   3.960  14.466  0.3996  0.8219 -1.7959
 6629SOL    HW231350   1.029   4.028  14.584 -0.5059 -0.7587 -0.3907
 6630SOL     OW31351   1.254   3.339   3.497  0.3021 -0.1853 -0.1663
 6630SOL    HW131352   1.163   3.313   3.478  0.6832 -0.1424 -2.0533
 6630SOL    HW231353   1.248   3.435   3.496  0.6180 -0.1411  4.8313
 6631SOL     OW31354   1.435   3.850   1.757 -0.6709  0.4450 -0.3040
 6631SOL    HW131355   1.398   3.916   1.816 -2.0892  1.6187 -2.4954
 6631SOL    HW231356   1.366   3.784   1.761 -0.2721  0.0278 -0.3204
 6632SOL     OW31357   4.188   0.342   5.805  0.8518 -0.0590  0.7106
 6632SOL    HW131358   4.116   0.297   5.849 -0.4451  0.2030 -1.1844
 6632SOL    HW231359   4.219   0.266   5.754  0.6192  0.3848 -0.0849
 6633SOL     OW31360   3.723   1.811  11.366  0.0048 -0.2332  0.1949
 6633SOL    HW131361   3.661   1.882  11.384  1.6745  1.2762 -0.0111
 6633SOL    HW231362   3.683   1.780  11.285  1.8375 -0.8733 -0.4755
 6634SOL     OW31363   0.467   4.545   0.607  0.0287  0.0399 -0.4139
 6634SOL    HW131364   0.464   4.570   0.700 -0.4971 -2.4316  0.2442
 6634SOL    HW231365   0.550   4.499   0.593 -0.3300 -0.0539 -2.1734
 6635SOL     OW31366   3.174   4.089  13.275 -0.0582  0.3497 -0.2027
 6635SOL    HW131367   3.190   4.023  13.207 -1.3649  1.3112 -1.4326
 6635SOL    HW231368   3.242   4.155  13.264  0.6188 -0.4444 -0.8094
 6636SOL     OW31369   2.444   3.920   6.420  0.2335  0.4430  0.1088
 6636SOL    HW131370   2.460   3.827   6.404 -0.2784  0.6274 -1.5257
 6636SOL    HW231371   2.386   3.913   6.495 -1.7487  1.6512 -1.3108
 6637SOL     OW31372   0.353   4.160   2.910 -0.5329  0.4037 -0.2865
 6637SOL    HW131373   0.413   4.232   2.888  0.6676 -0.5331 -0.0654
 6637SOL    HW231374   0.273   4.210   2.924 -0.5557  0.0464  0.8708
 6638SOL     OW31375   1.398   0.624   5.308 -0.1272 -0.3385 -0.0694
 6638SOL    HW131376   1.405   0.529   5.315 -0.1116 -0.4846 -2.2938
 6638SOL    HW231377   1.452   0.640   5.230  0.5390  1.0720  0.6621
 6639SOL     OW31378   0.613   2.583   7.554 -0.5271  0.2673  0.0119
 6639SOL    HW131379   0.681   2.558   7.617 -0.3075  0.0078 -0.3258
 6639SOL    HW231380   0.669   2.620   7.486  2.7323 -1.7917  1.6297
 6640SOL     OW31381   1.079   4.543   7.161  0.0222  0.5565 -0.0144
 6640SOL    HW131382   1.145   4.595   7.116 -0.1206 -0.6351 -1.5784
 6640SOL    HW231383   1.143   4.508   7.223 -2.8604  0.7244  3.1293
 6641SOL     OW31384   4.550   1.752   6.858 -0.3530  0.7915  0.1604
 6641SOL    HW131385   4.584   1.828   6.905  0.1465  0.4693  0.3205
 6641SOL    HW231386   4.456   1.766   6.857 -0.5006 -0.2249 -1.2085
 6642SOL     OW31387   3.320   4.202   4.304  0.0903 -0.1328  0.0085
 6642SOL    HW131388   3.262   4.156   4.244 -0.7633 -2.4883  2.6287
 6642SOL    HW231389   3.364   4.263   4.244 -0.1048 -0.0004 -0.0011
 6643SOL     OW31390   2.001   4.090  16.265 -0.2293  0.1593  0.5713
 6643SOL    HW131391   2.041   4.146  16.197 -0.9177 -1.5383 -1.2244
 6643SOL    HW231392   1.935   4.048  16.210 -0.3213  0.0767  0.7474
 6644SOL     OW31393   0.103   2.374  16.532 -0.0250  0.2294 -0.2820
 6644SOL    HW131394   0.008   2.386  16.528 -0.2326 -0.0177  4.0259
 6644SOL    HW231395   0.111   2.317  16.608  2.0456 -0.6600 -1.1642
 6645SOL     OW31396   4.202   0.915   3.897  0.0122 -0.4519 -0.2229
 6645SOL    HW131397   4.108   0.919   3.913 -0.2956 -0.3112 -2.0620
 6645SOL    HW231398   4.201   0.884   3.806 -0.6524 -1.7671  0.2243
 6646SOL     OW31399   0.951   4.003   5.378 -0.0978  0.2017 -0.2570
 6646SOL    HW131400   1.036   4.030   5.413 -0.8921  0.9163  1.1420
 6646SOL    HW231401   0.947   3.927   5.436 -2.4647  1.2169  0.9156
 6647SOL     OW31402   3.060   1.445   9.226  0.0332 -0.3928 -0.0153
 6647SOL    HW131403   3.125   1.447   9.297  0.3032  0.0846 -0.2791
 6647SOL    HW231404   3.041   1.352   9.230  1.4665 -0.6580  0.8236
 6648SOL     OW31405   3.475   0.946   1.734  0.0364 -0.3232 -0.4728
 6648SOL    HW131406   3.436   1.019   1.783  1.8501 -0.4762  1.2397
 6648SOL    HW231407   3.400   0.908   1.689 -1.7895  1.2957  1.1922
 6649SOL     OW31408   2.697   4.313   9.003  0.4683  0.0324 -0.6335
 6649SOL    HW131409   2.783   4.325   9.043  0.7931 -0.8284 -1.0871
 6649SOL    HW231410   2.639   4.299   9.078 -0.5218  0.7268 -1.2684
 6650SOL     OW31411   2.140   1.607   6.681 -0.3192  0.2452  0.4424
 6650SOL    HW131412   2.182   1.679   6.634  1.3902  0.0384  1.6667
 6650SOL    HW231413   2.216   1.572   6.727 -1.3825  0.1457  2.1286
 6651SOL     OW31414   4.220   2.402   2.992  0.0206  0.2518  0.1253
 6651SOL    HW131415   4.134   2.382   2.954  0.9875 -0.3173 -1.7337
 6651SOL    HW231416   4.284   2.396   2.922 -1.0794  0.6658 -0.9138
 6652SOL     OW31417   3.923   4.605   3.960 -0.0952 -0.3533 -0.7510
 6652SOL    HW131418   3.836   4.646   3.956 -0.6140 -1.4770 -1.1362
 6652SOL    HW231419   3.935   4.575   3.870 -0.9666  0.3904 -1.1124
 6653SOL     OW31420   2.203   2.746   4.717 -0.4121  0.2034 -0.6985
 6653SOL    HW131421   2.150   2.725   4.639 -1.5472  1.0475 -0.1518
 6653SOL    HW231422   2.264   2.811   4.682  1.1405 -0.4824  0.7763
 6654SOL     OW31423   1.859   1.846   5.270  0.5825 -0.4837 -0.1404
 6654SOL    HW131424   1.871   1.916   5.206  2.8717 -1.0389 -0.3288
 6654SOL    HW231425   1.768   1.819   5.261 -0.1406  0.9938  2.7548
 6655SOL     OW31426   2.161   2.938   9.584  0.4526 -0.1646 -0.4905
 6655SOL    HW131427   2.117   2.878   9.524  0.4939 -1.6026  0.9509
 6655SOL    HW231428   2.252   2.914   9.567  0.0549 -1.8193 -0.2733
 6656SOL     OW31429   0.304   0.523   6.602  0.3764 -0.6472 -0.2184
 6656SOL    HW131430   0.301   0.488   6.691 -1.4045 -3.3940 -1.3554
 6656SOL    HW231431   0.389   0.488   6.573  1.0041  0.6336  0.0816
 6657SOL     OW31432   1.449   1.164   8.130 -0.5519  0.1574 -0.2705
 6657SOL    HW131433   1.364   1.165   8.085 -0.5727 -0.0565 -0.2382
 6657SOL    HW231434   1.473   1.074   8.106  2.7678  0.6440  1.2646
 6658SOL     OW31435   4.418   0.526   6.247  0.1596 -0.5902 -0.1505
 6658SOL    HW131436   4.338   0.477   6.228 -0.5482  1.2231 -1.8161
 6658SOL    HW231437   4.422   0.605   6.192 -2.1963  0.6014  1.4078
 6659SOL     OW31438   3.893   1.877  17.443  0.6290 -0.0209 -0.3119
 6659SOL    HW131439   3.928   1.822  17.372  1.5909 -0.0690  0.2093
 6659SOL    HW231440   3.798   1.873  17.433  0.5182  3.2178 -0.2793
 6660SOL     OW31441   4.327   0.463   4.113 -0.5342  0.3598 -0.0329
 6660SOL    HW131442   4.370   0.538   4.071  0.4646 -1.8031 -2.9042
 6660SOL    HW231443   4.242   0.496   4.142 -1.2827 -0.6245 -1.1020
 6661SOL     OW31444   2.103   3.276  15.606 -1.0317  0.0870  0.0206
 6661SOL    HW131445   2.170   3.209  15.592 -0.8229  0.7053 -1.8838
 6661SOL    HW231446   2.111   3.288  15.700  0.0629  2.3172 -0.3662
 6662SOL     OW31447   0.274   2.028  15.683 -0.2770 -0.1417  0.4624
 6662SOL    HW131448   0.179   2.031  15.692 -0.5336 -2.0556 -1.5717
 6662SOL    HW231449   0.292   2.065  15.770  1.1971  0.3676 -0.0592
 6663SOL     OW31450   0.661   2.544   4.938 -0.2876 -0.5274 -0.3176
 6663SOL    HW131451   0.702   2.583   5.015 -0.2962  0.0482 -0.6034
 6663SOL    HW231452   0.644   2.458   4.976 -0.7622 -0.8245 -1.1833
 6664SOL     OW31453   4.287   0.814  12.079  0.1565 -0.5524 -0.1616
 6664SOL    HW131454   4.231   0.821  12.156 -2.3292  0.6865 -2.0869
 6664SOL    HW231455   4.219   0.794  12.014 -0.4203  0.6011  0.0952
 6665SOL     OW31456   0.083   3.190   8.772  0.5365 -0.1908 -0.1632
 6665SOL    HW131457   0.052   3.236   8.850 -0.3747  0.7279 -1.0620
 6665SOL    HW231458   0.158   3.246   8.754  0.4543 -0.3217 -0.8938
 6666SOL     OW31459   3.308   1.983  14.554 -0.0290 -0.1645  0.2784
 6666SOL    HW131460   3.296   1.903  14.606 -2.5087  0.5598  0.8338
 6666SOL    HW231461   3.372   2.028  14.609 -2.2428  2.8652  0.3630
 6667SOL     OW31462   1.236   4.085  13.342 -0.1831 -0.3584 -0.0568
 6667SOL    HW131463   1.324   4.115  13.362 -0.2218 -1.8902  2.5122
 6667SOL    HW231464   1.207   4.154  13.283  1.3551 -0.6085 -1.0981
 6668SOL     OW31465   1.892   0.877  16.399 -0.2794 -0.1255 -0.0818
 6668SOL    HW131466   1.903   0.964  16.360  0.3234 -0.3864 -0.5097
 6668SOL    HW231467   1.981   0.863  16.432 -0.2130  1.0095  0.1977
 6669SOL     OW31468   4.166   0.656   5.760 -0.4226 -0.0512 -0.3065
 6669SOL    HW131469   4.095   0.671   5.698 -1.0417 -0.3579  0.3275
 6669SOL    HW231470   4.151   0.562   5.773  0.7179 -0.1060  0.5780
 6670SOL     OW31471   0.439   4.635   3.532 -0.0174 -0.1404  0.1461
 6670SOL    HW131472   0.419   0.002   3.560  1.4616  0.7820 -1.6919
 6670SOL    HW231473   0.353   4.594   3.536  0.4119 -1.0529  0.1507
 6671SOL     OW31474   3.535   3.300   6.313  0.8249  0.2024  0.5389
 6671SOL    HW131475   3.537   3.275   6.221 -0.7400  1.9090  0.0362
 6671SOL    HW231476   3.615   3.351   6.322  0.6160  0.3761  1.4270
 6672SOL     OW31477   0.410   2.473   2.926 -0.2119  0.1830 -0.2163
 6672SOL    HW131478   0.441   2.478   3.017  0.9581  0.5050 -0.6286
 6672SOL    HW231479   0.396   2.566   2.909 -0.7106 -0.1243 -1.4241
 6673SOL     OW31480   2.129   2.413  16.638  0.1931  0.2648 -0.0410
 6673SOL    HW131481   2.060   2.355  16.672  0.3121  0.0769 -0.1224
 6673SOL    HW231482   2.122   2.396  16.544  0.3225 -1.1018  0.2003
 6674SOL     OW31483   2.182   3.637   2.230 -0.6163 -0.0633  0.1623
 6674SOL    HW131484   2.161   3.549   2.198 -0.9286  0.8641 -2.1942
 6674SOL    HW231485   2.095   3.678   2.225  0.1360  1.5011 -0.0292
 6675SOL     OW31486   4.354   3.736   8.370 -0.1150  0.2585 -0.3096
 6675SOL    HW131487   4.311   3.768   8.450 -1.8211 -1.2073 -0.6382
 6675SOL    HW231488   4.323   3.805   8.312 -0.1055  0.2164 -0.3644
 6676SOL     OW31489   1.845   0.546  10.927 -0.5779 -0.4734 -0.6214
 6676SOL    HW131490   1.808   0.460  10.949  1.4718 -1.2983 -0.3619
 6676SOL    HW231491   1.820   0.542  10.834  0.0669  1.1657 -0.8638
 6677SOL     OW31492   0.641   2.768   6.312  0.2600 -0.3922  0.2524
 6677SOL    HW131493   0.699   2.805   6.245  0.7997  0.8014  1.3957
 6677SOL    HW231494   0.668   2.676   6.305  0.5698 -0.5141  3.3202
 6678SOL     OW31495   2.630   4.704   7.064 -0.3560  0.4609 -0.0488
 6678SOL    HW131496   2.623   4.645   6.990 -1.3515  0.6485 -0.0957
 6678SOL    HW231497   2.536   4.707   7.082 -0.1396  0.9588  1.0072
 6679SOL     OW31498   4.601   4.069   7.928 -0.2976 -0.6019  0.4318
 6679SOL    HW131499   4.692   4.046   7.949 -0.9422 -1.6562  2.1157
 6679SOL    HW231500   4.555   4.081   8.011 -1.0797 -1.5573  0.1478
 6680SOL     OW31501   3.794   1.285   9.112 -0.5007  0.4490  0.0815
 6680SOL    HW131502   3.826   1.325   9.193 -1.4666 -0.9697  1.1739
 6680SOL    HW231503   3.781   1.195   9.141  1.8787  0.3956  0.9691
 6681SOL     OW31504   0.028   2.790   6.290 -0.7001 -0.6059 -0.0670
 6681SOL    HW131505   0.022   2.710   6.238  0.0995 -0.5330 -0.2624
 6681SOL    HW231506   4.708   2.775   6.375 -2.3997 -0.7836 -0.9284
 6682SOL     OW31507   0.064   4.315   4.027 -0.3163  0.2220  0.2222
 6682SOL    HW131508   0.126   4.242   4.030  0.6177  0.9177 -1.7337
 6682SOL    HW231509   4.719   4.281   4.086  1.0065 -0.8452  1.1084
 6683SOL     OW31510   3.521   2.226   8.903  0.2388 -0.0758  0.0335
 6683SOL    HW131511   3.588   2.293   8.886 -0.7569  0.5945 -1.2161
 6683SOL    HW231512   3.558   2.180   8.979  2.8175  1.8050 -0.0546
 6684SOL     OW31513   0.058   3.232  17.169 -0.4591 -0.4154 -0.0052
 6684SOL    HW131514   0.151   3.243  17.148 -0.5045  3.0041  1.6308
 6684SOL    HW231515   0.058   3.237  17.264 -0.7387 -0.2800 -0.0139
 6685SOL     OW31516   4.221   0.794   2.519 -0.3891 -0.1803 -0.0652
 6685SOL    HW131517   4.140   0.767   2.476  1.0472 -0.9888 -2.2244
 6685SOL    HW231518   4.182   0.850   2.587 -0.5861 -0.8610  0.3842
 6686SOL     OW31519   1.917   1.165  12.644  0.3840  0.0954  0.7768
 6686SOL    HW131520   1.907   1.110  12.722  0.2805  0.6887  1.1818
 6686SOL    HW231521   1.947   1.095  12.587  1.8116 -0.4267  2.1773
 6687SOL     OW31522   4.422   2.871   5.689 -0.3367  0.1152 -0.3758
 6687SOL    HW131523   4.388   2.943   5.636  0.8284 -0.1998 -1.5321
 6687SOL    HW231524   4.344   2.819   5.708  0.1106 -0.5962 -0.4973
 6688SOL     OW31525   2.470   2.244   3.820  0.6888  1.0130  0.0656
 6688SOL    HW131526   2.562   2.223   3.835  0.9736  1.6376 -0.7838
 6688SOL    HW231527   2.475   2.318   3.758  2.0685 -2.1929 -3.6667
 6689SOL     OW31528   3.247   4.070   8.474 -0.3796  0.1265 -0.3779
 6689SOL    HW131529   3.208   4.153   8.502 -1.5965 -0.3809 -0.5598
 6689SOL    HW231530   3.305   4.090   8.401 -1.1956  0.0425 -1.0405
 6690SOL     OW31531   1.689   4.669   6.546 -0.3631  0.0265  0.3257
 6690SOL    HW131532   1.738   4.651   6.627 -0.0439 -1.6332 -0.2208
 6690SOL    HW231533   1.670   4.578   6.522 -2.4505  0.8036 -0.9106
 6691SOL     OW31534   2.520   1.077  12.184  0.0262  0.2020  0.2356
 6691SOL    HW131535   2.479   1.021  12.118 -1.7749  0.3904  1.1882
 6691SOL    HW231536   2.546   1.158  12.141 -0.8546  1.2431  1.6317
 6692SOL     OW31537   0.874   2.874   5.029 -0.5709 -0.2017  0.0962
 6692SOL    HW131538   0.858   2.791   5.074  1.4963 -1.6134 -1.7644
 6692SOL    HW231539   0.933   2.837   4.963  0.1514  3.2183 -1.1634
 6693SOL     OW31540   0.699   0.589   7.857  0.0002 -0.7344 -0.1907
 6693SOL    HW131541   0.765   0.625   7.915  1.0741 -1.7956 -0.7610
 6693SOL    HW231542   0.745   0.593   7.774  3.6465  0.1821  1.8857
 6694SOL     OW31543   2.059   3.621   3.337 -0.5028  0.0029 -0.2900
 6694SOL    HW131544   2.047   3.681   3.263  0.8119 -0.8973 -1.2316
 6694SOL    HW231545   1.972   3.579   3.331 -0.5549  0.1279 -0.4087
 6695SOL     OW31546   0.480   3.303   4.876  0.5021  0.0603 -0.3007
 6695SOL    HW131547   0.489   3.223   4.928  0.7524 -0.6288 -1.3977
 6695SOL    HW231548   0.388   3.322   4.895  0.3187 -1.0943 -0.0838
 6696SOL     OW31549   2.534   2.664   1.853  0.3031 -0.1792  0.5340
 6696SOL    HW131550   2.532   2.573   1.824  2.2620 -0.4645  1.2795
 6696SOL    HW231551   2.511   2.651   1.945 -0.2171 -2.8780  0.0444
 6697SOL     OW31552   1.984   2.865   6.266 -0.3118  0.2610  0.0466
 6697SOL    HW131553   1.928   2.940   6.289 -1.6673 -1.2043  1.5313
 6697SOL    HW231554   2.058   2.906   6.223  1.7386 -1.3215  2.0841
 6698SOL     OW31555   1.927   4.622   1.990  0.1818  0.1503 -0.2656
 6698SOL    HW131556   1.834   4.635   2.011  0.3680 -0.9899  1.2797
 6698SOL    HW231557   1.959   4.605   2.079 -2.3759 -0.2870  0.5864
 6699SOL     OW31558   3.856   3.830  13.891 -0.1905  0.7176 -0.0896
 6699SOL    HW131559   3.940   3.835  13.937  0.1277 -1.0316 -0.4840
 6699SOL    HW231560   3.807   3.907  13.919 -1.1535 -0.1876  0.6928
 6700SOL     OW31561   1.706   3.048   8.113 -0.1404  0.4707  0.1816
 6700SOL    HW131562   1.747   3.100   8.183 -0.5333  1.0886 -0.0418
 6700SOL    HW231563   1.703   2.965   8.160 -0.8428  0.0655 -0.5840
 6701SOL     OW31564   0.050   1.123   2.448  0.7981 -0.1365 -0.5972
 6701SOL    HW131565   4.678   1.131   2.464  0.9305  0.1008  0.0531
 6701SOL    HW231566   0.036   1.106   2.354  0.9725  0.6457 -0.7596
 6702SOL     OW31567   3.159   0.693   1.861 -0.4845 -0.4352  0.2678
 6702SOL    HW131568   3.205   0.614   1.889  0.8937 -0.8477 -3.1450
 6702SOL    HW231569   3.162   0.745   1.942 -0.7606 -1.0044  0.6355
 6703SOL     OW31570   0.281   1.303   4.734  0.1193 -0.1201 -0.5644
 6703SOL    HW131571   0.266   1.395   4.711 -1.9027 -0.3308 -0.1305
 6703SOL    HW231572   0.224   1.290   4.810  2.2329  2.6695  1.4877
 6704SOL     OW31573   3.017   1.575   9.691 -0.4522  0.7536  0.8625
 6704SOL    HW131574   2.926   1.561   9.663  0.1685  0.9954 -1.3118
 6704SOL    HW231575   3.049   1.602   9.605 -2.6219  1.5619  0.3218
 6705SOL     OW31576   4.059   2.148   1.494  0.2473  0.4654  0.2013
 6705SOL    HW131577   3.979   2.099   1.479  0.8232  0.0645 -1.6127
 6705SOL    HW231578   4.059   2.155   1.590  0.0271 -1.1763  0.3289
 6706SOL     OW31579   3.622   1.882  13.565 -0.0984 -0.3538 -0.4760
 6706SOL    HW131580   3.602   1.892  13.472  0.5917 -1.3767 -0.7332
 6706SOL    HW231581   3.718   1.888  13.568 -0.1167 -1.3687  1.7193
 6707SOL     OW31582   3.419   3.592  16.021 -0.0946  0.2342 -0.4468
 6707SOL    HW131583   3.416   3.498  16.041 -3.0659 -0.0855 -2.3078
 6707SOL    HW231584   3.429   3.585  15.927  0.0475  2.0498 -0.5658
 6708SOL     OW31585   2.186   1.843   2.416  0.5746  0.0100 -0.3440
 6708SOL    HW131586   2.114   1.862   2.355  0.7060 -0.8960 -0.7796
 6708SOL    HW231587   2.129   1.825   2.491  0.5077 -0.9010 -0.6096
 6709SOL     OW31588   0.838   2.254   4.604  0.0078 -0.3242 -0.5430
 6709SOL    HW131589   0.791   2.300   4.673 -0.8457 -1.1577 -0.5723
 6709SOL    HW231590   0.796   2.296   4.529 -1.4179 -1.6975 -0.5344
 6710SOL     OW31591   3.124   1.835  14.105  0.4780  0.2735  0.8250
 6710SOL    HW131592   3.151   1.792  14.186 -2.1708 -0.0035  1.5535
 6710SOL    HW231593   3.206   1.857  14.059 -0.6523  1.4369 -0.6378
 6711SOL     OW31594   2.858   2.087  11.907 -0.2449  0.1651 -0.6124
 6711SOL    HW131595   2.830   2.111  11.995 -0.6248  2.1093 -1.2727
 6711SOL    HW231596   2.847   2.165  11.854  0.2631  0.8776  0.3181
 6712SOL     OW31597   3.959   2.301   8.579  0.3629  0.1517  0.5562
 6712SOL    HW131598   3.994   2.319   8.492  1.2666  0.1618  0.9187
 6712SOL    HW231599   3.945   2.390   8.612 -0.5787  0.1377  0.1971
 6713SOL     OW31600   1.490   0.262   4.005 -0.4491  0.2884 -0.5779
 6713SOL    HW131601   1.568   0.236   3.957 -1.5971  2.5307 -3.7293
 6713SOL    HW231602   1.425   0.192   3.995  0.1110 -0.3226  0.1240
 6714SOL     OW31603   4.082   2.569   0.803  0.6165  0.2073  0.1866
 6714SOL    HW131604   4.075   2.611   0.717  1.7775 -1.3420 -0.6663
 6714SOL    HW231605   4.073   2.480   0.769  0.1692  0.2017  0.3176
 6715SOL     OW31606   3.017   3.562   7.503  0.0279 -0.1148 -0.0440
 6715SOL    HW131607   2.970   3.590   7.424  0.6004  1.9181  0.3340
 6715SOL    HW231608   3.007   3.637   7.562 -0.2526 -0.1450 -0.0544
 6716SOL     OW31609   1.173   3.161  14.690  0.0607  0.2754 -0.5318
 6716SOL    HW131610   1.150   3.100  14.759  2.2104  0.4852  0.3862
 6716SOL    HW231611   1.158   3.098  14.619 -1.0495 -0.3519  0.2745
 6717SOL     OW31612   1.363   1.336   7.601  0.3218 -0.0850  0.5315
 6717SOL    HW131613   1.379   1.277   7.675  1.2454 -0.3620  0.1160
 6717SOL    HW231614   1.397   1.280   7.531  0.9043 -1.1108  1.6283
 6718SOL     OW31615   3.984   0.911   2.790  0.5465 -0.0407 -0.0636
 6718SOL    HW131616   4.068   0.956   2.782 -0.1201  1.3546  0.6565
 6718SOL    HW231617   3.932   0.965   2.850  0.4859  0.4164 -0.5279
 6719SOL     OW31618   1.241   0.004  10.223 -0.4796  0.8949  0.1022
 6719SOL    HW131619   1.283   4.714  10.308  1.5230 -2.2812 -1.3149
 6719SOL    HW231620   1.164   0.057  10.242 -0.6530  0.5443  0.3851
 6720SOL     OW31621   1.627   3.818   3.315 -0.0852 -0.5799  0.2362
 6720SOL    HW131622   1.679   3.767   3.252  1.1873  0.3482  0.5432
 6720SOL    HW231623   1.605   3.893   3.261 -4.5108 -1.0003  1.4942
 6721SOL     OW31624   2.283   2.807  14.655  0.2290  0.1408  0.0540
 6721SOL    HW131625   2.246   2.877  14.710 -0.9354 -1.4396  1.2583
 6721SOL    HW231626   2.377   2.806  14.670  0.0525  0.1092  1.1631
 6722SOL     OW31627   0.666   1.658   6.035 -0.0807 -0.3791 -0.4558
 6722SOL    HW131628   0.706   1.649   6.122  1.0104  0.5729 -0.8613
 6722SOL    HW231629   0.716   1.588   5.991 -0.9325 -0.7802 -0.7846
 6723SOL     OW31630   1.777   0.178   2.292 -0.7063 -0.2621 -0.0309
 6723SOL    HW131631   1.825   0.232   2.229 -0.1920 -2.1544 -1.2660
 6723SOL    HW231632   1.713   0.139   2.233  0.9986 -1.3222 -1.1753
 6724SOL     OW31633   0.190   0.383   1.340  0.1896  0.7659  0.0316
 6724SOL    HW131634   0.276   0.348   1.365 -0.2101 -1.0759 -1.0996
 6724SOL    HW231635   0.134   0.384   1.417 -1.0549 -3.3120 -0.7868
 6725SOL     OW31636   0.608   1.742   1.830  0.5122 -0.5046  0.3549
 6725SOL    HW131637   0.593   1.728   1.736  3.0408 -2.3394  0.2420
 6725SOL    HW231638   0.519   1.749   1.865 -0.5396  0.7506 -2.5230
 6726SOL     OW31639   0.804   2.572  16.297  0.7139  0.3124 -0.7910
 6726SOL    HW131640   0.763   2.657  16.311  1.7023  0.4440  1.4028
 6726SOL    HW231641   0.837   2.549  16.384 -3.2363 -0.8405  0.3828
 6727SOL     OW31642   4.674   4.185   3.793 -0.1083 -0.4210  0.0233
 6727SOL    HW131643   4.719   4.243   3.855 -0.5809 -0.8791  0.7889
 6727SOL    HW231644   4.628   4.254   3.746  0.8175  0.1200 -0.0777
 6728SOL     OW31645   4.369   4.058   7.684 -0.1440 -0.2977 -0.3262
 6728SOL    HW131646   4.410   3.988   7.634  0.6638  0.2022 -0.3577
 6728SOL    HW231647   4.448   4.112   7.690 -0.9338  0.6522  1.4680
 6729SOL     OW31648   3.520   2.085  16.822  0.1130 -0.0615  0.2581
 6729SOL    HW131649   3.607   2.066  16.785 -0.7515 -2.4390 -0.5966
 6729SOL    HW231650   3.471   2.126  16.751  0.9284 -0.1718 -0.3844
 6730SOL     OW31651   1.431   2.203  11.121  0.4822 -0.8476 -0.2722
 6730SOL    HW131652   1.472   2.120  11.099  0.0761 -1.1380  0.0680
 6730SOL    HW231653   1.378   2.176  11.196 -0.0265 -1.9928 -1.0456
 6731SOL     OW31654   4.513   4.663   7.511  0.2371  0.0373 -0.1106
 6731SOL    HW131655   4.601   4.698   7.500  0.5512 -1.0919 -1.1943
 6731SOL    HW231656   4.493   4.635   7.422 -0.6455  1.4293 -0.3486
 6732SOL     OW31657   1.163   3.446   6.857  0.7435 -0.2173 -0.3821
 6732SOL    HW131658   1.138   3.500   6.933  0.8768 -1.4651  0.5443
 6732SOL    HW231659   1.212   3.377   6.901  1.3065 -0.7002 -1.7763
 6733SOL     OW31660   4.587   1.189  11.228 -0.2349  0.0336 -0.4677
 6733SOL    HW131661   4.665   1.153  11.186  1.0363  0.7382  1.2767
 6733SOL    HW231662   4.528   1.195  11.153  0.7807 -3.1837 -1.5581
 6734SOL     OW31663   1.042   1.786  16.141  0.5489  0.5607 -0.0873
 6734SOL    HW131664   1.028   1.840  16.063 -1.9174 -1.0811 -0.7917
 6734SOL    HW231665   1.088   1.848  16.197  2.4964  0.8484 -2.0109
 6735SOL     OW31666   2.450   1.602  12.403 -0.1820 -0.0684  0.2104
 6735SOL    HW131667   2.400   1.580  12.325 -0.3019  1.1537 -0.0581
 6735SOL    HW231668   2.385   1.607  12.474  0.9797 -1.9373  1.3994
 6736SOL     OW31669   0.953   2.599   1.629  0.5071 -0.2457 -0.3715
 6736SOL    HW131670   1.007   2.613   1.550 -2.0446 -0.0224 -2.0718
 6736SOL    HW231671   0.876   2.553   1.595  1.2566 -1.0996 -0.9238
 6737SOL     OW31672   3.090   0.643  11.279 -0.5232 -0.2425 -0.5752
 6737SOL    HW131673   3.148   0.594  11.221  0.7209 -0.0937  0.5649
 6737SOL    HW231674   3.007   0.636  11.231 -1.7078  1.6809  1.2117
 6738SOL     OW31675   2.264   0.314   0.733  0.2620 -0.5131 -0.0323
 6738SOL    HW131676   2.260   0.226   0.769 -1.0442  0.6561  2.6440
 6738SOL    HW231677   2.192   0.313   0.671 -0.4705  1.7252  0.7844
 6739SOL     OW31678   4.596   1.127  11.538  0.1559 -0.0141  0.0371
 6739SOL    HW131679   4.682   1.097  11.567 -0.8827 -0.9755  2.1460
 6739SOL    HW231680   4.560   1.050  11.494 -0.5918  1.0404 -1.1985
 6740SOL     OW31681   0.001   3.962  13.323 -0.3480  0.1014 -0.3746
 6740SOL    HW131682   0.090   3.931  13.336 -1.0219 -1.2925  0.8215
 6740SOL    HW231683   0.017   4.055  13.303 -0.2025  0.3241  0.7875
 6741SOL     OW31684   0.019   4.510   8.258  0.1797  0.1734 -0.1581
 6741SOL    HW131685   4.657   4.479   8.224  0.5415 -1.1943  0.2066
 6741SOL    HW231686   0.014   4.497   8.353 -0.3783 -0.4221 -0.2662
 6742SOL     OW31687   0.731   2.966   7.195 -0.2065 -0.8953 -0.5817
 6742SOL    HW131688   0.642   2.984   7.226  0.2270 -0.7775  0.6065
 6742SOL    HW231689   0.728   2.871   7.184 -0.5120 -0.8501 -0.8798
 6743SOL     OW31690   3.168   0.718   3.652 -0.8673  0.0329 -0.1786
 6743SOL    HW131691   3.089   0.757   3.690 -1.3205 -1.1814  0.1238
 6743SOL    HW231692   3.191   0.651   3.716 -1.7558 -1.8249 -1.8063
 6744SOL     OW31693   3.819   3.292   1.241  0.2996  0.8278 -0.4716
 6744SOL    HW131694   3.816   3.201   1.212  0.5554  0.7697 -0.3195
 6744SOL    HW231695   3.891   3.336   1.196  0.4126  2.2580  1.1204
 6745SOL     OW31696   4.423   2.465   8.416  0.6602 -0.1833  0.5882
 6745SOL    HW131697   4.352   2.528   8.412 -2.3388 -3.5266  0.8556
 6745SOL    HW231698   4.488   2.515   8.367 -1.1617  1.6745  0.1174
 6746SOL     OW31699   2.101   4.406   3.400 -0.9427  0.6359 -0.2060
 6746SOL    HW131700   2.032   4.471   3.386 -0.3428  1.2457 -0.3419
 6746SOL    HW231701   2.047   4.328   3.408 -0.8286  0.4794 -0.9393
 6747SOL     OW31702   2.131   1.967   4.341 -0.3376  0.1399 -0.8443
 6747SOL    HW131703   2.140   1.872   4.332 -1.0341 -0.2465  2.7733
 6747SOL    HW231704   2.219   1.996   4.362  0.5369 -3.1785  0.0043
 6748SOL     OW31705   2.530   1.539   4.542 -0.6313  0.3120 -0.0298
 6748SOL    HW131706   2.600   1.474   4.538 -1.1845 -0.0631 -3.2458
 6748SOL    HW231707   2.517   1.540   4.447 -1.5095 -2.7220  0.0677
 6749SOL     OW31708   1.826   4.610   4.743 -0.2619  0.4955  0.7091
 6749SOL    HW131709   1.833   4.693   4.792 -1.8855  0.4629  0.9832
 6749SOL    HW231710   1.737   4.579   4.757 -0.8888  1.7611 -0.4704
 6750SOL     OW31711   2.393   1.609   1.984  0.3357 -0.1823 -0.2821
 6750SOL    HW131712   2.473   1.660   1.971 -0.8757  0.7099 -4.1674
 6750SOL    HW231713   2.329   1.679   1.989  0.0347 -0.4775  0.0109
 6751SOL     OW31714   4.119   1.676   1.092 -0.0829  0.0052  0.2834
 6751SOL    HW131715   4.204   1.697   1.052  2.3656 -1.6927  4.6360
 6751SOL    HW231716   4.064   1.672   1.014  1.4573 -2.2302 -0.7064
 6752SOL     OW31717   3.553   1.661   2.027 -0.5908  0.3068 -0.4937
 6752SOL    HW131718   3.563   1.725   1.956 -0.0954 -1.2235 -1.8127
 6752SOL    HW231719   3.499   1.710   2.089 -1.2594 -0.1653 -0.6958
 6753SOL     OW31720   0.680   2.878  14.942 -0.2528 -0.2604  0.0596
 6753SOL    HW131721   0.646   2.829  15.017 -1.7590 -0.5212 -0.7879
 6753SOL    HW231722   0.609   2.867  14.878 -0.8988 -0.0057  0.7328
 6754SOL     OW31723   0.012   1.350  16.537 -0.1688  0.1214 -0.4473
 6754SOL    HW131724   0.081   1.347  16.470  0.0818 -1.6226 -0.1331
 6754SOL    HW231725   0.066   1.323  16.611 -0.8168 -1.1052 -0.4102
 6755SOL     OW31726   2.769   4.667   4.621 -0.3295 -0.2371  0.4314
 6755SOL    HW131727   2.683   4.646   4.659 -0.7105  0.1204 -0.2339
 6755SOL    HW231728   2.779   0.040   4.626 -0.8943 -0.1399 -0.2576
 6756SOL     OW31729   3.358   1.873   8.507  0.1274  0.7295  0.1130
 6756SOL    HW131730   3.435   1.924   8.530  1.4063 -1.3437  0.4368
 6756SOL    HW231731   3.309   1.920   8.440 -0.1726 -0.5555 -0.5696
 6757SOL     OW31732   1.993   3.148   7.585 -0.1956  0.1136 -0.2648
 6757SOL    HW131733   2.038   3.064   7.577 -1.7467 -0.5250 -2.1350
 6757SOL    HW231734   1.902   3.129   7.565 -0.0175 -0.7270 -0.2769
 6758SOL     OW31735   1.490   3.790   9.513 -0.3977 -0.4500 -0.3892
 6758SOL    HW131736   1.450   3.873   9.491 -1.2456 -1.4693 -2.6799
 6758SOL    HW231737   1.430   3.763   9.582 -2.7491  1.4132 -1.7219
 6759SOL     OW31738   3.722   0.582  13.434 -0.4089 -0.1921 -0.1922
 6759SOL    HW131739   3.776   0.510  13.467 -0.0115 -0.5661 -1.6670
 6759SOL    HW231740   3.668   0.592  13.512 -0.0298 -0.0461  0.0534
 6760SOL     OW31741   4.530   3.703  11.547  0.1566 -0.0142 -0.3333
 6760SOL    HW131742   4.469   3.632  11.566  0.7792 -0.5894 -0.4835
 6760SOL    HW231743   4.602   3.668  11.600 -2.5214 -1.1575  2.5002
 6761SOL     OW31744   4.255   3.166  10.992  0.3357 -0.2720 -0.1493
 6761SOL    HW131745   4.299   3.160  10.908  0.8571  1.0477  0.0321
 6761SOL    HW231746   4.263   3.075  11.018 -0.2722 -0.0506  0.8294
 6762SOL     OW31747   1.347   2.836  12.740  0.2925 -0.0515 -0.1333
 6762SOL    HW131748   1.355   2.931  12.740 -0.0168 -0.0140 -1.7454
 6762SOL    HW231749   1.265   2.814  12.783  0.4118  0.2092  0.2175
 6763SOL     OW31750   0.212   2.302   3.847 -0.6045 -0.0998  0.3837
 6763SOL    HW131751   0.188   2.319   3.755 -2.0808 -1.0944  0.5720
 6763SOL    HW231752   0.264   2.222   3.845  2.1531  1.7068 -0.2987
 6764SOL     OW31753   3.805   1.260   0.410  0.1331 -0.0172  0.6667
 6764SOL    HW131754   3.885   1.262   0.464  0.0174  0.3407  0.8291
 6764SOL    HW231755   3.837   1.283   0.322  0.6122  3.6009  1.7663
 6765SOL     OW31756   1.475   1.843   6.313 -0.8986  0.2519  0.4798
 6765SOL    HW131757   1.471   1.935   6.290  0.2001  0.1874  0.0106
 6765SOL    HW231758   1.511   1.840   6.402  2.8157 -0.6610 -1.0678
 6766SOL     OW31759   0.395   4.678   5.127 -0.6160 -0.3871 -0.7012
 6766SOL    HW131760   0.488   4.656   5.128 -0.5269 -0.2847 -4.1222
 6766SOL    HW231761   0.353   4.625   5.194  0.6779  0.4041  0.7175
 6767SOL     OW31762   2.479   2.062  15.594  0.6765 -0.7909  0.2104
 6767SOL    HW131763   2.504   1.971  15.609  1.0799 -0.9228 -1.2668
 6767SOL    HW231764   2.563   2.108  15.587  0.5240 -0.6732 -0.8410
 6768SOL     OW31765   4.648   4.402   5.803 -0.4452 -0.2715  0.1343
 6768SOL    HW131766   4.699   4.391   5.722  0.9776  2.0548  0.7260
 6768SOL    HW231767   4.637   4.496   5.818 -0.6568  0.2786 -3.4795
 6769SOL     OW31768   0.226   2.747   9.497 -0.1959 -0.2647 -0.1855
 6769SOL    HW131769   0.150   2.805   9.495 -0.1440 -0.2011 -0.3322
 6769SOL    HW231770   0.209   2.703   9.413 -0.7907 -1.2499  0.4507
 6770SOL     OW31771   0.657   0.900   5.242  0.3028 -0.4032 -0.0660
 6770SOL    HW131772   0.562   0.914   5.239  0.1686 -0.7120  2.9270
 6770SOL    HW231773   0.682   0.974   5.297  1.3561 -1.0041  0.2550
 6771SOL     OW31774   0.508   2.717   8.629  0.5703 -0.4033 -0.2552
 6771SOL    HW131775   0.442   2.777   8.663  1.0693  1.0220 -1.8496
 6771SOL    HW231776   0.446   2.644   8.622  1.4489 -1.3405  1.7501
 6772SOL     OW31777   1.620   0.185   6.712 -0.0280 -0.0756  0.2023
 6772SOL    HW131778   1.652   0.127   6.643 -0.1594  0.9176 -0.6902
 6772SOL    HW231779   1.652   0.270   6.682  0.2982 -0.2425  0.0734
 6773SOL     OW31780   2.624   1.329   6.684  0.1226 -0.0475  0.2039
 6773SOL    HW131781   2.687   1.342   6.755 -0.5673  0.7304  0.6700
 6773SOL    HW231782   2.659   1.249   6.646  1.5964  0.9637 -0.5563
 6774SOL     OW31783   2.058   3.426   5.064 -0.4920  0.4011 -0.1427
 6774SOL    HW131784   2.147   3.453   5.042  0.3497 -1.3408  1.0976
 6774SOL    HW231785   2.024   3.431   4.974 -0.9020 -0.6840 -0.0395
 6775SOL     OW31786   4.659   4.250   3.449  0.2664  0.5076  0.6794
 6775SOL    HW131787   4.598   4.266   3.377 -0.8165  0.0942  1.5026
 6775SOL    HW231788   4.650   4.156   3.468 -0.6637  0.2138 -1.1557
 6776SOL     OW31789   4.591   4.175   2.412  0.7900  0.2873  0.6180
 6776SOL    HW131790   4.663   4.186   2.476  2.7358 -2.4386 -1.1328
 6776SOL    HW231791   4.527   4.238   2.444  0.0051  0.7995 -1.9967
 6777SOL     OW31792   3.097   1.610   3.229 -0.3670  0.4921  0.3476
 6777SOL    HW131793   3.146   1.555   3.167 -1.5785 -1.0579  0.7530
 6777SOL    HW231794   3.167   1.673   3.245  0.5157 -0.0809 -1.1825
 6778SOL     OW31795   1.060   4.090   1.222  0.5631 -0.6567  0.2699
 6778SOL    HW131796   1.054   4.184   1.203 -0.0429 -0.6349  0.5995
 6778SOL    HW231797   1.029   4.053   1.140  2.0982 -0.6246 -0.3303
 6779SOL     OW31798   3.247   3.612   2.098 -0.2237  0.0898 -0.2110
 6779SOL    HW131799   3.324   3.626   2.043 -0.3792  0.6914 -0.2753
 6779SOL    HW231800   3.198   3.692   2.077  0.6892  0.5686 -0.4979
 6780SOL     OW31801   1.004   2.765   6.531  0.2586 -0.3449 -0.1751
 6780SOL    HW131802   0.927   2.810   6.566  1.3925 -0.8912  3.0949
 6780SOL    HW231803   1.020   2.799   6.443  0.4355 -0.7546 -0.3023
 6781SOL     OW31804   3.732   2.516  17.377 -0.2876 -0.1111  0.2305
 6781SOL    HW131805   3.711   2.571  17.453 -0.9748  0.9672 -0.7535
 6781SOL    HW231806   3.700   2.435  17.417 -2.2931 -0.5432 -2.3032
 6782SOL     OW31807   1.682   3.390  17.413  0.1108 -0.2323 -0.0463
 6782SOL    HW131808   1.649   3.384  17.324 -0.4607  0.9496  0.0838
 6782SOL    HW231809   1.751   3.324  17.416  0.2102 -0.0922  0.7173
 6783SOL     OW31810   3.965   3.630   7.654 -0.2481  0.2255 -0.0850
 6783SOL    HW131811   3.947   3.673   7.571 -1.3559 -0.5509 -0.2515
 6783SOL    HW231812   3.971   3.704   7.714 -1.6222  0.3944 -0.1535
 6784SOL     OW31813   2.826   1.981  14.456 -0.2806 -0.2418  0.1023
 6784SOL    HW131814   2.841   1.952  14.546 -1.6537 -0.5455  0.2341
 6784SOL    HW231815   2.848   2.074  14.465 -1.4625 -0.0009  0.5612
 6785SOL     OW31816   2.011   0.685   7.093 -0.8462 -0.3370 -0.4100
 6785SOL    HW131817   2.065   0.738   7.033 -0.4380  0.4023  0.6029
 6785SOL    HW231818   2.059   0.713   7.171 -0.3134 -0.9228 -0.5282
 6786SOL     OW31819   3.105   0.573   1.522 -0.0742  0.0262 -0.2053
 6786SOL    HW131820   3.083   0.655   1.479 -0.6425  1.8393  3.6157
 6786SOL    HW231821   3.040   0.571   1.592 -0.5067 -2.2052 -0.6570
 6787SOL     OW31822   3.579   1.094   5.799 -0.5617  0.6485  0.0537
 6787SOL    HW131823   3.521   1.019   5.809 -2.2701  2.0122  0.4490
 6787SOL    HW231824   3.592   1.104   5.704  1.2856  1.0260  0.3458
 6788SOL     OW31825   4.555   1.923   8.472  0.2686 -0.2021 -0.1570
 6788SOL    HW131826   4.545   1.875   8.391 -0.8509 -0.0210 -0.1266
 6788SOL    HW231827   4.498   2.000   8.466 -0.9743 -1.3778 -2.8873
 6789SOL     OW31828   3.393   0.387  13.552  0.0885 -0.0917 -0.1518
 6789SOL    HW131829   3.445   0.466  13.562  0.4611 -0.3767  0.1888
 6789SOL    HW231830   3.306   0.419  13.576 -0.6164 -0.7068 -1.9148
 6790SOL     OW31831   2.330   3.479  10.094 -0.0121  0.0717  0.6017
 6790SOL    HW131832   2.379   3.521  10.024 -0.0871 -0.5678  0.1598
 6790SOL    HW231833   2.241   3.477  10.060  0.4239  1.5656 -0.6183
 6791SOL     OW31834   2.672   0.391   1.687 -0.5144  0.1787 -0.3030
 6791SOL    HW131835   2.716   0.310   1.712 -1.1489  0.4069  1.5196
 6791SOL    HW231836   2.585   0.363   1.659 -1.5101  1.6332  1.3431
 6792SOL     OW31837   2.049   0.524   2.131  0.2866 -0.0096  0.4615
 6792SOL    HW131838   1.959   0.527   2.096  1.1375  0.3004 -1.7166
 6792SOL    HW231839   2.100   0.546   2.053 -1.2080 -0.4550 -0.6446
 6793SOL     OW31840   3.675   0.726   2.654  0.1675  0.2041 -0.5699
 6793SOL    HW131841   3.671   0.820   2.671  2.6332 -0.0740  1.6874
 6793SOL    HW231842   3.609   0.708   2.588 -0.8009  0.7568  0.2437
 6794SOL     OW31843   0.620   4.452   3.483  0.2533  0.2588 -0.0721
 6794SOL    HW131844   0.555   4.521   3.490  0.5444  0.6069 -0.7472
 6794SOL    HW231845   0.567   4.375   3.460  2.6701 -1.5816  0.5439
 6795SOL     OW31846   2.777   1.566  13.485 -0.1239 -0.4412  0.3251
 6795SOL    HW131847   2.805   1.488  13.532 -0.8002  0.4233  2.1806
 6795SOL    HW231848   2.788   1.634  13.551  2.7472  0.3672 -0.9587
 6796SOL     OW31849   4.137   4.384   3.160  0.6768 -0.1916  0.0357
 6796SOL    HW131850   4.163   4.466   3.203  0.3448  0.0339 -0.1891
 6796SOL    HW231851   4.138   4.416   3.069  1.2623  2.5008  1.0000
 6797SOL     OW31852   1.666   4.132   4.145  0.3526  0.0401 -0.1861
 6797SOL    HW131853   1.602   4.166   4.208  0.7677  1.4700 -0.5363
 6797SOL    HW231854   1.615   4.085   4.079 -0.2932 -0.2095  0.4901
 6798SOL     OW31855   4.276   1.445   2.874 -0.3345  0.2102 -0.1201
 6798SOL    HW131856   4.333   1.511   2.913  2.1454  0.2878 -3.8820
 6798SOL    HW231857   4.234   1.499   2.807 -0.6443 -0.8852 -0.8043
 6799SOL     OW31858   3.427   4.010  15.308  0.1490 -0.1342  0.1464
 6799SOL    HW131859   3.474   4.080  15.353 -0.8223  0.7000 -0.1432
 6799SOL    HW231860   3.430   4.039  15.217  1.4323 -1.6385 -0.2863
 6800SOL     OW31861   2.782   2.555  14.816  0.1330 -0.2704 -0.4086
 6800SOL    HW131862   2.842   2.487  14.784  2.8392  0.1673  3.6341
 6800SOL    HW231863   2.810   2.628  14.761 -1.6524  1.5213  1.0577
 6801SOL     OW31864   0.192   4.060  14.006 -0.2550 -0.2671 -0.4903
 6801SOL    HW131865   0.205   4.096  14.094 -0.3263  0.5086 -0.8012
 6801SOL    HW231866   0.128   4.124  13.975 -1.3019 -0.0908  1.9620
 6802SOL     OW31867   4.399   2.467   0.314 -0.3661  0.3769  0.8964
 6802SOL    HW131868   4.372   2.430   0.231  0.4197  3.2440 -0.6596
 6802SOL    HW231869   4.451   2.391   0.339 -0.0946  0.3923  0.3791
 6803SOL     OW31870   4.244   0.810   1.752  0.1954  0.5405  0.8990
 6803SOL    HW131871   4.314   0.875   1.751 -0.5050  1.2815  1.0454
 6803SOL    HW231872   4.264   0.787   1.661 -0.7293 -0.7306  1.0139
 6804SOL     OW31873   0.694   0.838   5.584 -0.4190 -0.2496  0.3058
 6804SOL    HW131874   0.710   0.831   5.490  0.6621  1.1764  0.3749
 6804SOL    HW231875   0.701   0.933   5.592  0.4786 -0.4766  2.1078
 6805SOL     OW31876   1.496   2.752   6.441  0.0006 -0.4837 -0.0309
 6805SOL    HW131877   1.440   2.731   6.516 -1.7632 -1.4251 -1.6225
 6805SOL    HW231878   1.487   2.669   6.395 -0.6229  0.2563 -1.2235
 6806SOL     OW31879   3.694   1.545   2.241 -0.5695  0.3191 -0.4751
 6806SOL    HW131880   3.664   1.574   2.155 -2.4666  2.1848  0.8199
 6806SOL    HW231881   3.639   1.601   2.296 -1.0694 -1.6714  1.0599
 6807SOL     OW31882   3.812   1.860  10.713 -0.4675  0.1264  0.3661
 6807SOL    HW131883   3.808   1.782  10.657 -0.6416  0.5463 -0.2038
 6807SOL    HW231884   3.902   1.892  10.708  0.1310 -1.2398  2.2215
 6808SOL     OW31885   1.712   2.047  17.610  0.1872  0.2778  0.3766
 6808SOL    HW131886   1.668   2.132  17.616 -1.5419 -0.6022  0.0366
 6808SOL    HW231887   1.653   2.000  17.668  1.1072 -1.0212  0.2556
 6809SOL     OW31888   3.725   0.848   1.807  0.4503  0.1360  0.7144
 6809SOL    HW131889   3.763   0.935   1.821 -0.0611  0.3839  0.5499
 6809SOL    HW231890   3.632   0.872   1.802  0.4597 -0.4441 -2.1480
 6810SOL     OW31891   2.834   1.289   4.050  0.2600 -0.2972 -0.3560
 6810SOL    HW131892   2.743   1.270   4.025  0.6989 -1.0079 -1.4102
 6810SOL    HW231893   2.837   1.251   4.138 -0.4061  0.9931  0.2302
 6811SOL     OW31894   0.022   1.430   7.549  0.0927 -0.3683 -0.6493
 6811SOL    HW131895   0.113   1.409   7.527  0.3063  0.7749 -0.8655
 6811SOL    HW231896   0.020   1.525   7.552  2.1879 -0.3407 -0.0829
 6812SOL     OW31897   4.060   0.561   3.796  0.0610  0.5255 -0.7926
 6812SOL    HW131898   3.965   0.567   3.793 -0.2443 -3.3331  1.2331
 6812SOL    HW231899   4.083   0.653   3.813 -1.8615  0.7617  0.5091
 6813SOL     OW31900   1.372   3.230   6.723 -0.1089  0.2015 -0.1466
 6813SOL    HW131901   1.424   3.239   6.643 -0.0699 -2.3432 -0.4015
 6813SOL    HW231902   1.283   3.228   6.689  0.0203 -0.7577 -0.4273
 6814SOL     OW31903   0.794   3.810   4.277 -0.0854 -0.0275  0.4682
 6814SOL    HW131904   0.795   3.758   4.358  1.9958 -1.0906 -0.2582
 6814SOL    HW231905   0.884   3.840   4.267  0.0479 -0.2851  0.8599
 6815SOL     OW31906   4.177   3.937   3.322  0.5829  0.5741  0.3569
 6815SOL    HW131907   4.231   3.937   3.243  0.9308 -0.3421  0.5927
 6815SOL    HW231908   4.147   4.028   3.323  1.2108  0.7718  0.7493
 6816SOL     OW31909   2.649   2.569   4.754  0.9241 -0.5369 -0.3583
 6816SOL    HW131910   2.589   2.538   4.822 -0.8198  2.9293 -0.3329
 6816SOL    HW231911   2.723   2.517   4.786 -0.5972 -1.8567  1.0473
 6817SOL     OW31912   3.350   4.450   7.479 -0.2042 -0.2108 -0.2093
 6817SOL    HW131913   3.418   4.512   7.507  0.1884 -0.9207  0.4236
 6817SOL    HW231914   3.296   4.443   7.558  1.5770  0.8276  1.1034
 6818SOL     OW31915   1.322   3.848  14.673  0.1772  0.2948 -0.0670
 6818SOL    HW131916   1.384   3.814  14.608  2.2518 -0.3406  2.2439
 6818SOL    HW231917   1.238   3.815  14.642  0.9767 -0.6875 -1.1794
 6819SOL     OW31918   4.345   3.651   0.291 -0.5453 -0.4037  0.5002
 6819SOL    HW131919   4.440   3.646   0.300 -1.0901 -2.7137  4.9404
 6819SOL    HW231920   4.328   3.731   0.341  0.0159 -1.2147  1.9956
 6820SOL     OW31921   3.389   0.378   5.537  0.2915 -0.6331  0.5566
 6820SOL    HW131922   3.325   0.315   5.570  0.8652 -2.3187 -1.5907
 6820SOL    HW231923   3.468   0.328   5.560  0.1546 -1.9949 -1.9472
 6821SOL     OW31924   3.737   2.660  11.509  1.3263 -0.3545  0.2655
 6821SOL    HW131925   3.802   2.653  11.579  1.0065  0.4622  0.6495
 6821SOL    HW231926   3.796   2.693  11.442  0.8180 -1.8070 -0.8968
 6822SOL     OW31927   3.899   0.034  15.524 -0.3817 -0.2058  0.6719
 6822SOL    HW131928   3.830   0.052  15.461 -1.7401 -0.7205  1.9987
 6822SOL    HW231929   3.881   4.662  15.535  3.4153 -0.9990  0.1525
 6823SOL     OW31930   2.161   0.324   5.496  0.5993  0.3268 -0.5028
 6823SOL    HW131931   2.082   0.275   5.476  0.4994  0.3706 -0.2201
 6823SOL    HW231932   2.206   0.277   5.566  0.2915  1.2745  0.3350
 6824SOL     OW31933   0.231   2.265  10.635  0.5170  0.1929 -0.3835
 6824SOL    HW131934   0.313   2.218  10.647 -0.1113 -1.5417 -3.0245
 6824SOL    HW231935   0.235   2.284  10.541  0.3331  1.3986 -0.1467
 6825SOL     OW31936   1.653   2.167   4.399 -0.1001  0.2939 -0.0407
 6825SOL    HW131937   1.633   2.130   4.485 -0.9618  1.7630  0.3788
 6825SOL    HW231938   1.728   2.114   4.372  1.8403  3.1323 -0.1330
 6826SOL     OW31939   4.496   3.406   2.322 -0.1972 -0.1480  0.1669
 6826SOL    HW131940   4.489   3.398   2.227 -1.0796 -1.5014  0.3480
 6826SOL    HW231941   4.550   3.485   2.326  0.3231 -0.5150  0.4614
 6827SOL     OW31942   3.280   0.214   7.974 -0.0372 -0.3372 -0.5004
 6827SOL    HW131943   3.197   0.168   7.959  0.1638 -0.7794 -0.2426
 6827SOL    HW231944   3.348   0.148   7.986  0.1455 -0.1226 -0.3538
 6828SOL     OW31945   3.087   1.299  11.842 -1.0200 -0.5423 -0.2944
 6828SOL    HW131946   3.088   1.301  11.746 -2.5066  1.4036 -0.2691
 6828SOL    HW231947   3.129   1.218  11.871 -1.5762  0.2051  2.5466
 6829SOL     OW31948   2.290   2.200   0.506  0.6237  0.6328 -0.0481
 6829SOL    HW131949   2.347   2.218   0.581  1.4288  0.6725 -0.6673
 6829SOL    HW231950   2.218   2.259   0.529  0.0792  0.6305 -1.7575
 6830SOL     OW31951   4.611   1.853   0.716  0.0385  0.6527 -0.0605
 6830SOL    HW131952   4.705   1.860   0.733  0.3427  0.3943 -1.5639
 6830SOL    HW231953   4.591   1.933   0.668 -1.9309 -0.0908 -0.4899
 6831SOL     OW31954   0.866   3.669   9.120 -0.1036 -0.2790 -0.4688
 6831SOL    HW131955   0.937   3.733   9.129  0.2096 -1.1336  3.0086
 6831SOL    HW231956   0.868   3.637   9.030  1.6768 -0.2546 -0.4393
 6832SOL     OW31957   4.637   0.395   5.325  0.3136 -0.1875  0.2961
 6832SOL    HW131958   4.662   0.321   5.381 -1.1916 -1.3142 -0.5145
 6832SOL    HW231959   4.640   0.362   5.235  1.5268  0.8828 -0.0470
 6833SOL     OW31960   0.766   1.740   7.508  0.3920  0.1692 -0.0819
 6833SOL    HW131961   0.822   1.663   7.512 -1.2810 -1.0753 -0.5243
 6833SOL    HW231962   0.724   1.728   7.422  0.1309  0.1990  0.0395
 6834SOL     OW31963   1.549   2.335   3.334  0.4906 -0.0737  0.9914
 6834SOL    HW131964   1.475   2.382   3.295  0.5426  0.6011  1.7313
 6834SOL    HW231965   1.602   2.303   3.261 -0.1453  0.0110  0.4849
 6835SOL     OW31966   1.444   3.308   5.514 -0.1725 -0.0736  0.1640
 6835SOL    HW131967   1.379   3.375   5.494 -0.2223  0.0178  0.6157
 6835SOL    HW231968   1.397   3.276   5.592  0.2738  2.4422  1.4735
 6836SOL     OW31969   0.182   0.284  12.224  0.0938  0.4848 -0.6150
 6836SOL    HW131970   0.159   0.317  12.311  0.7397 -0.5232 -0.0609
 6836SOL    HW231971   0.097   0.297  12.182  0.1346  3.6843  0.2635
 6837SOL     OW31972   4.024   0.476   2.656  0.3743  0.5399 -0.1645
 6837SOL    HW131973   4.036   0.571   2.657 -0.5378  0.6612 -0.4835
 6837SOL    HW231974   3.938   0.471   2.613  0.4549  0.8540 -0.3576
 6838SOL     OW31975   3.861   0.966  13.557  0.4007 -0.1089 -0.1271
 6838SOL    HW131976   3.795   0.937  13.494  2.2485  0.4931 -2.3364
 6838SOL    HW231977   3.847   0.903  13.628 -1.5371  3.3578  2.5676
 6839SOL     OW31978   3.789   0.146   1.906  0.2478 -0.3366  0.3652
 6839SOL    HW131979   3.824   0.102   1.828  1.0615  0.7577  0.1259
 6839SOL    HW231980   3.703   0.163   1.868  0.9435  1.4628 -0.3765
 6840SOL     OW31981   0.535   2.033   0.084 -0.1408 -0.0657  0.2093
 6840SOL    HW131982   0.577   1.948   0.074  2.0927  1.0363  0.1812
 6840SOL    HW231983   0.493   2.050  17.689  1.8583  1.1092 -0.5475
 6841SOL     OW31984   2.441   0.524   6.053 -0.2180  0.0022 -0.0400
 6841SOL    HW131985   2.373   0.583   6.022 -0.1546 -0.1894 -0.5290
 6841SOL    HW231986   2.421   0.501   6.144  0.0998  0.6716  0.2048
 6842SOL     OW31987   4.634   3.149   7.941 -0.0031 -0.4893 -0.1842
 6842SOL    HW131988   4.548   3.180   7.914  0.6296  2.2268  0.9530
 6842SOL    HW231989   4.684   3.218   7.898 -1.4219  0.8676  0.3305
 6843SOL     OW31990   3.627   0.612   9.434  0.2229  0.3853  0.2918
 6843SOL    HW131991   3.581   0.695   9.443  0.8414  0.4587  2.6390
 6843SOL    HW231992   3.578   0.558   9.497  1.6492 -1.4746 -0.1879
 6844SOL     OW31993   4.058   3.967  13.176 -0.1456  0.0492  0.2743
 6844SOL    HW131994   4.062   4.052  13.132  2.0131 -0.4481 -0.4638
 6844SOL    HW231995   4.060   3.908  13.102  2.5136  1.5485 -0.8789
 6845SOL     OW31996   4.280   2.381   4.765  0.1941 -0.0169 -0.7739
 6845SOL    HW131997   4.320   2.355   4.682  1.1115 -0.5459 -0.1641
 6845SOL    HW231998   4.296   2.293   4.798  0.4125  1.3971  2.8901
 6846SOL     OW31999   0.432   3.908  17.419  0.0416 -0.3904 -0.0591
 6846SOL    HW132000   0.343   3.879  17.402 -0.5833  0.6703  1.5042
 6846SOL    HW232001   0.469   3.882  17.334  3.6817 -4.2981  2.7223
 6847SOL     OW32002   2.139   2.831  10.637  0.0050 -0.6546 -0.1464
 6847SOL    HW132003   2.225   2.856  10.604 -0.2488  0.6146  0.1454
 6847SOL    HW232004   2.161   2.744  10.669 -0.7703 -0.5032  0.8189
 6848SOL     OW32005   3.929   1.440   5.036  0.0677  0.2343  0.3296
 6848SOL    HW132006   3.929   1.433   4.940 -0.9386 -0.8335  0.4163
 6848SOL    HW232007   3.851   1.388   5.054  1.3624 -1.4811  0.9157
 6849SOL     OW32008   3.003   1.680  15.382 -0.4709 -0.1760 -0.0485
 6849SOL    HW132009   3.021   1.774  15.391  0.3714 -0.2848 -0.5490
 6849SOL    HW232010   3.000   1.678  15.286 -1.1971  1.3261 -0.0607
 6850SOL     OW32011   2.117   2.685   0.329  0.2208 -0.6887 -0.4246
 6850SOL    HW132012   2.167   2.733   0.395 -1.3479 -0.8649  0.9164
 6850SOL    HW232013   2.061   2.642   0.394 -0.4568  0.3512 -0.3132
 6851SOL     OW32014   1.516   4.367   6.185 -0.1928  0.0429  0.0521
 6851SOL    HW132015   1.597   4.415   6.205  1.7229 -2.3616 -1.9167
 6851SOL    HW232016   1.530   4.288   6.238  0.4534  0.9539  1.2611
 6852SOL     OW32017   0.471   1.936   0.395 -0.0160  0.0485 -0.4895
 6852SOL    HW132018   0.458   1.864   0.333  1.8391  0.2075 -1.0482
 6852SOL    HW232019   0.449   1.892   0.477  0.3477  0.4584 -0.1731
 6853SOL     OW32020   1.581   0.666   3.539 -0.1433 -0.0487 -0.2876
 6853SOL    HW132021   1.488   0.659   3.516  0.0647 -1.9406 -0.5210
 6853SOL    HW232022   1.603   0.717   3.460  4.2813 -0.3427  0.7313
 6854SOL     OW32023   1.541   0.335   5.039 -0.8917 -0.0010  0.1079
 6854SOL    HW132024   1.519   0.404   4.976 -1.2456  0.7605  1.0764
 6854SOL    HW232025   1.503   0.254   5.002  0.3695 -0.4596 -0.1661
 6855SOL     OW32026   4.716   3.353   7.774  0.1383 -0.1485 -0.5658
 6855SOL    HW132027   0.071   3.406   7.753 -1.2313  0.9519 -2.7098
 6855SOL    HW232028   4.692   3.326   7.685 -0.0186 -0.7262 -0.3535
 6856SOL     OW32029   0.013   4.349   7.328 -0.2307 -0.0151 -0.2081
 6856SOL    HW132030   0.062   4.267   7.333  0.0469  0.0957 -1.1193
 6856SOL    HW232031   0.054   4.397   7.399  1.2770  0.1281 -1.1914
 6857SOL     OW32032   2.951   4.268   3.851  0.3684 -0.0345  0.1470
 6857SOL    HW132033   2.898   4.237   3.778  1.2317  0.6286 -0.7757
 6857SOL    HW232034   2.935   4.363   3.855 -1.7423 -0.3876 -0.0683
 6858SOL     OW32035   1.419   0.251   7.917 -0.0516 -0.0824  0.3435
 6858SOL    HW132036   1.401   0.343   7.937 -0.6353  0.4764 -2.8476
 6858SOL    HW232037   1.343   0.224   7.865 -1.2349 -0.5398  2.3114
 6859SOL     OW32038   0.352   1.774   1.330 -0.0079  0.1787 -0.7652
 6859SOL    HW132039   0.421   1.741   1.273 -1.6595 -0.2263 -2.5323
 6859SOL    HW232040   0.296   1.696   1.331 -1.5887  1.3353  0.9414
 6860SOL     OW32041   0.419   2.721   8.159 -0.0881  0.4559  0.1862
 6860SOL    HW132042   0.447   2.727   8.251  0.5120 -2.1891  0.1825
 6860SOL    HW232043   0.499   2.756   8.119  1.2979 -0.1021  2.4334
 6861SOL     OW32044   1.777   1.342   5.239 -0.4855  0.5285  0.5706
 6861SOL    HW132045   1.750   1.366   5.328 -0.8430  0.2598  0.5344
 6861SOL    HW232046   1.824   1.422   5.217  0.3380  0.2270  1.2046
 6862SOL     OW32047   1.009   4.651   8.062 -0.3524 -0.1907 -0.5610
 6862SOL    HW132048   1.040   4.697   8.140 -2.4151 -0.1836  0.2608
 6862SOL    HW232049   1.047   4.566   8.084 -0.3044 -0.0585 -0.1325
 6863SOL     OW32050   3.711   1.869   8.138 -0.7033  0.1394 -0.2212
 6863SOL    HW132051   3.786   1.833   8.091  1.9741  0.5955  3.7315
 6863SOL    HW232052   3.646   1.857   8.069  0.2054  0.3503 -1.1105
 6864SOL     OW32053   2.629   0.316   4.207 -0.0381 -0.0482 -0.0276
 6864SOL    HW132054   2.622   0.221   4.213 -1.4469 -0.0506 -1.8986
 6864SOL    HW232055   2.543   0.334   4.245 -0.2773  1.1375 -1.1235
 6865SOL     OW32056   4.243   1.470   1.506  0.0330 -0.6771  0.3005
 6865SOL    HW132057   4.152   1.498   1.512  0.2062  0.2509 -1.4012
 6865SOL    HW232058   4.239   1.396   1.567  0.5585 -1.0313 -0.0935
 6866SOL     OW32059   4.501   3.797   8.920  0.3457 -0.5948 -0.0538
 6866SOL    HW132060   4.410   3.774   8.935  0.6854 -1.4644  0.6456
 6866SOL    HW232061   4.543   3.711   8.917 -0.0064 -0.7405 -0.8118
 6867SOL     OW32062   2.017   2.130   5.642  0.2258 -0.0299  0.8833
 6867SOL    HW132063   2.050   2.199   5.584 -0.8326 -0.6852 -0.5075
 6867SOL    HW232064   2.072   2.055   5.616 -0.2917 -0.9977  2.6064
 6868SOL     OW32065   0.136   1.654  14.826  0.1573 -0.5782  0.1957
 6868SOL    HW132066   0.202   1.625  14.763 -3.4387 -0.4299 -3.6039
 6868SOL    HW232067   0.053   1.626  14.789  1.1399 -0.9417 -1.7364
 6869SOL     OW32068   2.353   3.325   8.728  0.1272  0.3232  0.5581
 6869SOL    HW132069   2.412   3.365   8.791 -2.5944  1.0054  2.6737
 6869SOL    HW232070   2.312   3.260   8.784 -1.1025  1.8654  1.4439
 6870SOL     OW32071   2.786   2.869   9.888 -0.1314  0.3462 -0.0844
 6870SOL    HW132072   2.751   2.808   9.953 -1.1599  3.5746  2.3913
 6870SOL    HW232073   2.724   2.860   9.816  1.3362 -0.2135 -1.2691
 6871SOL     OW32074   0.476   0.997   0.803 -0.5898  0.4147 -0.1699
 6871SOL    HW132075   0.506   0.992   0.894 -0.1796  0.2543 -0.3097
 6871SOL    HW232076   0.408   1.062   0.822 -0.8742 -0.1112  0.5705
 6872SOL     OW32077   0.706   0.858   7.041  0.2727 -0.2713  0.1919
 6872SOL    HW132078   0.767   0.931   7.048  1.0363 -0.6966 -1.9912
 6872SOL    HW232079   0.621   0.897   7.018 -0.0611 -0.5090  1.0169
 6873SOL     OW32080   2.707   0.498   8.948 -0.8284  0.0987 -0.0819
 6873SOL    HW132081   2.717   0.592   8.961  1.1470  0.0695 -1.3762
 6873SOL    HW232082   2.792   0.462   8.975 -1.1774  0.5388  1.6412
 6874SOL     OW32083   1.288   2.832  16.092  0.0046 -0.1193  0.0990
 6874SOL    HW132084   1.254   2.742  16.089 -0.4599  0.1183 -1.7176
 6874SOL    HW232085   1.221   2.875  16.038  1.0860  1.2301 -0.1498
 6875SOL     OW32086   1.699   0.786  11.018  0.0661  0.0114 -0.7756
 6875SOL    HW132087   1.756   0.716  10.988  0.7576  0.5661 -0.7579
 6875SOL    HW232088   1.743   0.797  11.102  0.7671 -0.0748 -1.1392
 6876SOL     OW32089   2.349   3.917   2.324 -0.4418  0.4074 -0.3957
 6876SOL    HW132090   2.417   3.867   2.369  0.1863  0.4475 -1.3133
 6876SOL    HW232091   2.359   3.901   2.230  0.8014  3.3602 -0.7795
 6877SOL     OW32092   3.596   2.305   4.491 -0.3101 -0.1093 -0.1209
 6877SOL    HW132093   3.607   2.225   4.542 -3.1472 -1.1617 -1.1644
 6877SOL    HW232094   3.655   2.279   4.419 -0.0643 -0.8127  0.3269
 6878SOL     OW32095   3.381   1.043   8.478 -0.1126 -0.1200  0.3706
 6878SOL    HW132096   3.347   0.982   8.413  0.4489  0.5772 -0.5701
 6878SOL    HW232097   3.362   0.992   8.557  1.9482 -2.1156 -0.4226
 6879SOL     OW32098   3.480   1.869   3.729 -0.3198 -0.0219 -0.0493
 6879SOL    HW132099   3.493   1.877   3.824  0.2009 -0.2695 -0.0940
 6879SOL    HW232100   3.552   1.807   3.716  0.9260  0.9819  1.9447
 6880SOL     OW32101   0.247   3.990  17.113  0.3865 -0.4253  0.0578
 6880SOL    HW132102   0.269   4.054  17.181  1.3536 -0.9999  0.2750
 6880SOL    HW232103   0.250   4.038  17.030 -1.7628 -0.0292  0.2228
 6881SOL     OW32104   3.601   1.199  11.218 -0.3823 -0.0038 -0.9921
 6881SOL    HW132105   3.652   1.189  11.298  0.2371 -1.5796 -1.5816
 6881SOL    HW232106   3.603   1.293  11.200  0.0744  0.2088  0.1804
 6882SOL     OW32107   0.061   1.034   7.524  0.5065  0.1321  0.9082
 6882SOL    HW132108   0.070   1.089   7.446  1.8212 -2.1969 -0.5802
 6882SOL    HW232109   4.706   1.065   7.572 -1.2298  0.3713 -2.0055
 6883SOL     OW32110   2.364   1.635   8.288 -0.3736  0.4564  0.3458
 6883SOL    HW132111   2.401   1.606   8.371  0.3111 -0.2007 -0.1895
 6883SOL    HW232112   2.438   1.685   8.252  1.1592 -1.3475  1.0386
 6884SOL     OW32113   4.258   4.237   7.863  0.1924 -0.2463 -0.4925
 6884SOL    HW132114   4.260   4.160   7.806 -0.3690  0.3071 -1.2602
 6884SOL    HW232115   4.202   4.204   7.933  0.6625 -0.0078 -0.0005
 6885SOL     OW32116   1.378   1.881   3.861  0.0928 -0.0229 -0.3948
 6885SOL    HW132117   1.465   1.851   3.886 -0.6633 -1.7595  0.1900
 6885SOL    HW232118   1.396   1.961   3.811 -1.7575  1.1632  0.8131
 6886SOL     OW32119   0.328   0.056   1.432  0.4767 -0.4916  0.6967
 6886SOL    HW132120   0.369   0.137   1.402 -2.1962  0.3633 -0.6063
 6886SOL    HW232121   0.299   0.012   1.352  1.7390 -0.6455  0.3203
 6887SOL     OW32122   1.768   1.592  12.519  0.3094 -0.0381 -0.4134
 6887SOL    HW132123   1.775   1.530  12.592 -0.5637  3.5528  2.7108
 6887SOL    HW232124   1.853   1.633  12.531  1.8967 -3.2185 -0.8450
 6888SOL     OW32125   1.680   3.356   4.791  0.3337  0.3783  0.3433
 6888SOL    HW132126   1.687   3.264   4.764  5.1837  0.8697 -0.1661
 6888SOL    HW232127   1.588   3.362   4.814 -0.4161 -1.1422 -2.2360
 6889SOL     OW32128   1.449   3.015   8.670  0.2152  0.6587  0.2939
 6889SOL    HW132129   1.423   3.033   8.580  1.9976  0.0758 -0.3451
 6889SOL    HW232130   1.393   3.078   8.716 -1.1989 -0.2236 -0.1960
 6890SOL     OW32131   2.075   1.594   1.078 -0.1633  0.0576 -0.2525
 6890SOL    HW132132   2.069   1.582   0.984 -3.9230  0.7871 -0.1015
 6890SOL    HW232133   2.063   1.502   1.100 -1.0649  0.2399  0.0275
 6891SOL     OW32134   1.265   0.086   4.082  0.5511 -0.1434 -0.4566
 6891SOL    HW132135   1.255   0.025   4.156 -1.8581  2.1672  1.0890
 6891SOL    HW232136   1.174   0.073   4.055  0.0929  1.5551  0.3150
 6892SOL     OW32137   0.831   1.597  15.051 -0.3035  0.0825 -0.4238
 6892SOL    HW132138   0.882   1.678  15.062  0.5057 -0.4597 -0.2094
 6892SOL    HW232139   0.843   1.581  14.957 -0.7166  2.4281 -0.8896
 6893SOL     OW32140   0.815   4.700   7.575 -0.0365  0.1361  0.2449
 6893SOL    HW132141   0.881   4.675   7.639 -0.4619 -1.5508  0.0178
 6893SOL    HW232142   0.866   4.720   7.496  0.3927 -1.1879  0.1849
 6894SOL     OW32143   4.113   1.876   3.664 -0.3310  0.0299  0.1682
 6894SOL    HW132144   4.170   1.820   3.612  0.6902 -0.0420  1.3625
 6894SOL    HW232145   4.158   1.961   3.662 -1.0285  0.4803  3.0076
 6895SOL     OW32146   3.653   0.681   7.257  0.5364  0.2204  0.4453
 6895SOL    HW132147   3.745   0.657   7.244  0.4097 -0.1146  0.1697
 6895SOL    HW232148   3.608   0.600   7.235 -1.2043  1.0212  1.0465
 6896SOL     OW32149   3.122   2.743  11.973 -0.3276 -0.3563  0.3087
 6896SOL    HW132150   3.181   2.807  11.933 -1.4773 -0.5292 -1.6900
 6896SOL    HW232151   3.095   2.782  12.056  1.7454  0.6757  0.4913
 6897SOL     OW32152   2.025   1.260   3.882 -0.2357  0.1433 -0.5184
 6897SOL    HW132153   1.952   1.305   3.840  0.0934 -0.3273 -1.5997
 6897SOL    HW232154   2.095   1.273   3.819  1.7079 -0.9926  1.4097
 6898SOL     OW32155   4.527   2.348  12.242  0.1480  0.7527 -0.0984
 6898SOL    HW132156   4.560   2.314  12.158  3.2847 -0.0424  1.4470
 6898SOL    HW232157   4.439   2.376  12.217 -0.7885 -0.9474  1.3495
 6899SOL     OW32158   0.183   2.721  10.821 -0.1664 -0.1052 -0.3664
 6899SOL    HW132159   0.240   2.689  10.891 -0.3135 -0.0266 -0.2107
 6899SOL    HW232160   0.098   2.686  10.848  0.7214 -0.9103  1.4025
 6900SOL     OW32161   2.559   2.284   5.920  0.5423  0.2707  0.0375
 6900SOL    HW132162   2.522   2.237   5.845  1.7927  0.5978 -0.7975
 6900SOL    HW232163   2.491   2.344   5.950  1.3022  1.1062  0.0758
 6901SOL     OW32164   4.292   0.538   1.811  0.0863  0.0868 -0.0347
 6901SOL    HW132165   4.269   0.529   1.719 -1.2973 -0.3309  0.3423
 6901SOL    HW232166   4.277   0.630   1.830  2.4233  1.0026 -2.6401
 6902SOL     OW32167   3.274   2.374   9.815 -0.4887 -0.1428  0.0340
 6902SOL    HW132168   3.237   2.329   9.739 -3.8069 -0.6728  1.9824
 6902SOL    HW232169   3.254   2.463   9.788 -1.2202 -0.3686 -0.1468
 6903SOL     OW32170   3.874   2.492  13.317  0.5860  0.2288  0.5722
 6903SOL    HW132171   3.903   2.471  13.406 -1.1625 -2.9347  0.3623
 6903SOL    HW232172   3.861   2.586  13.335 -0.2884  0.0504  0.8448
 6904SOL     OW32173   4.565   3.465   3.145  0.1198  0.2540 -0.2358
 6904SOL    HW132174   4.523   3.550   3.157  1.8507  1.0615  0.1999
 6904SOL    HW232175   4.493   3.418   3.186 -1.0787  1.0198 -1.4932
 6905SOL     OW32176   1.030   0.484   8.577  0.9583 -0.0068  0.0343
 6905SOL    HW132177   0.972   0.512   8.507  1.1135  1.6506  0.5707
 6905SOL    HW232178   1.042   0.394   8.546 -3.0050 -0.3324 -0.5623
 6906SOL     OW32179   0.402   1.525   7.121 -0.0963  0.4653 -0.3373
 6906SOL    HW132180   0.349   1.598   7.089 -1.5493 -0.9731 -1.2842
 6906SOL    HW232181   0.341   1.490   7.186  0.2487 -0.6773 -0.6237
 6907SOL     OW32182   3.769   0.687   3.799  0.1044  0.5831 -0.3190
 6907SOL    HW132183   3.702   0.647   3.855 -0.1329  0.4398 -0.7055
 6907SOL    HW232184   3.724   0.656   3.720  0.2114  0.0992 -0.1921
 6908SOL     OW32185   0.444   2.094   8.166 -0.3223  0.1836 -0.7136
 6908SOL    HW132186   0.473   2.086   8.075  0.4143 -0.7480 -0.3926
 6908SOL    HW232187   0.355   2.121   8.147 -0.3975  0.5253  0.0960
 6909SOL     OW32188   2.965   3.295   0.084 -0.5375 -0.7951  0.1649
 6909SOL    HW132189   2.999   3.320  17.688  0.0268  0.1865  0.6689
 6909SOL    HW232190   2.979   3.375   0.136  1.3943  0.1883 -1.9037
 6910SOL     OW32191   0.919   1.482   7.038 -0.0433 -0.1144 -0.2048
 6910SOL    HW132192   0.898   1.444   7.123  0.1706 -0.3358 -0.2506
 6910SOL    HW232193   0.829   1.484   7.006 -0.8100 -2.3384  1.8289
 6911SOL     OW32194   1.572   3.646   3.876  0.2302 -0.1440 -0.0860
 6911SOL    HW132195   1.663   3.615   3.874 -0.0214 -0.8500 -0.5512
 6911SOL    HW232196   1.579   3.734   3.838  1.0432  0.6532  1.9334
 6912SOL     OW32197   2.983   4.537   3.255  0.1762 -0.0935 -0.3705
 6912SOL    HW132198   2.993   4.632   3.245  0.0569 -0.1643 -1.1382
 6912SOL    HW232199   3.025   4.506   3.175  1.6191  2.8216 -0.7547
 6913SOL     OW32200   0.408   2.010   3.931 -0.2032  0.2574  0.0055
 6913SOL    HW132201   0.441   2.100   3.941  0.9852  0.1231 -2.7429
 6913SOL    HW232202   0.452   1.979   3.852 -0.1353  2.6842 -0.9048
 6914SOL     OW32203   1.445   1.399  10.759 -0.2723  0.5548  0.2452
 6914SOL    HW132204   1.439   1.434  10.848 -0.6039 -2.3077  1.3731
 6914SOL    HW232205   1.383   1.325  10.758  0.5925 -0.1763  0.7319
 6915SOL     OW32206   4.166   0.009  15.083  0.1009 -0.7977  0.6334
 6915SOL    HW132207   4.255   0.004  15.046  0.0821  0.5337  0.4072
 6915SOL    HW232208   4.174   4.650  15.134  1.4738 -0.1039  1.5276
 6916SOL     OW32209   2.620   4.128  17.472  0.1285  0.4724  0.8557
 6916SOL    HW132210   2.696   4.123  17.414 -0.5113 -1.9112  0.1936
 6916SOL    HW232211   2.543   4.128  17.415  0.3464 -2.7021  0.5261
 6917SOL     OW32212   0.021   2.594  11.061 -0.1468 -0.1048 -0.0467
 6917SOL    HW132213   0.004   2.505  11.030 -1.3949 -0.5830  2.0268
 6917SOL    HW232214   0.052   2.577  11.150 -1.3973 -1.2230  0.1724
 6918SOL     OW32215   4.366   0.947   4.086  0.4948 -0.7653  0.1753
 6918SOL    HW132216   4.322   1.029   4.108  1.2354 -0.0565 -1.0202
 6918SOL    HW232217   4.307   0.918   4.017 -0.7331 -0.4210  1.0814
 6919SOL     OW32218   1.341   3.632   8.036 -0.3566  0.3024 -0.0483
 6919SOL    HW132219   1.354   3.567   7.966  2.2924  0.4410  0.3048
 6919SOL    HW232220   1.424   3.679   8.050 -2.1175  2.6858  2.2327
 6920SOL     OW32221   3.459   3.802  15.035  0.2639  0.0799  0.5563
 6920SOL    HW132222   3.465   3.723  14.982  1.1763  1.5767 -1.5825
 6920SOL    HW232223   3.429   3.873  14.978  2.0301  0.6828  0.3850
 6921SOL     OW32224   1.679   3.659  16.033  0.0169 -0.6122 -0.3977
 6921SOL    HW132225   1.739   3.660  15.959  1.1740  2.4104  0.5747
 6921SOL    HW232226   1.596   3.653  15.986  1.8684 -1.7578 -3.5130
 6922SOL     OW32227   3.704   2.821   4.899 -0.1607 -0.6342  0.1716
 6922SOL    HW132228   3.618   2.823   4.857 -0.0344 -0.6872 -0.0863
 6922SOL    HW232229   3.706   2.908   4.939  0.3257 -1.2078  1.4005
 6923SOL     OW32230   1.595   3.328  13.504  0.1758  0.3453  0.5052
 6923SOL    HW132231   1.525   3.318  13.440  1.6575  0.9775 -1.2189
 6923SOL    HW232232   1.553   3.281  13.576 -1.1293 -0.2353 -0.6416
 6924SOL     OW32233   3.269   4.373   5.096  0.1955 -0.1979 -0.3687
 6924SOL    HW132234   3.221   4.425   5.031 -2.6553  0.7753  2.4611
 6924SOL    HW232235   3.358   4.386   5.064 -0.6109  0.2523 -2.4384
 6925SOL     OW32236   0.466   4.328  16.918  0.6564 -0.1013 -0.2629
 6925SOL    HW132237   0.500   4.238  16.922 -1.3372 -0.9160 -1.8823
 6925SOL    HW232238   0.373   4.308  16.913  0.1635  1.8188  1.2883
 6926SOL     OW32239   3.817   3.606   3.301 -0.4563  0.3466  0.8177
 6926SOL    HW132240   3.826   3.692   3.343  1.6885 -0.5892  2.2784
 6926SOL    HW232241   3.899   3.598   3.253 -2.5025 -1.4741 -2.3878
 6927SOL     OW32242   1.891   3.775  11.680  0.4414  0.5192 -0.1829
 6927SOL    HW132243   1.846   3.734  11.607 -1.9737 -0.0840  1.6495
 6927SOL    HW232244   1.977   3.790  11.641  1.0135  0.6802  1.1275
 6928SOL     OW32245   1.455   2.623  13.396  0.3233  0.1897 -0.0317
 6928SOL    HW132246   1.538   2.620  13.445  0.2170  0.9937  0.1993
 6928SOL    HW232247   1.424   2.534  13.415 -1.3899  1.3649  2.6292
 6929SOL     OW32248   2.169   1.830   5.162 -0.1579  0.1474 -0.8850
 6929SOL    HW132249   2.088   1.835   5.212  0.7096 -0.8018  0.6278
 6929SOL    HW232250   2.219   1.779   5.226 -0.3474 -2.3626 -2.7321
 6930SOL     OW32251   3.340   3.874   6.007 -0.3823 -0.2026 -0.4106
 6930SOL    HW132252   3.381   3.822   5.938  3.9458 -0.2040  2.1696
 6930SOL    HW232253   3.403   3.878   6.079 -0.2279 -1.2812 -0.4882
 6931SOL     OW32254   0.319   1.533   7.738  0.0818  0.0907  0.0749
 6931SOL    HW132255   0.400   1.484   7.722 -1.2342 -1.2944 -2.3325
 6931SOL    HW232256   0.307   1.597   7.668 -1.8059 -0.8071 -0.4221
 6932SOL     OW32257   3.395   0.069   8.449  0.3034 -0.1691  0.1352
 6932SOL    HW132258   3.460   0.123   8.494  1.0882  0.1672 -1.3807
 6932SOL    HW232259   3.361   0.025   8.527  1.7863  0.8144  1.3308
 6933SOL     OW32260   1.451   1.675   8.122  0.1594 -0.8405  0.1970
 6933SOL    HW132261   1.415   1.589   8.101  1.2935 -1.1778 -0.3767
 6933SOL    HW232262   1.450   1.716   8.035  0.0396 -0.3256  0.4403
 6934SOL     OW32263   4.650   3.968  13.716  0.1205  0.4741 -0.1574
 6934SOL    HW132264   4.569   3.976  13.665 -0.9726 -0.1151  1.4804
 6934SOL    HW232265   4.712   3.996  13.648  0.9572 -0.4319  0.2353
 6935SOL     OW32266   3.685   3.424  15.932  0.1344 -0.2019 -0.0312
 6935SOL    HW132267   3.648   3.336  15.934  0.0462 -0.1609  0.1751
 6935SOL    HW232268   3.614   3.455  15.875 -0.9171  1.2928  2.0869
 6936SOL     OW32269   3.253   2.002   8.298 -0.2309 -0.2464 -0.1979
 6936SOL    HW132270   3.306   2.028   8.223  0.7883 -3.1453 -0.4860
 6936SOL    HW232271   3.175   2.052   8.274  1.7633  2.4500 -1.0001
 6937SOL     OW32272   1.667   3.888  12.188 -0.2636  0.5056 -0.2653
 6937SOL    HW132273   1.701   3.821  12.129  0.9127 -0.3622  1.3981
 6937SOL    HW232274   1.695   3.847  12.270  4.8012  0.4911 -2.0097
 6938SOL     OW32275   4.589   1.995   2.655  0.3977 -0.0077 -0.4235
 6938SOL    HW132276   4.673   1.982   2.612 -0.6764  0.1103 -2.5514
 6938SOL    HW232277   4.557   1.905   2.650 -0.2756  0.1724  0.6978
 6939SOL     OW32278   4.398   1.150   3.238 -0.1182  0.2148 -0.2700
 6939SOL    HW132279   4.441   1.230   3.210  0.6891 -0.1502 -0.0591
 6939SOL    HW232280   4.437   1.089   3.175  0.6924 -0.9012  1.3041
 6940SOL     OW32281   2.497   0.568  11.356 -0.2962 -0.1102  0.6774
 6940SOL    HW132282   2.548   0.596  11.279 -1.8907  0.1158 -0.2873
 6940SOL    HW232283   2.570   0.578  11.417 -0.7754 -0.0318  1.2320
 6941SOL     OW32284   0.822   2.949   4.437 -0.7282  0.1808 -0.0851
 6941SOL    HW132285   0.917   2.939   4.435 -0.9121 -1.5292 -0.3100
 6941SOL    HW232286   0.798   2.909   4.353  0.6393 -0.7522 -0.0417
 6942SOL     OW32287   4.188   0.807   5.484  0.6965  0.2799  0.3155
 6942SOL    HW132288   4.111   0.761   5.518  1.3097  0.6079  2.1122
 6942SOL    HW232289   4.205   0.762   5.401  0.4093 -0.9690  0.9304
 6943SOL     OW32290   0.338   3.924   8.242 -0.4363  0.3642  0.4548
 6943SOL    HW132291   0.257   3.875   8.258  0.2430 -0.6064  0.9396
 6943SOL    HW232292   0.307   4.014   8.231 -2.4644 -0.3534  0.3342
 6944SOL     OW32293   1.628   4.208   3.670  0.2054  0.5843 -0.0548
 6944SOL    HW132294   1.712   4.205   3.716 -0.0884 -0.5106  0.4076
 6944SOL    HW232295   1.594   4.286   3.713 -1.2414 -1.5762  2.7069
 6945SOL     OW32296   0.390   3.783   8.578  0.3249  0.4805  0.5167
 6945SOL    HW132297   0.323   3.715   8.572 -1.5238  2.6663 -3.3037
 6945SOL    HW232298   0.344   3.857   8.539  0.4181 -0.1644 -0.8354
 6946SOL     OW32299   1.345   0.879   8.393 -0.5220 -0.2641 -0.7123
 6946SOL    HW132300   1.427   0.835   8.370  1.6833  2.1968  2.4268
 6946SOL    HW232301   1.292   0.801   8.408 -1.4365  0.7302  1.1580
 6947SOL     OW32302   4.033   3.085   0.433 -0.0182 -0.4488 -0.4248
 6947SOL    HW132303   4.048   3.163   0.379  0.2715 -0.5997 -0.5624
 6947SOL    HW232304   4.045   3.119   0.522 -2.9633  0.6552 -0.4339
 6948SOL     OW32305   2.272   3.413   7.932  0.1429  0.0960 -0.3725
 6948SOL    HW132306   2.263   3.503   7.900  1.3312  0.6643  0.8812
 6948SOL    HW232307   2.212   3.357   7.884  1.1374  0.0083 -1.5146
 6949SOL     OW32308   4.313   2.482   7.746  0.6444  0.3780 -0.1437
 6949SOL    HW132309   4.406   2.506   7.745  1.6155 -3.3810  0.7322
 6949SOL    HW232310   4.286   2.553   7.804  1.1240 -0.1478  0.7296
 6950SOL     OW32311   0.820   3.458   8.286  0.4784 -0.4617  0.2599
 6950SOL    HW132312   0.859   3.400   8.219  0.0300  2.6931 -2.7240
 6950SOL    HW232313   0.789   3.388   8.343 -3.5982  0.0481 -1.3410
 6951SOL     OW32314   3.616   2.689   6.645  0.0078  0.4251  0.2624
 6951SOL    HW132315   3.551   2.687   6.715  1.0751 -0.0872  1.2379
 6951SOL    HW232316   3.566   2.665   6.567 -3.0089 -3.6440  3.4285
 6952SOL     OW32317   2.119   3.855   9.124  0.0408 -0.2302  0.2761
 6952SOL    HW132318   2.059   3.841   9.051 -0.6430 -0.6133  0.9070
 6952SOL    HW232319   2.067   3.811   9.191  0.6144  0.4715  1.1914
 6953SOL     OW32320   1.022   1.075  15.529 -0.1902  0.2312  0.3274
 6953SOL    HW132321   0.994   1.081  15.437  0.4616 -1.3857  0.0266
 6953SOL    HW232322   1.061   1.160  15.549  0.7333 -0.1592  0.2185
 6954SOL     OW32323   0.623   1.788   3.534  0.2226  0.3579  0.1635
 6954SOL    HW132324   0.700   1.844   3.541  1.1457 -0.5942 -2.4554
 6954SOL    HW232325   0.624   1.771   3.440  0.0002  1.2934 -0.0080
 6955SOL     OW32326   0.395   1.579   3.573 -0.0174  0.1518 -0.3300
 6955SOL    HW132327   0.446   1.651   3.537  0.0300  1.4164  2.2885
 6955SOL    HW232328   0.313   1.618   3.602  0.6921  0.5383  1.2004
 6956SOL     OW32329   2.976   3.475   3.078 -0.5336 -0.2911  0.1380
 6956SOL    HW132330   2.943   3.479   3.167 -0.8220  1.2939 -0.0456
 6956SOL    HW232331   3.007   3.384   3.071 -1.5163 -0.6092 -0.1291
 6957SOL     OW32332   2.888   0.955   8.860 -0.0972 -0.2760  0.3429
 6957SOL    HW132333   2.900   1.047   8.884  0.3765 -0.2709  0.0656
 6957SOL    HW232334   2.887   0.957   8.765 -0.8115  1.6201  0.3796
 6958SOL     OW32335   0.703   0.541  10.672 -0.4219 -0.1423 -0.0068
 6958SOL    HW132336   0.633   0.595  10.635 -0.5500 -0.0094  0.4289
 6958SOL    HW232337   0.777   0.561  10.615  0.1703  0.8002  1.0793
 6959SOL     OW32338   3.246   2.449   5.062  0.0322 -0.1033  0.2842
 6959SOL    HW132339   3.173   2.494   5.103  0.7210  0.3649  1.0034
 6959SOL    HW232340   3.212   2.416   4.978  0.3134  0.4953 -0.0664
 6960SOL     OW32341   3.696   4.357   8.047 -0.2511  0.5912 -0.0792
 6960SOL    HW132342   3.613   4.339   8.093  0.1073 -2.6283 -0.6801
 6960SOL    HW232343   3.669   4.347   7.956 -0.6601  0.4843  0.0534
 6961SOL     OW32344   3.458   4.161   5.177  0.1844  0.2116  0.1410
 6961SOL    HW132345   3.502   4.159   5.092  0.7381 -1.4954  0.4713
 6961SOL    HW232346   3.395   4.231   5.159 -0.3050 -0.2241  0.1700
 6962SOL     OW32347   1.149   0.149   6.230  0.3944 -0.2348 -0.2155
 6962SOL    HW132348   1.062   0.111   6.215  0.5621 -1.0460  0.8205
 6962SOL    HW232349   1.165   0.156   6.325 -1.3685 -1.9695  0.2244
 6963SOL     OW32350   3.413   2.003   2.981 -0.4830  0.7102 -0.1799
 6963SOL    HW132351   3.464   2.050   3.047 -0.9830  0.3675  0.4591
 6963SOL    HW232352   3.451   2.044   2.903  1.5246 -0.0115  0.4081
 6964SOL     OW32353   1.984   2.880  15.796  0.9537  0.1030  0.3446
 6964SOL    HW132354   2.049   2.916  15.857  0.6717  0.8771  0.1887
 6964SOL    HW232355   1.942   2.960  15.766 -2.5276 -1.7900  0.1088
 6965SOL     OW32356   1.525   0.584  13.039  0.2540 -0.0818 -0.0686
 6965SOL    HW132357   1.590   0.592  12.970 -0.7872 -0.5157 -1.0949
 6965SOL    HW232358   1.455   0.637  13.001 -1.7890 -3.8940 -1.6258
 6966SOL     OW32359   4.282   3.943  13.344 -0.7634 -0.5426  0.2493
 6966SOL    HW132360   4.228   3.984  13.277  1.7523  0.1040 -1.3538
 6966SOL    HW232361   4.358   3.898  13.308 -2.0156 -0.2646 -2.6828
 6967SOL     OW32362   1.990   2.681   0.078  0.2702 -0.5044  0.1698
 6967SOL    HW132363   2.021   2.684   0.169  0.7822  0.0468 -0.0207
 6967SOL    HW232364   2.038   2.760   0.052 -1.9599  0.8264  0.0311
 6968SOL     OW32365   1.413   4.367   4.198  0.0297 -0.1250 -0.6908
 6968SOL    HW132366   1.320   4.361   4.174 -0.1283  1.1885 -0.3765
 6968SOL    HW232367   1.419   4.462   4.197 -0.8828 -0.0502  0.5527
 6969SOL     OW32368   2.740   3.853  10.307 -0.2386 -0.1739  0.3552
 6969SOL    HW132369   2.768   3.772  10.263 -0.5276 -0.4396  0.6590
 6969SOL    HW232370   2.737   3.916  10.235  1.3622 -0.1572  0.2877
 6970SOL     OW32371   2.602   4.220   8.541  0.1141 -0.3833 -0.3989
 6970SOL    HW132372   2.581   4.306   8.579  1.2154  0.6243 -2.0659
 6970SOL    HW232373   2.527   4.204   8.485  0.0554 -3.5774  0.6296
 6971SOL     OW32374   4.104   4.651  16.077  0.3719  0.1076 -0.1649
 6971SOL    HW132375   4.059   4.567  16.084  1.0955 -0.0519  2.4198
 6971SOL    HW232376   4.127   4.671  16.168 -0.2380  1.0555 -0.2270
 6972SOL     OW32377   3.521   1.735   2.707  0.1420  0.6466 -0.5211
 6972SOL    HW132378   3.478   1.719   2.792 -1.0257  0.2487 -1.1870
 6972SOL    HW232379   3.564   1.653   2.683 -2.4624 -1.5011  2.0110
 6973SOL     OW32380   2.415   0.270   7.239 -0.0031 -0.2706  0.2926
 6973SOL    HW132381   2.414   0.181   7.205 -0.0672  0.0556 -0.5615
 6973SOL    HW232382   2.331   0.275   7.285  0.4926  1.1967  1.0537
 6974SOL     OW32383   3.160   0.055   4.465 -0.4164 -0.3401 -0.3011
 6974SOL    HW132384   3.245   0.092   4.441  0.8631 -2.6344  0.6210
 6974SOL    HW232385   3.185   4.711   4.530 -1.6006  0.4293  0.9329
 6975SOL     OW32386   0.701   2.132  10.388  0.1424  0.1239 -0.3686
 6975SOL    HW132387   0.634   2.112  10.323 -0.2802 -2.7843  0.9740
 6975SOL    HW232388   0.730   2.042  10.402  1.5768  0.4213 -1.4187
 6976SOL     OW32389   3.574   2.352   5.351  0.8588  0.1154  0.0134
 6976SOL    HW132390   3.636   2.346   5.278 -0.0375 -0.9570 -0.6568
 6976SOL    HW232391   3.599   2.431   5.399  1.0838  0.1348 -0.1371
 6977SOL     OW32392   3.436   1.470   8.577  0.1672 -0.2064  0.2012
 6977SOL    HW132393   3.354   1.480   8.527  0.1628  0.0325  0.2558
 6977SOL    HW232394   3.416   1.514   8.659  0.4602  1.1401 -0.4420
 6978SOL     OW32395   1.001   1.430   0.827  0.2269 -0.9100 -0.3899
 6978SOL    HW132396   1.021   1.435   0.920 -0.1657 -0.3734 -0.3340
 6978SOL    HW232397   1.088   1.448   0.791  0.6826 -1.0337  0.6438
 6979SOL     OW32398   2.589   2.312  11.424 -0.1704 -0.0065 -0.3213
 6979SOL    HW132399   2.589   2.363  11.342 -1.8017  0.4896 -0.0175
 6979SOL    HW232400   2.608   2.224  11.389  0.2459 -0.6555  1.5584
 6980SOL     OW32401   3.434   2.226   5.684 -0.2195  0.2064 -0.0996
 6980SOL    HW132402   3.487   2.305   5.670 -0.4733  0.4251  0.1703
 6980SOL    HW232403   3.385   2.238   5.765 -0.4526  1.4547 -0.4236
 6981SOL     OW32404   3.759   4.322   9.605 -0.0771  0.1202 -0.6585
 6981SOL    HW132405   3.739   4.269   9.682  1.6640 -0.8385 -0.8586
 6981SOL    HW232406   3.840   4.364   9.633  0.9995 -1.5710 -1.2203
 6982SOL     OW32407   3.214   1.247   8.356 -0.0913  0.1186 -0.2571
 6982SOL    HW132408   3.136   1.224   8.407  0.5572 -0.7329  0.3667
 6982SOL    HW232409   3.271   1.177   8.390  0.5666  0.5497 -0.4813
 6983SOL     OW32410   2.678   0.831   6.476 -0.0377  0.7728 -0.6725
 6983SOL    HW132411   2.701   0.755   6.529 -2.7449  0.1180 -0.4528
 6983SOL    HW232412   2.676   0.898   6.544  0.6606 -0.0791  0.1803
 6984SOL     OW32413   3.259   2.039   9.000  0.5319  0.2116  0.3676
 6984SOL    HW132414   3.206   2.022   9.079 -3.3458  1.2878 -1.9736
 6984SOL    HW232415   3.201   1.997   8.936  0.5001  1.2359 -0.2735
 6985SOL     OW32416   2.031   4.132   6.712  0.3789  0.0756 -0.0882
 6985SOL    HW132417   2.027   4.225   6.690  2.5430  0.8279  2.6671
 6985SOL    HW232418   2.000   4.098   6.628 -0.3797 -1.7765  0.9501
 6986SOL     OW32419   1.867   3.394   7.719 -0.4283  0.2023 -0.1393
 6986SOL    HW132420   1.895   3.328   7.781 -2.2270  0.2012  0.6825
 6986SOL    HW232421   1.777   3.406   7.748  0.1585  0.3184  1.6135
 6987SOL     OW32422   0.627   4.580   5.992 -0.0320 -0.5701 -0.0511
 6987SOL    HW132423   0.626   4.484   5.984 -1.5468 -0.6361  1.0094
 6987SOL    HW232424   0.614   4.604   5.900 -0.3480  1.5486  0.5591
 6988SOL     OW32425   0.294   4.713   3.870  1.0000  0.1915 -0.1259
 6988SOL    HW132426   0.373   0.044   3.870  0.7872  0.5167  1.0023
 6988SOL    HW232427   0.324   4.631   3.831  0.0825 -0.1367 -0.1512
 6989SOL     OW32428   4.116   2.438  16.302 -0.5209 -0.0133  0.3513
 6989SOL    HW132429   4.033   2.480  16.321 -0.9831 -0.5688 -0.4602
 6989SOL    HW232430   4.166   2.512  16.268  1.4783 -2.3449 -1.8004
 6990SOL     OW32431   0.778   3.647   0.112 -0.3058 -0.4326  0.2131
 6990SOL    HW132432   0.859   3.642   0.164  1.0261 -2.4934 -2.0341
 6990SOL    HW232433   0.800   3.703   0.038 -0.3385  2.2801  2.2549
 6991SOL     OW32434   2.423   1.200   9.168 -0.0431 -0.5113 -0.5395
 6991SOL    HW132435   2.459   1.280   9.130  1.0388 -0.3746  0.7822
 6991SOL    HW232436   2.352   1.238   9.220  1.9056  3.6281 -0.9144
 6992SOL     OW32437   3.417   1.184   8.822 -0.1187  0.1626  0.0880
 6992SOL    HW132438   3.335   1.144   8.793 -0.8442  1.3702  0.4992
 6992SOL    HW232439   3.469   1.175   8.743  0.0140  1.7723 -0.0101
 6993SOL     OW32440   1.682   4.270  10.287  0.2476 -0.0604 -0.3479
 6993SOL    HW132441   1.685   4.176  10.307 -2.9875  0.0658  0.7326
 6993SOL    HW232442   1.759   4.314  10.322 -0.1433  0.5362 -0.2512
 6994SOL     OW32443   2.173   2.325   5.100 -0.2744 -0.0878  0.0066
 6994SOL    HW132444   2.135   2.361   5.020 -1.1852  1.4566  1.1523
 6994SOL    HW232445   2.186   2.236   5.065  2.2003  0.1765  0.2904
 6995SOL     OW32446   2.455   1.701   9.082 -0.3183  0.0024  0.0453
 6995SOL    HW132447   2.474   1.630   9.144 -3.1758 -1.3512 -0.6457
 6995SOL    HW232448   2.529   1.681   9.023 -1.6632 -0.6596 -1.4175
 6996SOL     OW32449   1.586   1.760  15.469  0.8149 -0.1537  0.3885
 6996SOL    HW132450   1.584   1.714  15.385 -0.8704 -0.3970  0.5628
 6996SOL    HW232451   1.537   1.837  15.440  1.9229 -0.5049 -2.3890
 6997SOL     OW32452   3.505   0.246   3.525  0.1616 -0.1131  0.4693
 6997SOL    HW132453   3.496   0.328   3.574 -2.1158 -0.6659  1.0096
 6997SOL    HW232454   3.444   0.190   3.573 -0.3624 -1.3416 -1.6301
 6998SOL     OW32455   4.157   1.919   1.958  0.5297 -0.1674  0.1046
 6998SOL    HW132456   4.088   1.982   1.981  0.1937 -0.6974  0.5273
 6998SOL    HW232457   4.114   1.865   1.892  1.3888 -0.0138 -0.5860
 6999SOL     OW32458   2.913   3.254   3.812 -0.8599  0.6769  0.2000
 6999SOL    HW132459   2.833   3.202   3.820  1.2033 -2.6275 -0.2570
 6999SOL    HW232460   2.880   3.303   3.737  1.2833  3.6867  1.2139
 7000SOL     OW32461   2.096   0.116   9.262  0.4243  0.6198 -0.3387
 7000SOL    HW132462   2.111   0.035   9.213 -1.7698 -0.7395  1.2585
 7000SOL    HW232463   2.097   0.077   9.350 -1.4386  2.8047  0.6268
 7001SOL     OW32464   1.415   3.510   7.777  0.1289  0.5515 -0.3787
 7001SOL    HW132465   1.326   3.496   7.745 -0.7615 -1.1201  2.7887
 7001SOL    HW232466   1.447   3.548   7.695  1.2721  0.9489  0.2433
 7002SOL     OW32467   0.841   1.087   7.034  0.7602  0.0123  0.3643
 7002SOL    HW132468   0.826   1.124   6.947  3.4217  0.2120 -0.0344
 7002SOL    HW232469   0.775   1.132   7.086  0.0551 -1.3161  0.6253
 7003SOL     OW32470   0.485   2.806  12.067 -0.0397 -0.2289  0.6535
 7003SOL    HW132471   0.463   2.899  12.071 -0.4975 -0.2694 -0.8854
 7003SOL    HW232472   0.403   2.778  12.026 -0.1903  2.3932 -0.9025
 7004SOL     OW32473   0.154   0.271   7.105  0.1492 -0.1497  0.0257
 7004SOL    HW132474   0.093   0.216   7.056  1.4243 -0.1110 -1.6009
 7004SOL    HW232475   0.230   0.213   7.099  0.1364 -0.1971  0.3224
 7005SOL     OW32476   2.124   4.314   9.187 -0.1771  0.0956 -0.3920
 7005SOL    HW132477   2.172   4.236   9.214 -0.5936  0.0051  0.0954
 7005SOL    HW232478   2.186   4.354   9.127  0.6673  0.6863  0.8610
 7006SOL     OW32479   2.706   4.187   0.319  0.6657  0.1297 -0.0887
 7006SOL    HW132480   2.733   4.134   0.394  0.4383 -0.0750 -0.1523
 7006SOL    HW232481   2.732   4.272   0.355  0.9069  0.4523 -1.0286
 7007SOL     OW32482   1.646   4.412   2.861 -0.3374  0.8190  0.4723
 7007SOL    HW132483   1.658   4.442   2.951 -2.0054  0.4388  0.8207
 7007SOL    HW232484   1.587   4.482   2.835 -0.3449  0.5498 -0.2329
 7008SOL     OW32485   0.715   4.583   6.754  0.4659  0.3276 -0.1267
 7008SOL    HW132486   0.679   4.610   6.670 -4.6802 -2.7998  1.0607
 7008SOL    HW232487   0.789   4.643   6.758 -1.2249  2.4097  0.2424
 7009SOL     OW32488   0.417   2.452   8.448  0.1307 -0.2992  0.1188
 7009SOL    HW132489   0.435   2.454   8.542  2.2676  0.7263 -0.3261
 7009SOL    HW232490   0.334   2.500   8.448  0.4544  0.2638  0.9612
 7010SOL     OW32491   1.004   1.169  11.543  0.5101  0.1373 -0.4692
 7010SOL    HW132492   1.014   1.130  11.456  0.1138 -2.0880  0.4768
 7010SOL    HW232493   0.925   1.218  11.522 -1.3571 -2.1066  1.4108
 7011SOL     OW32494   1.106   4.229   5.099 -0.0064 -0.2028 -0.1791
 7011SOL    HW132495   1.126   4.210   5.007 -1.9815 -3.2614  0.0185
 7011SOL    HW232496   1.180   4.187   5.142 -1.9293 -2.1467  1.2435
 7012SOL     OW32497   4.105   1.553  13.655 -0.1636  0.1125  0.1668
 7012SOL    HW132498   4.164   1.629  13.661 -0.1757  0.2122 -0.9421
 7012SOL    HW232499   4.120   1.521  13.566  2.1241 -0.0294  0.5939
 7013SOL     OW32500   1.561   2.971   9.468 -0.0353 -0.2443  0.4998
 7013SOL    HW132501   1.546   3.030   9.542  2.5653 -0.7721  1.4702
 7013SOL    HW232502   1.650   3.001   9.449 -0.1259 -0.1263  0.2616
 7014SOL     OW32503   2.550   2.850  11.653 -0.3277  0.6347 -0.3458
 7014SOL    HW132504   2.639   2.814  11.661 -1.3146 -2.0734 -1.5225
 7014SOL    HW232505   2.515   2.851  11.742  0.0021  0.2848 -0.2100
 7015SOL     OW32506   1.761   2.994   5.196  0.1145 -0.0641  0.1591
 7015SOL    HW132507   1.830   2.948   5.148  0.7685  2.5927 -1.4676
 7015SOL    HW232508   1.787   2.983   5.288  0.9163 -0.0563 -0.0713
 7016SOL     OW32509   3.213   4.491   7.247  0.0884  0.1266  0.2726
 7016SOL    HW132510   3.280   4.483   7.315  1.1742 -0.5594 -0.9047
 7016SOL    HW232511   3.145   4.521   7.308 -0.2797  1.6968 -0.9062
 7017SOL     OW32512   0.426   3.495   7.514  0.1336  0.0476  0.4251
 7017SOL    HW132513   0.513   3.496   7.554 -0.2665 -0.0701  1.2902
 7017SOL    HW232514   0.405   3.402   7.513  1.8966 -0.3616  1.3800
 7018SOL     OW32515   2.806   1.755   7.609 -0.1645 -0.4922 -0.2951
 7018SOL    HW132516   2.776   1.710   7.530 -0.3427 -0.4409 -0.2565
 7018SOL    HW232517   2.901   1.738   7.605 -0.4528 -2.3360  0.9848
 7019SOL     OW32518   3.342   4.160  16.073  0.1076  0.0526 -0.0853
 7019SOL    HW132519   3.302   4.219  16.137 -6.1636 -2.2796 -1.9437
 7019SOL    HW232520   3.434   4.181  16.093 -0.4741  1.6302  0.9837
 7020SOL     OW32521   1.007   0.617   0.158  0.8180  0.1940  0.1644
 7020SOL    HW132522   0.981   0.650   0.071  1.6253  2.2551  0.6950
 7020SOL    HW232523   1.098   0.648   0.150  0.7015  0.1071 -1.6696
 7021SOL     OW32524   0.551   1.160   3.224 -0.2680  0.4580  0.0004
 7021SOL    HW132525   0.594   1.137   3.307  0.7156 -0.3915 -0.7426
 7021SOL    HW232526   0.605   1.105   3.168 -1.1968 -2.5384  2.0619
 7022SOL     OW32527   1.958   0.536  15.556 -0.1239 -0.0570 -0.0536
 7022SOL    HW132528   1.875   0.511  15.515  0.0777 -1.1269  0.1966
 7022SOL    HW232529   2.008   0.555  15.476  0.8741 -1.5440  0.2206
 7023SOL     OW32530   1.425   3.091   7.519 -0.6304  0.1987 -0.0248
 7023SOL    HW132531   1.437   3.109   7.612  2.5754 -1.4409 -0.1080
 7023SOL    HW232532   1.336   3.057   7.509 -0.7000  0.8472 -1.6207
 7024SOL     OW32533   3.083   0.294  12.433  0.1433 -0.0913 -0.1261
 7024SOL    HW132534   3.161   0.274  12.382 -1.0417 -1.3962 -1.4462
 7024SOL    HW232535   3.031   0.213  12.432 -0.9786  0.5946  1.7509
 7025SOL     OW32536   3.389   0.581   5.869  0.0719 -0.3245  0.3872
 7025SOL    HW132537   3.334   0.658   5.886 -0.3289 -0.8679  1.4934
 7025SOL    HW232538   3.423   0.615   5.786 -0.4055 -3.0063 -0.8930
 7026SOL     OW32539   0.222   1.195  16.400  0.2457 -0.1258  0.7336
 7026SOL    HW132540   0.266   1.138  16.462 -0.9319 -3.7226 -1.7372
 7026SOL    HW232541   0.225   1.142  16.320  0.5948  3.4395 -1.6326
 7027SOL     OW32542   1.071   0.131   5.813  0.1574 -0.6055 -0.3146
 7027SOL    HW132543   0.991   0.161   5.770  0.5828  1.4552  0.3518
 7027SOL    HW232544   1.098   0.209   5.862  2.0076 -3.0523  2.5625
 7028SOL     OW32545   3.169   1.345   3.111  0.2624  0.0437  0.0953
 7028SOL    HW132546   3.185   1.311   3.023 -0.0008 -1.8364  0.7719
 7028SOL    HW232547   3.096   1.292   3.143 -0.6861  1.8610  0.9362
 7029SOL     OW32548   4.639   0.935   4.080 -0.2220  0.2600  0.3606
 7029SOL    HW132549   4.661   1.028   4.088  1.8439 -0.2531  0.5937
 7029SOL    HW232550   4.544   0.945   4.070 -0.1968  0.6293  0.4874
 7030SOL     OW32551   0.607   0.623   6.308 -0.5220  0.2324  0.4705
 7030SOL    HW132552   0.584   0.716   6.313 -1.2869  0.0242  0.8064
 7030SOL    HW232553   0.627   0.613   6.215 -2.3967 -0.5838  0.1540
 7031SOL     OW32554   4.470   3.040  10.788 -0.2478 -0.8333 -0.4709
 7031SOL    HW132555   4.504   3.118  10.833 -1.0043 -0.9847  0.3605
 7031SOL    HW232556   4.493   2.972  10.851 -2.0600  0.4610  1.5946
 7032SOL     OW32557   4.141   1.622   2.650  0.5219 -0.5677 -0.3173
 7032SOL    HW132558   4.163   1.695   2.707  3.1528 -2.0132  0.5449
 7032SOL    HW232559   4.191   1.635   2.569 -0.4127  0.6155 -0.7079
 7033SOL     OW32560   0.850   4.693  12.249 -0.0920 -0.0299  0.3782
 7033SOL    HW132561   0.809   4.638  12.182  1.4868  1.2007 -1.6149
 7033SOL    HW232562   0.880   0.040  12.190 -0.5108  0.9505  1.2964
 7034SOL     OW32563   1.564   0.555   6.853  0.7252 -0.2902 -0.0440
 7034SOL    HW132564   1.648   0.590   6.883 -0.5100  2.7914 -0.1837
 7034SOL    HW232565   1.595   0.513   6.773  0.2554 -0.0289 -0.3628
 7035SOL     OW32566   3.162   0.358   3.479 -0.7816 -0.6339 -0.1152
 7035SOL    HW132567   3.150   0.263   3.490 -1.0356 -0.6819 -0.7689
 7035SOL    HW232568   3.116   0.379   3.397  0.4914 -1.9679 -1.1746
 7036SOL     OW32569   4.616   2.563   0.016 -0.0466 -0.4289  0.0978
 7036SOL    HW132570   4.680   2.508  17.660 -0.7558 -2.3754  1.4410
 7036SOL    HW232571   4.657   2.570   0.102 -0.8472 -1.1752  0.5457
 7037SOL     OW32572   3.478   4.407   2.544  0.1452 -0.4531 -0.2222
 7037SOL    HW132573   3.552   4.349   2.560  0.7826  0.8425  1.5635
 7037SOL    HW232574   3.403   4.360   2.581  0.3270  0.3876  1.2270
 7038SOL     OW32575   2.856   1.801   5.428 -0.0270 -0.8008 -0.4058
 7038SOL    HW132576   2.927   1.810   5.365  0.7281  0.7551  0.6611
 7038SOL    HW232577   2.860   1.719   5.478  0.2100 -1.3183 -1.2788
 7039SOL     OW32578   2.264   0.326  15.659  0.6168 -0.5352  0.0017
 7039SOL    HW132579   2.229   0.331  15.570 -1.4431  1.0752  0.9229
 7039SOL    HW232580   2.304   0.413  15.666  1.5504 -1.0161  0.7328
 7040SOL     OW32581   3.552   1.107  10.755 -0.5446  0.2620 -0.5070
 7040SOL    HW132582   3.465   1.076  10.728 -1.2326 -0.5468  2.5382
 7040SOL    HW232583   3.515   1.180  10.804  0.6152  1.7827 -1.9518
 7041SOL     OW32584   1.938   0.219   3.977 -0.9858 -0.6220 -0.4998
 7041SOL    HW132585   1.928   0.237   4.070  1.8942 -0.6649 -0.1679
 7041SOL    HW232586   1.856   0.173   3.960 -0.7951 -1.0461 -0.2889
 7042SOL     OW32587   0.421   4.267   3.407  0.6645  0.0973 -0.2109
 7042SOL    HW132588   0.398   4.177   3.429  1.3101 -0.1211 -0.4245
 7042SOL    HW232589   0.334   4.306   3.416 -0.0654 -1.3500 -1.0835
 7043SOL     OW32590   4.446   2.147   7.820  0.2855  0.4805  0.5893
 7043SOL    HW132591   4.449   2.191   7.735  1.4959 -1.0449 -0.1626
 7043SOL    HW232592   4.417   2.064   7.783  0.1735  1.4503 -1.4974
 7044SOL     OW32593   3.177   1.545   8.521  0.3343  0.1420  0.4337
 7044SOL    HW132594   3.107   1.536   8.585  0.2350 -2.3188 -0.0237
 7044SOL    HW232595   3.216   1.627   8.552  1.3625 -0.7094  1.3717
 7045SOL     OW32596   0.651   3.352   0.181  0.1404 -0.0085  0.0184
 7045SOL    HW132597   0.624   3.344   0.273 -1.6520  0.4871 -0.4601
 7045SOL    HW232598   0.672   3.446   0.179 -0.0625  0.0838  1.9262
 7046SOL     OW32599   1.299   1.137   0.461 -0.2844 -0.1714  0.1720
 7046SOL    HW132600   1.230   1.139   0.527 -1.1188  0.8001 -0.7174
 7046SOL    HW232601   1.325   1.228   0.473  2.5095 -0.9088 -0.3981
 7047SOL     OW32602   2.059   3.827   3.156 -0.0541  0.2483  0.8854
 7047SOL    HW132603   2.115   3.864   3.087  1.4098 -0.0475  1.9074
 7047SOL    HW232604   2.031   3.914   3.185 -1.7482 -0.1315  0.3566
 7048SOL     OW32605   0.225   2.470   6.782 -0.0721  0.5387 -0.4021
 7048SOL    HW132606   0.285   2.542   6.799  0.7643 -0.3443  0.3850
 7048SOL    HW232607   0.280   2.393   6.794 -0.9150 -0.1673 -1.0558
 7049SOL     OW32608   2.997   3.205  15.247 -0.1059  0.5910  0.0195
 7049SOL    HW132609   2.990   3.169  15.159  0.4544  1.5762 -0.4326
 7049SOL    HW232610   3.080   3.254  15.248 -0.7601  1.7173 -0.8202
 7050SOL     OW32611   2.570   2.356   3.367  0.1839 -0.7273 -0.3855
 7050SOL    HW132612   2.661   2.351   3.396  0.0918 -0.9567 -0.1228
 7050SOL    HW232613   2.570   2.390   3.278 -2.4437 -2.0287 -0.8991
 7051SOL     OW32614   0.247   3.688   3.021 -0.5693 -0.3413 -0.1555
 7051SOL    HW132615   0.236   3.608   2.969  0.7163 -0.6763  0.0945
 7051SOL    HW232616   0.217   3.748   2.953  1.3613  0.4357 -0.2982
 7052SOL     OW32617   0.934   2.011   2.727 -0.1953  0.0967  0.2097
 7052SOL    HW132618   0.903   2.044   2.812 -1.0945 -0.1308 -0.0303
 7052SOL    HW232619   0.926   2.091   2.675 -2.1089 -1.3317 -1.6723
 7053SOL     OW32620   0.037   2.327   7.487 -0.3592 -0.0167  0.5258
 7053SOL    HW132621   0.026   2.422   7.481 -0.1972  0.0762  1.6871
 7053SOL    HW232622   0.040   2.315   7.582 -1.5523 -0.4055  0.5172
 7054SOL     OW32623   3.766   1.888   9.747 -0.7959  0.0320 -0.2658
 7054SOL    HW132624   3.763   1.976   9.784  0.4249 -0.0892  0.0986
 7054SOL    HW232625   3.803   1.902   9.660 -1.9935 -3.1176 -1.2998
 7055SOL     OW32626   4.679   3.532  12.219 -0.0868  0.2191 -0.2895
 7055SOL    HW132627   4.604   3.509  12.273  0.6151 -0.2720  0.4721
 7055SOL    HW232628   4.673   3.455  12.162 -0.4165 -1.5555  2.1408
 7056SOL     OW32629   1.501   3.870   1.508 -0.5387  0.0496  0.0086
 7056SOL    HW132630   1.486   3.964   1.514  1.7566  0.2666  2.3088
 7056SOL    HW232631   1.497   3.846   1.600 -2.5907  0.2396 -0.0396
 7057SOL     OW32632   3.896   3.086   9.498 -0.5351  0.2827 -0.5979
 7057SOL    HW132633   3.954   3.089   9.422  0.8521  1.4796  0.5174
 7057SOL    HW232634   3.813   3.096   9.450 -0.3384 -1.7628 -1.3526
 7058SOL     OW32635   0.109   3.994   7.119  0.2939  0.0206  0.2215
 7058SOL    HW132636   0.175   3.932   7.150 -0.4710 -1.1764 -0.5134
 7058SOL    HW232637   0.115   4.061   7.187 -1.0626  2.9421 -2.5123
 7059SOL     OW32638   3.842   4.455   6.565 -0.6604 -0.3599  0.1062
 7059SOL    HW132639   3.829   4.545   6.534  2.6577 -0.3917 -1.3166
 7059SOL    HW232640   3.927   4.438   6.524 -0.3492 -2.6309  1.7125
 7060SOL     OW32641   3.777   4.634   3.697  0.1483 -0.2340 -0.4779
 7060SOL    HW132642   3.761   4.552   3.650 -2.0010 -0.2838  0.3380
 7060SOL    HW232643   3.692   4.678   3.705 -0.5157 -1.3791 -1.3900
 7061SOL     OW32644   3.151   4.550  11.064 -0.5545  0.0037  0.1671
 7061SOL    HW132645   3.110   4.472  11.027 -3.4352  0.9634  1.3396
 7061SOL    HW232646   3.181   4.597  10.986 -1.9428  1.2629  0.3956
 7062SOL     OW32647   4.273   0.664   5.235 -0.3575 -0.0375 -0.1358
 7062SOL    HW132648   4.315   0.588   5.275  2.1072  0.8447 -1.0938
 7062SOL    HW232649   4.281   0.644   5.142  1.9136 -0.6491  0.2043
 7063SOL     OW32650   4.288   0.213  16.349 -0.3641 -0.1542 -0.3470
 7063SOL    HW132651   4.347   0.216  16.424 -1.7691  0.1103  0.7179
 7063SOL    HW232652   4.215   0.269  16.372  1.6901  2.2906  0.2640
 7064SOL     OW32653   4.276   4.509   5.664 -0.1674 -0.2773 -0.0036
 7064SOL    HW132654   4.341   4.579   5.654  1.2845 -1.3362  2.2600
 7064SOL    HW232655   4.211   4.532   5.597  0.1742  1.3401  0.2261
 7065SOL     OW32656   0.631   2.438   3.545 -0.0862 -0.0511  0.2142
 7065SOL    HW132657   0.569   2.366   3.560  1.9079 -1.8760 -0.3462
 7065SOL    HW232658   0.650   2.467   3.634 -0.3117  2.4274 -0.5424
 7066SOL     OW32659   4.637   1.566  14.732 -0.4392  0.1879  0.1956
 7066SOL    HW132660   4.584   1.637  14.694 -2.8710 -0.3555  2.5285
 7066SOL    HW232661   4.608   1.495  14.675 -1.6875  0.4984  0.4199
 7067SOL     OW32662   1.426   2.431   7.085  0.0228 -0.2657 -0.1007
 7067SOL    HW132663   1.370   2.368   7.041 -0.6234  2.6203 -3.4129
 7067SOL    HW232664   1.420   2.392   7.173 -1.3154  1.3535  0.5311
 7068SOL     OW32665   1.835   1.067   6.903 -0.0352  0.3049  0.7557
 7068SOL    HW132666   1.785   1.142   6.935 -1.9279  0.3086 -2.2653
 7068SOL    HW232667   1.902   1.055   6.971  1.5215 -2.1511 -1.2384
 7069SOL     OW32668   4.586   3.184   5.442  0.3439 -0.0141  0.2677
 7069SOL    HW132669   4.528   3.213   5.512 -0.3663 -0.3193 -0.1945
 7069SOL    HW232670   4.598   3.096   5.478 -0.5955 -0.3653 -0.2574
 7070SOL     OW32671   2.894   0.589  17.032 -0.1882 -0.4171  0.2903
 7070SOL    HW132672   2.935   0.548  16.956 -0.8780  0.4501 -0.5545
 7070SOL    HW232673   2.921   0.529  17.101  0.2546 -0.5845 -0.0298
 7071SOL     OW32674   1.866   2.085   2.579 -0.1487  0.1800 -0.7926
 7071SOL    HW132675   1.779   2.047   2.596  0.6130 -1.2427 -0.0306
 7071SOL    HW232676   1.881   2.068   2.486 -1.5084  2.1320 -1.3730
 7072SOL     OW32677   2.179   2.703   5.876 -0.7150 -0.0328  0.1301
 7072SOL    HW132678   2.144   2.685   5.964 -0.6851 -0.1890  0.1096
 7072SOL    HW232679   2.257   2.647   5.870  0.3132  1.2232  1.7485
 7073SOL     OW32680   3.334   3.096  15.830  0.4415  0.2736 -0.0368
 7073SOL    HW132681   3.397   3.159  15.796 -0.8270  1.9385  0.7308
 7073SOL    HW232682   3.362   3.073  15.918 -0.2332  1.2674  0.4326
 7074SOL     OW32683   1.510   2.061  12.723 -0.4022  0.0412  0.2899
 7074SOL    HW132684   1.551   2.124  12.783  0.6680 -0.1540 -0.2391
 7074SOL    HW232685   1.583   2.040  12.666  1.8451 -0.0187  3.1942
 7075SOL     OW32686   3.788   2.479   2.381 -0.0952  0.0879  0.1458
 7075SOL    HW132687   3.792   2.566   2.420 -0.7359  1.2886 -2.4804
 7075SOL    HW232688   3.723   2.492   2.312 -2.4094 -1.4866  2.0225
 7076SOL     OW32689   4.358   3.127  16.557 -0.2861 -0.4866 -0.5411
 7076SOL    HW132690   4.346   3.155  16.466 -0.0308  1.0669 -0.1015
 7076SOL    HW232691   4.392   3.039  16.542 -0.0678 -0.3297 -0.9682
 7077SOL     OW32692   2.870   4.576   9.263  0.0871 -0.0518  0.7729
 7077SOL    HW132693   2.823   4.610   9.187  1.1722  0.3892  0.3084
 7077SOL    HW232694   2.817   4.500   9.286 -0.2741  0.0463  0.2548
 7078SOL     OW32695   0.149   0.971   8.569 -0.3308  0.4334  0.4086
 7078SOL    HW132696   0.131   1.025   8.492 -1.5108  0.6056  0.8215
 7078SOL    HW232697   0.174   0.885   8.533  1.7039  0.6604  1.2417
 7079SOL     OW32698   2.137   3.048   3.411 -0.0396  0.4707  0.0221
 7079SOL    HW132699   2.208   2.988   3.388  1.0214  1.5036  0.6228
 7079SOL    HW232700   2.071   2.985   3.440 -1.4703  1.6714 -0.6182
 7080SOL     OW32701   3.543   2.188  15.490 -0.1508 -0.4015 -0.0547
 7080SOL    HW132702   3.537   2.255  15.422  0.2080 -0.3146  0.0003
 7080SOL    HW232703   3.514   2.242  15.563  1.7722 -1.7559  1.7270
 7081SOL     OW32704   1.019   0.583  10.594  0.6771  0.3446  0.0420
 7081SOL    HW132705   1.028   0.574  10.689 -0.9090 -1.4288  0.0264
 7081SOL    HW232706   1.032   0.677  10.586  1.7353  0.2705  0.8501
 7082SOL     OW32707   2.628   1.873  10.803 -0.1334 -0.1532  0.4388
 7082SOL    HW132708   2.540   1.865  10.840 -0.1483 -0.8250  0.2605
 7082SOL    HW232709   2.617   1.948  10.744 -0.1905  1.5154  2.5616
 7083SOL     OW32710   2.603   2.060  17.491 -0.0857 -0.0509 -0.3765
 7083SOL    HW132711   2.593   2.136  17.549 -1.6391 -0.9049  0.4697
 7083SOL    HW232712   2.510   2.042  17.481 -0.4716  1.6527  0.1394
 7084SOL     OW32713   0.038   1.242   3.449  0.4769 -0.2748  0.0145
 7084SOL    HW132714   4.712   1.322   3.428  0.7910 -0.2882 -0.7383
 7084SOL    HW232715   0.123   1.273   3.480 -0.1556  2.2926 -0.8155
 7085SOL     OW32716   2.624   1.291  13.463  0.4562  0.6809 -0.3283
 7085SOL    HW132717   2.691   1.319  13.525  1.4964 -1.9610 -0.2410
 7085SOL    HW232718   2.665   1.322  13.382  0.0846 -1.4646 -1.3296
 7086SOL     OW32719   3.042   3.653  15.573 -0.1661  0.1949  0.1108
 7086SOL    HW132720   3.097   3.722  15.535  1.7730 -0.1669  2.2780
 7086SOL    HW232721   3.002   3.620  15.493 -2.4124  0.2665  1.1829
 7087SOL     OW32722   0.022   4.602  15.547  0.5608 -0.3421  0.5658
 7087SOL    HW132723   4.697   4.683  15.529  1.0234  0.1265  1.4508
 7087SOL    HW232724   4.674   4.537  15.539  0.6141 -0.5073  1.3805
 7088SOL     OW32725   4.641   1.137   1.725  0.1191  0.4371 -0.1658
 7088SOL    HW132726   4.713   1.152   1.663 -1.1502 -2.6507 -2.3954
 7088SOL    HW232727   4.680   1.097   1.802  0.2776 -0.6300 -0.8013
 7089SOL     OW32728   3.424   4.688   8.057  0.6471  0.6357 -0.1610
 7089SOL    HW132729   3.391   4.658   8.142  1.4607  0.4326  0.0931
 7089SOL    HW232730   3.516   4.671   8.081  0.4702 -1.8707 -1.2542
 7090SOL     OW32731   0.079   2.109   5.205 -0.0670  0.4677 -0.3879
 7090SOL    HW132732   0.031   2.095   5.123 -2.5463  0.7050  1.0313
 7090SOL    HW232733   0.167   2.117   5.169  0.0681 -1.1812 -0.4198
 7091SOL     OW32734   4.636   0.518   2.434  0.2197 -0.0451 -0.2267
 7091SOL    HW132735   4.691   0.582   2.479  1.5871 -0.5351 -1.2036
 7091SOL    HW232736   4.685   0.438   2.413  1.0316  0.2931  0.3946
 7092SOL     OW32737   2.912   0.590   3.070 -0.0774  0.2603 -0.3687
 7092SOL    HW132738   2.874   0.627   3.150 -0.8921  0.3571 -0.7974
 7092SOL    HW232739   2.840   0.598   3.007 -1.1041  2.8033  1.1230
 7093SOL     OW32740   2.790   0.619   3.800 -0.1202 -0.3777  0.0143
 7093SOL    HW132741   2.697   0.599   3.792 -0.3083  0.0760  1.1316
 7093SOL    HW232742   2.812   0.561   3.873  0.9206 -2.8459 -2.2721
 7094SOL     OW32743   1.654   1.359  16.631  0.2729 -0.2395  0.0167
 7094SOL    HW132744   1.624   1.331  16.717 -1.1566  2.4497  0.4035
 7094SOL    HW232745   1.583   1.406  16.587 -2.5169 -3.7318  0.8579
 7095SOL     OW32746   4.490   2.445   6.275 -0.3769 -0.0576  0.2777
 7095SOL    HW132747   4.406   2.451   6.320 -0.1304  2.6022  0.3824
 7095SOL    HW232748   4.495   2.350   6.266 -0.5116 -0.1309  0.9954
 7096SOL     OW32749   0.807   1.271  12.115 -0.2172 -0.4019 -0.0834
 7096SOL    HW132750   0.802   1.350  12.060  0.7876 -0.1157  0.2239
 7096SOL    HW232751   0.807   1.326  12.194 -1.5753  0.7681 -0.8932
 7097SOL     OW32752   3.792   3.750   1.959  0.0613 -0.1485 -0.0374
 7097SOL    HW132753   3.846   3.824   1.930 -1.2406  0.6224 -0.5181
 7097SOL    HW232754   3.747   3.778   2.039  1.6446 -2.2199  1.5700
 7098SOL     OW32755   0.200   0.706   6.817 -0.1272 -0.5687 -0.3181
 7098SOL    HW132756   0.231   0.692   6.906 -1.9866  0.0557  0.4177
 7098SOL    HW232757   0.134   0.639   6.803  0.2411 -1.0356  0.1983
 7099SOL     OW32758   4.513   3.488   9.399 -0.4519 -0.4582 -0.4230
 7099SOL    HW132759   4.425   3.527   9.398 -0.1010  0.3982  1.0575
 7099SOL    HW232760   4.543   3.532   9.479 -1.0196  0.0492 -0.4863
 7100SOL     OW32761   0.238   3.301   5.442  0.5326  0.5481  0.1017
 7100SOL    HW132762   0.285   3.226   5.480 -2.5101 -0.3782  1.9962
 7100SOL    HW232763   0.204   3.257   5.364 -0.8250 -0.1941  1.1167
 7101SOL     OW32764   3.918   1.164   0.987 -0.4120 -0.2370  0.1861
 7101SOL    HW132765   3.986   1.107   0.952 -0.6396 -1.9975  2.5912
 7101SOL    HW232766   3.971   1.217   1.046  0.1518  0.1381 -0.6553
 7102SOL     OW32767   2.845   3.629   1.636  0.1200 -0.1186 -0.2108
 7102SOL    HW132768   2.918   3.685   1.609 -0.8534  2.5262  2.5047
 7102SOL    HW232769   2.854   3.549   1.585 -0.1758 -0.3316  0.0701
 7103SOL     OW32770   3.175   4.639   5.278 -0.2057 -0.2871 -0.3235
 7103SOL    HW132771   3.080   4.629   5.272 -0.2678 -0.5014  1.0125
 7103SOL    HW232772   3.192   4.548   5.253 -0.6084 -0.2969 -0.5588
 7104SOL     OW32773   1.011   2.945   1.094 -0.4699 -0.0371 -0.0115
 7104SOL    HW132774   0.923   2.946   1.057 -0.6780  0.0874  0.4920
 7104SOL    HW232775   1.003   2.939   1.189 -1.1798 -0.9159 -0.1320
 7105SOL     OW32776   4.084   1.763   9.366 -0.2006 -0.3410 -0.1363
 7105SOL    HW132777   4.110   1.809   9.286  1.4997  2.2075  1.9029
 7105SOL    HW232778   4.161   1.786   9.417 -0.9730  0.5761  0.6220
 7106SOL     OW32779   2.345   2.440   6.787 -0.2623  0.5878  0.0861
 7106SOL    HW132780   2.367   2.352   6.756  0.5579  0.9583 -0.3948
 7106SOL    HW232781   2.250   2.427   6.794 -0.1353  0.1730  1.0763
 7107SOL     OW32782   3.952   4.115  10.137  0.5171 -0.0709 -0.2454
 7107SOL    HW132783   3.907   4.079  10.061 -2.2924  1.0477  0.8858
 7107SOL    HW232784   4.042   4.082  10.132  0.1048 -0.8951 -2.5020
 7108SOL     OW32785   3.479   2.942   3.482  0.1513  0.4362 -0.6075
 7108SOL    HW132786   3.438   3.025   3.504  2.0729  1.3781 -0.5339
 7108SOL    HW232787   3.556   2.969   3.533 -0.8821  1.9573  0.1447
 7109SOL     OW32788   4.565   3.251   3.784 -0.3746 -0.2072 -0.2621
 7109SOL    HW132789   4.576   3.194   3.707 -0.3160 -1.3571  0.6069
 7109SOL    HW232790   4.521   3.193   3.846 -1.8254  0.5213 -0.6051
 7110SOL     OW32791   4.290   0.873  15.604 -0.0131  0.1835 -0.7321
 7110SOL    HW132792   4.259   0.960  15.628  2.8764  0.4760  1.8629
 7110SOL    HW232793   4.382   0.880  15.632  0.1757 -1.3084 -0.9986
 7111SOL     OW32794   0.061   2.566  13.578  0.0396 -0.2715 -0.4949
 7111SOL    HW132795   0.002   2.594  13.648  1.0185 -0.4474  0.4133
 7111SOL    HW232796   0.050   2.471  13.576  2.9869 -0.6248  0.1252
 7112SOL     OW32797   3.752   3.356   3.067  0.0157 -0.2218 -0.3959
 7112SOL    HW132798   3.839   3.349   3.106  0.1896  0.0817 -0.7257
 7112SOL    HW232799   3.701   3.306   3.131  0.0154  0.2852 -0.0025
 7113SOL     OW32800   2.835   3.716   4.824  0.4643  0.3016 -0.0009
 7113SOL    HW132801   2.822   3.777   4.897  1.6212  0.1656  0.3182
 7113SOL    HW232802   2.856   3.778   4.754  1.2852 -0.1702 -0.1686
 7114SOL     OW32803   4.434   0.921   8.914 -0.1837 -0.3871  0.1340
 7114SOL    HW132804   4.522   0.907   8.879 -0.2851 -0.5090 -0.0694
 7114SOL    HW232805   4.444   0.925   9.009 -0.0545  0.0535  0.1021
 7115SOL     OW32806   2.321   2.472  16.981 -0.0806 -0.0096 -0.0836
 7115SOL    HW132807   2.281   2.558  16.966  1.6740  0.7641 -0.3725
 7115SOL    HW232808   2.402   2.484  16.930 -0.8340  2.4110 -0.7395
 7116SOL     OW32809   3.383   0.283  11.251 -0.5746 -0.4811  0.5793
 7116SOL    HW132810   3.363   0.235  11.331 -0.0459  0.0665  1.0401
 7116SOL    HW232811   3.474   0.263  11.229  0.0576 -0.3819  3.0777
 7117SOL     OW32812   0.982   3.096  10.885 -0.4652  0.0488  0.6551
 7117SOL    HW132813   0.982   3.033  10.958 -0.2108 -0.3810  0.2894
 7117SOL    HW232814   1.005   3.179  10.925 -3.8540  0.5426  1.5606
 7118SOL     OW32815   0.493   2.306  10.491  0.1029 -0.6184  0.4004
 7118SOL    HW132816   0.434   2.300  10.415  0.9527 -0.0410 -0.3054
 7118SOL    HW232817   0.566   2.246  10.475 -1.5950 -2.9262  1.2980
 7119SOL     OW32818   3.920   2.460   5.872 -0.2403  0.4220  0.2691
 7119SOL    HW132819   3.947   2.456   5.963 -1.5924  1.0234  0.6983
 7119SOL    HW232820   3.979   2.524   5.833  0.3751 -0.4183 -0.1763
 7120SOL     OW32821   2.916   1.127   1.096  0.7017  0.0302 -0.1464
 7120SOL    HW132822   2.857   1.058   1.065 -0.0525  0.7905 -0.4001
 7120SOL    HW232823   2.896   1.128   1.189 -1.8584  1.0811 -0.6931
 7121SOL     OW32824   0.691   2.959   7.713 -0.3573 -0.2801 -0.2015
 7121SOL    HW132825   0.706   3.052   7.732 -0.5364 -0.2288 -0.3041
 7121SOL    HW232826   0.690   2.935   7.805  1.7484  0.2026 -0.0527
 7122SOL     OW32827   1.235   4.000   4.136  0.0542  0.2181 -0.0137
 7122SOL    HW132828   1.225   4.007   4.231  0.6163  1.2842 -0.0403
 7122SOL    HW232829   1.235   3.904   4.134 -0.3717  0.2125  0.2313
 7123SOL     OW32830   2.856   2.265  12.922  0.1840  0.1016 -0.3164
 7123SOL    HW132831   2.848   2.172  12.945 -1.1459  0.1704 -0.5006
 7123SOL    HW232832   2.934   2.289  12.971  0.0534 -1.1458  0.4993
 7124SOL     OW32833   2.524   3.481   7.252 -0.5560 -0.0328  0.3485
 7124SOL    HW132834   2.582   3.490   7.176 -0.8165  0.9065  0.2601
 7124SOL    HW232835   2.466   3.557   7.257 -0.2653  0.1012  1.7320
 7125SOL     OW32836   4.554   3.516   2.773  0.0041  0.0605  0.2051
 7125SOL    HW132837   4.509   3.575   2.833 -0.0118  2.7146 -2.3941
 7125SOL    HW232838   4.489   3.471   2.719  0.1188 -2.0900  1.8744
 7126SOL     OW32839   3.007   0.185   7.045  0.1506  0.4669 -0.0526
 7126SOL    HW132840   2.925   0.226   7.018 -0.4624 -1.6524 -1.4031
 7126SOL    HW232841   3.059   0.192   6.965  1.7374  1.4345  1.0503
 7127SOL     OW32842   4.232   0.222   3.113 -0.0075 -0.1654 -0.2472
 7127SOL    HW132843   4.155   0.217   3.057 -0.1651  0.6374 -0.0953
 7127SOL    HW232844   4.215   0.295   3.172  1.6981  0.2056 -0.2065
 7128SOL     OW32845   3.618   0.225   4.464  0.4435  0.1523  0.1904
 7128SOL    HW132846   3.690   0.180   4.508  0.7526  0.3117 -0.1535
 7128SOL    HW232847   3.659   0.309   4.442  1.2431  0.1577  1.7114
 7129SOL     OW32848   2.786   3.489  16.916  0.1444  0.1721  0.0664
 7129SOL    HW132849   2.700   3.510  16.952 -0.4860 -2.4222  0.1286
 7129SOL    HW232850   2.830   3.431  16.979  3.3691  1.8635 -0.6621
 7130SOL     OW32851   0.100   1.782  15.158 -0.2136  0.0799 -0.0991
 7130SOL    HW132852   0.074   1.691  15.145  1.3172 -0.1508 -1.5819
 7130SOL    HW232853   0.020   1.819  15.193 -0.1787  1.4777 -1.5253
 7131SOL     OW32854   0.880   2.005  11.684 -0.3972 -0.2041 -0.5903
 7131SOL    HW132855   0.822   1.930  11.674  1.6521 -1.7434 -0.9842
 7131SOL    HW232856   0.829   2.071  11.638 -0.5339  0.0121 -0.1325
 7132SOL     OW32857   0.692   1.330  11.536  0.1890 -0.4542  0.2367
 7132SOL    HW132858   0.704   1.242  11.499  0.4654 -0.6175  0.6964
 7132SOL    HW232859   0.619   1.364  11.485 -0.0257 -0.0143  0.8350
 7133SOL     OW32860   1.783   0.631   6.953  0.1971 -0.0106 -0.1759
 7133SOL    HW132861   1.850   0.675   7.006  0.8701 -0.7663 -0.3940
 7133SOL    HW232862   1.840   0.574   6.901  2.5207  1.9551  0.2418
 7134SOL     OW32863   1.927   3.135   6.431 -0.1236 -0.4290  0.1748
 7134SOL    HW132864   1.991   3.206   6.424 -0.2546 -0.1447  1.9671
 7134SOL    HW232865   1.936   3.101   6.520 -2.7208 -2.4940 -0.3574
 7135SOL     OW32866   3.047   2.609   3.221  0.5861  0.5140  0.3766
 7135SOL    HW132867   2.999   2.692   3.227 -0.8496 -0.2213 -1.0390
 7135SOL    HW232868   2.994   2.555   3.279  0.0516  1.8535  1.1292
 7136SOL     OW32869   1.914   1.462   5.695 -0.7297  0.6432  0.4246
 7136SOL    HW132870   1.850   1.532   5.713 -1.8020 -0.0121 -0.8252
 7136SOL    HW232871   1.849   1.392   5.700 -0.3475  0.2695  0.1488
 7137SOL     OW32872   0.503   2.302   7.592  0.0713  0.2505  0.0584
 7137SOL    HW132873   0.576   2.257   7.549  1.3331  0.7613  1.6470
 7137SOL    HW232874   0.525   2.395   7.578  0.2024  0.1576 -0.3600
 7138SOL     OW32875   1.304   0.692   3.446  0.2396  0.4777 -0.5714
 7138SOL    HW132876   1.293   0.692   3.351  2.0475 -0.9179 -0.8015
 7138SOL    HW232877   1.230   0.750   3.462 -0.8096 -1.3803  1.3439
 7139SOL     OW32878   4.539   4.392   6.797 -0.6199  0.4789  0.0096
 7139SOL    HW132879   4.617   4.338   6.807 -0.3773  1.0136  0.9730
 7139SOL    HW232880   4.469   4.330   6.778  0.4498 -1.7752  3.4946
 7140SOL     OW32881   4.397   1.364   4.568  0.1150 -0.0384 -0.1848
 7140SOL    HW132882   4.493   1.367   4.569  0.1807 -2.0740  0.1903
 7140SOL    HW232883   4.380   1.275   4.535 -0.9961 -0.0262  0.3606
 7141SOL     OW32884   0.021   0.876   7.140  0.0801 -0.2385  0.1126
 7141SOL    HW132885   0.014   0.837   7.227 -0.2898  0.2699  0.3165
 7141SOL    HW232886   4.649   0.883   7.121 -0.0431  1.2006  1.2829
 7142SOL     OW32887   3.343   3.870   7.074  0.5190  0.0546  0.0142
 7142SOL    HW132888   3.257   3.860   7.034  1.3645 -0.4478 -1.6774
 7142SOL    HW232889   3.365   3.962   7.060  0.1753  0.2735  0.8918
 7143SOL     OW32890   0.639   0.431   9.214  0.2275 -0.2032 -0.4412
 7143SOL    HW132891   0.661   0.517   9.249 -1.2450  1.6669 -4.1455
 7143SOL    HW232892   0.577   0.419   9.286 -0.4092 -1.3525 -1.1704
 7144SOL     OW32893   3.208   0.326   9.282  0.8896 -0.1948 -0.0256
 7144SOL    HW132894   3.213   0.268   9.357  2.7091  0.2425  0.1863
 7144SOL    HW232895   3.223   0.258   9.216 -1.1150 -0.8512  0.2028
 7145SOL     OW32896   0.259   2.342  12.998 -0.0142  0.2573  0.4941
 7145SOL    HW132897   0.189   2.291  13.040  0.3792 -1.4688 -0.9616
 7145SOL    HW232898   0.259   2.422  13.050  0.0161 -0.8817  2.2734
 7146SOL     OW32899   1.632   3.906   7.372  0.0803 -0.0387 -0.5669
 7146SOL    HW132900   1.567   3.837   7.363 -0.7247  0.5005  1.2230
 7146SOL    HW232901   1.717   3.862   7.370 -0.5615 -1.4468  3.0796
 7147SOL     OW32902   3.506   1.897   9.030 -0.0499 -0.5355 -0.1277
 7147SOL    HW132903   3.529   1.920   8.940  2.2982  0.5670  0.7520
 7147SOL    HW232904   3.416   1.929   9.033  0.3685  0.5934  0.2424
 7148SOL     OW32905   2.633   1.475  17.624 -0.7411  0.2280 -0.0901
 7148SOL    HW132906   2.608   1.416  17.553  3.4582  0.3806 -1.6977
 7148SOL    HW232907   2.623   1.414   0.008  0.2151 -0.7340 -0.7628
 7149SOL     OW32908   2.068   3.406  10.003  0.4090 -0.3939  0.1156
 7149SOL    HW132909   2.100   3.372   9.919 -1.0269 -0.9921 -0.2024
 7149SOL    HW232910   1.976   3.387   9.981  0.0528  2.7502 -1.0703
 7150SOL     OW32911   3.034   0.403  17.201  0.1106  0.0836  0.0576
 7150SOL    HW132912   3.033   0.308  17.186 -0.7760  0.4522 -2.1140
 7150SOL    HW232913   3.084   0.396  17.283  0.8356  1.2767 -0.2924
 7151SOL     OW32914   2.187   4.458   3.961  0.0076  0.3119  0.0628
 7151SOL    HW132915   2.187   4.480   4.054 -0.5302  1.3771 -0.1870
 7151SOL    HW232916   2.213   4.366   3.963  0.7022  0.5116  0.3159
 7152SOL     OW32917   4.395   4.199   4.125 -0.1058 -0.2545  0.1194
 7152SOL    HW132918   4.444   4.120   4.099 -2.4341 -2.4598  2.4755
 7152SOL    HW232919   4.465   4.249   4.166 -0.2459 -0.0574  0.1172
 7153SOL     OW32920   4.364   0.530  15.698  0.3581  0.0646  0.1413
 7153SOL    HW132921   4.278   0.535  15.654  0.6155 -1.1169 -0.4899
 7153SOL    HW232922   4.359   0.599  15.764  0.9321  1.7630 -1.5861
 7154SOL     OW32923   3.247   1.291  15.673  0.0690  0.7207  0.4016
 7154SOL    HW132924   3.316   1.289  15.739  0.4532  1.8343  0.0276
 7154SOL    HW232925   3.192   1.219  15.705 -0.6309  1.8906  1.8624
 7155SOL     OW32926   4.165   1.024  13.073  0.3376  0.1767  0.8034
 7155SOL    HW132927   4.105   1.066  13.135 -0.7326  0.3058 -0.3192
 7155SOL    HW232928   4.120   0.941  13.056  0.4167 -0.3133  3.0111
 7156SOL     OW32929   1.472   1.256   7.344  0.2955  0.0089  0.3386
 7156SOL    HW132930   1.503   1.193   7.280 -1.1361  1.1792 -1.5067
 7156SOL    HW232931   1.397   1.292   7.297  0.9145  0.3814 -0.3596
 7157SOL     OW32932   3.711   3.696   6.702 -0.5007 -0.1640 -0.1453
 7157SOL    HW132933   3.646   3.724   6.767 -1.4366 -3.1206  0.1928
 7157SOL    HW232934   3.765   3.774   6.690 -1.1896  0.4783  0.8542
 7158SOL     OW32935   4.047   0.726  13.668 -0.2716  0.2604  0.3735
 7158SOL    HW132936   4.018   0.639  13.641  3.0940 -0.2931 -1.5420
 7158SOL    HW232937   3.972   0.750  13.722 -1.6225 -0.6583 -1.1223
 7159SOL     OW32938   0.814   0.584   1.075 -0.1474  0.5333 -0.7503
 7159SOL    HW132939   0.737   0.628   1.038 -0.7155  1.2986  1.3644
 7159SOL    HW232940   0.883   0.605   1.011  0.6112 -1.5364 -0.6045
 7160SOL     OW32941   1.799   0.978   8.331 -0.9972 -0.1876  0.3899
 7160SOL    HW132942   1.803   0.924   8.252 -2.0336  0.2439  0.0405
 7160SOL    HW232943   1.840   0.928   8.402  1.1862  1.8677  0.5407
 7161SOL     OW32944   3.337   2.021   3.578 -0.6067 -0.0002  0.2717
 7161SOL    HW132945   3.401   2.026   3.507  1.2168 -1.0112  1.8568
 7161SOL    HW232946   3.386   1.966   3.639  0.9865  2.1774  0.9307
 7162SOL     OW32947   0.114   2.326   7.229 -0.0160  0.6528 -0.3197
 7162SOL    HW132948   0.202   2.291   7.213 -0.5933 -1.3922  1.0462
 7162SOL    HW232949   0.106   2.335   7.324 -0.0455  1.8353 -0.4349
 7163SOL     OW32950   3.185   4.072  14.968  0.9287 -0.4564  0.0130
 7163SOL    HW132951   3.277   4.093  14.982  0.9795  1.0425 -2.5097
 7163SOL    HW232952   3.191   3.992  14.916  0.6389 -0.5494  0.1256
 7164SOL     OW32953   4.307   3.022   4.832 -0.4456  0.7890 -0.0883
 7164SOL    HW132954   4.402   3.015   4.827 -0.5896  0.5358 -2.5097
 7164SOL    HW232955   4.287   3.037   4.925 -0.1076 -0.0267  0.1173
 7165SOL     OW32956   1.312   0.275   8.816 -0.2292 -0.2945  0.0567
 7165SOL    HW132957   1.345   0.187   8.835 -0.6941 -0.7174 -1.1661
 7165SOL    HW232958   1.367   0.297   8.741 -1.8976 -0.1193 -1.1264
 7166SOL     OW32959   0.848   1.460   6.481  0.1019 -0.4209 -0.1439
 7166SOL    HW132960   0.880   1.415   6.403 -2.0020 -1.5234 -0.3860
 7166SOL    HW232961   0.882   1.407   6.553 -0.1287  2.2742  1.9458
 7167SOL     OW32962   2.880   1.840   5.738 -0.2738 -0.4270  0.3245
 7167SOL    HW132963   2.878   1.782   5.814 -4.1255  1.0081  1.3248
 7167SOL    HW232964   2.899   1.778   5.668 -0.8180  0.9385 -1.0253
 7168SOL     OW32965   2.214   1.109  16.430  0.0910  0.2704 -0.3050
 7168SOL    HW132966   2.289   1.115  16.489 -1.0022 -2.5751  1.3796
 7168SOL    HW232967   2.164   1.036  16.466 -0.0553  0.4013 -0.2413
 7169SOL     OW32968   1.560   3.714   6.058  0.1844  0.1167  0.3400
 7169SOL    HW132969   1.645   3.689   6.023  0.8595  0.9632  1.3480
 7169SOL    HW232970   1.592   3.746   6.142  0.0099  0.4122  0.2941
 7170SOL     OW32971   0.954   0.048   3.121 -0.1002 -0.1503  0.1432
 7170SOL    HW132972   1.010   0.115   3.161  0.1695 -0.3776  0.1449
 7170SOL    HW232973   0.917   0.101   3.050  1.9235  0.9298 -0.1199
 7171SOL     OW32974   1.781   1.684   6.850 -0.2588  0.8988  0.4816
 7171SOL    HW132975   1.771   1.778   6.869 -0.0991  1.2008 -0.9065
 7171SOL    HW232976   1.745   1.643   6.928 -2.5145  1.0866 -0.4534
 7172SOL     OW32977   3.253   2.311   8.922  0.0089 -0.6181 -0.5545
 7172SOL    HW132978   3.337   2.282   8.886 -0.5426 -1.7405 -0.9059
 7172SOL    HW232979   3.213   2.227   8.946  0.5372 -1.1534 -1.5567
 7173SOL     OW32980   1.386   4.485  14.141  0.4847 -1.0018  0.7748
 7173SOL    HW132981   1.397   4.439  14.058 -1.1811 -0.3739  0.2239
 7173SOL    HW232982   1.477   4.465  14.165  1.5645  0.4271 -2.1620
 7174SOL     OW32983   3.784   2.659   3.603  0.0145  0.5484  0.0112
 7174SOL    HW132984   3.846   2.619   3.663 -0.7367 -0.2804  0.2304
 7174SOL    HW232985   3.707   2.606   3.624  0.3327  0.4908  1.0288
 7175SOL     OW32986   2.269   3.058  14.763 -0.7110  0.0754  0.2925
 7175SOL    HW132987   2.327   3.035  14.837  0.4731  0.1992 -0.5947
 7175SOL    HW232988   2.186   3.089  14.799 -0.9839 -0.2361 -0.0738
 7176SOL     OW32989   0.486   4.485   2.561  0.1342  0.3400 -0.0238
 7176SOL    HW132990   0.553   4.499   2.628 -1.1366  1.0246  1.1226
 7176SOL    HW232991   0.505   4.565   2.513  2.3252 -0.4652 -0.4561
 7177SOL     OW32992   1.042   3.814   6.591  0.4369 -0.1628  0.6958
 7177SOL    HW132993   1.071   3.729   6.559  0.1507  0.3096 -0.8076
 7177SOL    HW232994   0.953   3.786   6.613  1.4267 -3.6315  0.2400
 7178SOL     OW32995   1.729   2.596   3.823 -0.3381  0.3308  0.4549
 7178SOL    HW132996   1.773   2.641   3.895 -1.5724  0.4275  1.1540
 7178SOL    HW232997   1.803   2.553   3.781 -1.0466  1.6738 -2.1737
 7179SOL     OW32998   2.588   1.305   6.368 -0.0966 -0.1988  0.2285
 7179SOL    HW132999   2.630   1.244   6.308 -1.2846  0.2617 -1.0443
 7179SOL    HW233000   2.532   1.243   6.415  2.1426 -0.9535  1.9313
 7180SOL     OW33001   3.089   2.544   7.310  0.6539  0.3672 -0.3187
 7180SOL    HW133002   3.088   2.614   7.245 -0.1829 -0.2629 -0.9921
 7180SOL    HW233003   3.103   2.462   7.262  1.9104  0.4411 -0.0603
 7181SOL     OW33004   0.382   3.855   4.526 -0.8993  0.5723  0.3525
 7181SOL    HW133005   0.427   3.875   4.444 -3.4075  1.2713 -0.8743
 7181SOL    HW233006   0.299   3.902   4.513 -0.8701  0.1885 -1.1465
 7182SOL     OW33007   2.165   2.001   0.717 -0.3470 -0.2071  0.3357
 7182SOL    HW133008   2.085   2.022   0.668 -0.1977  0.1970  0.2630
 7182SOL    HW233009   2.186   2.082   0.764  2.0021  0.0843 -1.2571
 7183SOL     OW33010   4.580   1.600   4.805 -0.2047  0.0187 -0.6271
 7183SOL    HW133011   4.496   1.565   4.834 -1.2990  3.5025  0.4020
 7183SOL    HW233012   4.620   1.621   4.890  2.3567 -1.6669 -1.4058
 7184SOL     OW33013   4.207   2.292   3.720 -0.7122  0.3044  0.4554
 7184SOL    HW133014   4.209   2.387   3.729 -0.1614  0.3325  0.0443
 7184SOL    HW233015   4.212   2.254   3.807  1.2488 -0.2352  0.1064
 7185SOL     OW33016   4.709   1.268   6.802 -0.3617  0.2730 -0.2006
 7185SOL    HW133017   4.647   1.203   6.833  0.4266 -0.7998 -0.8942
 7185SOL    HW233018   0.042   1.277   6.880 -0.7187  2.3581 -0.1693
 7186SOL     OW33019   1.301   0.133  11.769  0.4598 -0.3408  0.4117
 7186SOL    HW133020   1.324   0.200  11.834  2.1797 -0.9368  0.4094
 7186SOL    HW233021   1.369   0.073  11.801  0.4041  1.8010  4.6209
 7187SOL     OW33022   1.112   1.077   8.775  0.0116 -0.4158 -0.3296
 7187SOL    HW133023   1.139   0.985   8.779 -0.0161 -0.4142 -0.1096
 7187SOL    HW233024   1.163   1.108   8.700 -0.1210  0.8098  0.0948
 7188SOL     OW33025   3.760   1.953   3.545 -0.5004 -0.1725  0.1053
 7188SOL    HW133026   3.772   2.046   3.563  0.5857  0.1300 -2.1464
 7188SOL    HW233027   3.835   1.924   3.597  2.0152  1.9053 -2.3777
 7189SOL     OW33028   2.302   1.886   1.996  0.4664  0.3904 -0.4300
 7189SOL    HW133029   2.328   1.932   2.075 -1.5603  1.9354 -0.6820
 7189SOL    HW233030   2.229   1.937   1.962  1.6885 -0.2592 -4.1490
 7190SOL     OW33031   4.445   2.977  17.647  0.0118 -0.2719  0.0557
 7190SOL    HW133032   4.508   3.044  17.620 -0.4663 -0.0804 -0.5594
 7190SOL    HW233033   4.382   3.011   0.021  0.1939  2.5321 -1.2587
 7191SOL     OW33034   2.330   3.667   4.283 -0.4473 -0.0099  0.3483
 7191SOL    HW133035   2.363   3.623   4.205 -0.2550 -0.6361  0.7869
 7191SOL    HW233036   2.261   3.615   4.323  0.1418  0.3182  1.8222
 7192SOL     OW33037   0.393   4.500  14.461  0.1484  0.4537 -0.3004
 7192SOL    HW133038   0.441   4.437  14.515 -1.9505 -0.5190  0.4590
 7192SOL    HW233039   0.453   4.575  14.466 -0.2705  0.7446  0.4768
 7193SOL     OW33040   0.947   4.137  12.944 -0.3433  0.4227  0.3200
 7193SOL    HW133041   1.000   4.057  12.955 -1.3021 -0.0492  1.5437
 7193SOL    HW233042   0.972   4.171  12.858 -0.2532  1.8538  0.9111
 7194SOL     OW33043   1.881   1.013   6.619  0.2917  0.3846  0.1417
 7194SOL    HW133044   1.883   1.050   6.708  0.8326  1.6028 -0.3857
 7194SOL    HW233045   1.823   0.939   6.638  0.6510  0.4299  1.4420
 7195SOL     OW33046   3.299   3.769   8.418  0.1172  0.4304  0.3852
 7195SOL    HW133047   3.374   3.792   8.472  0.0761  2.6548 -0.4991
 7195SOL    HW233048   3.224   3.787   8.474 -0.9860 -0.5789 -0.7695
 7196SOL     OW33049   3.303   3.693   1.666  0.0355 -0.3959 -0.0404
 7196SOL    HW133050   3.319   3.697   1.572 -0.5887  1.7547 -0.0647
 7196SOL    HW233051   3.250   3.613   1.663 -0.5663  0.0190 -0.4983
 7197SOL     OW33052   3.178   4.305   6.414 -0.1076  0.8885  0.7337
 7197SOL    HW133053   3.266   4.281   6.444 -0.1754 -1.1300 -0.6965
 7197SOL    HW233054   3.209   4.314   6.324  0.0806  1.4770  0.8556
 7198SOL     OW33055   0.450   4.051   6.009 -0.6728  0.2754  0.1604
 7198SOL    HW133056   0.387   4.101   6.061  1.2193  1.3711  1.4095
 7198SOL    HW233057   0.388   3.992   5.966 -1.7316  1.0237  0.6665
 7199SOL     OW33058   4.106   1.635   6.487 -0.1873 -0.2410 -0.1602
 7199SOL    HW133059   4.159   1.711   6.463 -1.3503  0.1549 -1.4574
 7199SOL    HW233060   4.019   1.658   6.454  0.2069  0.5278 -0.6501
 7200SOL     OW33061   4.088   0.554   6.433 -0.0163  0.2285  0.2588
 7200SOL    HW133062   4.069   0.648   6.434 -0.4960  0.1148  2.0581
 7200SOL    HW233063   4.055   0.525   6.348 -0.9566  0.7471  0.4507
 7201SOL     OW33064   3.476   4.021   6.723  0.5465  0.3205  0.3756
 7201SOL    HW133065   3.491   3.928   6.742  0.2161  0.0842 -0.4884
 7201SOL    HW233066   3.566   4.053   6.712  0.5935  0.8000  2.2244
 7202SOL     OW33067   4.537   3.544  17.037  0.0480  0.5671 -0.4693
 7202SOL    HW133068   4.504   3.462  17.075  2.4834 -0.3440 -0.2979
 7202SOL    HW233069   4.510   3.520  16.948 -2.1374  0.3019  0.2650
 7203SOL     OW33070   1.652   1.956  14.810 -0.1366 -0.4758 -0.6624
 7203SOL    HW133071   1.647   1.989  14.721  1.5912 -2.0179 -1.3329
 7203SOL    HW233072   1.675   2.036  14.858 -0.4124  0.8995 -2.8616
 7204SOL     OW33073   1.914   1.264   2.276 -0.4642 -0.2880  0.8582
 7204SOL    HW133074   1.899   1.303   2.190  0.2005 -0.4052  0.6920
 7204SOL    HW233075   1.971   1.190   2.261  0.1717  0.3405  0.1944
 7205SOL     OW33076   2.283   4.515  14.504  0.7015 -0.1283  0.1561
 7205SOL    HW133077   2.338   4.444  14.471 -1.9516 -0.9392 -2.5465
 7205SOL    HW233078   2.341   4.590  14.490 -2.2401  1.8624 -1.2274
 7206SOL     OW33079   1.057   1.465   5.611 -0.2399 -0.5891  0.0866
 7206SOL    HW133080   1.133   1.524   5.615  0.0749 -0.8628 -1.8776
 7206SOL    HW233081   0.993   1.531   5.638 -0.7778 -0.6680 -0.9767
 7207SOL     OW33082   2.765   3.843  13.703 -0.7718  0.0280  0.6465
 7207SOL    HW133083   2.684   3.841  13.651  0.2056  2.9208 -0.9511
 7207SOL    HW233084   2.738   3.896  13.777  1.8903 -0.3452  1.8681
 7208SOL     OW33085   2.555   3.110  13.425 -0.0642 -0.4553 -0.0892
 7208SOL    HW133086   2.530   3.018  13.431 -0.4740 -0.1975  2.4001
 7208SOL    HW233087   2.579   3.129  13.516 -2.0134  0.8207  0.1494
 7209SOL     OW33088   0.530   4.525   5.455  0.4851  0.2479  0.5486
 7209SOL    HW133089   0.520   4.435   5.486  0.5939  0.4365  1.1265
 7209SOL    HW233090   0.618   4.521   5.418  0.4362  0.5086  0.4013
 7210SOL     OW33091   3.572   1.297  15.511 -0.1522 -0.2097  0.0690
 7210SOL    HW133092   3.579   1.204  15.534  1.5137  0.3120  1.5834
 7210SOL    HW233093   3.655   1.333  15.541  0.2314  0.0757 -1.3413
 7211SOL     OW33094   3.077   1.982   3.477 -0.4070  0.4681 -0.0814
 7211SOL    HW133095   3.111   2.030   3.402  2.7140 -1.5516  0.0636
 7211SOL    HW233096   3.159   1.969   3.524 -0.3816  3.7772  0.7970
 7212SOL     OW33097   0.479   3.445   8.882  0.0607  0.3737 -0.2420
 7212SOL    HW133098   0.420   3.376   8.911  0.1098  1.7224  3.1614
 7212SOL    HW233099   0.464   3.445   8.788  0.1340  0.6760 -0.2556
 7213SOL     OW33100   4.149   3.330   7.076 -0.0276 -0.1865  0.0062
 7213SOL    HW133101   4.148   3.344   6.981  0.2864  1.0912  0.2004
 7213SOL    HW233102   4.105   3.404   7.116  0.4941 -0.8003  1.6920
 7214SOL     OW33103   4.424   0.616   3.148  0.1027  0.0316  0.4795
 7214SOL    HW133104   4.493   0.636   3.211  0.3317 -1.0058  0.5598
 7214SOL    HW233105   4.462   0.558   3.082  1.1931 -0.4917  1.5657
 7215SOL     OW33106   3.516   1.348   4.882 -0.2836  0.2021  0.0801
 7215SOL    HW133107   3.497   1.441   4.870 -3.3462 -0.1958  1.9093
 7215SOL    HW233108   3.552   1.326   4.795 -0.6374  1.4618 -0.3830
 7216SOL     OW33109   3.905   1.053   1.911  0.4321 -0.5216 -0.1720
 7216SOL    HW133110   3.986   1.091   1.946  0.7575 -0.3635 -1.1052
 7216SOL    HW233111   3.865   1.133   1.876 -3.8392 -1.1294  3.2693
 7217SOL     OW33112   3.283   3.026   4.806  0.4500  0.3982  0.2334
 7217SOL    HW133113   3.193   2.995   4.818  0.2352  0.8317 -0.2171
 7217SOL    HW233114   3.279   3.065   4.893 -1.4382  1.1746 -0.1953
 7218SOL     OW33115   0.496   2.873   4.424  1.1218 -0.1522 -0.1385
 7218SOL    HW133116   0.534   2.924   4.496  0.5343  3.3634 -2.3460
 7218SOL    HW233117   0.521   2.928   4.350  0.9294 -0.2762 -0.2939
 7219SOL     OW33118   1.320   0.804   4.365  1.2022 -0.0376 -0.2621
 7219SOL    HW133119   1.391   0.780   4.306  0.1403 -0.7615 -1.2469
 7219SOL    HW233120   1.261   0.860   4.314  0.2240 -0.2611  0.6436
 7220SOL     OW33121   2.909   0.404   6.254  0.0980  0.0202  0.2271
 7220SOL    HW133122   2.996   0.388   6.216 -0.2054  0.0119 -0.4724
 7220SOL    HW233123   2.856   0.342   6.204  1.3539 -1.3238  0.5467
 7221SOL     OW33124   3.303   2.358   5.342 -0.6321 -0.5305  0.5013
 7221SOL    HW133125   3.397   2.372   5.354 -0.3517 -3.0300  1.1762
 7221SOL    HW233126   3.294   2.384   5.251  0.3776  1.0277  0.8340
 7222SOL     OW33127   3.353   0.222   2.015 -0.4359  0.2061 -0.5393
 7222SOL    HW133128   3.362   0.183   2.102 -0.9159  2.3222  0.4672
 7222SOL    HW233129   3.267   0.190   1.988 -0.3149 -1.9008  1.5944
 7223SOL     OW33130   0.826   1.306   8.941 -0.1789 -0.0085  0.2782
 7223SOL    HW133131   0.746   1.262   8.911  2.0674 -1.8920 -2.8356
 7223SOL    HW233132   0.836   1.365   8.866  0.1885  0.0339  0.3609
 7224SOL     OW33133   4.720   0.043   8.380 -0.0311 -0.7821  0.0978
 7224SOL    HW133134   4.709   4.677   8.343 -1.0795 -0.5571 -0.1017
 7224SOL    HW233135   0.047   0.004   8.453  1.8137  0.8484 -0.2655
 7225SOL     OW33136   2.351   2.139   8.222 -0.0936 -0.6212 -0.3980
 7225SOL    HW133137   2.365   2.182   8.306  1.2131 -1.0593 -0.4001
 7225SOL    HW233138   2.411   2.064   8.225  2.1404  1.1824 -0.0596
 7226SOL     OW33139   0.199   3.133   4.520  0.1425  0.3717  0.3875
 7226SOL    HW133140   0.200   3.041   4.494 -2.2014  0.1698  1.0383
 7226SOL    HW233141   0.292   3.156   4.509  0.2356 -1.2008 -2.0984
 7227SOL     OW33142   3.267   1.050  15.813  0.0791  0.3667  0.4137
 7227SOL    HW133143   3.353   1.009  15.829 -0.6090 -0.2129  2.6707
 7227SOL    HW233144   3.240   1.002  15.735 -0.0439  1.2475 -0.0769
 7228SOL     OW33145   3.079   0.447   3.245 -0.2802  0.4822 -0.1850
 7228SOL    HW133146   3.054   0.512   3.311  1.2364 -0.4412  1.3011
 7228SOL    HW233147   3.017   0.461   3.174 -0.0721  1.2004 -0.2265
 7229SOL     OW33148   3.869   0.446  10.233  0.1899 -0.6784 -0.0105
 7229SOL    HW133149   3.787   0.399  10.252 -0.0156  0.4815  1.9236
 7229SOL    HW233150   3.846   0.522  10.180  2.8350 -0.3028 -0.5879
 7230SOL     OW33151   0.856   4.364   5.602  0.4356 -0.0987 -0.4271
 7230SOL    HW133152   0.909   4.320   5.668 -2.0287 -4.3880 -1.3423
 7230SOL    HW233153   0.776   4.397   5.642  0.1097 -2.0757  0.5195
 7231SOL     OW33154   2.525   2.448   3.648  0.4186 -0.1609 -0.1105
 7231SOL    HW133155   2.611   2.477   3.620 -0.3327  1.2706 -0.9332
 7231SOL    HW233156   2.505   2.391   3.574 -4.0300  1.0148  0.1827
 7232SOL     OW33157   2.314   1.626  11.403  0.9453 -0.1895 -0.3683
 7232SOL    HW133158   2.374   1.583  11.342  0.3021 -0.2290 -0.9768
 7232SOL    HW233159   2.372   1.633  11.479 -0.8206 -0.4351  1.0115
 7233SOL     OW33160   0.699   3.242   8.767  0.0378  0.1094  0.1977
 7233SOL    HW133161   0.605   3.260   8.774 -0.2282 -1.8523  1.7598
 7233SOL    HW233162   0.697   3.160   8.717 -1.4704 -0.1097  0.6200
 7234SOL     OW33163   3.995   2.180   6.293  0.6757 -0.1427 -0.3057
 7234SOL    HW133164   4.015   2.162   6.385 -1.4951  2.1048  0.5820
 7234SOL    HW233165   4.014   2.094   6.254 -0.4570 -1.1523  1.3948
 7235SOL     OW33166   1.275   2.497   4.950 -0.8404 -0.2642 -0.3414
 7235SOL    HW133167   1.230   2.431   5.003 -0.5705 -0.3761 -0.2476
 7235SOL    HW233168   1.350   2.447   4.917 -1.3756 -1.4650  0.2584
 7236SOL     OW33169   3.074   1.710  13.791  0.1292  0.0350 -0.2128
 7236SOL    HW133170   2.990   1.706  13.746  0.5574  0.2934 -1.0501
 7236SOL    HW233171   3.046   1.694  13.881  1.5194  0.9746  0.3888
 7237SOL     OW33172   4.339   2.133   5.553  0.1018  0.5858  0.4469
 7237SOL    HW133173   4.248   2.109   5.568  0.4460 -1.1884 -0.2746
 7237SOL    HW233174   4.331   2.187   5.474  3.3121 -0.2145 -0.4316
 7238SOL     OW33175   2.318   4.178   6.598 -0.4590  0.4390 -0.3148
 7238SOL    HW133176   2.309   4.262   6.554  2.4115  0.6144 -0.5383
 7238SOL    HW233177   2.235   4.133   6.580 -1.8533  1.5948  3.1114
 7239SOL     OW33178   3.357   4.620   0.772  0.0739 -0.0178 -0.3768
 7239SOL    HW133179   3.360   4.527   0.752  2.0723  0.0502 -0.3980
 7239SOL    HW233180   3.449   4.645   0.764  0.3260 -0.7559  0.2377
 7240SOL     OW33181   4.608   1.939   8.887 -0.1219 -0.8123 -0.0517
 7240SOL    HW133182   4.581   2.005   8.824  0.4058  0.2767  0.8731
 7240SOL    HW233183   4.692   1.918   8.846  0.2344  0.8492 -0.1533
 7241SOL     OW33184   4.398   2.812   5.009  0.3418 -0.3437 -0.5424
 7241SOL    HW133185   4.304   2.825   5.019  0.8003  1.2246  1.7654
 7241SOL    HW233186   4.408   2.727   5.053 -0.0261  0.4376  1.0511
 7242SOL     OW33187   1.952   2.100   0.571  0.0018 -0.2043 -0.6205
 7242SOL    HW133188   1.982   2.190   0.586 -0.2833 -0.0604 -0.9246
 7242SOL    HW233189   1.898   2.115   0.494 -0.8230 -0.5195 -0.0959
 7243SOL     OW33190   4.599   3.854   4.651  0.0535  0.4883 -1.0857
 7243SOL    HW133191   4.640   3.941   4.647 -0.3343  0.7961  1.4906
 7243SOL    HW233192   4.677   3.799   4.645 -1.3811 -1.4489 -1.6527
 7244SOL     OW33193   4.426   0.224   6.410 -0.3721 -0.2109  0.1217
 7244SOL    HW133194   4.395   0.287   6.476 -0.3470  0.5411 -0.5798
 7244SOL    HW233195   4.512   0.200   6.444  1.1698  0.3378 -3.4622
 7245SOL     OW33196   4.716   3.533   6.479  0.2997  0.3227 -0.4834
 7245SOL    HW133197   4.674   3.448   6.494 -0.9324  0.5887 -2.3760
 7245SOL    HW233198   0.044   3.548   6.560 -0.5026  0.7155 -0.0694
 7246SOL     OW33199   4.272   3.880   2.875  0.0663 -0.2695  0.1220
 7246SOL    HW133200   4.200   3.819   2.857  0.1712 -0.6343  0.9685
 7246SOL    HW233201   4.336   3.858   2.807  0.9030  2.1881  0.0986
 7247SOL     OW33202   4.403   1.159   4.396 -0.3756 -0.2328  0.1900
 7247SOL    HW133203   4.333   1.165   4.331 -0.2615 -0.0035  0.0897
 7247SOL    HW233204   4.443   1.082   4.357 -0.2332 -1.2389  2.2811
 7248SOL     OW33205   2.862   1.517   3.429 -0.3886 -0.3048  0.3230
 7248SOL    HW133206   2.945   1.488   3.468  1.2335  2.1297 -1.3726
 7248SOL    HW233207   2.893   1.592   3.379  0.1684 -1.3904 -0.9543
 7249SOL     OW33208   3.086   1.718   9.467  0.2611  0.0120 -0.3291
 7249SOL    HW133209   3.023   1.791   9.469 -0.7304 -0.8241 -1.2258
 7249SOL    HW233210   3.139   1.738   9.390 -1.0075  1.9612 -0.6978
 7250SOL     OW33211   2.386   2.596   0.256 -0.3632 -0.5934  0.0795
 7250SOL    HW133212   2.414   2.687   0.258 -0.3522 -0.5815 -0.9437
 7250SOL    HW233213   2.294   2.609   0.279 -0.4275 -0.8984 -0.0001
 7251SOL     OW33214   1.118   3.149  15.766 -0.0781  0.3136 -0.1940
 7251SOL    HW133215   1.168   3.177  15.690  0.5400 -1.6718 -0.5105
 7251SOL    HW233216   1.037   3.192  15.742 -0.7134 -1.6634 -1.5643
 7252SOL     OW33217   1.462   2.873   5.455  0.8344  0.0909  0.0675
 7252SOL    HW133218   1.433   2.819   5.382 -2.0264 -0.8518  1.9011
 7252SOL    HW233219   1.437   2.958   5.418  1.6084 -0.0844 -0.8793
 7253SOL     OW33220   2.036   1.001   3.979 -0.4372 -0.2402 -0.0559
 7253SOL    HW133221   2.090   1.026   4.053  0.3647 -0.8735 -0.4306
 7253SOL    HW233222   2.025   1.090   3.946 -2.6329 -0.7180 -0.6607
 7254SOL     OW33223   3.084   1.929   8.809 -0.1045  0.2148 -0.0063
 7254SOL    HW133224   3.017   1.862   8.799 -0.9223  0.1107  6.2155
 7254SOL    HW233225   3.096   1.967   8.722  1.4612  0.4969  0.3288
 7255SOL     OW33226   0.883   2.545   6.083  0.6520  0.6230 -0.0864
 7255SOL    HW133227   0.927   2.630   6.086 -0.2915  1.1689 -1.4793
 7255SOL    HW233228   0.940   2.496   6.024  0.0776  1.4426 -1.3030
 7256SOL     OW33229   0.346   3.389   0.232  0.1759  0.1593 -0.1396
 7256SOL    HW133230   0.421   3.394   0.292  0.4664 -0.7758 -0.4169
 7256SOL    HW233231   0.344   3.481   0.208  0.0319 -0.0253 -0.8390
 7257SOL     OW33232   4.552   3.033   7.435  0.4472  0.2670  0.5367
 7257SOL    HW133233   4.458   3.041   7.417  0.5009  1.6891  0.9003
 7257SOL    HW233234   4.556   2.949   7.480 -0.7212  0.9162  1.8586
 7258SOL     OW33235   1.257   3.288  17.024 -0.2728 -0.0498  0.1628
 7258SOL    HW133236   1.188   3.354  17.025  1.1487  1.4820 -1.9502
 7258SOL    HW233237   1.314   3.323  16.955  0.2362  1.3941  1.3220
 7259SOL     OW33238   2.486   0.404   2.160  0.3570 -0.3794 -0.6293
 7259SOL    HW133239   2.544   0.478   2.178  0.1772 -0.2364 -0.6297
 7259SOL    HW233240   2.439   0.400   2.243  0.2428  1.7206 -0.5884
 7260SOL     OW33241   3.757   3.228  16.971  0.1944  0.1903  0.0616
 7260SOL    HW133242   3.830   3.278  17.007  0.2585  0.9209 -1.0930
 7260SOL    HW233243   3.687   3.291  16.993  0.0490 -0.7551  2.3756
 7261SOL     OW33244   1.467   1.193   4.839 -0.2405 -0.2960 -0.3538
 7261SOL    HW133245   1.529   1.258   4.873  1.7520 -1.1620 -2.2932
 7261SOL    HW233246   1.464   1.132   4.913 -1.7516  2.3624  1.7673
 7262SOL     OW33247   1.707   0.565  14.125  0.1303  0.8578  0.4433
 7262SOL    HW133248   1.720   0.496  14.059  0.7413  0.9297  0.4877
 7262SOL    HW233249   1.663   0.521  14.197 -0.4271  1.8245  0.6850
 7263SOL     OW33250   0.064   0.220  10.491  0.2082 -0.1477  0.1627
 7263SOL    HW133251   0.121   0.201  10.566 -0.9532  0.2455  1.1619
 7263SOL    HW233252   0.128   0.223  10.421 -1.1287 -0.0472 -1.0624
 7264SOL     OW33253   4.028   0.022   3.694 -0.4435  0.2255 -0.6482
 7264SOL    HW133254   3.949   4.691   3.704 -0.3780 -0.0797 -1.8253
 7264SOL    HW233255   3.988   0.108   3.712 -1.7570 -0.6382  0.6516
 7265SOL     OW33256   0.632   1.943   7.650 -0.0506 -0.3566 -0.0729
 7265SOL    HW133257   0.542   1.935   7.618 -0.7036  0.5442  1.5887
 7265SOL    HW233258   0.679   1.883   7.591 -1.5284  0.9648 -2.5879
 7266SOL     OW33259   2.347   3.504   5.903 -0.0489  1.0866  0.4872
 7266SOL    HW133260   2.262   3.467   5.877  0.0941 -0.7623  2.5948
 7266SOL    HW233261   2.377   3.442   5.970 -0.8023 -1.5111 -1.5486
 7267SOL     OW33262   2.773   1.358   5.848 -0.4447  0.0991  0.4155
 7267SOL    HW133263   2.757   1.264   5.861 -0.1502  0.0368  0.3366
 7267SOL    HW233264   2.869   1.353   5.847 -0.5569 -2.0496 -0.0240
 7268SOL     OW33265   4.059   1.590   6.770  0.0593  0.0900  0.2323
 7268SOL    HW133266   3.965   1.596   6.751  0.0267  0.2243  0.4410
 7268SOL    HW233267   4.091   1.610   6.682 -0.0236 -1.8082 -0.2276
 7269SOL     OW33268   2.704   3.218  14.592 -0.2475 -0.6497  0.0096
 7269SOL    HW133269   2.644   3.146  14.572 -0.2398 -0.2286 -1.5858
 7269SOL    HW233270   2.763   3.236  14.518  1.0995 -2.8951  0.5467
 7270SOL     OW33271   1.631   1.591   7.065  0.2772 -0.2082  0.3059
 7270SOL    HW133272   1.567   1.617   7.131  1.5063  2.1267  0.5387
 7270SOL    HW233273   1.580   1.595   6.984  0.4076  0.0997  0.2389
 7271SOL     OW33274   0.581   1.743  12.722 -0.1154  0.7226 -0.3967
 7271SOL    HW133275   0.662   1.727  12.770 -1.4578  0.1606  1.6779
 7271SOL    HW233276   0.533   1.804  12.778 -2.6097 -1.0058 -0.6034
 7272SOL     OW33277   2.570   1.998   7.369 -0.0943 -0.2459  0.3694
 7272SOL    HW133278   2.530   2.083   7.390  0.3130 -0.4351  1.9409
 7272SOL    HW233279   2.653   2.005   7.417 -1.0302  0.2606  1.9157
 7273SOL     OW33280   4.327   0.913   6.200  0.2404  0.2300 -0.0211
 7273SOL    HW133281   4.303   0.975   6.132  1.6187  0.5686 -0.2046
 7273SOL    HW233282   4.272   0.835   6.196 -1.4280  1.2158  3.2199
 7274SOL     OW33283   0.193   4.245   4.333 -0.4456 -0.3788 -0.0016
 7274SOL    HW133284   0.233   4.310   4.275 -0.0169 -1.3757 -0.8224
 7274SOL    HW233285   0.206   4.166   4.282 -0.5114 -0.5966  0.3187
 7275SOL     OW33286   4.451   0.917   4.639 -0.0740  0.1603 -0.0047
 7275SOL    HW133287   4.434   0.871   4.557 -0.5341  0.0685  0.1425
 7275SOL    HW233288   4.474   1.000   4.598 -0.5759  0.3753  0.1470
 7276SOL     OW33289   1.157   2.564   3.978  0.2024 -1.0189  0.0755
 7276SOL    HW133290   1.230   2.511   4.011 -0.8246 -1.8182  1.0204
 7276SOL    HW233291   1.214   2.601   3.910  0.1745 -0.0744  0.5685
 7277SOL     OW33292   4.254   3.868   7.909 -0.0587  0.0222  0.1904
 7277SOL    HW133293   4.285   3.906   7.827 -0.1561  0.7594  0.5003
 7277SOL    HW233294   4.168   3.833   7.883  1.5675 -1.8953 -2.6561
 7278SOL     OW33295   2.032   2.615   6.084 -0.3656 -0.5595  0.0222
 7278SOL    HW133296   2.061   2.592   6.172 -4.6101 -0.6591  1.3850
 7278SOL    HW233297   1.985   2.535   6.060 -0.7895  0.0423 -1.1611
 7279SOL     OW33298   1.426   1.386   9.771 -0.2561  0.0404 -0.7025
 7279SOL    HW133299   1.431   1.408   9.678 -2.8286  0.6584 -0.6956
 7279SOL    HW233300   1.365   1.313   9.759 -0.2377 -0.1028  0.0854
 7280SOL     OW33301   4.643   3.828   6.583 -0.2212 -0.0412 -0.0262
 7280SOL    HW133302   0.005   3.797   6.617 -1.6296 -0.5863  2.9562
 7280SOL    HW233303   4.655   3.922   6.596 -1.1728  0.2142 -1.0992
 7281SOL     OW33304   0.579   3.013  12.679  0.3674 -0.6634  0.8441
 7281SOL    HW133305   0.628   3.094  12.669 -1.6141  0.4316  0.0238
 7281SOL    HW233306   0.519   3.003  12.605  0.4571  3.2223  0.2235
 7282SOL     OW33307   0.734   3.929   3.664 -0.3892 -0.4522 -0.3067
 7282SOL    HW133308   0.668   3.959   3.726 -0.6504 -0.1862 -0.7158
 7282SOL    HW233309   0.804   3.922   3.730  0.2408 -3.0023 -1.2420
 7283SOL     OW33310   2.786   2.534   5.123  0.0926  0.3388  0.3413
 7283SOL    HW133311   2.816   2.564   5.037  0.4454 -2.3860 -0.4896
 7283SOL    HW233312   2.729   2.460   5.106  1.6407 -0.6479 -0.6006
 7284SOL     OW33313   0.014   0.348   7.634  0.2314 -0.0513  0.3640
 7284SOL    HW133314   0.005   0.321   7.725  3.2652 -0.9544  0.4225
 7284SOL    HW233315   4.644   0.347   7.610  0.4274  1.3755 -0.4370
 7285SOL     OW33316   0.786   0.824   2.188  0.4932  0.2752  0.4408
 7285SOL    HW133317   0.782   0.913   2.152 -0.0710 -0.2988 -0.9212
 7285SOL    HW233318   0.873   0.798   2.159 -0.7815 -1.7877 -1.6098
 7286SOL     OW33319   4.201   1.635   7.985 -0.0098 -0.5580 -0.5678
 7286SOL    HW133320   4.242   1.551   8.006 -0.6507 -0.9379 -0.8215
 7286SOL    HW233321   4.168   1.618   7.897 -1.9677 -0.4863  0.1377
 7287SOL     OW33322   3.815   3.075   3.471 -0.4147  0.4630  0.5179
 7287SOL    HW133323   3.817   2.983   3.444 -2.7348  0.4273  0.4910
 7287SOL    HW233324   3.742   3.075   3.533 -1.3533  1.9427 -0.5682
 7288SOL     OW33325   4.414   2.628   8.030 -0.4179 -0.3222  0.5335
 7288SOL    HW133326   4.482   2.560   8.022  0.1536  0.3551 -0.3404
 7288SOL    HW233327   4.334   2.575   8.033 -0.6974  0.0590 -0.1100
 7289SOL     OW33328   4.021   2.421   6.193  0.6120 -0.0117 -0.2218
 7289SOL    HW133329   4.024   2.325   6.199 -1.5742 -0.0526  0.2126
 7289SOL    HW233330   3.948   2.437   6.252 -0.8542 -0.9363 -1.7694
 7290SOL     OW33331   3.810   3.289   7.339 -0.2609 -0.5039 -0.3168
 7290SOL    HW133332   3.807   3.375   7.381  0.1026 -0.5302 -0.2400
 7290SOL    HW233333   3.766   3.308   7.256  2.7838 -0.6906 -1.9707
 7291SOL     OW33334   3.642   3.432   4.204  0.2274 -0.2435 -0.1399
 7291SOL    HW133335   3.576   3.499   4.220 -0.5741 -1.1536  0.4020
 7291SOL    HW233336   3.585   3.355   4.205 -0.2984  0.1369 -0.4242
 7292SOL     OW33337   2.238   2.379   7.903  0.2609 -0.4715 -0.4343
 7292SOL    HW133338   2.288   2.458   7.883  0.9847 -0.1570  2.6604
 7292SOL    HW233339   2.307   2.313   7.907 -0.1919 -0.9331 -0.3612
 7293SOL     OW33340   1.360   3.012   6.151 -0.1114  0.0888  0.3766
 7293SOL    HW133341   1.345   3.052   6.237 -1.2289  0.3635  0.0537
 7293SOL    HW233342   1.411   3.077   6.103 -0.5950 -0.2156 -0.5327
 7294SOL     OW33343   2.935   0.932  11.128  0.0178  0.5424 -0.1755
 7294SOL    HW133344   2.918   0.974  11.044 -0.5535  0.3660 -0.1523
 7294SOL    HW233345   2.915   0.841  11.104  2.4496 -0.6522  2.3940
 7295SOL     OW33346   3.404   2.043  14.187 -0.7384  0.6060  0.4072
 7295SOL    HW133347   3.395   1.949  14.202  2.0211  0.2142 -0.3311
 7295SOL    HW233348   3.362   2.067  14.104 -1.1242 -1.1685  0.0838
 7296SOL     OW33349   1.700   0.593   5.446  0.6733  0.5501 -0.3412
 7296SOL    HW133350   1.741   0.651   5.509 -1.6323 -0.7028  2.2982
 7296SOL    HW233351   1.626   0.561   5.497  1.2103  0.5278  0.4088
 7297SOL     OW33352   0.205   2.363   5.295 -0.0710  0.4318  0.6105
 7297SOL    HW133353   0.246   2.359   5.208 -1.3928  0.2585  0.0002
 7297SOL    HW233354   0.265   2.423   5.338 -1.1037  1.4955  0.5736
 7298SOL     OW33355   3.542   0.878   3.168  0.2027 -0.3287 -0.5558
 7298SOL    HW133356   3.464   0.822   3.175  1.3751 -2.0457 -1.0452
 7298SOL    HW233357   3.588   0.843   3.091  0.7203 -0.1254 -0.3392
 7299SOL     OW33358   0.235   1.515  15.042 -0.3770  0.5754  0.1400
 7299SOL    HW133359   0.318   1.556  15.017 -1.0149 -0.1765 -3.2100
 7299SOL    HW233360   0.178   1.556  14.977  0.0711  0.2930 -0.4285
 7300SOL     OW33361   4.656   3.761   7.961 -0.4947 -0.4622 -0.1583
 7300SOL    HW133362   4.650   3.820   7.886  0.3630  0.2734  0.3394
 7300SOL    HW233363   4.606   3.681   7.950  0.6474 -1.3612  1.0841
 7301SOL     OW33364   1.499   1.112   9.100  0.1786 -0.7400 -0.0919
 7301SOL    HW133365   1.540   1.191   9.064 -0.6476  0.6201  1.9963
 7301SOL    HW233366   1.460   1.090   9.015 -0.2907 -1.8969  0.4276
 7302SOL     OW33367   4.528   2.181   3.873  0.6861  0.1416 -0.1573
 7302SOL    HW133368   4.460   2.246   3.893 -0.6359 -1.3806  0.3410
 7302SOL    HW233369   4.596   2.202   3.936 -0.1140  1.8827  0.1435
 7303SOL     OW33370   2.677   2.846   3.904 -0.0791 -0.1696  0.5083
 7303SOL    HW133371   2.618   2.772   3.891  0.4725 -0.6794  0.8899
 7303SOL    HW233372   2.761   2.801   3.889  0.5412  0.4152  2.2981
 7304SOL     OW33373   3.522   0.850   3.970  0.4734 -0.0132 -0.5822
 7304SOL    HW133374   3.431   0.824   3.982  1.3457 -2.9860 -0.2324
 7304SOL    HW233375   3.520   0.817   3.880  1.1702  1.3657 -1.1077
 7305SOL     OW33376   2.766   3.342  10.134  0.1927 -0.5289 -0.0628
 7305SOL    HW133377   2.724   3.258  10.155 -0.1132 -0.7921 -1.7280
 7305SOL    HW233378   2.751   3.354  10.040  1.7366  1.4235 -0.0447
 7306SOL     OW33379   1.862   3.300  13.468  0.8493 -0.2505 -0.1644
 7306SOL    HW133380   1.886   3.312  13.560  1.2755 -0.3600 -0.2646
 7306SOL    HW233381   1.767   3.289  13.469  0.8879 -0.6586 -2.1420
 7307SOL     OW33382   4.458   1.275   2.719 -0.4620 -0.7095 -0.2152
 7307SOL    HW133383   4.413   1.319   2.791 -0.8837 -0.9262 -0.3433
 7307SOL    HW233384   4.481   1.187   2.750  0.3980 -1.1470 -2.0417
 7308SOL     OW33385   0.428   2.562   6.445  0.0329  0.6825  0.0838
 7308SOL    HW133386   0.416   2.621   6.371 -1.2021 -1.2322 -1.2212
 7308SOL    HW233387   0.386   2.482   6.414 -0.0307  1.0604 -0.7803
 7309SOL     OW33388   2.016   0.253   2.082 -0.3673  0.0345 -0.2409
 7309SOL    HW133389   2.052   0.335   2.116 -1.6548  0.5282 -0.0659
 7309SOL    HW233390   1.958   0.275   2.009  2.9141 -0.2875 -2.9424
 7310SOL     OW33391   4.268   0.469   2.310  0.2788 -0.5423  0.0916
 7310SOL    HW133392   4.254   0.441   2.219 -0.1720 -0.0707  0.0161
 7310SOL    HW233393   4.176   0.489   2.328 -0.1098 -1.7178 -0.5725
 7311SOL     OW33394   3.615   1.852   3.977  0.1390 -0.3225 -0.8116
 7311SOL    HW133395   3.699   1.874   3.937  0.9330 -1.6201  0.1290
 7311SOL    HW233396   3.577   1.929   4.018  0.1828 -1.5966  1.6345
 7312SOL     OW33397   2.674   3.642   2.154  0.0010  0.3064 -0.4806
 7312SOL    HW133398   2.704   3.621   2.066 -2.0603 -1.3396 -0.7710
 7312SOL    HW233399   2.584   3.613   2.144  0.1969 -0.6035  0.3116
 7313SOL     OW33400   3.761   1.810   2.797  0.0372 -0.2767 -0.0669
 7313SOL    HW133401   3.670   1.800   2.768  0.5842 -0.4574 -1.7076
 7313SOL    HW233402   3.769   1.740   2.861 -1.7684 -1.0406 -0.6802
 7314SOL     OW33403   0.888   0.828  11.636  0.1741 -0.3711  0.0370
 7314SOL    HW133404   0.826   0.795  11.702  0.0319  0.2163  0.1943
 7314SOL    HW233405   0.847   0.793  11.556  1.2682 -1.7682  0.0859
 7315SOL     OW33406   4.242   2.926   0.786 -0.0081  0.0686 -0.1689
 7315SOL    HW133407   4.198   2.999   0.742  0.1629  1.7495  2.4228
 7315SOL    HW233408   4.263   2.866   0.714 -1.3162 -0.0208 -0.4765
 7316SOL     OW33409   2.995   3.688   8.511  0.1720 -0.2376 -0.0350
 7316SOL    HW133410   2.968   3.762   8.456  0.8065  0.5489  0.7205
 7316SOL    HW233411   3.042   3.740   8.576 -1.5250 -0.6557  1.5229
 7317SOL     OW33412   2.316   3.484  14.604 -0.2366  0.5115 -0.0278
 7317SOL    HW133413   2.223   3.491  14.630 -0.9843  1.3249 -3.0027
 7317SOL    HW233414   2.318   3.537  14.524 -0.4291  1.5461  0.6450
 7318SOL     OW33415   1.793   0.520  13.149 -0.7404  0.0391  0.1105
 7318SOL    HW133416   1.791   0.603  13.196  0.3548 -0.0780  0.3806
 7318SOL    HW233417   1.699   0.507  13.142 -0.3324 -2.6349 -0.6517
 7319SOL     OW33418   2.976   3.803  14.027 -0.4750 -0.2519 -0.5483
 7319SOL    HW133419   2.903   3.861  14.003  0.5058  1.8345  1.5324
 7319SOL    HW233420   2.945   3.722  13.987 -0.1562 -0.9238  0.5597
 7320SOL     OW33421   3.578   1.496  11.300  0.4027  0.3265  0.6351
 7320SOL    HW133422   3.526   1.545  11.364 -0.3400  0.1532  0.1533
 7320SOL    HW233423   3.584   1.564  11.233 -1.2719 -1.1032 -0.9399
 7321SOL     OW33424   0.547   2.640   5.642 -0.3067  0.1106 -0.2436
 7321SOL    HW133425   0.564   2.727   5.680  1.3958 -0.3766  0.1086
 7321SOL    HW233426   0.635   2.605   5.629 -0.1354  0.0259  1.1086
 7322SOL     OW33427   0.516   3.030  15.922 -0.2699  0.0604 -0.3500
 7322SOL    HW133428   0.537   3.088  15.996  3.1626 -1.7532  0.0836
 7322SOL    HW233429   0.420   3.032  15.928 -0.1984  2.5508  0.0079
 7323SOL     OW33430   1.030   0.185   8.439 -0.0040 -0.4579  0.2392
 7323SOL    HW133431   1.107   0.187   8.381  0.5587 -0.2941  0.9933
 7323SOL    HW233432   0.970   0.130   8.388  2.6606 -2.4192 -0.8036
 7324SOL     OW33433   2.158   2.771  16.566  0.1856  0.0289 -0.0205
 7324SOL    HW133434   2.191   2.735  16.484 -0.3065  1.1418 -0.7058
 7324SOL    HW233435   2.064   2.780  16.549  0.2462  2.4213  1.0042
 7325SOL     OW33436   1.627   3.114   5.760 -0.5058  0.1723 -0.8797
 7325SOL    HW133437   1.690   3.042   5.765 -0.1393  0.3965 -2.3117
 7325SOL    HW233438   1.651   3.172   5.688  1.7791 -3.0465 -2.6998
 7326SOL     OW33439   2.475   4.220   8.068  0.6761 -0.4848 -0.7710
 7326SOL    HW133440   2.501   4.130   8.086  1.4593  0.1468  1.2332
 7326SOL    HW233441   2.521   4.255   8.144 -1.0470 -1.0637  0.5176
 7327SOL     OW33442   1.844   1.612  12.844 -0.3656  0.2284  0.0695
 7327SOL    HW133443   1.817   1.524  12.817  0.8731  0.1826 -1.0434
 7327SOL    HW233444   1.917   1.634  12.785 -0.3905 -3.8913 -1.4528
 7328SOL     OW33445   0.679   0.954   7.579  0.1187 -0.3690 -0.1203
 7328SOL    HW133446   0.754   0.918   7.625 -0.0145  0.3059  0.6144
 7328SOL    HW233447   0.609   0.921   7.636  0.4661 -3.2863 -1.4005
 7329SOL     OW33448   4.482   2.123   4.773  0.3589  0.3047  0.1258
 7329SOL    HW133449   4.506   2.045   4.723  0.1985  0.9456 -0.9572
 7329SOL    HW233450   4.507   2.191   4.710  0.4902  0.1463  0.0073
 7330SOL     OW33451   4.042   0.334   2.910  0.1932  0.3468 -0.1662
 7330SOL    HW133452   4.068   0.354   2.820  2.4680 -0.0710  0.3852
 7330SOL    HW233453   3.951   0.308   2.895  0.6137 -1.0473 -0.3304
 7331SOL     OW33454   4.640   3.961   9.214 -0.2686 -0.8508 -0.2886
 7331SOL    HW133455   4.649   4.028   9.282 -0.4443 -1.2834  0.1572
 7331SOL    HW233456   4.586   4.002   9.146  0.1726  1.8061  0.9677
 7332SOL     OW33457   1.132   3.815   7.209 -0.6591 -0.1057 -0.4117
 7332SOL    HW133458   1.099   3.795   7.121 -0.4957  0.2170 -0.5446
 7332SOL    HW233459   1.171   3.728   7.219 -0.4639  0.1164  0.7313
 7333SOL     OW33460   2.828   4.110  11.029  0.0801  0.0974  0.6012
 7333SOL    HW133461   2.832   4.028  11.077  2.4390  0.0613  0.3432
 7333SOL    HW233462   2.790   4.090  10.943 -0.7592  1.1255  0.7209
 7334SOL     OW33463   2.324   4.053  12.434 -0.0432  0.1742  0.2350
 7334SOL    HW133464   2.271   4.109  12.378 -0.8501 -1.2039 -0.3732
 7334SOL    HW233465   2.335   3.985  12.367 -0.7331 -1.6160  1.9170
 7335SOL     OW33466   4.210   0.872   0.108  0.4132  0.2299 -0.1230
 7335SOL    HW133467   4.300   0.861   0.077  0.2810 -0.3220 -0.3054
 7335SOL    HW233468   4.201   0.966   0.093  0.8672  0.0104 -1.7412
 7336SOL     OW33469   4.060   2.488   3.483 -0.7113 -0.0920  0.5937
 7336SOL    HW133470   4.133   2.446   3.437 -2.0720  1.2864 -2.8885
 7336SOL    HW233471   4.014   2.538   3.415 -0.1383 -0.2371  0.0933
 7337SOL     OW33472   3.875   3.998  11.196 -0.5969 -0.3891 -0.2797
 7337SOL    HW133473   3.965   3.992  11.164 -1.5165 -1.3555 -2.7328
 7337SOL    HW233474   3.870   4.093  11.203 -1.2420 -0.7379  3.8005
 7338SOL     OW33475   4.682   2.655  17.233 -0.3355 -0.5666 -0.5178
 7338SOL    HW133476   0.018   2.613  17.169 -0.6955  1.1739 -1.9931
 7338SOL    HW233477   4.623   2.703  17.174 -2.3172 -1.5754  0.6171
 7339SOL     OW33478   3.614   1.956   5.168 -0.1657  0.2283 -0.6198
 7339SOL    HW133479   3.532   2.004   5.179  1.1162  1.8968  1.5228
 7339SOL    HW233480   3.641   2.000   5.087 -2.0377  2.7034  0.1001
 7340SOL     OW33481   4.330   4.685   7.858 -0.0829 -0.2555 -0.4752
 7340SOL    HW133482   4.356   0.043   7.814  1.8428 -0.4774  0.2915
 7340SOL    HW233483   4.272   0.006   7.921 -0.3180 -0.9767 -0.1931
 7341SOL     OW33484   1.335   2.207  12.483  0.4547  0.0953  0.0983
 7341SOL    HW133485   1.364   2.295  12.505 -0.4848 -0.1357  2.2363
 7341SOL    HW233486   1.407   2.152  12.514 -1.0150 -0.9803  1.6122
 7342SOL     OW33487   1.343   0.120   4.897  0.3892 -0.6409 -0.0099
 7342SOL    HW133488   1.280   0.116   4.826 -0.7106 -0.3489  0.9542
 7342SOL    HW233489   1.302   0.060   4.959 -0.7424  0.3247  0.1741
 7343SOL     OW33490   2.458   2.201   6.698 -0.2361 -0.4127  0.1456
 7343SOL    HW133491   2.497   2.136   6.757  1.1321  1.1656  0.9831
 7343SOL    HW233492   2.445   2.143   6.623  1.5280 -2.9347  1.7838
 7344SOL     OW33493   4.657   0.415   3.879  0.1393  0.1875  0.3501
 7344SOL    HW133494   4.621   0.483   3.935 -1.3699 -0.2529 -0.0977
 7344SOL    HW233495   4.699   0.362   3.948 -1.6508 -0.3343  1.0298
 7345SOL     OW33496   3.343   2.682   8.917 -0.1401  0.1585 -0.1680
 7345SOL    HW133497   3.356   2.658   8.825 -2.1916 -0.6396 -0.2567
 7345SOL    HW233498   3.345   2.597   8.962  3.3903  1.4812  2.1147
 7346SOL     OW33499   0.412   4.433  10.159  0.1845 -0.3400  0.4983
 7346SOL    HW133500   0.331   4.393  10.127 -0.4150  0.6652  0.7541
 7346SOL    HW233501   0.374   4.510  10.201 -1.6685 -1.2018  0.4204
 7347SOL     OW33502   0.791   0.627   4.452  0.2301  0.3634  0.3668
 7347SOL    HW133503   0.822   0.591   4.369  2.1190  1.7835  0.4584
 7347SOL    HW233504   0.774   0.552   4.510 -0.4338 -0.5954 -1.0798
 7348SOL     OW33505   0.988   2.961   7.285  0.7279  0.3466 -0.5010
 7348SOL    HW133506   0.895   2.955   7.260  0.8101 -0.9166 -0.5091
 7348SOL    HW233507   1.020   2.882   7.241 -2.1566  0.0318 -2.0908
 7349SOL     OW33508   2.058   3.402  17.162 -0.2948  0.9024 -0.2116
 7349SOL    HW133509   2.024   3.478  17.210 -0.3126 -0.1858  1.4930
 7349SOL    HW233510   2.066   3.442  17.075 -0.6323 -0.3468 -0.8166
 7350SOL     OW33511   4.547   2.967   3.737  0.6513 -0.6800 -0.0816
 7350SOL    HW133512   4.538   2.881   3.698  2.7091 -1.0679  0.3347
 7350SOL    HW233513   4.488   3.018   3.681  1.4439 -0.0752 -0.3701
 7351SOL     OW33514   3.576   4.289   1.997  0.0809 -0.0458 -0.2816
 7351SOL    HW133515   3.501   4.244   1.959  0.9404 -0.4867 -1.4462
 7351SOL    HW233516   3.636   4.214   1.996  0.4297  0.2189  0.3125
 7352SOL     OW33517   0.680   0.919   4.882 -0.0709  0.0838 -0.1263
 7352SOL    HW133518   0.682   0.918   4.786  1.1665  1.4791 -0.1086
 7352SOL    HW233519   0.739   0.992   4.898  1.9974 -1.8481  0.9564
 7353SOL     OW33520   3.081   0.100   3.529  0.2212 -0.6935  0.2687
 7353SOL    HW133521   2.993   0.100   3.493 -0.6410  1.4805  2.3964
 7353SOL    HW233522   3.067   0.057   3.613  0.5183 -2.7092 -0.7334
 7354SOL     OW33523   2.246   3.365  14.943  0.4177 -0.0120  0.1561
 7354SOL    HW133524   2.282   3.391  14.858 -0.0759  1.0741  0.2762
 7354SOL    HW233525   2.299   3.288  14.962  0.1208  0.2876  2.2039
 7355SOL     OW33526   4.502   1.440   0.638  0.2193  0.5791  0.0674
 7355SOL    HW133527   4.498   1.478   0.551  2.5403  1.0416  0.1639
 7355SOL    HW233528   4.419   1.466   0.678 -0.1445 -0.4274 -0.0382
 7356SOL     OW33529   2.176   0.441   4.986 -1.2732  0.6788  0.4102
 7356SOL    HW133530   2.131   0.379   5.043 -0.8770 -1.2855 -1.4047
 7356SOL    HW233531   2.177   0.397   4.901  0.2753 -1.8412  1.7322
 7357SOL     OW33532   3.462   0.800  15.635 -0.2764 -0.3076  0.4245
 7357SOL    HW133533   3.503   0.854  15.704 -0.3790  0.4978 -0.1512
 7357SOL    HW233534   3.391   0.766  15.690 -0.0761  0.7690  1.3625
 7358SOL     OW33535   3.152   3.465  15.878  0.8070  0.4617  0.0976
 7358SOL    HW133536   3.210   3.392  15.897 -0.7627 -0.7806  0.1115
 7358SOL    HW233537   3.206   3.543  15.895 -0.7348  1.1447  1.8946
 7359SOL     OW33538   1.753   0.720   7.798  0.2857  0.2206 -0.2226
 7359SOL    HW133539   1.762   0.794   7.738  1.7344  1.1317  1.1267
 7359SOL    HW233540   1.657   0.714   7.794  0.4077 -2.2365  0.1773
 7360SOL     OW33541   1.633   4.114   8.318  0.1876 -0.5262 -0.1169
 7360SOL    HW133542   1.728   4.114   8.329  0.1302  1.8478  0.2949
 7360SOL    HW233543   1.637   4.119   8.222  1.7159  0.2180 -0.0072
 7361SOL     OW33544   3.580   3.138   6.557  0.1470  0.1906 -0.2823
 7361SOL    HW133545   3.565   3.200   6.486 -0.2681 -0.2750 -0.5948
 7361SOL    HW233546   3.507   3.076   6.552  0.6253 -0.3046 -1.0339
 7362SOL     OW33547   3.156   1.140  10.938  0.1508  0.1450  0.0948
 7362SOL    HW133548   3.145   1.235  10.937 -4.0539 -0.3200  0.0389
 7362SOL    HW233549   3.212   1.130  11.015 -0.2711  2.2881  0.6708
 7363SOL     OW33550   3.353   2.999   5.971 -0.4025 -0.0020  0.1897
 7363SOL    HW133551   3.415   3.056   6.017  0.3787 -0.1317 -0.7033
 7363SOL    HW233552   3.285   2.990   6.038  0.5683  0.1978  1.2172
 7364SOL     OW33553   4.477   1.528   4.103 -0.0898  0.1859  0.3119
 7364SOL    HW133554   4.518   1.450   4.141 -2.1497 -0.9160  0.2812
 7364SOL    HW233555   4.549   1.559   4.049 -1.5479  2.1773 -0.4596
 7365SOL     OW33556   2.846   2.987   2.488 -0.1104  0.4087  0.0713
 7365SOL    HW133557   2.777   2.927   2.516 -0.1292  0.9852  1.2712
 7365SOL    HW233558   2.907   3.000   2.560  0.1788 -0.2530 -0.0530
 7366SOL     OW33559   0.395   1.709   2.974 -0.3491  0.3654 -0.4319
 7366SOL    HW133560   0.354   1.782   3.019 -0.9110 -1.5084  2.0916
 7366SOL    HW233561   0.481   1.746   2.957 -0.4101 -0.2031 -1.9996
 7367SOL     OW33562   3.767   2.145   6.153 -0.1298 -0.1625 -0.6617
 7367SOL    HW133563   3.840   2.189   6.197  1.4411 -0.9877 -2.4621
 7367SOL    HW233564   3.719   2.227   6.140 -0.0912 -0.4714 -2.6629
 7368SOL     OW33565   0.605   3.142   6.766  0.2275  0.5582  0.3241
 7368SOL    HW133566   0.592   3.144   6.672 -0.2659 -2.4787  0.3356
 7368SOL    HW233567   0.659   3.218   6.787 -0.7210  1.4497 -0.4719
 7369SOL     OW33568   0.066   0.015   6.667  0.1108  0.6159 -0.3505
 7369SOL    HW133569   0.134   4.691   6.717 -0.6363 -1.3940 -1.1519
 7369SOL    HW233570   4.713   4.706   6.717  0.6408  0.6513  0.4629
 7370SOL     OW33571   1.731   3.139   6.698 -0.5542  0.0328  0.1221
 7370SOL    HW133572   1.826   3.141   6.713 -0.3809  0.0196 -1.0346
 7370SOL    HW233573   1.729   3.054   6.655  0.0111 -0.2849  0.7130
 7371SOL     OW33574   3.169   0.578   9.182 -0.2688  0.0763 -0.4540
 7371SOL    HW133575   3.206   0.636   9.249  1.0890  0.2696 -1.3841
 7371SOL    HW233576   3.164   0.492   9.225  0.0838 -0.4254 -1.4153
 7372SOL     OW33577   4.441   1.048   7.352  0.3095 -0.2315 -0.3746
 7372SOL    HW133578   4.487   1.109   7.409  0.3000  0.0496 -0.6658
 7372SOL    HW233579   4.418   0.965   7.394 -0.9525  0.7079  0.7868
 7373SOL     OW33580   3.650   3.733  16.105  0.0602  0.5808  0.0315
 7373SOL    HW133581   3.700   3.651  16.106 -0.1241  0.4699  0.2345
 7373SOL    HW233582   3.560   3.701  16.101 -0.4280  2.1448 -1.4900
 7374SOL     OW33583   3.101   0.130   2.077 -0.0473 -0.0286  0.3275
 7374SOL    HW133584   3.153   0.163   2.150 -1.5821  1.9471  0.5371
 7374SOL    HW233585   3.068   0.044   2.105 -0.2110 -0.2401 -0.5215
 7375SOL     OW33586   2.313   1.870  16.313 -0.4299  0.5511  0.2724
 7375SOL    HW133587   2.269   1.902  16.391  0.5339  1.3839  0.4845
 7375SOL    HW233588   2.238   1.845  16.259  0.1743 -1.6645  0.4527
 7376SOL     OW33589   0.363   4.494   7.627  0.0896 -0.2548  0.4575
 7376SOL    HW133590   0.429   4.543   7.675 -0.8163  0.5176  0.9000
 7376SOL    HW233591   0.354   4.421   7.689  0.6147 -2.2149 -1.7738
 7377SOL     OW33592   0.987   2.310   8.455 -0.2394  0.0804  0.2302
 7377SOL    HW133593   0.956   2.274   8.539  1.9875  0.6390  1.3034
 7377SOL    HW233594   1.068   2.355   8.478  1.0722 -2.5951  0.8854
 7378SOL     OW33595   0.529   1.554   2.126 -0.4052 -0.2327 -0.2422
 7378SOL    HW133596   0.440   1.519   2.119 -0.6597  0.0842  1.2824
 7378SOL    HW233597   0.539   1.533   2.219 -1.3897  0.2602 -0.0283
 7379SOL     OW33598   3.092   2.966   9.726  0.5482  0.3912 -0.1929
 7379SOL    HW133599   3.065   2.879   9.754  0.6095  0.5450  0.3292
 7379SOL    HW233600   3.097   2.953   9.631  0.3867  1.3719 -0.3344
 7380SOL     OW33601   0.889   2.258   2.621  0.5151  0.1166  0.1014
 7380SOL    HW133602   0.937   2.331   2.582  3.5467 -0.7683  2.2405
 7380SOL    HW233603   0.824   2.236   2.553 -1.4758  2.0277  1.4076
 7381SOL     OW33604   2.705   2.926   7.152  0.3674 -0.4354 -0.1597
 7381SOL    HW133605   2.716   2.870   7.229  1.9858 -0.9572 -0.7709
 7381SOL    HW233606   2.697   2.854   7.089  1.4719  0.3823 -1.2125
 7382SOL     OW33607   2.164   1.312   2.005 -0.6540 -1.0115  0.2355
 7382SOL    HW133608   2.082   1.341   2.045 -1.4122  0.0418 -2.1042
 7382SOL    HW233609   2.151   1.217   2.003 -0.5733 -1.0164 -0.0129
 7383SOL     OW33610   1.455   1.429   2.608 -0.2339 -0.1792  0.0880
 7383SOL    HW133611   1.384   1.493   2.617  0.3644  0.3134  1.3678
 7383SOL    HW233612   1.509   1.475   2.545  0.2655 -0.9194 -0.0236
 7384SOL     OW33613   4.245   0.809  16.091 -0.0363  0.5286 -0.3414
 7384SOL    HW133614   4.292   0.736  16.051  1.7621  0.7496  1.3509
 7384SOL    HW233615   4.316   0.856  16.135 -0.7558  0.6935  0.6410
 7385SOL     OW33616   2.669   3.519   9.535 -0.2571  0.2930  0.2866
 7385SOL    HW133617   2.671   3.567   9.618  2.9226  0.2861  0.2029
 7385SOL    HW233618   2.625   3.573   9.470 -0.7944 -0.2743  0.1838
 7386SOL     OW33619   2.751   4.381  11.061 -0.4345 -0.0852 -0.3939
 7386SOL    HW133620   2.747   4.386  11.156  0.9764  1.6117 -0.4322
 7386SOL    HW233621   2.791   4.295  11.052 -1.0101 -0.5226  1.3187
 7387SOL     OW33622   3.563   4.142   4.917  0.0799 -0.3647 -0.3994
 7387SOL    HW133623   3.588   4.099   4.835 -2.1570  1.3717 -1.9783
 7387SOL    HW233624   3.497   4.206   4.890 -1.0400 -1.5579 -0.4367
 7388SOL     OW33625   2.554   2.311   2.529  0.4617  0.1946  0.0623
 7388SOL    HW133626   2.516   2.371   2.464 -0.4070  0.9843  1.3115
 7388SOL    HW233627   2.542   2.361   2.609  0.0461  2.2559 -1.2937
 7389SOL     OW33628   0.455   3.799  14.174  0.0996 -0.0179  0.6074
 7389SOL    HW133629   0.440   3.737  14.103  2.3710 -0.0556  0.1654
 7389SOL    HW233630   0.541   3.832  14.150 -0.8818  2.7327  0.9344
 7390SOL     OW33631   2.858   2.014   4.158  0.6996  0.2751  0.0988
 7390SOL    HW133632   2.842   1.925   4.188 -1.6762  0.3252 -1.0256
 7390SOL    HW233633   2.810   2.013   4.075  1.2538 -0.6364 -0.2069
 7391SOL     OW33634   0.723   4.165  10.361 -0.0780  0.3703 -0.6671
 7391SOL    HW133635   0.760   4.078  10.377  1.2694  1.3237  1.5149
 7391SOL    HW233636   0.792   4.202  10.307  0.7895  0.1825  0.3143
 7392SOL     OW33637   3.094   0.230   8.246 -0.1728 -0.4423 -0.4596
 7392SOL    HW133638   3.162   0.167   8.270  0.5068  1.1181  1.6120
 7392SOL    HW233639   3.035   0.182   8.187 -1.2659  0.5748 -0.1980
 7393SOL     OW33640   1.047   1.946   6.710 -0.1608 -0.4192  0.0274
 7393SOL    HW133641   1.030   2.003   6.635 -1.9353  1.0761  1.5636
 7393SOL    HW233642   1.025   1.866   6.662  1.5077 -1.3984  0.8733
 7394SOL     OW33643   3.507   4.631   6.826 -0.1173 -0.3821 -0.6059
 7394SOL    HW133644   3.525   0.003   6.829 -0.4431 -0.2860 -1.5809
 7394SOL    HW233645   3.411   4.634   6.824 -0.1679 -1.5551 -0.1450
 7395SOL     OW33646   3.931   2.331  11.239 -0.1188  0.1117 -0.1636
 7395SOL    HW133647   3.935   2.385  11.318 -3.3569  0.2276 -0.0728
 7395SOL    HW233648   4.018   2.298  11.220  0.3535  0.3013  1.6396
 7396SOL     OW33649   0.394   1.604   2.613  0.0777 -0.0559  0.9265
 7396SOL    HW133650   0.440   1.688   2.612 -1.3961  0.7195 -1.1520
 7396SOL    HW233651   0.461   1.542   2.642 -0.5046 -1.2218 -0.1632
 7397SOL     OW33652   2.591   2.947   2.288  0.0604 -0.0630  0.0042
 7397SOL    HW133653   2.674   2.995   2.295  0.6148 -0.6920 -2.1804
 7397SOL    HW233654   2.577   2.967   2.196 -1.4495 -1.4959 -0.0772
 7398SOL     OW33655   0.470   1.719   0.206  0.1180 -0.5733 -0.0057
 7398SOL    HW133656   0.446   1.648   0.265  0.1526  0.3430  1.1161
 7398SOL    HW233657   0.493   1.665   0.131  1.0079 -0.0359 -0.1236
 7399SOL     OW33658   0.194   2.468  16.968 -0.2079 -0.6526  0.3397
 7399SOL    HW133659   0.215   2.401  16.902 -2.8283 -0.1931 -0.9693
 7399SOL    HW233660   0.115   2.508  16.932  0.0623 -1.3360 -1.0255
 7400SOL     OW33661   1.131   1.249  14.002  0.7021 -0.1072  0.1037
 7400SOL    HW133662   1.075   1.310  14.049  2.2108  1.9981 -0.8377
 7400SOL    HW233663   1.210   1.274  14.050 -0.1341 -0.8240  1.8570
 7401SOL     OW33664   0.629   3.282  16.950  1.0078  0.1911 -0.3718
 7401SOL    HW133665   0.622   3.276  16.855  0.6622 -0.1867 -0.3212
 7401SOL    HW233666   0.660   3.193  16.965  1.2780  0.3586  0.0507
 7402SOL     OW33667   4.531   4.449   4.434 -0.2754 -0.2990  0.4853
 7402SOL    HW133668   4.442   4.416   4.430  0.5107 -2.1572 -1.4202
 7402SOL    HW233669   4.549   4.471   4.526 -0.5366  0.7772  0.2791
 7403SOL     OW33670   0.342   3.627   2.165 -0.5800  0.3660 -0.3408
 7403SOL    HW133671   0.410   3.659   2.223  2.1573 -3.3489 -1.5037
 7403SOL    HW233672   0.318   3.712   2.126  1.0701  0.7661 -0.4807
 7404SOL     OW33673   0.684   1.452  12.896 -0.0354 -0.3441 -0.2554
 7404SOL    HW133674   0.707   1.536  12.936  2.4111 -1.1954  0.1414
 7404SOL    HW233675   0.611   1.473  12.838  0.1313  1.0639  0.0614
 7405SOL     OW33676   2.777   3.159   2.823 -0.2835  0.2505 -0.2316
 7405SOL    HW133677   2.743   3.232   2.772  0.5480 -0.8980 -2.4185
 7405SOL    HW233678   2.711   3.090   2.810 -0.8408  0.4247  1.5608
 7406SOL     OW33679   1.491   3.690   5.435  0.0753  0.1148 -0.2146
 7406SOL    HW133680   1.398   3.701   5.416 -0.0538  1.2491  1.0384
 7406SOL    HW233681   1.495   3.763   5.497 -1.9147  0.0410 -0.0033
 7407SOL     OW33682   2.913   4.505   3.647  0.0872 -0.5430  0.5214
 7407SOL    HW133683   2.838   4.476   3.595 -0.9634 -0.6986  2.1445
 7407SOL    HW233684   2.982   4.474   3.587 -1.4491  0.1754 -1.6193
 7408SOL     OW33685   4.306   4.163   5.032 -0.4000 -0.0970 -0.0109
 7408SOL    HW133686   4.400   4.146   5.031 -0.4999 -0.7755  1.7545
 7408SOL    HW233687   4.272   4.138   5.118  0.3715 -0.1149  0.2963
 7409SOL     OW33688   4.034   2.220   3.342  0.4475  0.2365  0.4399
 7409SOL    HW133689   4.121   2.228   3.303  0.7291 -0.4403  0.9213
 7409SOL    HW233690   3.989   2.288   3.293  0.4516  0.4511  0.7330
 7410SOL     OW33691   4.227   4.407   5.044 -0.9124 -0.4405  0.8109
 7410SOL    HW133692   4.268   4.322   5.026 -0.1782  0.0806 -0.0012
 7410SOL    HW233693   4.251   4.414   5.136  0.3316  0.0188  0.4455
 7411SOL     OW33694   0.223   2.468   3.214 -0.4678 -0.1260  0.5175
 7411SOL    HW133695   0.183   2.554   3.224 -0.2391 -0.0342  0.6485
 7411SOL    HW233696   0.147   2.410   3.224 -0.2339 -0.3206  1.2006
 7412SOL     OW33697   1.342   2.663  14.167  0.1067 -0.1158  0.3378
 7412SOL    HW133698   1.428   2.621  14.163  0.0573 -0.3390  1.4989
 7412SOL    HW233699   1.277   2.593  14.157  0.6596 -0.6589  0.5733
 7413SOL     OW33700   3.377   2.010   6.345  0.0055  0.0633 -0.3074
 7413SOL    HW133701   3.415   2.032   6.260  0.8697 -0.1521  0.0187
 7413SOL    HW233702   3.282   2.022   6.335 -0.1879 -0.0960  1.2620
 7414SOL     OW33703   1.636   2.776  15.107  0.2616  0.7381  0.3073
 7414SOL    HW133704   1.577   2.703  15.127  0.4544  0.2943 -0.7720
 7414SOL    HW233705   1.614   2.822  15.188  1.6840 -0.6237  1.4595
 7415SOL     OW33706   2.180   3.782   4.726 -0.4283  0.1458 -0.2765
 7415SOL    HW133707   2.123   3.765   4.801  0.0915  0.2977  0.1499
 7415SOL    HW233708   2.233   3.703   4.719 -1.1552 -0.3157 -0.5633
 7416SOL     OW33709   2.174   3.301   7.460  0.2272  0.5132  0.3846
 7416SOL    HW133710   2.106   3.253   7.508 -2.4098  2.6689 -1.1859
 7416SOL    HW233711   2.246   3.302   7.522  0.3917  0.2416  0.2001
 7417SOL     OW33712   4.043   0.328  13.809  0.1137  0.1600  0.3460
 7417SOL    HW133713   4.022   0.243  13.771  2.4846  0.0289 -0.6441
 7417SOL    HW233714   3.975   0.386  13.773  1.8263  0.6290 -2.1528
 7418SOL     OW33715   1.805   1.208   7.253  0.2055  0.3116 -0.3122
 7418SOL    HW133716   1.738   1.140   7.244  0.9876 -0.8026  2.1540
 7418SOL    HW233717   1.882   1.162   7.219  0.0884  0.9810 -1.4957
 7419SOL     OW33718   4.218   0.139   5.535 -0.0265 -0.2782 -0.1683
 7419SOL    HW133719   4.210   0.200   5.462 -1.8354 -1.0766 -0.6465
 7419SOL    HW233720   4.312   0.128   5.547  0.0801  0.6814 -0.1581
 7420SOL     OW33721   4.062   1.902  10.201  0.2777  0.2147  0.1749
 7420SOL    HW133722   4.028   1.939  10.120  2.5053 -1.0872 -1.3799
 7420SOL    HW233723   3.986   1.906  10.258 -0.1216  1.3964 -0.4426
 7421SOL     OW33724   3.148   0.943   7.112  0.0713 -0.0686 -0.0586
 7421SOL    HW133725   3.205   0.944   7.034  2.0557 -0.9231  1.3815
 7421SOL    HW233726   3.191   0.882   7.172 -1.4820  0.8882  2.0188
 7422SOL     OW33727   3.245   0.385  12.766  0.3792  0.5387  0.0082
 7422SOL    HW133728   3.203   0.471  12.759  0.0706  0.3998  0.1603
 7422SOL    HW233729   3.170   0.327  12.767  0.5861  0.2757  0.2644
 7423SOL     OW33730   3.333   4.142   5.837  0.3767 -0.3732 -0.5678
 7423SOL    HW133731   3.325   4.067   5.895  0.6155 -0.2163 -0.3271
 7423SOL    HW233732   3.384   4.103   5.766  1.3232 -0.7284  0.3043
 7424SOL     OW33733   1.502   3.772   2.514  0.3510 -0.3028 -0.2005
 7424SOL    HW133734   1.510   3.848   2.457  0.0365  0.9477  1.4237
 7424SOL    HW233735   1.535   3.700   2.461  0.0496  0.0734 -0.8947
 7425SOL     OW33736   2.730   3.176  16.306 -0.1445 -0.3236 -1.0663
 7425SOL    HW133737   2.744   3.258  16.352 -0.7058  0.0630 -1.5874
 7425SOL    HW233738   2.812   3.132  16.328  1.4192  2.2552 -1.7683
 7426SOL     OW33739   1.371   4.396   6.500  0.0388 -0.0705 -0.1977
 7426SOL    HW133740   1.463   4.424   6.498 -0.2732  1.2375  3.4935
 7426SOL    HW233741   1.362   4.396   6.405  1.2922 -0.2123 -0.3147
 7427SOL     OW33742   3.078   2.701   9.617  0.4186  0.0381 -0.0359
 7427SOL    HW133743   3.168   2.673   9.634  0.7653  1.1695 -0.0341
 7427SOL    HW233744   3.088   2.730   9.527  2.1541  2.7495  1.0440
 7428SOL     OW33745   0.632   1.982  17.101  0.2278  0.1764  0.4516
 7428SOL    HW133746   0.598   2.008  17.186  0.5683  2.8812 -0.2242
 7428SOL    HW233747   0.662   2.066  17.066  0.2393 -0.0540 -0.0967
 7429SOL     OW33748   2.792   1.769   9.362 -0.0956  0.2814  0.0310
 7429SOL    HW133749   2.842   1.752   9.283  0.4266  1.0400  0.1969
 7429SOL    HW233750   2.769   1.681   9.390 -0.0648  0.3094  0.1430
 7430SOL     OW33751   1.155   0.745   5.920  0.2807  0.3907 -0.0396
 7430SOL    HW133752   1.241   0.704   5.911  1.2234  2.1185  1.3510
 7430SOL    HW233753   1.125   0.753   5.829  0.8103  0.5032 -0.2036
 7431SOL     OW33754   4.298   1.729   4.189  0.3944 -0.0705 -0.0264
 7431SOL    HW133755   4.307   1.734   4.285 -0.6706 -0.0881  0.0767
 7431SOL    HW233756   4.374   1.680   4.158  0.5864 -0.6396  1.3394
 7432SOL     OW33757   2.452   4.097   6.172  0.2435  0.4271 -0.0229
 7432SOL    HW133758   2.461   4.045   6.093  0.2129  1.6069 -0.8083
 7432SOL    HW233759   2.446   4.032   6.242 -0.7872  0.0413 -0.4631
 7433SOL     OW33760   2.203   0.007   2.837  0.0228 -0.5776  0.1416
 7433SOL    HW133761   2.223   0.005   2.931 -3.6472  1.0963  0.9241
 7433SOL    HW233762   2.278   4.682   2.799  0.3477 -1.3940  1.7659
 7434SOL     OW33763   4.286   0.736   0.774 -0.0465 -0.3923  0.0588
 7434SOL    HW133764   4.246   0.766   0.692 -1.9693  1.3009  1.6206
 7434SOL    HW233765   4.378   0.762   0.762  0.1638 -1.3782 -0.4762
 7435SOL     OW33766   0.878   3.994   9.324  1.0605  0.5596 -0.2760
 7435SOL    HW133767   0.788   3.994   9.356  1.0699  1.2812 -0.2497
 7435SOL    HW233768   0.863   3.983   9.230 -1.5160 -0.6763  0.2934
 7436SOL     OW33769   2.982   1.810   0.641  0.0992 -0.4279  0.4121
 7436SOL    HW133770   2.994   1.836   0.550 -1.3176 -0.1180  0.3166
 7436SOL    HW233771   2.927   1.885   0.665 -0.9697 -1.1345  0.1471
 7437SOL     OW33772   1.132   4.621  13.219  0.0422 -0.2513  0.0431
 7437SOL    HW133773   1.122   4.627  13.124  1.3278  1.9318  0.0404
 7437SOL    HW233774   1.224   4.595  13.221  0.6412  1.8674 -0.4553
 7438SOL     OW33775   3.176   3.348   9.922  0.1121  0.5691  0.1104
 7438SOL    HW133776   3.142   3.270   9.966  1.8264  0.4279  1.2006
 7438SOL    HW233777   3.267   3.322   9.918 -0.4467 -1.2284 -0.7865
 7439SOL     OW33778   3.184   4.474   6.751 -0.5932 -0.7001 -0.3315
 7439SOL    HW133779   3.187   4.540   6.819 -0.8384 -0.6687 -0.3509
 7439SOL    HW233780   3.089   4.462   6.747 -0.9644  1.5225  2.3294
 7440SOL     OW33781   3.703   4.252   2.608  0.2069 -0.2434  0.3135
 7440SOL    HW133782   3.711   4.263   2.513 -0.2424 -2.9361 -0.0252
 7440SOL    HW233783   3.769   4.315   2.635  1.2520 -0.9913 -0.5012
 7441SOL     OW33784   0.352   3.737   4.134  0.2714 -0.0789 -0.8555
 7441SOL    HW133785   0.384   3.754   4.046  0.9420  0.1057 -0.5758
 7441SOL    HW233786   0.279   3.678   4.116  0.1829  0.0175 -0.8071
 7442SOL     OW33787   0.612   4.627   9.740 -0.2792  0.0464 -0.2154
 7442SOL    HW133788   0.654   4.639   9.655  0.9871  1.5733  0.6095
 7442SOL    HW233789   0.539   4.572   9.710 -0.8968  1.2025 -0.8660
 7443SOL     OW33790   4.658   1.301  13.244 -0.1845  0.2354 -0.1190
 7443SOL    HW133791   4.608   1.259  13.173  1.2100  0.4612 -1.2403
 7443SOL    HW233792   4.630   1.262  13.327  1.5179 -1.3524 -0.2947
 7444SOL     OW33793   0.967   1.975   8.479  0.3660  0.1145 -0.4444
 7444SOL    HW133794   0.973   1.977   8.574  1.6991  0.4158 -0.5378
 7444SOL    HW233795   0.950   2.065   8.453  1.4940 -0.1695 -2.1318
 7445SOL     OW33796   1.131   2.901   3.039 -0.5324 -0.5779 -0.1105
 7445SOL    HW133797   1.094   2.823   2.997  0.2181 -1.3428  0.6460
 7445SOL    HW233798   1.061   2.967   3.038  2.1891  2.2960 -0.3724
 7446SOL     OW33799   0.655   4.637  14.717  0.5984 -0.5247  0.3691
 7446SOL    HW133800   0.731   4.693  14.701  0.5466 -0.5571 -0.0046
 7446SOL    HW233801   0.618   4.687  14.790  0.6423  1.4523 -0.9568
 7447SOL     OW33802   3.708   0.145   6.935  0.3230 -0.4890 -0.1869
 7447SOL    HW133803   3.680   0.167   6.846 -1.6429  1.2474  0.8657
 7447SOL    HW233804   3.774   0.077   6.926  2.0095  1.6413 -3.9996
 7448SOL     OW33805   0.714   1.004  15.792  1.1444 -0.2346  0.0090
 7448SOL    HW133806   0.767   0.977  15.717 -0.3209 -1.9377 -0.4359
 7448SOL    HW233807   0.646   0.936  15.788  0.2415  0.7629 -1.5023
 7449SOL     OW33808   0.001   4.504   8.509  0.2580 -0.5738  0.1895
 7449SOL    HW133809   4.628   4.509   8.504  0.3520  2.4186  1.6798
 7449SOL    HW233810   0.005   4.491   8.604 -0.9622  0.2380  0.3435
 7450SOL     OW33811   3.724   4.342   1.559 -0.3789  0.1166 -0.2836
 7450SOL    HW133812   3.731   4.414   1.496 -1.5319  1.7548  1.4791
 7450SOL    HW233813   3.776   4.389   1.624  1.3151 -0.7950 -0.9909
 7451SOL     OW33814   4.323   0.887   6.634 -0.4934  0.0095 -0.9404
 7451SOL    HW133815   4.407   0.904   6.593 -0.4248 -0.2922 -0.9268
 7451SOL    HW233816   4.305   0.965   6.686  0.4066 -0.9193  0.7661
 7452SOL     OW33817   4.130   3.951  12.349  0.0550  0.3212  0.2053
 7452SOL    HW133818   4.037   3.933  12.363  0.2111  0.0055  0.8438
 7452SOL    HW233819   4.130   3.998  12.266  0.3425  1.0850  0.6456
 7453SOL     OW33820   1.694   1.245   7.521 -0.3627  0.0502 -0.3932
 7453SOL    HW133821   1.768   1.236   7.460  0.0192 -2.7902  0.4802
 7453SOL    HW233822   1.620   1.261   7.463  0.1685  1.6153 -0.6448
 7454SOL     OW33823   0.351   0.942   5.469  0.2922 -0.4871 -0.1953
 7454SOL    HW133824   0.360   0.847   5.455  1.0158 -0.2122 -1.5576
 7454SOL    HW233825   0.291   0.936   5.544  2.4597 -0.3445  1.5634
 7455SOL     OW33826   0.508   3.731   7.126  0.6632 -0.0534  0.5969
 7455SOL    HW133827   0.483   3.641   7.150 -1.4329  0.0082 -1.4041
 7455SOL    HW233828   0.576   3.757   7.189  0.4769  1.4227  0.1632
 7456SOL     OW33829   0.731   0.422   4.645 -0.6121  0.0446  0.3559
 7456SOL    HW133830   0.762   0.471   4.721  2.7782  0.2491 -1.1588
 7456SOL    HW233831   0.641   0.403   4.673 -0.2845  1.1192  2.1276
 7457SOL     OW33832   3.455   1.529   3.017 -0.0070  0.2234 -0.0909
 7457SOL    HW133833   3.418   1.500   3.100  0.4845  0.0366  0.0629
 7457SOL    HW233834   3.379   1.556   2.965 -1.2691 -2.8271  0.1872
 7458SOL     OW33835   0.370   1.045   7.255  0.2346 -0.4886 -0.0300
 7458SOL    HW133836   0.396   1.029   7.346 -0.6431  0.9723  0.4824
 7458SOL    HW233837   0.453   1.039   7.208 -0.0719 -3.6342 -0.1910
 7459SOL     OW33838   0.487   1.058  16.003  0.4839 -0.4231 -0.3492
 7459SOL    HW133839   0.516   0.983  15.950  0.8160  0.5235 -1.5186
 7459SOL    HW233840   0.526   1.129  15.952 -0.8930  1.6069  1.4398
 7460SOL     OW33841   2.466   4.545   2.952 -0.2112  0.6750 -0.0632
 7460SOL    HW133842   2.408   4.469   2.955 -0.8798  1.2867  2.3647
 7460SOL    HW233843   2.521   4.520   2.877 -1.4381  1.3347 -1.1909
 7461SOL     OW33844   3.259   2.379   8.183  0.1207 -0.4125  0.2713
 7461SOL    HW133845   3.191   2.403   8.120  0.4432  0.3476  0.2169
 7461SOL    HW233846   3.244   2.285   8.178 -1.7000 -0.2633  2.9112
 7462SOL     OW33847   2.984   4.327  11.236 -0.0409 -0.0403 -0.2516
 7462SOL    HW133848   2.932   4.276  11.298  0.6735  0.8974  1.1283
 7462SOL    HW233849   3.025   4.267  11.174 -0.0484  0.9566 -1.2162
 7463SOL     OW33850   3.938   0.632   9.852  0.3030  0.2008 -0.5689
 7463SOL    HW133851   3.900   0.549   9.825 -2.4119  1.3763 -0.3542
 7463SOL    HW233852   3.960   0.613   9.943  1.2566 -4.8075 -1.8253
 7464SOL     OW33853   3.198   4.049   0.863  0.0323  0.1310  0.2136
 7464SOL    HW133854   3.151   4.006   0.792 -0.2292 -0.6081  0.8378
 7464SOL    HW233855   3.274   3.992   0.879 -0.4851 -0.5090  0.3680
 7465SOL     OW33856   3.378   0.376   7.800 -1.2183  0.3323  0.3185
 7465SOL    HW133857   3.421   0.433   7.864  2.7014  1.4931 -3.3982
 7465SOL    HW233858   3.354   0.310   7.866  0.1387  0.1856  0.6702
 7466SOL     OW33859   0.126   3.364   3.170  0.3715  0.3774 -0.7499
 7466SOL    HW133860   0.062   3.397   3.107  2.1396  0.6716 -2.3854
 7466SOL    HW233861   0.073   3.381   3.248  0.6863 -2.5600  0.0770
 7467SOL     OW33862   1.075   1.190   0.647 -0.4871 -0.0306 -0.0382
 7467SOL    HW133863   1.110   1.270   0.686  0.0934 -0.8639  1.1600
 7467SOL    HW233864   0.991   1.211   0.608 -0.3585 -0.6507 -0.6460
 7468SOL     OW33865   4.108   4.417  13.874 -0.1449 -0.0146 -0.7962
 7468SOL    HW133866   4.069   4.369  13.948 -1.3157  1.5590 -0.3911
 7468SOL    HW233867   4.186   4.458  13.910  1.2704 -1.3694 -2.3197
 7469SOL     OW33868   2.384   3.218   6.613  0.4067  0.3565 -0.4500
 7469SOL    HW133869   2.325   3.248   6.544  0.0671  2.1480  0.6010
 7469SOL    HW233870   2.388   3.123   6.601 -0.6073  0.6223 -2.8077
 7470SOL     OW33871   0.074   2.601   1.553  0.0281 -0.2040  0.0386
 7470SOL    HW133872   0.147   2.615   1.614 -0.7289  0.7501  0.7266
 7470SOL    HW233873   0.113   2.640   1.475 -0.2615 -0.0008 -0.0032
 7471SOL     OW33874   1.878   4.376   5.175 -0.4147  0.5746  0.1212
 7471SOL    HW133875   1.855   4.293   5.132 -2.0860  1.1859 -0.1651
 7471SOL    HW233876   1.882   4.347   5.266 -0.1292 -1.2635 -0.4748
 7472SOL     OW33877   1.289   4.127   3.336 -0.2722  0.4286 -0.7175
 7472SOL    HW133878   1.225   4.152   3.403 -1.2950 -1.4831 -0.9820
 7472SOL    HW233879   1.293   4.210   3.289  2.1654  0.4535 -0.4532
 7473SOL     OW33880   3.889   3.108   7.563 -0.4205 -0.5922 -0.7753
 7473SOL    HW133881   3.852   3.136   7.647  3.8433  1.2771  0.4977
 7473SOL    HW233882   3.865   3.175   7.500 -0.7712  0.1003  0.0925
 7474SOL     OW33883   2.807   0.498   5.373 -0.4998  0.4485  0.0186
 7474SOL    HW133884   2.901   0.513   5.360 -0.4215 -1.2811 -1.4306
 7474SOL    HW233885   2.776   0.586   5.396 -1.1876  0.6205 -1.6028
 7475SOL     OW33886   1.810   2.849   4.270 -0.3119  0.2640  0.5121
 7475SOL    HW133887   1.860   2.790   4.213 -0.7998  0.7924 -0.4635
 7475SOL    HW233888   1.803   2.929   4.219 -0.3634  0.0739  0.2220
 7476SOL     OW33889   0.242   1.164   8.392  0.0387  0.4743 -0.2850
 7476SOL    HW133890   0.313   1.227   8.385  0.2820  0.4486  2.1627
 7476SOL    HW233891   0.293   1.087   8.368 -1.1451 -1.2424  2.6804
 7477SOL     OW33892   4.717   2.177   5.832 -0.1212 -0.0004 -0.1502
 7477SOL    HW133893   4.637   2.221   5.864 -1.5802 -2.9316  0.1767
 7477SOL    HW233894   4.701   2.169   5.738  1.0006 -2.3428 -0.1216
 7478SOL     OW33895   0.373   4.302   2.075 -0.4186 -0.4888  0.2162
 7478SOL    HW133896   0.376   4.209   2.094  0.3798  0.1615  3.1870
 7478SOL    HW233897   0.331   4.327   2.157  0.8703  0.9412  0.4551
 7479SOL     OW33898   0.111   2.077   3.678  0.0044  0.4672 -0.5931
 7479SOL    HW133899   0.171   2.017   3.633 -0.5642 -0.0072 -0.7181
 7479SOL    HW233900   0.056   2.025   3.737 -1.1122  1.0019 -1.1714
 7480SOL     OW33901   0.180   2.059   2.164  0.5091 -0.0840 -0.4447
 7480SOL    HW133902   0.130   2.139   2.151  0.7601 -0.2865 -2.6718
 7480SOL    HW233903   0.233   2.070   2.085  1.0141  1.6442  0.1347
 7481SOL     OW33904   0.388   4.068   5.063 -0.1117 -0.5644  0.1410
 7481SOL    HW133905   0.454   4.013   5.106 -0.1359 -0.7607 -0.0730
 7481SOL    HW233906   0.324   3.997   5.067  1.6946 -2.1928  0.3299
 7482SOL     OW33907   0.288   3.424   4.166  0.4262 -0.2316 -0.0878
 7482SOL    HW133908   0.320   3.354   4.110 -2.4332 -1.1456 -0.6038
 7482SOL    HW233909   0.322   3.398   4.252 -0.5670 -1.4256 -0.0526
 7483SOL     OW33910   0.441   2.567  14.801 -0.1032  0.1013  0.3796
 7483SOL    HW133911   0.488   2.620  14.736  0.1609  0.2513  0.6963
 7483SOL    HW233912   0.507   2.509  14.840 -0.6551 -1.1385 -0.4970
 7484SOL     OW33913   4.166   3.097   6.713 -0.2508 -0.0617 -0.2078
 7484SOL    HW133914   4.102   3.114   6.782  1.5684 -1.4880  1.8183
 7484SOL    HW233915   4.184   3.185   6.680  0.9438  0.2447  1.2763
 7485SOL     OW33916   4.410   2.198  17.600 -0.0374 -0.6612 -0.0722
 7485SOL    HW133917   4.471   2.220  17.530 -2.5230  1.2183 -1.6561
 7485SOL    HW233918   4.386   2.282  17.638  1.4099 -0.7807  1.0752
 7486SOL     OW33919   2.272   1.368   6.291 -0.2613 -0.0046  0.4293
 7486SOL    HW133920   2.331   1.315   6.345  1.0393 -1.3932 -2.3453
 7486SOL    HW233921   2.300   1.456   6.315 -0.2348  0.2113 -0.4235
 7487SOL     OW33922   1.221   1.371   6.838  0.1922  0.0821  0.2669
 7487SOL    HW133923   1.156   1.376   6.909 -0.3308  2.1623 -0.3588
 7487SOL    HW233924   1.201   1.282   6.810  1.8450  0.3253 -1.6628
 7488SOL     OW33925   2.932   3.554   6.511 -0.0981 -1.0152  0.4144
 7488SOL    HW133926   2.964   3.635   6.552 -0.0174 -0.5601 -0.5400
 7488SOL    HW233927   2.837   3.549   6.524 -0.2250  0.2548 -0.0015
 7489SOL     OW33928   2.220   0.730   1.981 -0.5137 -0.5233  0.3216
 7489SOL    HW133929   2.275   0.653   1.968  2.4709  1.7148 -0.2249
 7489SOL    HW233930   2.146   0.704   1.926  0.5478 -2.2685 -0.2796
 7490SOL     OW33931   4.095   4.135   8.068  0.3990 -0.5099  0.3113
 7490SOL    HW133932   4.003   4.109   8.074  0.9263 -2.8298 -1.7348
 7490SOL    HW233933   4.137   4.060   8.111 -1.1590 -1.9600 -0.6891
 7491SOL     OW33934   1.300   3.403  13.758  0.2055 -0.4884  0.3314
 7491SOL    HW133935   1.234   3.354  13.709  0.3312  0.7007 -1.0004
 7491SOL    HW233936   1.248   3.465  13.810  2.2276  1.1700  0.3543
 7492SOL     OW33937   0.188   4.568   2.885 -0.3840  0.4720  0.6547
 7492SOL    HW133938   0.272   4.590   2.845 -1.9824 -0.1929 -3.0475
 7492SOL    HW233939   0.218   4.533   2.969  0.4556 -1.1426 -0.3062
 7493SOL     OW33940   0.151   1.955   2.560 -0.2169 -0.5138  0.2371
 7493SOL    HW133941   0.237   1.976   2.523 -0.7980 -2.0157 -1.9503
 7493SOL    HW233942   0.174   1.916   2.644  2.2013  0.2371 -0.0773
 7494SOL     OW33943   2.618   4.022   4.456 -0.2712 -0.4585  0.0879
 7494SOL    HW133944   2.696   4.060   4.498 -1.6727  3.8583 -1.2829
 7494SOL    HW233945   2.545   4.046   4.513 -2.6098  0.6406 -3.4128
 7495SOL     OW33946   1.537   4.380   8.295 -0.1872  0.6224  0.1773
 7495SOL    HW133947   1.618   4.422   8.323 -0.3755  0.6451  0.6834
 7495SOL    HW233948   1.559   4.287   8.301  0.6083  0.6871 -1.6225
 7496SOL     OW33949   1.414   4.299   4.891 -0.0655  0.4880 -0.3661
 7496SOL    HW133950   1.346   4.367   4.890  0.6576  1.2427  0.9851
 7496SOL    HW233951   1.457   4.323   4.809  0.6258 -0.0595 -0.1583
 7497SOL     OW33952   2.858   3.723   8.200  0.2401 -0.3555 -0.2664
 7497SOL    HW133953   2.938   3.683   8.166  0.9270 -0.0760  1.0123
 7497SOL    HW233954   2.821   3.784   8.137  0.1336 -2.3998 -2.1915
 7498SOL     OW33955   1.718   0.637   2.863 -0.5154 -0.3598 -0.1556
 7498SOL    HW133956   1.751   0.601   2.946  0.2743 -1.8040 -1.1019
 7498SOL    HW233957   1.796   0.673   2.820 -0.4685 -1.4343 -0.9812
 7499SOL     OW33958   0.926   3.820   5.582  0.4227 -0.6506  0.9852
 7499SOL    HW133959   0.916   3.867   5.665  3.0445  0.0554  0.8992
 7499SOL    HW233960   1.001   3.764   5.602  0.7716 -0.6091 -0.2117
 7500SOL     OW33961   3.961   0.862   4.876 -0.3692  0.8612 -0.0186
 7500SOL    HW133962   3.970   0.776   4.918  1.4880  2.2175  2.3238
 7500SOL    HW233963   4.026   0.919   4.917 -2.3664  1.8676  1.7487
 7501SOL     OW33964   3.913   1.317   7.105 -0.1190 -0.5108  0.0154
 7501SOL    HW133965   3.909   1.321   7.200 -1.9530 -2.2451 -0.0092
 7501SOL    HW233966   3.962   1.396   7.082 -2.0863  0.3950 -0.9983
 7502SOL     OW33967   2.728   2.617   3.560 -0.2295  0.2517  0.4853
 7502SOL    HW133968   2.714   2.691   3.501  0.6445 -0.0278 -0.0760
 7502SOL    HW233969   2.776   2.665   3.627 -0.0067  0.2402  0.3342
 7503SOL     OW33970   3.958   3.971   6.003 -0.6499  0.1312  0.0384
 7503SOL    HW133971   3.995   4.000   6.086  1.1391 -0.6398 -0.4922
 7503SOL    HW233972   3.922   3.885   6.023  2.0834 -0.6137  1.7117
 7504SOL     OW33973   1.852   2.716  10.320  0.5970  0.2026 -0.6682
 7504SOL    HW133974   1.814   2.679  10.401  1.5828  0.9594  0.1321
 7504SOL    HW233975   1.914   2.779  10.355 -0.3798 -0.4698  2.3307
 7505SOL     OW33976   4.692   0.396  12.359  0.1489  0.0529 -0.7789
 7505SOL    HW133977   4.712   0.486  12.332  3.7937 -0.5968 -0.1402
 7505SOL    HW233978   4.619   0.410  12.420  0.3790  1.0280 -0.7182
 7506SOL     OW33979   4.586   3.617   3.462  0.2175  0.0319  0.1398
 7506SOL    HW133980   4.654   3.669   3.420 -0.5314  0.7980 -0.1311
 7506SOL    HW233981   4.618   3.530   3.438  0.4069  0.6623 -1.8828
 7507SOL     OW33982   0.947   1.595   2.595  0.0096 -0.3092 -0.1921
 7507SOL    HW133983   0.996   1.625   2.672 -0.6194 -1.4527  0.6552
 7507SOL    HW233984   0.892   1.672   2.582  0.5996  0.3058  0.9346
 7508SOL     OW33985   2.660   0.802  14.177  0.1184 -0.1454  0.2508
 7508SOL    HW133986   2.747   0.783  14.143  0.3202  0.3028  0.5302
 7508SOL    HW233987   2.614   0.843  14.103  1.3448  0.4190 -0.1873
 7509SOL     OW33988   1.251   1.459   4.701  0.0989 -0.1201 -0.0669
 7509SOL    HW133989   1.299   1.463   4.784 -0.8350  2.0142  0.3552
 7509SOL    HW233990   1.315   1.414   4.645 -1.3687 -0.7025 -1.2473
 7510SOL     OW33991   1.992   1.351   6.755  0.1090 -0.2973 -0.5128
 7510SOL    HW133992   1.949   1.371   6.838  0.5227 -0.1674 -0.3302
 7510SOL    HW233993   2.075   1.398   6.762 -0.5215  0.9388 -1.4608
 7511SOL     OW33994   1.207   1.431   6.368  0.3908 -0.0178  0.5033
 7511SOL    HW133995   1.296   1.465   6.371  0.5788 -0.3846 -1.5853
 7511SOL    HW233996   1.166   1.452   6.452  0.2234 -0.9789  0.6642
 7512SOL     OW33997   2.463   2.868  13.445 -0.1817  0.3049  0.2052
 7512SOL    HW133998   2.424   2.844  13.361  2.3741  0.9339 -1.1523
 7512SOL    HW233999   2.403   2.825  13.506  1.7450 -0.6495  1.4277
 7513SOL     OW34000   1.994   0.249  12.778  0.3154 -0.4815 -0.1300
 7513SOL    HW134001   2.063   0.239  12.713 -0.4061 -1.3607 -0.7462
 7513SOL    HW234002   2.028   0.189  12.845 -1.6567 -0.9766  0.4146
 7514SOL     OW34003   2.135   0.759  13.104 -0.6310 -0.0256  0.0715
 7514SOL    HW134004   2.180   0.813  13.040  2.9973 -1.7144  1.2162
 7514SOL    HW234005   2.162   0.804  13.185  1.0671 -0.1948 -0.4112
 7515SOL     OW34006   1.354   4.362   8.927 -0.2876  0.0463 -0.3107
 7515SOL    HW134007   1.280   4.325   8.878 -0.4224 -0.7265  0.4830
 7515SOL    HW234008   1.365   4.433   8.864  0.3948  0.0223 -0.2088
 7516SOL     OW34009   0.627   1.251   6.133 -0.0579  0.6381  0.4280
 7516SOL    HW134010   0.673   1.318   6.183  0.6088 -0.3625  1.1582
 7516SOL    HW234011   0.568   1.217   6.201  2.8149 -0.1361  2.5307
 7517SOL     OW34012   2.935   0.679   1.744  0.0667  0.4460  0.5746
 7517SOL    HW134013   2.885   0.621   1.801  1.5707  0.3655  1.7895
 7517SOL    HW234014   3.017   0.692   1.791  0.5536 -0.5933  0.0018
 7518SOL     OW34015   2.239   1.951  15.610 -0.4060  0.7147  0.1476
 7518SOL    HW134016   2.321   1.999  15.619  0.1254 -0.4915  1.5975
 7518SOL    HW234017   2.255   1.880  15.672  0.6913  0.2967 -0.6119
 7519SOL     OW34018   3.309   4.565   4.610  0.2975  0.4659  0.7056
 7519SOL    HW134019   3.316   4.476   4.575  1.1070 -0.4127  3.1445
 7519SOL    HW234020   3.280   4.542   4.698  2.3782  1.9305  1.7656
 7520SOL     OW34021   2.275   2.484  14.617 -0.0064  0.5074  0.7408
 7520SOL    HW134022   2.228   2.404  14.596 -1.5958  2.3843 -2.7557
 7520SOL    HW234023   2.360   2.473  14.575 -0.9657 -0.0856 -1.0181
 7521SOL     OW34024   1.812   3.051   9.403  0.2048  0.2711  0.0308
 7521SOL    HW134025   1.859   2.968   9.397 -3.5231 -1.6979 -1.1168
 7521SOL    HW234026   1.879   3.107   9.443 -0.2570  0.3964  0.6385
 7522SOL     OW34027   3.598   3.400   9.491  0.6484 -0.0311  0.0355
 7522SOL    HW134028   3.673   3.454   9.468 -0.0954 -0.2936 -2.9121
 7522SOL    HW234029   3.535   3.456   9.536  0.7068  1.3828 -1.6392
 7523SOL     OW34030   4.237   3.914  11.459 -0.2962 -0.3635  0.1370
 7523SOL    HW134031   4.156   3.959  11.437 -0.8633 -1.0863  0.7863
 7523SOL    HW234032   4.282   3.927  11.375 -1.4902  2.4454 -0.0733
 7524SOL     OW34033   4.080   3.603  13.669 -0.1586  0.1476 -0.2142
 7524SOL    HW134034   3.992   3.629  13.641 -0.0098 -1.4557 -2.1836
 7524SOL    HW234035   4.060   3.593  13.762 -2.2707  0.6072 -0.6188
 7525SOL     OW34036   3.696   2.415   6.166 -1.0689 -0.1450 -0.0487
 7525SOL    HW134037   3.717   2.472   6.240  0.1610 -0.1366 -0.4171
 7525SOL    HW234038   3.629   2.472   6.127  0.5589  1.0204 -1.1364
 7526SOL     OW34039   4.182   3.753   5.462  0.2967 -0.1026 -0.5055
 7526SOL    HW134040   4.103   3.789   5.422  1.3117  0.7710 -1.6975
 7526SOL    HW234041   4.224   3.707   5.390  3.9462 -1.7253  2.6970
 7527SOL     OW34042   2.684   3.573   3.024 -0.3160  0.2189 -0.5968
 7527SOL    HW134043   2.704   3.515   2.951  2.8551 -2.9849  2.8157
 7527SOL    HW234044   2.743   3.645   3.002  0.0457  0.5508  1.4779
 7528SOL     OW34045   4.175   3.802   5.114 -0.4035  0.7701  0.1343
 7528SOL    HW134046   4.181   3.884   5.163  0.5919  0.7984 -0.0330
 7528SOL    HW234047   4.105   3.816   5.051  1.0250  3.7080 -0.7811
 7529SOL     OW34048   0.480   2.353  17.285 -0.4193 -0.5625  0.5888
 7529SOL    HW134049   0.530   2.432  17.264  0.7719 -1.1369  1.2734
 7529SOL    HW234050   0.425   2.394  17.352 -1.3781 -1.1531  0.1562
 7530SOL     OW34051   0.313   3.786   6.151  0.3586  0.0797 -0.1460
 7530SOL    HW134052   0.396   3.738   6.151 -0.3086 -1.0657 -1.3423
 7530SOL    HW234053   0.281   3.773   6.241 -2.0106  2.4073 -0.6436
 7531SOL     OW34054   0.230   3.135   7.235 -0.0850  0.2868  0.0257
 7531SOL    HW134055   0.250   3.084   7.157 -0.1501 -1.9866  1.4719
 7531SOL    HW234056   0.155   3.081   7.260 -0.3523  0.4104 -0.5298
 7532SOL     OW34057   2.564   2.607   8.686  0.1663 -0.1719 -0.0312
 7532SOL    HW134058   2.567   2.591   8.591 -1.7050 -1.8498  0.1902
 7532SOL    HW234059   2.548   2.517   8.714  0.1927  1.1114  4.0901
 7533SOL     OW34060   4.385   1.056   8.353  0.0637  0.1166  0.0682
 7533SOL    HW134061   4.299   1.083   8.385  0.3898 -1.3532  2.1566
 7533SOL    HW234062   4.371   1.042   8.259  1.1615  1.2273 -0.2546
 7534SOL     OW34063   1.245   4.527   5.320 -0.0047  0.4249 -0.1066
 7534SOL    HW134064   1.150   4.522   5.309  0.2494 -1.4201 -1.5789
 7534SOL    HW234065   1.243   4.463   5.391 -0.4013  0.8274  0.2415
 7535SOL     OW34066   0.372   2.990   5.519  0.3675 -0.3089  0.3776
 7535SOL    HW134067   0.374   3.024   5.608 -0.5005 -2.1128  1.0921
 7535SOL    HW234068   0.335   2.902   5.531  0.1483 -0.2682  0.0075
 7536SOL     OW34069   0.006   1.636  11.604  0.4974 -0.2246  0.3430
 7536SOL    HW134070   4.652   1.579  11.592  0.0480  0.6290 -0.9586
 7536SOL    HW234071   4.722   1.700  11.532 -0.6059 -0.6756  0.0354
 7537SOL     OW34072   2.903   4.373   8.259  0.4819 -0.8347 -0.3002
 7537SOL    HW134073   2.809   4.361   8.247  0.6268 -1.9330 -0.3878
 7537SOL    HW234074   2.912   4.304   8.325 -2.9653 -1.2270 -0.2389
 7538SOL     OW34075   1.254   1.867   8.823  0.4302  0.4070  0.1392
 7538SOL    HW134076   1.322   1.932   8.803 -0.0390  0.7172 -0.4367
 7538SOL    HW234077   1.175   1.918   8.836  0.5232  0.3381  0.9493
 7539SOL     OW34078   0.103   4.039   0.035  0.4374  1.0268  0.5307
 7539SOL    HW134079   0.154   4.057   0.114 -2.8498  2.2774  2.3352
 7539SOL    HW234080   0.166   4.074  17.662 -0.1184 -0.7821 -1.0128
 7540SOL     OW34081   1.276   0.022   7.070 -0.3595 -0.2649 -0.5827
 7540SOL    HW134082   1.237   0.073   7.000 -2.1144 -0.9348 -0.0934
 7540SOL    HW234083   1.361   0.005   7.029  0.2956  2.2874 -0.2583
 7541SOL     OW34084   3.057   4.075   6.483 -0.0969 -0.1998  0.3568
 7541SOL    HW134085   2.973   4.047   6.447  0.0844 -3.1634  2.2830
 7541SOL    HW234086   3.076   4.162   6.447 -0.7997  0.3317  1.2603
 7542SOL     OW34087   3.163   1.190   9.017  0.5706 -0.1070  0.4755
 7542SOL    HW134088   3.172   1.283   8.998 -1.5307 -0.6776 -3.4000
 7542SOL    HW234089   3.110   1.185   9.097 -0.1477  0.0011  0.0047
 7543SOL     OW34090   0.613   3.637   8.626  0.1889  0.2372 -0.1752
 7543SOL    HW134091   0.547   3.706   8.624  0.6154  0.6685  1.2405
 7543SOL    HW234092   0.560   3.557   8.630 -1.4163  1.6485  5.5808
 7544SOL     OW34093   1.890   0.172  15.624 -0.3523  0.0077 -0.2721
 7544SOL    HW134094   1.857   0.230  15.694  0.1677 -1.0833  0.8750
 7544SOL    HW234095   1.923   0.234  15.559  1.1051  0.5318  0.9483
 7545SOL     OW34096   1.266   4.418   3.316  0.1382 -0.5266 -0.6888
 7545SOL    HW134097   1.296   4.434   3.226  0.4861  2.0546 -0.1188
 7545SOL    HW234098   1.220   4.499   3.337  1.9821  0.8544 -1.9365
 7546SOL     OW34099   3.222   4.621   4.000  0.1189 -0.1237  0.5152
 7546SOL    HW134100   3.267   4.699   3.967  2.5857 -0.9094  2.0535
 7546SOL    HW234101   3.211   4.661   4.087  0.1657  0.8694  0.0633
 7547SOL     OW34102   1.138   0.498  15.704  0.6639  0.4702  0.8194
 7547SOL    HW134103   1.185   0.576  15.731  1.9648  0.1365 -0.4875
 7547SOL    HW234104   1.046   0.520  15.719  0.7637  1.7786 -0.4339
 7548SOL     OW34105   1.748   0.106   6.963 -0.4022  0.0086  0.7096
 7548SOL    HW134106   1.819   0.112   7.028  2.1973  1.5449 -2.2740
 7548SOL    HW234107   1.683   0.164   7.001  0.0637  0.6074  0.5969
 7549SOL     OW34108   0.035   0.003   3.795  0.6799  0.4706  0.1960
 7549SOL    HW134109   4.693   4.713   3.865  1.9527  2.0589  1.6282
 7549SOL    HW234110   0.121   4.715   3.836  0.2154  0.5987  1.1827
 7550SOL     OW34111   2.617   1.301   7.162  0.1819  0.0100  0.7583
 7550SOL    HW134112   2.579   1.285   7.248 -0.1020 -1.9116  0.2810
 7550SOL    HW234113   2.688   1.237   7.167 -0.1697 -0.5155 -0.9664
 7551SOL     OW34114   1.800   2.973   9.795  0.0277 -0.0522 -0.1062
 7551SOL    HW134115   1.891   3.001   9.792  0.1433 -0.2650  1.4817
 7551SOL    HW234116   1.808   2.878   9.810  0.6901  0.5669  3.2926
 7552SOL     OW34117   0.446   3.036   7.950 -0.5168  0.3813  0.1236
 7552SOL    HW134118   0.379   3.071   7.891  2.1381 -0.2314 -3.2618
 7552SOL    HW234119   0.523   3.089   7.929 -0.9970 -0.4841 -3.7591
 7553SOL     OW34120   0.225   0.839   2.074  0.4832 -0.5165  0.0527
 7553SOL    HW134121   0.199   0.860   2.164  1.0692  1.2931 -0.2024
 7553SOL    HW234122   0.178   0.757   2.058 -0.6673 -0.3122  2.3536
 7554SOL     OW34123   2.924   2.431   3.401  0.5220  0.6779  0.4821
 7554SOL    HW134124   2.914   2.507   3.458  0.0733  0.9821  0.0057
 7554SOL    HW234125   2.877   2.361   3.445 -0.3195 -1.0480 -3.1595
 7555SOL     OW34126   2.664   0.848   8.623  0.5067  0.1160 -0.1800
 7555SOL    HW134127   2.608   0.855   8.700 -1.7520  0.7281 -1.8510
 7555SOL    HW234128   2.680   0.754   8.624 -0.8422 -0.1137  0.2638
 7556SOL     OW34129   0.231   2.602  13.101 -0.1527  0.4180 -0.1709
 7556SOL    HW134130   0.202   2.632  13.187  1.7317 -1.2110  1.0506
 7556SOL    HW234131   0.320   2.636  13.088  0.7347 -2.0051 -0.4457
 7557SOL     OW34132   1.845   0.476   7.921 -0.4766  0.1442 -0.0378
 7557SOL    HW134133   1.928   0.463   7.875 -1.0917  1.0987 -1.4360
 7557SOL    HW234134   1.806   0.557   7.888  0.0186 -0.6563 -2.6467
 7558SOL     OW34135   1.090   1.293   9.026  0.2316  0.0813 -0.1300
 7558SOL    HW134136   1.001   1.262   9.012  0.3532 -0.3289 -0.0112
 7558SOL    HW234137   1.143   1.219   8.996 -1.8992 -2.3135  2.0096
 7559SOL     OW34138   3.059   3.585   8.049 -0.7970  0.1432  0.1046
 7559SOL    HW134139   3.122   3.608   7.981  0.0656 -0.4802  0.6892
 7559SOL    HW234140   3.117   3.568   8.124  0.6335 -1.0314 -1.2824
 7560SOL     OW34141   2.058   0.176  11.333 -0.1795 -0.3537 -0.0641
 7560SOL    HW134142   2.030   0.118  11.403 -1.1855  0.8888  0.5672
 7560SOL    HW234143   2.014   0.261  11.339 -0.2259 -0.2765 -1.3810
 7561SOL     OW34144   3.444   1.191   7.219 -0.3108  0.4648  0.6212
 7561SOL    HW134145   3.491   1.108   7.214 -0.1741  0.4693  1.7763
 7561SOL    HW234146   3.419   1.207   7.128 -0.2109  1.1062  0.7063
 7562SOL     OW34147   1.242   1.808  15.010 -0.1312 -0.2746  0.0964
 7562SOL    HW134148   1.155   1.835  15.043 -0.5006 -1.9981  0.5132
 7562SOL    HW234149   1.255   1.728  15.061 -0.1655 -1.4936 -1.8034
 7563SOL     OW34150   4.017   0.483   0.939 -0.3669  0.4792  0.3605
 7563SOL    HW134151   3.990   0.451   0.853  3.1913  1.6760 -1.2063
 7563SOL    HW234152   4.052   0.411   0.992  0.1798 -0.2536 -1.0048
 7564SOL     OW34153   2.345   0.910  10.290  0.1848  0.6253  0.1067
 7564SOL    HW134154   2.429   0.864  10.297 -0.1169 -0.1078 -0.9761
 7564SOL    HW234155   2.371   1.000  10.270  1.4188 -0.0570 -1.3260
 7565SOL     OW34156   3.962   2.240  10.730  0.3945 -0.3038  0.5457
 7565SOL    HW134157   3.925   2.242  10.819 -0.9181  0.4724 -0.0160
 7565SOL    HW234158   3.996   2.151  10.720 -0.3283 -0.3085 -1.9175
 7566SOL     OW34159   0.676   0.928   0.658  0.3213 -0.2218 -0.3592
 7566SOL    HW134160   0.596   0.958   0.702  0.7371  1.4800 -0.7384
 7566SOL    HW234161   0.745   0.969   0.711  1.2842  0.8041 -2.3841
 7567SOL     OW34162   2.670   0.536   4.725  0.3223 -0.2375 -0.1151
 7567SOL    HW134163   2.711   0.621   4.740  0.0499 -0.2763  0.8803
 7567SOL    HW234164   2.588   0.542   4.775  0.0111 -2.7530 -0.3251
 7568SOL     OW34165   2.871   2.665   8.379 -0.2088  0.2257  0.1601
 7568SOL    HW134166   2.890   2.758   8.365  2.2698 -0.6771 -2.4830
 7568SOL    HW234167   2.881   2.661   8.474 -0.4559 -0.6038  0.1562
 7569SOL     OW34168   2.823   0.360  12.678 -0.6613  0.5840  0.1277
 7569SOL    HW134169   2.869   0.429  12.629 -0.3969  0.8982  0.8125
 7569SOL    HW234170   2.752   0.336  12.618  0.6751 -1.6598 -0.5657
 7570SOL     OW34171   2.401   0.188   5.256 -0.3374 -0.4005  0.1261
 7570SOL    HW134172   2.370   0.138   5.331 -0.8213 -0.6675 -0.2554
 7570SOL    HW234173   2.491   0.216   5.275 -0.1810  0.5345 -1.9421
 7571SOL     OW34174   2.614   2.090   1.686 -0.2432 -0.1981  0.1058
 7571SOL    HW134175   2.697   2.043   1.678  0.3174  0.6860  0.7984
 7571SOL    HW234176   2.648   2.178   1.674  2.1657 -1.1344  0.0832
 7572SOL     OW34177   2.513   1.444  15.995 -0.3202  0.3739  1.2006
 7572SOL    HW134178   2.521   1.421  16.087  3.1488  2.3197  1.3635
 7572SOL    HW234179   2.494   1.537  16.007  1.4908  0.8839  0.0856
 7573SOL     OW34180   4.489   3.650  17.607 -0.4745 -0.3150 -0.1779
 7573SOL    HW134181   4.541   3.685  17.535  1.7678  1.8589  2.5381
 7573SOL    HW234182   4.513   3.558  17.622 -1.1576 -0.7687 -1.8667
 7574SOL     OW34183   1.977   2.632   2.674  0.0856 -0.4073  0.0359
 7574SOL    HW134184   1.885   2.605   2.669 -0.5970  1.6934  1.4040
 7574SOL    HW234185   1.959   2.725   2.684 -0.0914 -0.3492 -0.8061
 7575SOL     OW34186   2.447   2.092  14.137 -0.0089  0.1255  0.1602
 7575SOL    HW134187   2.413   2.122  14.053 -0.8144 -0.3670  0.3148
 7575SOL    HW234188   2.539   2.113  14.120  0.8582 -2.7365  1.2300
 7576SOL     OW34189   1.331   1.220   3.691  0.1429 -0.2614  0.3103
 7576SOL    HW134190   1.281   1.287   3.644 -0.6931 -1.9892 -1.2789
 7576SOL    HW234191   1.418   1.242   3.657  0.3637  0.7647  1.5602
 7577SOL     OW34192   1.955   4.608   2.290  0.3164  0.0279  0.4089
 7577SOL    HW134193   1.971   4.528   2.341 -3.7150 -0.3696  0.9911
 7577SOL    HW234194   1.861   4.625   2.295 -0.5300 -3.6901 -2.3357
 7578SOL     OW34195   1.159   4.162  17.552  0.1303 -0.4061  0.4179
 7578SOL    HW134196   1.160   4.257  17.538 -0.2275  0.0200  3.2969
 7578SOL    HW234197   1.106   4.131  17.479  0.2841  2.9297 -1.1413
 7579SOL     OW34198   4.209   2.086   5.226  0.2627 -0.5041  0.3337
 7579SOL    HW134199   4.245   1.997   5.233 -0.2841 -0.8839 -1.8147
 7579SOL    HW234200   4.115   2.068   5.218 -0.1658  2.2910 -0.7447
 7580SOL     OW34201   4.028   0.611   8.112 -0.2488  0.0358 -0.4622
 7580SOL    HW134202   3.944   0.566   8.115 -0.7271  1.0015  0.8531
 7580SOL    HW234203   4.009   0.686   8.170 -1.4341 -2.2954  2.1561
 7581SOL     OW34204   1.798   3.777  16.242 -0.0699  0.1852  0.4338
 7581SOL    HW134205   1.757   3.715  16.183  0.7378  0.6260 -0.5957
 7581SOL    HW234206   1.793   3.862  16.197 -0.1999 -0.8402 -1.4816
 7582SOL     OW34207   3.205   0.363   8.889  0.1046  0.0969 -0.1769
 7582SOL    HW134208   3.134   0.398   8.943 -0.5549  1.7070 -2.1044
 7582SOL    HW234209   3.249   0.301   8.948  1.0330 -2.6362 -3.7946
 7583SOL     OW34210   3.503   1.828   7.961  0.0475 -0.4189  0.4596
 7583SOL    HW134211   3.502   1.733   7.956 -0.4549 -0.3937  0.1691
 7583SOL    HW234212   3.464   1.840   8.048 -1.9522  3.0834 -0.9313
 7584SOL     OW34213   2.204   0.372  12.996  0.0491  0.2924  0.3800
 7584SOL    HW134214   2.139   0.435  12.964  1.5165  0.5281 -2.1391
 7584SOL    HW234215   2.235   0.326  12.918  0.3978  0.0983  0.6353
 7585SOL     OW34216   4.543   1.400   8.837 -0.6029 -0.1675  0.3981
 7585SOL    HW134217   4.498   1.318   8.856 -2.1854  0.2015 -1.7818
 7585SOL    HW234218   4.540   1.407   8.742 -0.9774 -3.3685  0.1833
 7586SOL     OW34219   2.982   1.001   1.694 -0.8051 -0.5191 -0.4192
 7586SOL    HW134220   3.004   1.031   1.606 -1.2754  2.7837  0.6161
 7586SOL    HW234221   3.041   1.057   1.744 -1.3278 -2.1073  1.9828
 7587SOL     OW34222   2.989   2.057  14.073  0.0909 -0.3172 -0.1325
 7587SOL    HW134223   3.030   1.972  14.086 -1.1627 -0.8037  0.6115
 7587SOL    HW234224   3.048   2.098  14.009  0.7054 -1.7745 -0.5029
 7588SOL     OW34225   4.230   2.461   5.448  0.5147 -0.7141  0.0237
 7588SOL    HW134226   4.297   2.400   5.414  2.3043 -0.4754  3.0796
 7588SOL    HW234227   4.234   2.454   5.544  0.3923  0.5384  0.1152
 7589SOL     OW34228   4.402   2.830   8.433  0.0378  0.2055  0.3180
 7589SOL    HW134229   4.336   2.762   8.431  0.2830 -0.0337  0.2841
 7589SOL    HW234230   4.354   2.897   8.482  2.3064  0.0911  2.7199
 7590SOL     OW34231   2.551   0.140  17.491  0.0835 -0.3663  0.3776
 7590SOL    HW134232   2.567   0.131  17.397  0.6630 -0.8618  0.5201
 7590SOL    HW234233   2.635   0.116  17.531 -0.0109 -0.5362  0.4708
 7591SOL     OW34234   2.017   1.666  12.643  0.3476  0.6250 -0.3923
 7591SOL    HW134235   2.076   1.592  12.628 -1.9291 -0.9929 -1.4331
 7591SOL    HW234236   2.089   1.727  12.657 -0.7923  1.7978  0.3052
 7592SOL     OW34237   0.070   0.390  13.928  0.0842  0.1830  0.4557
 7592SOL    HW134238   0.155   0.435  13.922  0.4127 -0.3770  0.8979
 7592SOL    HW234239   0.003   0.457  13.917 -0.6252 -0.7279 -0.8370
 7593SOL     OW34240   2.901   2.151   4.373  0.3981  0.6939 -0.3314
 7593SOL    HW134241   2.813   2.153   4.410  0.1857 -0.0711 -0.7968
 7593SOL    HW234242   2.886   2.106   4.290 -0.4146  1.8099 -0.7828
 7594SOL     OW34243   4.144   0.426  10.184  0.2897  0.8551  0.2022
 7594SOL    HW134244   4.177   0.383  10.264 -0.2237  0.2888  0.1105
 7594SOL    HW234245   4.067   0.463  10.227  2.4922  3.4766  1.9236
 7595SOL     OW34246   3.904   0.406  13.542 -0.1005 -0.0201 -0.0269
 7595SOL    HW134247   3.975   0.454  13.498  0.8000 -0.9506  0.4107
 7595SOL    HW234248   3.909   0.319  13.502  0.0765 -0.1018  0.1733
 7596SOL     OW34249   3.561   3.619   2.081 -0.0339  0.4442  0.3592
 7596SOL    HW134250   3.550   3.609   2.176  3.4223  0.7751  0.7636
 7596SOL    HW234251   3.595   3.534   2.053  0.1004  0.7740 -0.4496
 7597SOL     OW34252   2.751   3.565   7.927  0.6699  0.3474 -0.3639
 7597SOL    HW134253   2.697   3.502   7.974  2.3524  0.9571  2.3447
 7597SOL    HW234254   2.824   3.589   7.985  1.8794 -2.9187 -0.5187
 7598SOL     OW34255   3.232   3.075   5.379  0.1302  0.1805  0.1587
 7598SOL    HW134256   3.148   3.047   5.341 -0.2271  0.2089  0.9363
 7598SOL    HW234257   3.306   3.045   5.327 -0.7780 -1.1340 -0.3929
 7599SOL     OW34258   0.626   2.555  14.011  0.2934  0.6340 -0.2559
 7599SOL    HW134259   0.531   2.563  14.020  0.2558  0.0897 -0.2082
 7599SOL    HW234260   0.644   2.570  13.918 -0.3117 -0.7929 -0.5938
 7600SOL     OW34261   4.343   2.892   1.225  0.1814 -0.6390 -0.1007
 7600SOL    HW134262   4.392   2.968   1.257  2.0675 -3.1407  3.0272
 7600SOL    HW234263   4.317   2.934   1.143  0.3234 -2.1842 -0.9266
 7601SOL     OW34264   0.850   0.393   2.839  0.3130  0.1485  0.3539
 7601SOL    HW134265   0.794   0.462   2.875  0.9171  1.1578 -0.6189
 7601SOL    HW234266   0.858   0.424   2.749 -2.3246  0.3525  0.1985
 7602SOL     OW34267   3.693   1.040  17.630 -0.1420  0.0369 -0.2197
 7602SOL    HW134268   3.602   1.058  17.609  0.4378 -0.0868 -2.8676
 7602SOL    HW234269   3.720   1.002  17.547  0.0146 -2.4354  0.9630
 7603SOL     OW34270   2.143   2.127  17.330 -0.2219  0.0133  0.4973
 7603SOL    HW134271   2.152   2.157  17.240  1.0896 -0.7931  0.3693
 7603SOL    HW234272   2.066   2.168  17.369 -0.1155 -0.4317  1.1736
 7604SOL     OW34273   3.799   3.055   5.758  0.0523 -0.2519 -0.0552
 7604SOL    HW134274   3.827   3.021   5.843  2.2067  0.5707 -0.4492
 7604SOL    HW234275   3.738   2.986   5.732  0.5084 -0.3022 -0.9853
 7605SOL     OW34276   1.732   2.530   2.393  0.0127 -0.0266 -0.0797
 7605SOL    HW134277   1.667   2.578   2.342 -0.5071 -0.6509 -0.0072
 7605SOL    HW234278   1.715   2.565   2.481 -0.6453  0.9005 -0.5822
 7606SOL     OW34279   0.887   4.334   2.419 -0.1596 -0.0731 -0.6162
 7606SOL    HW134280   0.930   4.418   2.434 -1.3215  0.8591 -2.4870
 7606SOL    HW234281   0.819   4.369   2.362 -0.4841 -0.1651 -0.2773
 7607SOL     OW34282   3.988   3.849   7.809  0.1423  0.1164  0.5941
 7607SOL    HW134283   3.954   3.934   7.782  1.1795  0.0746 -0.8562
 7607SOL    HW234284   3.957   3.850   7.899 -0.7058  1.9272  0.2741
 7608SOL     OW34285   2.111   4.006   5.965  0.3257 -0.2221 -0.2400
 7608SOL    HW134286   2.130   3.948   6.039  0.6129 -1.0567 -0.9684
 7608SOL    HW234287   2.105   3.943   5.893 -0.8118 -0.1728 -0.1975
 7609SOL     OW34288   2.798   3.419  12.086  0.3175  0.4585  0.3814
 7609SOL    HW134289   2.764   3.481  12.022  0.6460 -0.4422 -0.6637
 7609SOL    HW234290   2.797   3.476  12.163  0.8189 -0.3105  0.9587
 7610SOL     OW34291   1.444   2.053   7.714 -0.0953 -0.6935  0.1971
 7610SOL    HW134292   1.451   1.985   7.647  0.7667  0.9558 -1.3852
 7610SOL    HW234293   1.349   2.061   7.714 -0.1209 -0.9411 -0.5873
 7611SOL     OW34294   0.902   0.930  14.091 -0.0390 -0.2036  0.1120
 7611SOL    HW134295   0.965   0.861  14.114  3.0383  1.6623 -2.6845
 7611SOL    HW234296   0.832   0.898  14.147 -0.1767 -0.2323 -0.0780
 7612SOL     OW34297   3.001   0.113   8.037  0.5045  0.6561  0.5484
 7612SOL    HW134298   2.961   0.146   7.956 -1.5422  0.4293  1.4664
 7612SOL    HW234299   2.994   0.017   8.031 -0.3737  0.7079  0.8092
 7613SOL     OW34300   2.085   2.868   4.358  0.4212  0.3012 -0.1124
 7613SOL    HW134301   2.065   2.782   4.393  0.0133  0.9549  1.2421
 7613SOL    HW234302   2.022   2.920   4.408  1.9960 -0.9706  3.1464
 7614SOL     OW34303   0.387   3.561   2.590  0.7514 -0.5764  0.1403
 7614SOL    HW134304   0.338   3.611   2.525  0.7485  0.3879  0.8687
 7614SOL    HW234305   0.439   3.499   2.540  0.6025  0.8379 -1.7796
 7615SOL     OW34306   1.320   4.204  16.144  0.1956 -0.0611  0.0005
 7615SOL    HW134307   1.384   4.137  16.118 -1.3349 -1.3044 -0.5530
 7615SOL    HW234308   1.365   4.288  16.156 -0.3611 -0.0126  1.7416
 7616SOL     OW34309   1.506   1.711  12.154 -0.3948 -0.2734  0.1546
 7616SOL    HW134310   1.458   1.709  12.236 -2.6584 -1.9459 -1.2150
 7616SOL    HW234311   1.595   1.740  12.174  0.4205 -2.2360 -0.6729
 7617SOL     OW34312   2.806   0.949   2.520  0.5483  0.3742 -0.2583
 7617SOL    HW134313   2.740   1.011   2.488  1.0585  0.4568 -1.1530
 7617SOL    HW234314   2.888   0.995   2.503  0.4495  0.7274  0.2343
 7618SOL     OW34315   4.581   4.544   6.533 -0.2887  0.1141  0.5595
 7618SOL    HW134316   4.569   4.477   6.600 -3.1272  0.7431  0.6642
 7618SOL    HW234317   4.676   4.541   6.522 -0.3952  2.0819 -0.7711
 7619SOL     OW34318   2.436   2.820   8.209 -0.4495 -0.0866  0.0909
 7619SOL    HW134319   2.471   2.870   8.283  0.0177 -0.8448  0.3770
 7619SOL    HW234320   2.492   2.743   8.210  1.0297  0.9694 -2.6572
 7620SOL     OW34321   0.734   4.500   2.753 -0.1409 -0.4482 -0.2082
 7620SOL    HW134322   0.778   4.415   2.750 -0.9322 -0.8023 -2.3823
 7620SOL    HW234323   0.710   4.500   2.845 -0.4182 -1.0986 -0.2790
 7621SOL     OW34324   4.510   0.553  16.389  0.5753  0.0540 -0.4930
 7621SOL    HW134325   4.582   0.605  16.354 -0.2998  0.7445 -1.2706
 7621SOL    HW234326   4.545   0.464  16.388  0.9383  0.1723  1.6406
 7622SOL     OW34327   0.501   2.401  11.805 -0.2862 -0.0525 -0.9413
 7622SOL    HW134328   0.494   2.420  11.899 -0.1235  0.9837 -1.1397
 7622SOL    HW234329   0.519   2.307  11.813 -1.7820 -0.0528  2.5608
 7623SOL     OW34330   3.955   4.488   7.113  0.7326  0.1570  0.2089
 7623SOL    HW134331   4.003   4.519   7.037 -0.7937 -0.3308 -0.9407
 7623SOL    HW234332   4.015   4.512   7.184  0.1478 -2.1556  1.4949
 7624SOL     OW34333   3.071   3.105   4.509 -0.2029  0.0975 -0.1832
 7624SOL    HW134334   2.999   3.161   4.537  0.3579  1.3366 -1.1646
 7624SOL    HW234335   3.108   3.078   4.594 -1.8437 -0.1085  0.4642
 7625SOL     OW34336   0.775   1.767  12.901  0.6647 -0.6177 -0.2131
 7625SOL    HW134337   0.851   1.816  12.872  0.8218 -0.1372  0.9925
 7625SOL    HW234338   0.781   1.760  12.997  0.0724 -2.1766 -0.2964
 7626SOL     OW34339   1.373   4.711  10.493 -0.2875 -0.1610  0.3189
 7626SOL    HW134340   1.394   4.660  10.571  2.6401 -1.1945 -1.1620
 7626SOL    HW234341   1.280   0.010  10.507 -0.2886  0.5579 -0.7762
 7627SOL     OW34342   0.555   0.086   4.329  0.4554 -0.2248  0.1520
 7627SOL    HW134343   0.491   0.070   4.398 -0.3523 -0.9015 -0.7572
 7627SOL    HW234344   0.634   0.070   4.380  0.3801 -0.1502  0.2900
 7628SOL     OW34345   1.512   4.050   3.192  0.4420 -0.0475  0.2522
 7628SOL    HW134346   1.457   4.083   3.263  0.9121 -1.5299  1.2939
 7628SOL    HW234347   1.457   4.012   3.124  0.4083  0.7807 -0.1904
 7629SOL     OW34348   0.532   2.912  13.959  0.3017 -0.1132  0.4199
 7629SOL    HW134349   0.494   2.989  14.003 -0.7951 -1.1868  1.3428
 7629SOL    HW234350   0.466   2.844  13.974  1.1585 -0.8842  0.6324
 7630SOL     OW34351   2.549   2.575   8.133 -0.4473 -0.1822 -0.6086
 7630SOL    HW134352   2.577   2.630   8.060 -2.4323 -0.6334 -1.7097
 7630SOL    HW234353   2.550   2.489   8.090  1.3672 -0.2238 -0.4616
 7631SOL     OW34354   4.048   1.740   4.632  0.3235  0.2107  0.0863
 7631SOL    HW134355   4.113   1.670   4.644  0.4943  0.0435 -1.9189
 7631SOL    HW234356   3.974   1.714   4.687  0.3704  0.3710  0.2255
 7632SOL     OW34357   0.022   2.160   8.348 -0.2762 -0.1174 -0.6977
 7632SOL    HW134358   4.652   2.161   8.321 -0.1036  1.4448 -1.2262
 7632SOL    HW234359   0.019   2.210   8.430  0.6429 -2.8499  0.9961
 7633SOL     OW34360   0.817   0.593   5.686  0.6071 -0.3332  0.2286
 7633SOL    HW134361   0.843   0.539   5.612 -1.4721 -2.2492  0.9037
 7633SOL    HW234362   0.796   0.675   5.640  1.7221  0.4474  1.0859
 7634SOL     OW34363   3.352   1.387   9.310 -0.4569  0.4336  0.8061
 7634SOL    HW134364   3.422   1.451   9.299  2.6561 -3.3219 -0.8870
 7634SOL    HW234365   3.397   1.303   9.308 -2.7952 -0.8324  0.6424
 7635SOL     OW34366   3.604   0.658   6.494 -0.8495 -0.0671  0.5422
 7635SOL    HW134367   3.654   0.638   6.415 -0.8721 -0.1410  0.5472
 7635SOL    HW234368   3.673   0.687   6.554 -0.9702 -1.0749  1.1614
 7636SOL     OW34369   2.174   2.573  11.353 -0.1360  0.0936 -0.4112
 7636SOL    HW134370   2.183   2.541  11.264  2.8739  1.4181 -0.5733
 7636SOL    HW234371   2.254   2.625  11.356  0.6503 -1.1898  0.6536
 7637SOL     OW34372   4.056   3.544   1.409 -0.2491 -0.4408 -0.1401
 7637SOL    HW134373   4.009   3.569   1.489 -0.0575 -2.5528  0.6204
 7637SOL    HW234374   4.129   3.497   1.448 -0.8261 -0.3154  1.1036
 7638SOL     OW34375   4.611   0.521   4.852  0.1001  0.0602  0.2185
 7638SOL    HW134376   4.628   0.474   4.770 -2.4630  1.8236 -1.3522
 7638SOL    HW234377   4.556   0.596   4.829 -2.2352 -1.7264 -0.0202
 7639SOL     OW34378   4.095   0.490  15.048  0.1700 -0.3758  0.2862
 7639SOL    HW134379   4.173   0.535  15.018 -0.0494 -1.0184 -1.2660
 7639SOL    HW234380   4.045   0.569  15.068 -0.0034 -0.6616  0.9829
 7640SOL     OW34381   0.074   3.025   9.457  0.1246  0.4144  0.0625
 7640SOL    HW134382   0.070   3.119   9.439 -1.7192  0.0929 -1.2474
 7640SOL    HW234383   0.116   3.018   9.543 -0.3110 -1.7647  0.0821
 7641SOL     OW34384   2.623   1.516  14.478 -0.4964  0.0537  0.6301
 7641SOL    HW134385   2.682   1.475  14.415 -1.9864  0.8507 -1.2797
 7641SOL    HW234386   2.632   1.604  14.440  1.1847  0.5190  2.0946
 7642SOL     OW34387   4.558   0.700   1.638  0.4092  0.0950 -0.2007
 7642SOL    HW134388   4.493   0.735   1.578  0.1864 -2.1951 -1.2780
 7642SOL    HW234389   4.590   0.783   1.674  0.0741 -0.1307  0.6316
 7643SOL     OW34390   3.402   3.816   3.246  0.4989 -0.5425 -0.2247
 7643SOL    HW134391   3.493   3.842   3.229  0.8011 -1.2395  0.2841
 7643SOL    HW234392   3.353   3.862   3.178  0.8974 -0.0559 -0.1858
 7644SOL     OW34393   0.328   1.240  11.118  0.2745  0.5845  0.5584
 7644SOL    HW134394   0.367   1.294  11.186  0.0226  0.5298  0.7467
 7644SOL    HW234395   0.242   1.279  11.101  0.5786  0.4886 -1.2024
 7645SOL     OW34396   2.407   4.680   1.556  0.5350  0.4161  0.1467
 7645SOL    HW134397   2.380   4.627   1.631 -0.1390  0.3405 -0.1475
 7645SOL    HW234398   2.440   4.615   1.494 -1.7336 -0.4903 -0.1119
 7646SOL     OW34399   1.241   4.480  12.622 -0.3849  0.3079 -0.1325
 7646SOL    HW134400   1.337   4.490  12.623 -0.2766 -0.3764 -2.2478
 7646SOL    HW234401   1.219   4.542  12.691 -1.1757 -0.6935  0.5089
 7647SOL     OW34402   1.575   1.537   2.359  0.2890 -0.1458 -0.3012
 7647SOL    HW134403   1.641   1.536   2.290  0.3006  0.6589 -0.3010
 7647SOL    HW234404   1.523   1.606   2.318 -2.5600 -1.8966  0.3797
 7648SOL     OW34405   0.288   0.230   6.067 -0.0445  0.1590  0.4038
 7648SOL    HW134406   0.335   0.244   5.984  0.5884  2.7216  1.1799
 7648SOL    HW234407   0.197   0.224   6.040  1.0820 -1.1808 -3.1321
 7649SOL     OW34408   3.824   0.741   0.343  0.1785 -0.0500 -0.3810
 7649SOL    HW134409   3.914   0.719   0.318 -0.1108 -1.4866 -0.1961
 7649SOL    HW234410   3.775   0.753   0.262 -1.4034 -1.0757  0.4155
 7650SOL     OW34411   3.648   3.129   4.808 -0.0689  0.3196  0.1551
 7650SOL    HW134412   3.626   3.159   4.895 -1.1360  0.1883 -0.0711
 7650SOL    HW234413   3.693   3.204   4.769 -0.3463  2.0811  3.2586
 7651SOL     OW34414   4.226   1.168   4.188 -0.4545  0.6888 -0.1539
 7651SOL    HW134415   4.140   1.127   4.176 -1.0754  0.9700  3.5937
 7651SOL    HW234416   4.194   1.254   4.161 -1.5549  0.2805 -0.1683
 7652SOL     OW34417   1.449   1.997   5.448  0.2329  0.0888  0.4784
 7652SOL    HW134418   1.474   1.911   5.415  1.2333  1.0152 -1.1569
 7652SOL    HW234419   1.484   2.062   5.386 -1.8722 -0.4644 -1.2899
 7653SOL     OW34420   0.603   3.352  17.416  0.3458  0.1252 -0.7620
 7653SOL    HW134421   0.541   3.348  17.489  2.1811 -2.5197  0.6815
 7653SOL    HW234422   0.685   3.344  17.465 -1.0146 -0.8029  1.4054
 7654SOL     OW34423   4.381   2.057  17.239  0.3004  0.3012  0.0577
 7654SOL    HW134424   4.413   1.981  17.190 -0.0430 -0.9275  1.6983
 7654SOL    HW234425   4.452   2.077  17.300  0.0765 -1.4133  0.9034
 7655SOL     OW34426   4.332   1.428   1.250  0.0273 -0.1101  0.6579
 7655SOL    HW134427   4.310   1.467   1.334 -0.9908 -2.3900  1.4405
 7655SOL    HW234428   4.365   1.342   1.275  0.3722 -0.4354 -0.9113
 7656SOL     OW34429   2.459   2.952   2.527  1.3455  0.4183 -0.0126
 7656SOL    HW134430   2.398   2.881   2.505  1.9878 -0.1430 -0.0025
 7656SOL    HW234431   2.503   2.969   2.444  0.1597  0.7207 -0.5734
 7657SOL     OW34432   0.901   2.927   1.362 -0.1037  0.2173  0.0043
 7657SOL    HW134433   0.977   2.927   1.419 -0.4674 -2.1696  0.4866
 7657SOL    HW234434   0.899   2.833   1.343 -1.3630  0.2548 -0.0490
 7658SOL     OW34435   3.767   3.310   5.637  0.3922 -0.0340 -0.1032
 7658SOL    HW134436   3.774   3.243   5.705 -0.5691  0.5156  0.5314
 7658SOL    HW234437   3.676   3.297   5.613 -0.2730  2.6954  1.0122
 7659SOL     OW34438   4.261   2.433   5.717  0.4684 -0.5630 -0.0078
 7659SOL    HW134439   4.326   2.502   5.733  1.5922 -1.5083 -0.4970
 7659SOL    HW234440   4.259   2.393   5.804  0.1387  1.1886  0.8011
 7660SOL     OW34441   2.289   4.721   3.651  0.0837 -0.3075  0.3341
 7660SOL    HW134442   2.234   0.077   3.658  0.2141 -0.1070 -0.9029
 7660SOL    HW234443   2.372   0.034   3.682  0.4561 -0.7881 -0.1170
 7661SOL     OW34444   4.393   2.540   3.680  0.4753 -0.0476 -0.3262
 7661SOL    HW134445   4.396   2.618   3.624 -1.0775  0.9162  0.9251
 7661SOL    HW234446   4.472   2.491   3.656  0.6430 -0.0769  0.2943
 7662SOL     OW34447   3.302   0.964   6.868  0.2207 -0.0932  0.3210
 7662SOL    HW134448   3.306   0.936   6.777 -0.6580  1.1387 -0.0886
 7662SOL    HW234449   3.395   0.978   6.884  0.2791 -1.4654  1.1712
 7663SOL     OW34450   4.097   3.209   3.612  0.7019  0.2539 -0.1404
 7663SOL    HW134451   4.114   3.225   3.705 -2.9777  1.2540  0.3733
 7663SOL    HW234452   4.058   3.122   3.611  0.4685  0.3695 -2.0918
 7664SOL     OW34453   1.191   2.550   5.450 -0.3069  0.1605  0.2681
 7664SOL    HW134454   1.272   2.587   5.414 -0.0657 -0.2862  0.3452
 7664SOL    HW234455   1.239   2.533   5.531  0.5466 -0.5923 -0.3777
 7665SOL     OW34456   2.251   1.677   0.091  0.5860  0.1627  0.1984
 7665SOL    HW134457   2.239   1.582   0.081 -1.5690  0.4463  0.0383
 7665SOL    HW234458   2.344   1.682   0.068  0.9512  0.1829  1.6933
 7666SOL     OW34459   1.879   3.749   6.121  0.3528 -0.2214  0.1563
 7666SOL    HW134460   1.805   3.777   6.176 -0.4129  1.0186 -1.5294
 7666SOL    HW234461   1.892   3.669   6.173  2.3745 -0.2117 -0.3468
 7667SOL     OW34462   1.395   0.532   9.933  0.0883 -0.2861 -0.0944
 7667SOL    HW134463   1.385   0.444   9.894 -1.2677  0.6976 -1.9616
 7667SOL    HW234464   1.309   0.567   9.909  0.3708 -1.0409 -2.2388
 7668SOL     OW34465   3.266   0.438  11.657 -0.6612 -0.6415  0.1811
 7668SOL    HW134466   3.346   0.480  11.627 -0.9388  0.6137  1.2424
 7668SOL    HW234467   3.270   0.362  11.598  0.3800  0.8439 -1.6517
 7669SOL     OW34468   0.341   3.649   6.900  0.1602  0.2758 -0.1099
 7669SOL    HW134469   0.372   3.732   6.938 -1.3661  1.1292 -0.7040
 7669SOL    HW234470   0.418   3.594   6.913  0.4482  1.0581  1.4773
 7670SOL     OW34471   3.363   3.143  10.242 -0.2339 -0.3943 -0.0800
 7670SOL    HW134472   3.285   3.197  10.228 -1.2010 -2.0472 -1.0326
 7670SOL    HW234473   3.318   3.066  10.275 -1.9042  0.6817  0.1750
 7671SOL     OW34474   1.060   4.245  13.553 -0.7186 -0.5747  0.3613
 7671SOL    HW134475   1.017   4.183  13.493 -2.9171  0.7061  0.6218
 7671SOL    HW234476   1.034   4.322  13.502  0.2183 -0.0615  0.6721
 7672SOL     OW34477   1.833   3.423   2.362  0.2925  0.1311  0.0776
 7672SOL    HW134478   1.787   3.413   2.279 -0.9682  0.3468  0.7531
 7672SOL    HW234479   1.768   3.468   2.416  1.1855  1.2048  0.2644
 7673SOL     OW34480   2.456   2.915   5.206 -0.4151 -0.3609 -0.0417
 7673SOL    HW134481   2.405   2.988   5.171 -0.8496  0.3163  2.0161
 7673SOL    HW234482   2.460   2.953   5.293  1.5626  1.1231 -0.7908
 7674SOL     OW34483   1.957   4.179   3.420  0.0187 -0.6144 -0.2162
 7674SOL    HW134484   1.975   4.123   3.496 -0.9128 -1.7268 -0.8053
 7674SOL    HW234485   1.865   4.163   3.397  0.3884  0.4766 -2.4983
 7675SOL     OW34486   3.918   3.077   6.336 -0.2798 -0.4684 -0.0024
 7675SOL    HW134487   3.899   3.103   6.426 -0.2209  1.8999 -0.6749
 7675SOL    HW234488   3.832   3.071   6.295 -0.7163 -0.4255  0.9132
 7676SOL     OW34489   3.989   1.147   4.048  0.1265 -0.4735 -0.8573
 7676SOL    HW134490   3.909   1.100   4.027 -0.7483 -0.5654  2.6765
 7676SOL    HW234491   3.989   1.214   3.980  1.1336 -0.0502 -0.4441
 7677SOL     OW34492   2.998   4.358  10.918 -0.0875  0.2768  0.0960
 7677SOL    HW134493   2.988   4.269  10.953  0.6816 -0.2409 -0.9832
 7677SOL    HW234494   2.912   4.398  10.929 -0.4109  0.3030 -2.3872
 7678SOL     OW34495   2.812   1.286   2.991 -0.1547 -0.6125  0.1943
 7678SOL    HW134496   2.814   1.235   2.910 -1.5357 -0.5402  0.1217
 7678SOL    HW234497   2.905   1.307   2.985 -0.1870 -0.7723 -1.0095
 7679SOL     OW34498   3.592   0.884   9.507 -0.1830 -0.2671  0.3842
 7679SOL    HW134499   3.579   0.868   9.600 -3.0116 -1.2205 -0.1658
 7679SOL    HW234500   3.610   0.978   9.511  0.6592 -0.3570 -1.2785
 7680SOL     OW34501   4.215   1.226   0.756  0.4151  0.0377  0.1967
 7680SOL    HW134502   4.171   1.158   0.807 -0.4488  0.5014  0.0789
 7680SOL    HW234503   4.177   1.212   0.670  1.2778 -0.9397 -0.0153
 7681SOL     OW34504   2.686   4.374   9.329 -0.1083 -0.5373  0.3345
 7681SOL    HW134505   2.617   4.365   9.394  0.0529 -0.7229  0.4812
 7681SOL    HW234506   2.721   4.285   9.333 -0.0506 -0.6305 -2.5907
 7682SOL     OW34507   0.856   3.008  14.758  0.1663 -0.2235 -0.1485
 7682SOL    HW134508   0.782   2.979  14.811  0.3476 -2.0691 -0.9166
 7682SOL    HW234509   0.878   3.091  14.800  0.0979 -0.3676  0.1750
 7683SOL     OW34510   2.587   2.703   7.019 -0.5226 -0.1585 -0.2396
 7683SOL    HW134511   2.609   2.611   7.004  0.6840 -0.0297  0.8158
 7683SOL    HW234512   2.512   2.691   7.077  0.1232 -1.6213  0.3003
 7684SOL     OW34513   4.441   0.958   7.805  0.0816  0.0781  0.3297
 7684SOL    HW134514   4.413   0.963   7.896  2.5234 -3.3947  1.2716
 7684SOL    HW234515   4.528   0.997   7.804 -0.8584  2.1004 -3.1570
 7685SOL     OW34516   0.930   0.356   1.196  0.2667  0.3888  0.5627
 7685SOL    HW134517   0.881   0.434   1.170  0.4118  0.2617 -0.0857
 7685SOL    HW234518   0.926   0.297   1.122  1.9270 -0.4306  1.1172
 7686SOL     OW34519   0.536   1.819   4.292 -0.0856 -0.0939 -0.4013
 7686SOL    HW134520   0.589   1.889   4.330 -0.9947 -1.0088  2.4762
 7686SOL    HW234521   0.556   1.737   4.338 -0.6737 -1.7649 -3.1141
 7687SOL     OW34522   1.393   4.528  13.250 -0.3743 -0.9639  0.1117
 7687SOL    HW134523   1.484   4.545  13.224  0.0344 -3.0675  0.1035
 7687SOL    HW234524   1.399   4.563  13.339 -3.2660  0.2113 -0.1565
 7688SOL     OW34525   0.920   1.874   2.396 -0.1426 -0.1233  0.1224
 7688SOL    HW134526   0.897   1.917   2.479 -2.3302  1.5195 -1.3164
 7688SOL    HW234527   0.843   1.897   2.343 -0.7238  2.0925  1.9348
 7689SOL     OW34528   2.292   1.397   5.867  0.1999  0.0565  0.3347
 7689SOL    HW134529   2.211   1.373   5.913  1.2075  0.9294  2.5740
 7689SOL    HW234530   2.336   1.313   5.860 -0.3866 -0.2716  0.6229
 7690SOL     OW34531   0.709   2.982  17.589 -0.5483  0.0859  0.3416
 7690SOL    HW134532   0.769   3.005  17.659  2.8506 -1.1422 -2.2025
 7690SOL    HW234533   0.633   3.031  17.621 -2.9512 -2.3186 -1.6680
 7691SOL     OW34534   3.472   0.370   6.438 -0.1048 -0.3443  0.1004
 7691SOL    HW134535   3.415   0.299   6.468 -2.2929  1.1366 -0.5748
 7691SOL    HW234536   3.498   0.403   6.524 -1.1623 -0.9926  0.6758
 7692SOL     OW34537   3.842   1.611  13.754 -0.1488  0.2130 -0.3462
 7692SOL    HW134538   3.936   1.611  13.737 -0.0416  1.4496  0.2137
 7692SOL    HW234539   3.828   1.699  13.790 -0.5854  0.2056 -0.4973
 7693SOL     OW34540   2.137   0.574   7.837  0.2964 -0.3487 -0.1237
 7693SOL    HW134541   2.073   0.598   7.904  0.4680  1.5707 -0.6480
 7693SOL    HW234542   2.193   0.518   7.890 -2.1250 -1.3216  1.4340
 7694SOL     OW34543   0.538   1.859   5.925  0.7734 -0.1234  0.0499
 7694SOL    HW134544   0.599   1.929   5.902 -0.8021  1.2979  0.1808
 7694SOL    HW234545   0.598   1.791   5.955  1.1068 -0.2634 -0.9171
 7695SOL     OW34546   2.421   4.066   3.061  0.3680  0.0601 -0.4963
 7695SOL    HW134547   2.480   4.030   2.995  2.6555 -1.9690  2.6467
 7695SOL    HW234548   2.334   4.059   3.023  0.5208  2.7235 -1.4085
 7696SOL     OW34549   0.410   3.844  16.709 -0.7408 -0.2171 -0.0264
 7696SOL    HW134550   0.411   3.904  16.635  0.0214 -1.3294 -0.9289
 7696SOL    HW234551   0.490   3.796  16.685 -0.7997 -0.9727  1.2668
 7697SOL     OW34552   4.579   2.804  10.932  0.0475  0.3973 -0.2340
 7697SOL    HW134553   4.625   2.764  10.858  0.6168 -1.4451  1.1009
 7697SOL    HW234554   4.590   2.740  11.003  0.8522 -0.1126 -0.8154
 7698SOL     OW34555   3.263   0.090   1.765  0.5678 -0.3217 -0.4150
 7698SOL    HW134556   3.322   0.020   1.792  2.2173  2.1853  2.4718
 7698SOL    HW234557   3.220   0.050   1.689  0.7914 -2.5484  0.6401
 7699SOL     OW34558   4.410   3.883   7.465 -0.4448  0.0228  0.4678
 7699SOL    HW134559   4.413   3.944   7.392  0.4417  2.0465  2.1793
 7699SOL    HW234560   4.503   3.863   7.479 -0.0748  2.5607  1.8283
 7700SOL     OW34561   0.761   4.377   4.169 -0.0467  0.2294 -0.1503
 7700SOL    HW134562   0.776   4.428   4.249 -3.2032 -0.8495  1.1449
 7700SOL    HW234563   0.790   4.428   4.094 -1.8389 -0.1444 -1.0816
 7701SOL     OW34564   1.572   0.436   6.130 -0.0117 -0.2881 -0.1229
 7701SOL    HW134565   1.511   0.439   6.204  0.7229 -0.2794  0.4817
 7701SOL    HW234566   1.595   0.529   6.132 -0.1873 -0.2157 -1.5237
 7702SOL     OW34567   0.189   3.764   5.498 -0.1436  0.2391  0.4249
 7702SOL    HW134568   0.214   3.845   5.454 -0.2656 -0.1368 -0.3351
 7702SOL    HW234569   0.103   3.747   5.459 -0.2570  0.5558  0.5394
 7703SOL     OW34570   4.279   1.110  11.373 -0.0362 -0.3784  0.9381
 7703SOL    HW134571   4.330   1.177  11.418 -1.4603  0.1330  1.7921
 7703SOL    HW234572   4.208   1.164  11.337  0.3095  0.1828  1.1089
 7704SOL     OW34573   2.238   2.368   6.182  0.1974  0.0132 -0.1447
 7704SOL    HW134574   2.304   2.308   6.217 -0.2107 -1.4192 -1.8002
 7704SOL    HW234575   2.165   2.310   6.201 -0.8448  1.2582 -0.3834
 7705SOL     OW34576   3.128   0.028   1.554  0.0314 -0.2382 -0.1301
 7705SOL    HW134577   3.036   0.012   1.576 -0.0501  1.0724  0.4795
 7705SOL    HW234578   3.114   0.042   1.461 -0.7698  0.7708  0.1435
 7706SOL     OW34579   0.851   2.160   7.664  0.1174 -0.4149 -0.1861
 7706SOL    HW134580   0.803   2.079   7.648  0.5501 -0.2685 -2.1318
 7706SOL    HW234581   0.940   2.130   7.687  0.8384  0.6486 -1.6223
 7707SOL     OW34582   2.438   1.310   0.916  0.0457 -0.1915 -0.4246
 7707SOL    HW134583   2.400   1.397   0.905  1.4279  0.3473 -0.9408
 7707SOL    HW234584   2.362   1.254   0.900  1.6187 -2.1149 -1.1309
 7708SOL     OW34585   3.773   2.165   4.344  0.2036  0.5230 -0.0459
 7708SOL    HW134586   3.820   2.084   4.328 -0.8696  0.3811 -2.5035
 7708SOL    HW234587   3.801   2.224   4.273  1.8925 -1.0475 -0.6772
 7709SOL     OW34588   3.668   2.428   6.946  0.0486 -0.4905 -0.4796
 7709SOL    HW134589   3.701   2.516   6.928 -0.3827  0.0469  1.3733
 7709SOL    HW234590   3.581   2.444   6.981  0.2747  1.2282 -0.6911
 7710SOL     OW34591   3.530   2.136   3.184  0.0775 -1.2183 -0.1975
 7710SOL    HW134592   3.490   2.213   3.224  1.1903 -0.9092  0.3327
 7710SOL    HW234593   3.524   2.072   3.254  0.3582 -0.1618  0.7891
 7711SOL     OW34594   4.707   2.571   6.176 -0.3559 -0.5198  0.1608
 7711SOL    HW134595   0.039   2.508   6.224  0.6054 -0.6382 -1.0739
 7711SOL    HW234596   4.624   2.548   6.217  1.3167 -1.5763  2.9280
 7712SOL     OW34597   3.556   1.548   6.727  0.4876 -0.4377  0.5472
 7712SOL    HW134598   3.528   1.595   6.806 -0.4323 -0.4577  0.2333
 7712SOL    HW234599   3.478   1.547   6.671  0.1404  1.1570  0.9962
 7713SOL     OW34600   0.144   3.861   9.576 -0.3598  0.1521  0.2515
 7713SOL    HW134601   0.067   3.917   9.571 -1.2961 -1.1608 -0.0934
 7713SOL    HW234602   0.177   3.887   9.662  0.8129  0.1509 -0.1909
 7714SOL     OW34603   3.356   1.214  11.451  0.2987  0.0073  0.1445
 7714SOL    HW134604   3.427   1.170  11.497  2.0027  2.4201 -0.1472
 7714SOL    HW234605   3.399   1.294  11.418  1.7500 -0.5279  0.7469
 7715SOL     OW34606   4.030   0.517  11.724 -0.1805 -0.4779 -0.0257
 7715SOL    HW134607   4.044   0.425  11.701  1.7074  0.5953 -3.1420
 7715SOL    HW234608   4.047   0.512  11.818 -0.5768  0.5578  0.0984
 7716SOL     OW34609   0.487   4.622   6.945  0.0316 -0.2094 -0.1406
 7716SOL    HW134610   0.563   4.617   7.003 -0.4982 -0.5317  0.5233
 7716SOL    HW234611   0.535   4.647   6.866 -0.3922 -0.7770 -0.5820
 7717SOL     OW34612   2.489   0.227   8.233 -0.0775 -0.5938  0.0631
 7717SOL    HW134613   2.503   0.313   8.273 -0.5906 -2.0662  3.4333
 7717SOL    HW234614   2.533   0.241   8.150 -0.7562 -0.4966 -0.2781
 7718SOL     OW34615   3.614   4.179  11.079 -0.1767 -0.4580 -0.2342
 7718SOL    HW134616   3.703   4.148  11.097 -0.6501 -1.6803 -0.0359
 7718SOL    HW234617   3.602   4.246  11.147  0.8969 -0.0673 -0.4300
 7719SOL     OW34618   1.674   4.421   6.445  0.0456  0.2321 -0.2762
 7719SOL    HW134619   1.713   4.460   6.367 -0.6099  0.5753 -0.4281
 7719SOL    HW234620   1.705   4.333   6.424 -1.3804 -0.2484 -0.3720
 7720SOL     OW34621   2.916   1.787  12.564 -0.0793 -0.2645 -0.1883
 7720SOL    HW134622   2.935   1.877  12.537 -1.1385 -0.1084 -0.4100
 7720SOL    HW234623   2.981   1.763  12.630  0.9380 -0.6619 -1.3134
 7721SOL     OW34624   0.521   4.073  16.934 -0.4779  0.6813  0.3380
 7721SOL    HW134625   0.583   4.010  16.972 -0.4959 -0.2081 -1.0680
 7721SOL    HW234626   0.507   4.057  16.840  1.4765 -0.6487  0.2649
 7722SOL     OW34627   2.446   2.207   7.967 -0.4031 -0.2957 -0.6156
 7722SOL    HW134628   2.538   2.195   7.991 -0.2605  1.0145 -0.4947
 7722SOL    HW234629   2.407   2.199   8.054  1.8585 -1.5730  0.2742
 7723SOL     OW34630   1.771   2.054  12.413  0.1173  0.7197  0.4365
 7723SOL    HW134631   1.860   2.029  12.438  0.0417  0.0132  0.0035
 7723SOL    HW234632   1.791   2.075  12.322 -1.5329 -1.1697 -0.3530
 7724SOL     OW34633   0.250   0.719   7.766 -0.2955 -0.3762  0.5609
 7724SOL    HW134634   0.313   0.662   7.810  1.6823 -0.0663 -1.8380
 7724SOL    HW234635   0.231   0.655   7.697 -1.9447 -0.7654  1.3913
 7725SOL     OW34636   3.696   0.184   0.991 -0.1786  0.3300 -0.0857
 7725SOL    HW134637   3.707   0.271   0.953  0.9660  0.3937  0.3824
 7725SOL    HW234638   3.664   0.131   0.919 -0.4426 -2.5931  2.1912
 7726SOL     OW34639   1.776   1.876   2.386  0.0040  0.0244 -0.5481
 7726SOL    HW134640   1.809   1.942   2.325 -3.5418 -0.7498 -3.2682
 7726SOL    HW234641   1.825   1.801   2.351 -0.3460 -0.8750  0.8775
 7727SOL     OW34642   1.706   1.828   3.283 -0.0756 -0.2886 -0.3861
 7727SOL    HW134643   1.777   1.814   3.346 -0.2151  2.0443  0.2886
 7727SOL    HW234644   1.676   1.915   3.309  2.3231  0.4552 -0.0756
 7728SOL     OW34645   0.136   1.618   4.076  0.1006  0.2716  0.0697
 7728SOL    HW134646   0.154   1.707   4.048 -1.4430  0.5836  0.0249
 7728SOL    HW234647   0.045   1.596   4.054  0.1446 -0.9498  1.0522
 7729SOL     OW34648   0.215   4.496   2.460  0.1172 -0.5729  0.7185
 7729SOL    HW134649   0.303   4.461   2.477 -0.2244 -0.9951  1.6201
 7729SOL    HW234650   0.248   4.586   2.472  0.8446 -0.1541 -4.5042
 7730SOL     OW34651   4.409   3.437   5.900  0.5833  0.0478 -0.5531
 7730SOL    HW134652   4.391   3.511   5.841  1.1244 -0.0443 -0.8322
 7730SOL    HW234653   4.335   3.449   5.960  2.0803 -2.2105  1.7010
 7731SOL     OW34654   3.663   0.525   8.827 -0.2443  0.5286 -0.0343
 7731SOL    HW134655   3.752   0.511   8.795  0.3270 -0.4617  1.9732
 7731SOL    HW234656   3.611   0.504   8.749 -0.1400 -0.0501  0.0501
 7732SOL     OW34657   3.675   4.718  10.996  0.1139  0.0867  0.6239
 7732SOL    HW134658   3.676   4.630  10.959 -1.5763 -0.4801  1.9208
 7732SOL    HW234659   3.742   0.050  10.954  0.1367  0.1917  0.7946
 7733SOL     OW34660   4.673   1.706   3.659  0.6733 -0.1407  0.3111
 7733SOL    HW134661   4.698   1.742   3.574  2.5767 -0.7439  0.6030
 7733SOL    HW234662   4.703   1.779   3.714  1.8060 -0.7561  0.5137
 7734SOL     OW34663   4.290   3.660   7.415  0.4520 -0.6151 -0.3408
 7734SOL    HW134664   4.313   3.607   7.491  0.8797  0.2242  0.1129
 7734SOL    HW234665   4.327   3.741   7.450  1.6851 -0.4693 -1.9849
 7735SOL     OW34666   1.869   3.338   0.605  0.1386  0.5116  0.3269
 7735SOL    HW134667   1.867   3.316   0.512  0.7910 -1.4141  0.7708
 7735SOL    HW234668   1.947   3.393   0.603  0.5881 -0.1614 -0.6945
 7736SOL     OW34669   0.581   4.641   7.769 -0.3863 -0.5899 -0.1886
 7736SOL    HW134670   0.598   4.560   7.817  0.0605 -0.6077 -0.3826
 7736SOL    HW234671   0.644   4.636   7.697 -0.5245  0.7785 -0.4060
 7737SOL     OW34672   3.846   1.993  16.463  0.1044 -0.4491  0.4500
 7737SOL    HW134673   3.914   1.926  16.478  0.7064 -0.0175 -0.3219
 7737SOL    HW234674   3.883   2.030  16.383 -0.1120 -3.2583 -0.9447
 7738SOL     OW34675   1.778   4.399  13.598  0.2248 -0.1966  0.2093
 7738SOL    HW134676   1.723   4.321  13.590 -1.7862  1.1189  1.4192
 7738SOL    HW234677   1.717   4.456  13.644  0.6760 -0.2003  0.8172
 7739SOL     OW34678   3.811   2.626   1.130 -0.1149 -0.2413 -0.0356
 7739SOL    HW134679   3.799   2.613   1.036  1.9256 -0.0217 -0.3249
 7739SOL    HW234680   3.855   2.710   1.139 -0.0819 -0.4785  1.9619
 7740SOL     OW34681   3.671   3.522  10.942  0.0695 -0.4634 -0.3492
 7740SOL    HW134682   3.711   3.436  10.930  1.0598  0.0386 -0.6694
 7740SOL    HW234683   3.708   3.563  10.863 -0.5647  0.7807  0.0089
 7741SOL     OW34684   2.536   3.288   2.196  0.0802  0.0324  0.4608
 7741SOL    HW134685   2.605   3.267   2.259 -0.7582  1.1392  1.7384
 7741SOL    HW234686   2.464   3.290   2.258  0.1735 -2.8527  0.6429
 7742SOL     OW34687   1.998   1.295   5.930  0.1996  0.0282  0.3400
 7742SOL    HW134688   1.991   1.365   5.865 -2.4169 -0.1864  0.3836
 7742SOL    HW234689   1.927   1.324   5.988  0.4154 -1.7586  1.4889
 7743SOL     OW34690   2.813   1.981   3.501  0.3253  0.6796 -0.2945
 7743SOL    HW134691   2.790   1.967   3.409  0.0010  0.8313 -0.2356
 7743SOL    HW234692   2.909   1.980   3.492  0.2821 -0.3960 -0.6799
 7744SOL     OW34693   1.374   3.203   5.760 -0.0882  0.5918 -0.2573
 7744SOL    HW134694   1.298   3.161   5.802 -0.1952 -0.3239 -1.3380
 7744SOL    HW234695   1.437   3.131   5.751 -1.1739 -0.3208 -0.6859
 7745SOL     OW34696   0.364   2.575   4.178  0.5108 -0.0344 -0.2788
 7745SOL    HW134697   0.347   2.498   4.232 -0.2804  0.2290 -0.1534
 7745SOL    HW234698   0.275   2.611   4.183 -0.0620 -1.5483  0.5174
 7746SOL     OW34699   2.172   3.278   3.818 -0.1895  0.0266  0.4933
 7746SOL    HW134700   2.178   3.374   3.815 -1.0972  0.1891  4.1841
 7746SOL    HW234701   2.099   3.288   3.757  0.9801  0.0632 -0.8952
 7747SOL     OW34702   3.140   4.043   6.060  0.4671  0.2848 -0.2283
 7747SOL    HW134703   3.217   3.986   6.055  1.0818  1.0842  0.1303
 7747SOL    HW234704   3.144   4.086   6.145  1.2252  1.5465 -0.9035
 7748SOL     OW34705   2.323   1.491  17.386 -0.4215  0.6301 -0.0600
 7748SOL    HW134706   2.330   1.510  17.292 -4.6240  1.6036 -0.1834
 7748SOL    HW234707   2.351   1.578  17.416 -0.1531 -0.6382  3.2750
 7749SOL     OW34708   2.473   2.106   5.029 -0.4002 -0.1559  0.1079
 7749SOL    HW134709   2.471   2.013   5.048  0.8247 -0.2701 -0.3258
 7749SOL    HW234710   2.381   2.127   5.044 -0.9828 -2.2336 -0.6616
 7750SOL     OW34711   4.486   3.047   7.079 -0.4301 -0.1801 -0.2981
 7750SOL    HW134712   4.406   2.995   7.085 -0.1230 -0.4071  1.7631
 7750SOL    HW234713   4.453   3.136   7.096 -0.8124 -0.2944 -0.4442
 7751SOL     OW34714   3.557   0.939  17.156 -0.1335 -0.2963 -0.1636
 7751SOL    HW134715   3.586   0.852  17.129  4.5958  1.0843  0.3767
 7751SOL    HW234716   3.621   1.001  17.120 -1.5335 -0.0744 -2.2433
 7752SOL     OW34717   1.971   3.683   8.090 -0.4200 -1.0621  0.2772
 7752SOL    HW134718   2.055   3.670   8.045 -1.0236  1.7283 -1.6278
 7752SOL    HW234719   1.911   3.727   8.031 -0.1024  2.3549  2.4807
 7753SOL     OW34720   1.522   2.584   1.672  0.3079 -0.2209 -0.1188
 7753SOL    HW134721   1.468   2.558   1.597 -0.8513 -1.0150  0.9936
 7753SOL    HW234722   1.503   2.513   1.733 -1.6774 -0.3023 -0.8062
 7754SOL     OW34723   4.298   2.824   7.837 -0.4568  0.2988  0.7806
 7754SOL    HW134724   4.357   2.899   7.847 -2.4198  1.7368  1.4447
 7754SOL    HW234725   4.354   2.758   7.877 -0.5659 -1.1235 -1.4340
 7755SOL     OW34726   4.512   3.953  17.353 -0.7127  0.0721  0.3479
 7755SOL    HW134727   4.587   3.939  17.412 -2.1767  1.1486  2.4430
 7755SOL    HW234728   4.543   4.024  17.297  0.8381 -0.5797  0.3581
 7756SOL     OW34729   0.496   0.817   2.798  0.3414 -0.2386 -0.2893
 7756SOL    HW134730   0.438   0.891   2.780 -0.3664 -1.1191 -1.6379
 7756SOL    HW234731   0.575   0.847   2.753  0.2432 -2.2139 -1.7818
 7757SOL     OW34732   2.376   1.963  10.838 -0.0539  0.3344  0.7963
 7757SOL    HW134733   2.314   1.930  10.903  0.6200 -2.8168 -0.1581
 7757SOL    HW234734   2.371   2.055  10.862  0.7565 -0.2272  3.1470
 7758SOL     OW34735   1.716   2.618   9.486  0.1646  0.4756  1.1560
 7758SOL    HW134736   1.700   2.526   9.462  2.4574  0.5856 -0.8447
 7758SOL    HW234737   1.629   2.649   9.460  0.7329  0.4101 -0.8525
 7759SOL     OW34738   2.461   2.977   3.509 -0.4016 -0.1245  0.3384
 7759SOL    HW134739   2.463   3.067   3.477 -0.9441  0.2070  1.2248
 7759SOL    HW234740   2.441   2.977   3.603 -1.5031 -2.1938  0.0982
 7760SOL     OW34741   3.006   2.034  15.277  0.2323  0.1784  0.5622
 7760SOL    HW134742   3.085   2.061  15.231  0.1989  1.5010  1.2724
 7760SOL    HW234743   2.937   2.096  15.253 -0.8490 -0.8072  1.0878
 7761SOL     OW34744   4.562   1.245   8.496 -0.3519 -0.2396  0.2092
 7761SOL    HW134745   4.529   1.201   8.575 -0.3663  0.1452  0.4204
 7761SOL    HW234746   4.495   1.222   8.432 -0.4761  1.0280 -0.1086
 7762SOL     OW34747   0.370   2.935   2.585 -0.4566  0.3085  0.3019
 7762SOL    HW134748   0.409   3.021   2.597 -1.2881  0.7484 -0.1203
 7762SOL    HW234749   0.448   2.879   2.583 -1.1996 -0.7284 -0.1791
 7763SOL     OW34750   3.840   1.229   6.614  0.6085 -0.0053  0.4804
 7763SOL    HW134751   3.813   1.285   6.541  2.5361  0.8768  0.4339
 7763SOL    HW234752   3.935   1.240   6.616  0.9090 -2.3460 -1.3258
 7764SOL     OW34753   2.431   1.957   9.041  0.3049 -0.6440 -0.2144
 7764SOL    HW134754   2.416   1.863   9.051  0.2392 -0.9453 -3.1678
 7764SOL    HW234755   2.516   1.957   9.085  0.4458  3.3175 -0.4907
 7765SOL     OW34756   0.320   2.530  16.574  0.0505 -0.1125 -0.0786
 7765SOL    HW134757   0.250   2.470  16.551 -1.6347  1.5905  0.6501
 7765SOL    HW234758   0.388   2.488  16.627 -1.1280 -1.8982  0.0063
 7766SOL     OW34759   1.943   2.873   3.047  0.0098  0.3028  0.6508
 7766SOL    HW134760   1.952   2.956   3.094 -1.4403  0.8121  0.0352
 7766SOL    HW234761   1.847   2.867   3.045  0.1004 -0.4706 -0.9988
 7767SOL     OW34762   3.296   2.087  15.218 -0.8502  0.4902  0.1029
 7767SOL    HW134763   3.390   2.080  15.201 -0.7331  0.5682  0.6925
 7767SOL    HW234764   3.295   2.019  15.285  0.1270 -1.3299 -1.7420
 7768SOL     OW34765   0.032   2.041   6.342 -0.2635 -0.0464  0.3690
 7768SOL    HW134766   0.014   1.951   6.313  1.1333  0.2911 -1.5777
 7768SOL    HW234767   4.706   2.035   6.425 -0.8195  0.4268  0.0809
 7769SOL     OW34768   0.970   3.179   8.346 -0.2181 -0.0135 -0.2888
 7769SOL    HW134769   0.878   3.202   8.352  0.1623  1.6639 -0.8832
 7769SOL    HW234770   0.971   3.107   8.284 -0.1254  0.0368 -0.3453
 7770SOL     OW34771   3.457   1.337   8.285 -0.0697  0.1470 -0.4351
 7770SOL    HW134772   3.372   1.297   8.302  0.0608 -0.0570 -0.2616
 7770SOL    HW234773   3.465   1.420   8.333 -2.1645 -0.0281  0.2050
 7771SOL     OW34774   2.694   1.010   3.734  0.5497  0.7710  0.3089
 7771SOL    HW134775   2.642   1.013   3.814 -0.7007 -0.5840 -0.4524
 7771SOL    HW234776   2.677   1.099   3.703  1.4730  0.7425 -0.2821
 7772SOL     OW34777   3.336   2.703   6.811  0.7873 -0.4964  0.9746
 7772SOL    HW134778   3.257   2.748   6.842 -0.8133 -0.9204 -2.5342
 7772SOL    HW234779   3.300   2.621   6.777  1.2651 -0.6714  0.8902
 7773SOL     OW34780   1.051   3.250   2.356 -0.5078  0.2014  0.5314
 7773SOL    HW134781   0.965   3.224   2.391 -0.0831  1.3071  2.3955
 7773SOL    HW234782   1.087   3.163   2.342 -0.6586  0.7592 -3.2337
 7774SOL     OW34783   2.493   3.298   2.782 -0.0489 -0.0345 -0.2095
 7774SOL    HW134784   2.460   3.267   2.698 -0.4443  3.0848 -1.1954
 7774SOL    HW234785   2.484   3.393   2.771 -3.2069 -0.1791  1.0761
 7775SOL     OW34786   3.885   4.255  11.173 -0.5069 -0.3269 -0.3025
 7775SOL    HW134787   3.882   4.350  11.158  1.5953 -0.6019 -2.4700
 7775SOL    HW234788   3.971   4.238  11.210 -1.0263  0.5919  1.3210
 7776SOL     OW34789   4.083   1.682   3.346  0.2161 -0.2745  0.4069
 7776SOL    HW134790   4.136   1.664   3.423 -1.2304 -3.1105  0.7470
 7776SOL    HW234791   4.063   1.776   3.346  0.8533 -0.1386  0.2567
 7777SOL     OW34792   1.571   1.587   7.510 -0.0210  0.1063  0.5146
 7777SOL    HW134793   1.525   1.504   7.519 -1.4694  0.9261  0.7402
 7777SOL    HW234794   1.602   1.588   7.600  0.3549 -0.4358  0.3906
 7778SOL     OW34795   4.254   2.980  14.543  0.0588 -0.2672 -0.5154
 7778SOL    HW134796   4.219   3.069  14.551 -0.0669 -0.5888  2.8100
 7778SOL    HW234797   4.282   2.982  14.635 -0.8096  1.0139 -0.2734
 7779SOL     OW34798   3.489   0.669   1.558  0.0406  0.5624  0.2591
 7779SOL    HW134799   3.448   0.611   1.494  2.5740  0.4484 -1.2841
 7779SOL    HW234800   3.414   0.701   1.607  0.2687  1.8478 -0.2375
 7780SOL     OW34801   1.286   0.432   6.880 -0.2599  0.2078 -0.5651
 7780SOL    HW134802   1.287   0.341   6.849  1.8240  0.2966 -0.7827
 7780SOL    HW234803   1.376   0.441   6.912  0.1923  2.1066 -2.3534
 7781SOL     OW34804   3.230   1.480   4.618 -0.0167 -0.6598  0.6047
 7781SOL    HW134805   3.138   1.473   4.591 -0.5040 -2.1933  2.6789
 7781SOL    HW234806   3.275   1.465   4.535 -0.9895  0.4796 -0.1313
 7782SOL     OW34807   3.907   3.991   1.879 -0.2033  0.0015 -0.3620
 7782SOL    HW134808   3.905   4.010   1.786  2.0934  0.5374 -0.2846
 7782SOL    HW234809   4.000   3.990   1.899 -0.4356  1.5500  0.7334
 7783SOL     OW34810   3.139   3.341  10.841  0.1054  0.4677  0.0834
 7783SOL    HW134811   3.220   3.292  10.823  1.1330  1.8469  1.0142
 7783SOL    HW234812   3.176   3.429  10.836  0.9291  0.0689 -0.9367
 7784SOL     OW34813   3.086   2.944  15.595 -0.4358 -0.3986 -0.2298
 7784SOL    HW134814   3.157   2.888  15.564  0.5894 -0.2271  1.8163
 7784SOL    HW234815   3.013   2.924  15.536  0.1518 -2.7854 -0.1404
 7785SOL     OW34816   2.737   2.003  15.043  0.1593 -0.7032 -0.2620
 7785SOL    HW134817   2.653   2.003  14.997  0.4487  0.0148 -0.7859
 7785SOL    HW234818   2.785   2.083  15.023 -0.4154 -0.2522  0.1668
 7786SOL     OW34819   2.624   2.536   9.007  0.4029  0.3803 -0.1338
 7786SOL    HW134820   2.586   2.497   8.928  0.7189  0.2780 -0.2354
 7786SOL    HW234821   2.697   2.475   9.018 -0.2051 -0.2225  0.4773
 7787SOL     OW34822   4.720   2.931   8.842 -0.1639 -0.2961 -0.1520
 7787SOL    HW134823   4.719   2.867   8.771 -1.8616 -0.8130  0.3106
 7787SOL    HW234824   0.022   3.012   8.799 -2.3786  0.8282  0.7052
 7788SOL     OW34825   1.106   4.408   7.796  0.6295 -0.2248  0.0048
 7788SOL    HW134826   1.041   4.472   7.825  0.3155 -1.3540  1.7549
 7788SOL    HW234827   1.065   4.332   7.838 -2.4542  0.0635 -2.4696
 7789SOL     OW34828   4.080   3.422   5.218 -1.2682  0.4217  0.0313
 7789SOL    HW134829   4.087   3.327   5.231 -2.0570  0.5758  1.5973
 7789SOL    HW234830   4.007   3.439   5.277 -2.3206  0.9156 -1.4211
 7790SOL     OW34831   4.523   2.858   2.417  0.1616  0.4626  0.5950
 7790SOL    HW134832   4.496   2.950   2.414  1.8347  0.9703  1.0967
 7790SOL    HW234833   4.511   2.847   2.512  1.0951  0.4093  0.7113
 7791SOL     OW34834   2.743   4.646   3.326 -0.2783  0.0651  0.1925
 7791SOL    HW134835   2.817   4.589   3.309 -0.0679  0.1261  0.9032
 7791SOL    HW234836   2.789   4.710   3.381  0.7323  0.4369 -1.0975
 7792SOL     OW34837   0.385   3.469   7.261  0.6255 -0.0771  0.5774
 7792SOL    HW134838   0.375   3.498   7.352  2.2693 -0.5328  0.9048
 7792SOL    HW234839   0.303   3.425   7.238 -0.7385  3.0044 -0.4258
 7793SOL     OW34840   3.898   1.459   8.393  0.4744 -0.2513  0.4768
 7793SOL    HW134841   3.941   1.471   8.478  1.5236 -0.9520  0.0379
 7793SOL    HW234842   3.938   1.525   8.336 -0.3380 -1.4166 -1.4464
 7794SOL     OW34843   1.428   4.061   9.456  0.3091  0.0018  0.0777
 7794SOL    HW134844   1.512   4.106   9.445  0.2706 -0.1346 -0.7419
 7794SOL    HW234845   1.364   4.119   9.498 -0.4196  0.6280 -1.9034
 7795SOL     OW34846   4.428   2.786   9.848 -0.1892 -0.2091  0.2409
 7795SOL    HW134847   4.381   2.852   9.898  0.5113  1.2460 -1.0047
 7795SOL    HW234848   4.464   2.841   9.778 -1.6181 -0.3158 -0.5657
 7796SOL     OW34849   1.066   0.201   8.719  0.6004  0.1985 -0.3476
 7796SOL    HW134850   1.159   0.223   8.717  0.6354  0.2151  1.9696
 7796SOL    HW234851   1.062   0.164   8.631  0.4954  1.1858 -0.7557
 7797SOL     OW34852   3.432   0.408  13.276  0.2171  0.3497  0.3451
 7797SOL    HW134853   3.381   0.329  13.256 -2.0924  1.4623  1.8049
 7797SOL    HW234854   3.361   0.470  13.291  0.4711  1.1573 -1.8592
 7798SOL     OW34855   2.138   2.953   8.773  0.3094 -0.2768 -0.0818
 7798SOL    HW134856   2.168   3.020   8.834 -0.0923 -0.1028 -0.0712
 7798SOL    HW234857   2.213   2.941   8.715 -1.8050  1.0238 -3.1183
 7799SOL     OW34858   1.101   2.425   5.915 -0.1189 -0.4135  0.4002
 7799SOL    HW134859   1.187   2.444   5.879  0.2188 -3.2955 -0.3163
 7799SOL    HW234860   1.129   2.390   6.000  0.4450 -0.0238  0.3731
 7800SOL     OW34861   1.498   0.558   3.194  0.2151 -0.2450 -0.0586
 7800SOL    HW134862   1.535   0.594   3.274  0.9981  0.4752 -0.7423
 7800SOL    HW234863   1.439   0.494   3.233 -0.5426  1.0921  0.9715
 7801SOL     OW34864   4.369   3.406  10.524  0.4300 -0.0827 -0.2117
 7801SOL    HW134865   4.362   3.473  10.456 -0.9503 -0.2432 -0.2178
 7801SOL    HW234866   4.458   3.375  10.507  0.2751 -0.1918 -0.8283
 7802SOL     OW34867   0.011   2.889  12.052  0.0095  0.0578  0.1521
 7802SOL    HW134868   0.049   2.830  12.117  1.4534  2.6742  1.6993
 7802SOL    HW234869   4.696   2.826  11.990  0.2885  0.1983 -0.1562
 7803SOL     OW34870   3.377   2.566   0.110 -0.1063  0.4426 -0.5456
 7803SOL    HW134871   3.427   2.493   0.147  1.0043  2.8975  2.7427
 7803SOL    HW234872   3.348   2.517   0.032  0.8531 -2.8207  1.1510
 7804SOL     OW34873   2.893   1.900  11.726 -0.0765  0.3198 -0.3301
 7804SOL    HW134874   2.871   1.971  11.786  3.0603 -0.3714  1.6063
 7804SOL    HW234875   2.981   1.923  11.698 -0.3213  1.0727 -0.4927
 7805SOL     OW34876   2.454   3.129   3.255  0.2656  0.5445 -0.1118
 7805SOL    HW134877   2.430   3.161   3.168  1.3398  0.0453 -0.5880
 7805SOL    HW234878   2.546   3.153   3.261  0.3372 -0.2360  1.9459
 7806SOL     OW34879   0.499   1.167   6.900  0.5638 -0.3639  0.2063
 7806SOL    HW134880   0.485   1.080   6.938 -0.0965 -0.5581 -0.4794
 7806SOL    HW234881   0.455   1.156   6.815  1.1649 -0.2396 -0.1202
 7807SOL     OW34882   0.012   4.718   4.544 -0.0360  0.1337 -0.2173
 7807SOL    HW134883   4.655   4.690   4.591 -0.0985 -1.8923 -1.5314
 7807SOL    HW234884   0.056   4.634   4.532 -0.2258 -0.0801  0.5776
 7808SOL     OW34885   2.803   4.014   6.334  0.2234 -0.2143 -0.4391
 7808SOL    HW134886   2.764   4.051   6.414  1.5545 -0.7775  0.4687
 7808SOL    HW234887   2.742   4.050   6.270 -0.7381  1.8882  1.6354
 7809SOL     OW34888   2.306   3.511   4.667  1.2809  0.7024 -0.1940
 7809SOL    HW134889   2.358   3.437   4.699 -2.7330 -1.0427  2.3198
 7809SOL    HW234890   2.371   3.578   4.692  3.1513 -1.8774  1.9162
 7810SOL     OW34891   1.119   1.876   9.148 -0.2369  0.3469 -0.4265
 7810SOL    HW134892   1.071   1.886   9.066 -2.2437 -2.7265  0.3774
 7810SOL    HW234893   1.067   1.922   9.213  1.2795  1.3016  0.1173
 7811SOL     OW34894   0.505   4.261   7.091 -0.3938 -0.6257 -0.0941
 7811SOL    HW134895   0.469   4.350   7.082  1.0737 -0.2922 -2.5536
 7811SOL    HW234896   0.482   4.242   7.182  0.5785 -0.8777  0.0955
 7812SOL     OW34897   0.090   2.314   6.222 -0.2266 -0.3042 -0.1664
 7812SOL    HW134898   0.099   2.232   6.271 -2.2102 -0.2675  0.2684
 7812SOL    HW234899   4.718   2.307   6.206 -0.5022 -0.4642  1.5450
 7813SOL     OW34900   4.549   1.492  12.354 -0.0497 -0.2127  0.3154
 7813SOL    HW134901   4.542   1.491  12.259  2.4639  0.5821  0.1161
 7813SOL    HW234902   4.521   1.402  12.375 -2.8829  0.9145  1.4168
 7814SOL     OW34903   0.634   2.382   6.924  0.2506 -0.1496  0.1861
 7814SOL    HW134904   0.695   2.454   6.908 -0.9670  0.8305  0.0043
 7814SOL    HW234905   0.599   2.373   6.836  1.7902 -0.3473 -0.4132
 7815SOL     OW34906   2.556   0.727   5.921  0.2233  0.2146  0.1746
 7815SOL    HW134907   2.539   0.643   5.964  1.2520  0.5724  1.2888
 7815SOL    HW234908   2.647   0.731   5.950  0.2640 -0.2630  0.1124
 7816SOL     OW34909   1.686   3.722   8.872  0.0770 -0.4853  0.1624
 7816SOL    HW134910   1.694   3.660   8.799 -1.4764 -1.8931  1.1894
 7816SOL    HW234911   1.602   3.696   8.909  0.2678  1.0986  1.7404
 7817SOL     OW34912   3.135   0.210   6.806  0.0729 -0.2409  0.1056
 7817SOL    HW134913   3.111   0.247   6.721 -3.0356 -2.9582 -0.2084
 7817SOL    HW234914   3.225   0.185   6.787  1.0653  2.6240  1.0906
 7818SOL     OW34915   4.358   3.865  10.917 -0.7441 -0.0205  0.6072
 7818SOL    HW134916   4.364   3.940  10.977 -3.2747  0.9892 -0.3877
 7818SOL    HW234917   4.415   3.898  10.848 -1.4321  0.8106  0.4344
 7819SOL     OW34918   2.879   0.595   5.772 -0.4772  0.0874  0.3760
 7819SOL    HW134919   2.846   0.630   5.689 -0.4685 -0.8709 -0.0274
 7819SOL    HW234920   2.966   0.636   5.776 -0.7701  0.8253 -0.8012
 7820SOL     OW34921   0.766   3.800   4.013  0.4794  0.3898  0.3467
 7820SOL    HW134922   0.767   3.816   4.108  1.2980  2.1637  0.0455
 7820SOL    HW234923   0.712   3.721   4.010 -0.0020  0.7000  0.7778
 7821SOL     OW34924   2.692   1.436  15.265  0.5664  0.2844 -0.3654
 7821SOL    HW134925   2.630   1.464  15.197 -0.0603  1.6018  0.7396
 7821SOL    HW234926   2.642   1.365  15.305  1.6991 -0.5943 -0.5187
 7822SOL     OW34927   0.965   3.726   2.901  0.4648  0.2183 -0.1714
 7822SOL    HW134928   0.884   3.722   2.849  0.2742 -1.0385  0.2290
 7822SOL    HW234929   0.999   3.815   2.890  0.7544 -0.0188 -1.1786
 7823SOL     OW34930   2.510   2.825  14.787  0.0832 -0.4150  0.5155
 7823SOL    HW134931   2.472   2.903  14.827  1.2830 -0.1155  1.0625
 7823SOL    HW234932   2.602   2.827  14.813  0.2808  0.9965 -0.2623
 7824SOL     OW34933   1.368   1.973  16.787  0.1783  0.1165 -0.3438
 7824SOL    HW134934   1.294   1.915  16.768 -0.5706  1.0813 -0.3634
 7824SOL    HW234935   1.351   2.032  16.714 -0.9025  2.2348  1.6384
 7825SOL     OW34936   1.106   1.334  13.360 -0.1624 -0.5013 -0.4664
 7825SOL    HW134937   1.110   1.250  13.314  0.7379 -0.3832 -0.5989
 7825SOL    HW234938   1.073   1.385  13.287 -0.5716 -0.9206 -0.5741
 7826SOL     OW34939   1.688   0.100  15.892 -0.4118  0.2949 -0.0039
 7826SOL    HW134940   1.702   0.187  15.855  0.4325  1.0433  2.0723
 7826SOL    HW234941   1.697   0.117  15.986  2.0964  0.8992 -0.3541
 7827SOL     OW34942   2.857   1.228   8.821 -0.1558  0.1006  0.0911
 7827SOL    HW134943   2.814   1.281   8.889  2.8944  3.8209 -0.8673
 7827SOL    HW234944   2.951   1.229   8.836  0.0748  0.2492 -1.4073
 7828SOL     OW34945   2.470   1.982   1.453 -0.1924  0.1578 -0.5886
 7828SOL    HW134946   2.434   1.896   1.475 -1.8766  0.9616 -0.1590
 7828SOL    HW234947   2.554   1.983   1.498 -2.1662  0.3292  3.1558
 7829SOL     OW34948   1.496   3.913   0.765  0.1232 -1.1431  0.4611
 7829SOL    HW134949   1.563   3.849   0.791  1.0105  0.0935  1.2275
 7829SOL    HW234950   1.462   3.946   0.848  0.5448  0.4278  0.0119
 7830SOL     OW34951   0.144   4.258   8.382  0.1554  0.0095  0.6416
 7830SOL    HW134952   0.097   4.184   8.420  1.0793  0.6160  2.9333
 7830SOL    HW234953   0.123   4.322   8.450  0.2798  0.7442  0.0002
 7831SOL     OW34954   1.413   3.279   4.832  0.2119 -0.2978  0.2495
 7831SOL    HW134955   1.397   3.256   4.741  0.5355 -0.7531  0.3072
 7831SOL    HW234956   1.394   3.373   4.830  1.5466 -0.0249  0.4950
 7832SOL     OW34957   0.533   4.189  16.647 -0.0105 -0.8150 -0.6091
 7832SOL    HW134958   0.567   4.254  16.585  2.0140 -1.2030  0.0898
 7832SOL    HW234959   0.438   4.190  16.635 -0.0088 -1.0319 -0.6383
 7833SOL     OW34960   3.800   4.146   5.534  0.4758  0.1492  0.6866
 7833SOL    HW134961   3.858   4.107   5.599 -2.4721 -1.5436  2.3045
 7833SOL    HW234962   3.785   4.078   5.468 -0.1435  1.1747 -0.2274
 7834SOL     OW34963   2.880   3.418   8.491 -0.0310  0.1807 -0.0198
 7834SOL    HW134964   2.955   3.378   8.535 -0.8442 -1.0134  0.2621
 7834SOL    HW234965   2.900   3.512   8.498  0.1839  0.2305 -1.1560
 7835SOL     OW34966   2.316   1.503   5.259  0.4662  0.1462 -0.0887
 7835SOL    HW134967   2.396   1.517   5.308  0.6210  1.6282 -0.7838
 7835SOL    HW234968   2.273   1.441   5.319  1.6915 -1.9414 -1.3520
 7836SOL     OW34969   3.954   1.119   5.168  0.7330 -0.2835  0.4184
 7836SOL    HW134970   3.925   1.045   5.220 -1.2438  1.8622  2.3793
 7836SOL    HW234971   3.868   1.161   5.161  0.3438 -1.3424 -1.1696
 7837SOL     OW34972   0.618   4.080   3.106 -0.0107 -0.6947  0.2226
 7837SOL    HW134973   0.594   4.031   3.185 -1.5346 -1.4933 -0.7424
 7837SOL    HW234974   0.552   4.040   3.050  0.2224 -0.9123  0.1082
 7838SOL     OW34975   2.497   2.793   9.858  0.0147 -0.5023 -0.4779
 7838SOL    HW134976   2.432   2.752   9.915 -0.5357 -1.5754 -1.8685
 7838SOL    HW234977   2.566   2.728   9.869 -1.4906 -1.8301  1.0627
 7839SOL     OW34978   1.387   4.441   3.578  0.0853  0.1104 -0.0963
 7839SOL    HW134979   1.444   4.428   3.503  2.4658 -0.5304  1.8253
 7839SOL    HW234980   1.304   4.432   3.531 -0.9971 -0.2962  1.8895
 7840SOL     OW34981   2.181   1.350   3.653 -0.0716  0.7444  0.2468
 7840SOL    HW134982   2.265   1.379   3.688  1.0423 -2.6381  0.3494
 7840SOL    HW234983   2.213   1.285   3.591 -1.1885  1.8531 -1.4739
 7841SOL     OW34984   2.628   4.504   0.632 -0.6782 -0.4420  0.0859
 7841SOL    HW134985   2.562   4.439   0.611 -1.6957  0.7696 -0.4491
 7841SOL    HW234986   2.684   4.457   0.694 -0.7858 -0.0183  0.5137
 7842SOL     OW34987   2.040   4.376   7.908 -0.6603  0.1437 -0.3600
 7842SOL    HW134988   2.002   4.289   7.904 -0.1415 -0.1775  1.6115
 7842SOL    HW234989   2.014   4.413   7.993 -0.1322  0.0878 -0.1734
 7843SOL     OW34990   1.484   4.590   7.354  0.3232 -0.3261  0.6379
 7843SOL    HW134991   1.545   4.591   7.427  1.4359  1.1912 -0.3147
 7843SOL    HW234992   1.545   4.601   7.281 -1.5134  0.8620 -0.7230
 7844SOL     OW34993   2.733   1.818  17.409  0.4804  0.6754 -0.1282
 7844SOL    HW134994   2.704   1.806  17.319  0.5568 -0.3686 -0.0141
 7844SOL    HW234995   2.695   1.904  17.425  0.1061  0.7101 -1.1863
 7845SOL     OW34996   4.496   2.144   8.264  0.2710 -0.0529  0.0281
 7845SOL    HW134997   4.518   2.175   8.176  1.8784 -0.4225  0.2996
 7845SOL    HW234998   4.401   2.156   8.262  0.0346 -1.9301 -0.6891
 7846SOL     OW34999   1.681   3.257   5.240  0.0591  0.3958 -0.4651
 7846SOL    HW135000   1.600   3.309   5.238 -1.2977 -1.6999  0.2089
 7846SOL    HW235001   1.664   3.173   5.198 -1.1011  1.3444 -1.9100
 7847SOL     OW35002   1.959   2.620   0.550  0.1232 -0.6359  0.5228
 7847SOL    HW135003   1.971   2.692   0.611  0.4042  0.3247 -0.6573
 7847SOL    HW235004   1.872   2.591   0.578  0.0740  1.7306  2.7283
 7848SOL     OW35005   0.545   3.844   1.988  0.1775  0.2334 -0.5791
 7848SOL    HW135006   0.635   3.832   2.016  0.0015  0.2743 -0.0026
 7848SOL    HW235007   0.556   3.793   1.908 -1.6384  0.1416 -0.7806
 7849SOL     OW35008   2.044   1.734   1.321 -0.5487  0.2678 -0.2099
 7849SOL    HW135009   2.028   1.659   1.377 -0.4524  2.1227  2.2742
 7849SOL    HW235010   2.055   1.695   1.234  1.9044  1.4397 -0.4174
 7850SOL     OW35011   1.118   2.538   1.411 -0.4432  0.3402  0.4961
 7850SOL    HW135012   1.203   2.548   1.454  0.2143 -3.0720 -0.0236
 7850SOL    HW235013   1.122   2.446   1.388 -0.4005  1.1828 -2.8304
 7851SOL     OW35014   3.607   3.125   3.676  0.1082  0.4563 -0.6417
 7851SOL    HW135015   3.548   3.184   3.630  0.3521  0.1598 -1.3396
 7851SOL    HW235016   3.642   3.182   3.745 -0.4052 -2.0629  1.6862
 7852SOL     OW35017   1.006   3.928   9.963 -0.2051 -0.0580 -0.2625
 7852SOL    HW135018   1.038   3.881   9.886  3.7811  0.0489  1.3054
 7852SOL    HW235019   0.946   3.870  10.010  0.4790  0.3956  1.1778
 7853SOL     OW35020   2.927   3.825   6.711 -0.3681 -0.2738 -0.5288
 7853SOL    HW135021   2.865   3.885   6.668  2.7628  3.6401  0.4798
 7853SOL    HW235022   2.860   3.787   6.768 -0.8383  1.6414  0.1759
 7854SOL     OW35023   2.455   3.275   4.743  0.1543  0.0633  0.1264
 7854SOL    HW135024   2.524   3.238   4.688  1.1365  0.6917  0.9304
 7854SOL    HW235025   2.382   3.225   4.708  0.3399  0.2345 -0.5007
 7855SOL     OW35026   2.309   4.678   7.596 -0.1263  0.8659 -0.3100
 7855SOL    HW135027   2.275   4.597   7.635 -0.1835  1.0621  0.0460
 7855SOL    HW235028   2.234   4.716   7.549  0.4795  1.5884 -0.6892
 7856SOL     OW35029   1.008   2.888   3.994 -0.3814  0.1332 -0.1121
 7856SOL    HW135030   1.019   2.815   3.933 -0.4451 -1.7389  2.1254
 7856SOL    HW235031   0.916   2.872   4.016 -0.6464  2.3419  0.4393
 7857SOL     OW35032   0.774   2.182   7.043 -0.1585 -0.3341  0.2035
 7857SOL    HW135033   0.857   2.175   6.996  0.6356  0.2273  1.5164
 7857SOL    HW235034   0.716   2.237   6.991 -0.5887 -0.4210  0.5917
 7858SOL     OW35035   4.214   1.229   9.368 -0.3494  0.2595  0.4290
 7858SOL    HW135036   4.286   1.233   9.304  0.2323 -0.2202  1.0613
 7858SOL    HW235037   4.207   1.319   9.398 -0.1646  0.3106  0.3227
 7859SOL     OW35038   2.331   2.570   8.357  0.2918  0.2502 -0.4792
 7859SOL    HW135039   2.270   2.641   8.376  1.3241  0.9293  0.3212
 7859SOL    HW235040   2.384   2.621   8.295 -0.4589  0.5661 -0.8695
 7860SOL     OW35041   2.669   3.172   8.492 -0.2421  0.0184  0.5960
 7860SOL    HW135042   2.699   3.212   8.411 -1.6572  0.1629  0.1454
 7860SOL    HW235043   2.729   3.196   8.563  0.9194 -1.4731  0.1215
 7861SOL     OW35044   3.648   1.597   9.037 -0.0034  0.0571  0.1943
 7861SOL    HW135045   3.685   1.522   8.989  0.8760 -0.6720  2.0175
 7861SOL    HW235046   3.601   1.637   8.964 -1.0043  1.6706  1.7486
 7862SOL     OW35047   1.894   2.902   4.532  0.2493  0.1695  0.5431
 7862SOL    HW135048   1.842   2.856   4.465  0.4203  0.4708  0.2072
 7862SOL    HW235049   1.871   2.837   4.599  1.1714  0.8501  1.5080
 7863SOL     OW35050   3.848   3.928   5.097 -0.2826  0.5512 -0.7975
 7863SOL    HW135051   3.767   3.901   5.053 -0.2592  0.0956 -0.5640
 7863SOL    HW235052   3.917   3.893   5.042 -0.9734 -0.5637 -0.9554
 7864SOL     OW35053   0.677   3.828   7.333  0.1728 -0.4322 -0.1694
 7864SOL    HW135054   0.765   3.863   7.320 -0.2094  0.6135  0.0764
 7864SOL    HW235055   0.679   3.770   7.409  0.6729 -0.6563 -0.3470
 7865SOL     OW35056   3.819   3.623   4.792 -0.0141  0.3839  0.0499
 7865SOL    HW135057   3.850   3.541   4.831 -0.8146 -0.6564 -1.5066
 7865SOL    HW235058   3.742   3.635   4.848 -0.6590  2.5043 -1.2793
 7866SOL     OW35059   2.653   3.673   9.772 -0.7885  0.1491 -0.3464
 7866SOL    HW135060   2.712   3.706   9.841 -1.1514  3.4560 -1.6007
 7866SOL    HW235061   2.616   3.751   9.730  1.6811  0.9410 -1.0778
 7867SOL     OW35062   4.480   2.560   0.794  0.7565  0.5853  0.7316
 7867SOL    HW135063   4.434   2.583   0.714  1.1441  0.3339  0.4396
 7867SOL    HW235064   4.559   2.614   0.783  0.5266  0.5365 -1.1615
 7868SOL     OW35065   1.622   3.207  11.571  0.1676  0.3181 -0.4669
 7868SOL    HW135066   1.680   3.273  11.533  2.5924 -1.5224 -0.0008
 7868SOL    HW235067   1.597   3.158  11.492 -0.1131 -1.6523  0.8386
 7869SOL     OW35068   0.487   2.536  12.058 -0.4900  0.0785 -0.1296
 7869SOL    HW135069   0.416   2.494  12.106  1.8341 -1.2154  2.1406
 7869SOL    HW235070   0.483   2.622  12.099  0.4100 -1.0056  2.2060
 7870SOL     OW35071   0.738   4.579   8.562  0.2462  0.4850 -0.2609
 7870SOL    HW135072   0.766   4.593   8.653 -2.0010 -2.1268  0.8041
 7870SOL    HW235073   0.785   4.498   8.542  1.6155  1.0094  0.7870
 7871SOL     OW35074   0.437   1.894   7.196 -0.0613 -0.2848 -0.7388
 7871SOL    HW135075   0.358   1.860   7.155 -2.1155  2.4523  0.9243
 7871SOL    HW235076   0.463   1.951   7.123 -0.4737  0.3503 -0.3980
 7872SOL     OW35077   1.029   1.411   3.947  0.5838  0.5964 -0.3634
 7872SOL    HW135078   0.991   1.404   3.859  1.4698  0.7895 -0.7640
 7872SOL    HW235079   1.009   1.502   3.971  0.4740  0.3332  0.5036
 7873SOL     OW35080   3.613   0.870  14.252  0.4047  0.2171  0.1328
 7873SOL    HW135081   3.642   0.958  14.276 -1.9291  1.3268 -1.0313
 7873SOL    HW235082   3.588   0.827  14.334 -0.8682 -1.3026 -1.0567
 7874SOL     OW35083   3.565   0.015   4.069 -0.0908 -0.6231  0.3594
 7874SOL    HW135084   3.577   4.674   4.140 -0.3095 -0.8512  0.1912
 7874SOL    HW235085   3.599   0.088   4.122 -0.5590 -1.4029  1.7473
 7875SOL     OW35086   4.350   0.183  15.619  0.0653  0.4877 -0.6289
 7875SOL    HW135087   4.274   0.137  15.657  0.5654 -0.3594 -0.6595
 7875SOL    HW235088   4.304   0.231  15.550 -3.8066  0.0411  1.5991
 7876SOL     OW35089   1.037   1.857   1.847 -0.1297  0.4309  0.5908
 7876SOL    HW135090   1.105   1.791   1.856 -0.4796  0.0134  0.2116
 7876SOL    HW235091   1.046   1.901   1.931 -3.2642  2.3778 -0.0964
 7877SOL     OW35092   1.845   4.659   9.471  0.2742  0.1572  0.0586
 7877SOL    HW135093   1.920   4.607   9.442 -1.9766 -1.6450 -2.5344
 7877SOL    HW235094   1.897   0.007   9.509 -0.2554  0.0359  1.0190
 7878SOL     OW35095   2.802   3.194   2.078 -0.4842  0.1987 -0.1814
 7878SOL    HW135096   2.765   3.216   2.163  0.7349  2.1385 -0.1479
 7878SOL    HW235097   2.772   3.264   2.020 -1.0838 -0.2070 -0.3671
 7879SOL     OW35098   0.685   1.799  17.677  0.2428  0.2131  0.6662
 7879SOL    HW135099   0.759   1.834  17.627 -0.2708  0.9494  0.4352
 7879SOL    HW235100   0.729   1.724   0.028  0.3637  0.3373  0.7655
 7880SOL     OW35101   4.583   2.560   1.745 -0.3266  0.0023  0.5377
 7880SOL    HW135102   4.611   2.645   1.781 -0.1968  0.0231  0.3842
 7880SOL    HW235103   4.652   2.550   1.680  1.1052  0.0240  2.0662
 7881SOL     OW35104   1.846   4.066   3.096 -0.1984 -0.2641 -0.0695
 7881SOL    HW135105   1.781   4.077   3.165 -0.5570  0.4981 -0.5275
 7881SOL    HW235106   1.789   4.053   3.019 -0.3267  0.5492 -0.1146
 7882SOL     OW35107   3.808   1.756  17.688  0.0105  0.2827  0.2852
 7882SOL    HW135108   3.861   1.788  17.614  1.9135 -0.1283  1.4699
 7882SOL    HW235109   3.726   1.804  17.679  0.0010  0.8772  3.6587
 7883SOL     OW35110   3.078   2.159   7.389 -0.4804  0.0506 -0.1978
 7883SOL    HW135111   3.003   2.141   7.332 -0.4042  1.2043 -0.6579
 7883SOL    HW235112   3.027   2.193   7.462 -1.0975 -0.5884 -0.3344
 7884SOL     OW35113   2.549   3.460   8.576 -0.0705  0.2943 -0.5434
 7884SOL    HW135114   2.620   3.403   8.605 -0.0124  1.4553  1.6309
 7884SOL    HW235115   2.473   3.414   8.612 -0.5244  1.6374  0.2216
 7885SOL     OW35116   0.901   0.601   3.662 -0.5652 -0.7222 -0.2655
 7885SOL    HW135117   0.833   0.587   3.728 -1.3542  1.7679 -0.5810
 7885SOL    HW235118   0.909   0.695   3.651 -1.0966 -0.8381 -1.5810
 7886SOL     OW35119   0.528   4.228   5.578  0.2641  0.2623  0.2527
 7886SOL    HW135120   0.612   4.198   5.543 -0.4995  1.7595 -2.8988
 7886SOL    HW235121   0.505   4.154   5.634 -2.7779  2.9856  2.5924
 7887SOL     OW35122   1.523   3.345  14.182 -0.0988 -0.0078  0.3550
 7887SOL    HW135123   1.546   3.381  14.097 -0.4657  0.6382  0.5280
 7887SOL    HW235124   1.539   3.251  14.187  0.6845  0.1201  0.1254
 7888SOL     OW35125   3.682   3.952  17.667  0.6461  0.1703  0.3520
 7888SOL    HW135126   3.696   3.884  17.601 -0.0308  0.2014  0.1789
 7888SOL    HW235127   3.770   3.974   0.009 -0.0873 -0.8688  3.1229
 7889SOL     OW35128   0.464   3.933   6.935 -0.6257 -0.3903 -0.0298
 7889SOL    HW135129   0.533   3.995   6.957 -0.6995  0.5216 -2.3895
 7889SOL    HW235130   0.477   3.868   7.004  0.2007  1.9815  2.0774
 7890SOL     OW35131   2.334   1.438   1.493 -0.3388 -0.3192  0.0599
 7890SOL    HW135132   2.274   1.387   1.547 -0.3414  1.4336  1.7096
 7890SOL    HW235133   2.331   1.525   1.531 -0.4015  0.3156 -1.4042
 7891SOL     OW35134   0.035   2.677   4.576 -0.1714 -0.0372  0.5622
 7891SOL    HW135135   0.001   2.667   4.665  0.1467  0.1653  0.7062
 7891SOL    HW235136   0.119   2.631   4.576  0.0572  0.3907  2.6144
 7892SOL     OW35137   0.078   0.153   3.096 -0.2182  0.7413  0.1376
 7892SOL    HW135138   0.042   0.086   3.040 -0.3521  0.2014  0.8738
 7892SOL    HW235139   4.719   0.176   3.141 -1.0518 -1.2262 -0.3659
 7893SOL     OW35140   3.412   4.405   4.042  0.5689 -0.0983  0.0459
 7893SOL    HW135141   3.409   4.466   3.967  0.3989  0.0608  0.1828
 7893SOL    HW235142   3.320   4.414   4.068  0.6864 -0.0757  0.4426
 7894SOL     OW35143   1.977   4.298   8.250  0.1618 -0.2857  0.1812
 7894SOL    HW135144   1.912   4.363   8.276  0.6598  0.2775  0.0410
 7894SOL    HW235145   1.959   4.223   8.306 -0.1788 -2.1924 -2.5104
 7895SOL     OW35146   3.962   0.821   4.175 -0.4170  0.3673  0.1672
 7895SOL    HW135147   3.915   0.902   4.194 -0.3716 -0.1173  2.3055
 7895SOL    HW235148   3.937   0.779   4.093 -0.4604  2.1874 -0.7712
 7896SOL     OW35149   0.904   3.051   5.231 -0.1924 -0.0711  0.0888
 7896SOL    HW135150   0.891   2.995   5.155 -1.4394  0.1110  0.1580
 7896SOL    HW235151   0.985   3.011   5.264 -0.1214 -1.2767 -1.5744
 7897SOL     OW35152   2.520   0.727   8.391 -0.1624 -0.0915  0.8286
 7897SOL    HW135153   2.588   0.675   8.350  1.1759  1.8634  0.5679
 7897SOL    HW235154   2.563   0.773   8.463  0.4549 -0.4768  0.6989
 7898SOL     OW35155   1.575   4.010   8.911  0.6938 -0.2691  0.2917
 7898SOL    HW135156   1.584   3.917   8.894 -0.0778 -0.1540 -0.7437
 7898SOL    HW235157   1.523   4.016   8.992  3.0152  0.5847  1.7234
 7899SOL     OW35158   0.798   0.651   0.306 -0.1554 -0.7198 -0.1618
 7899SOL    HW135159   0.876   0.630   0.254  0.3227 -0.6139  0.5188
 7899SOL    HW235160   0.802   0.582   0.372 -1.7596 -1.2811 -0.6566
 7900SOL     OW35161   3.722   2.336   3.425  0.0028 -0.3763 -0.7041
 7900SOL    HW135162   3.772   2.364   3.348  0.1397  0.8109 -0.1841
 7900SOL    HW235163   3.747   2.245   3.436 -0.3911 -0.4576 -0.4814
 7901SOL     OW35164   3.531   3.794   8.558  0.1591 -0.1846 -0.1991
 7901SOL    HW135165   3.569   3.762   8.639 -1.6266 -1.6254  0.0538
 7901SOL    HW235166   3.612   3.785   8.507 -0.7759  2.8825 -2.2600
 7902SOL     OW35167   0.029   1.544  11.975 -0.0019  0.0237 -0.5916
 7902SOL    HW135168   4.673   1.489  11.969  0.9560 -1.3665 -0.5413
 7902SOL    HW235169   4.709   1.605  12.035  0.5739 -0.8251  0.6861
 7903SOL     OW35170   0.784   0.674   5.957  0.4536  0.2830  0.0380
 7903SOL    HW135171   0.790   0.579   5.950  2.7008  0.3863  0.6435
 7903SOL    HW235172   0.788   0.687   5.862  0.0086  0.9362  0.1087
 7904SOL     OW35173   1.205   0.258  16.374 -0.8284  0.1433  0.4146
 7904SOL    HW135174   1.263   0.311  16.319  0.6808  0.1243  2.0131
 7904SOL    HW235175   1.147   0.331  16.397  0.8805  1.8306 -0.6996
 7905SOL     OW35176   3.751   1.505   5.763 -0.0202  0.3876  0.4681
 7905SOL    HW135177   3.763   1.507   5.858  1.1412 -1.8337  0.3545
 7905SOL    HW235178   3.662   1.541   5.762 -0.0824  0.2077 -0.2346
 7906SOL     OW35179   2.298   0.048   8.303  0.0538  0.1108  0.2284
 7906SOL    HW135180   2.208   0.082   8.295  0.4051  0.4508 -2.3140
 7906SOL    HW235181   2.356   0.120   8.278 -3.0164  3.2197  2.0749
 7907SOL     OW35182   1.855   2.845  10.694  0.0021  0.2248 -0.3960
 7907SOL    HW135183   1.950   2.839  10.708 -0.2278  2.1272  1.8971
 7907SOL    HW235184   1.835   2.895  10.773  2.4868 -1.5814  1.3825
 7908SOL     OW35185   3.719   2.613   7.346 -0.3320  0.1268  0.0081
 7908SOL    HW135186   3.761   2.660   7.418  1.0183  4.7903 -3.8703
 7908SOL    HW235187   3.741   2.671   7.274  1.4675  0.8492  1.1461
 7909SOL     OW35188   0.942   0.729   0.673  0.1177 -0.4895  0.1817
 7909SOL    HW135189   1.012   0.694   0.729  0.3474 -1.8838 -0.9632
 7909SOL    HW235190   0.906   0.794   0.732  1.8507 -0.3101  1.0452
 7910SOL     OW35191   1.249   2.866  14.029 -0.5682  0.4178 -0.1459
 7910SOL    HW135192   1.228   2.907  14.113  1.5378  2.3233 -0.5658
 7910SOL    HW235193   1.284   2.783  14.062 -0.3071  0.1630 -1.0773
 7911SOL     OW35194   1.112   0.656   4.446 -0.0776 -0.1610 -0.2596
 7911SOL    HW135195   1.044   0.720   4.468 -0.2968 -0.1634 -0.9090
 7911SOL    HW235196   1.181   0.712   4.411  1.0540 -1.1133  0.4338
 7912SOL     OW35197   1.919   3.599  13.920  0.0087 -0.1909 -0.0316
 7912SOL    HW135198   1.893   3.556  13.839 -1.6457  1.5898 -0.4450
 7912SOL    HW235199   1.967   3.523  13.953  3.2486  1.0656 -1.8397
 7913SOL     OW35200   3.359   0.460   3.208  0.0359 -0.4440  0.4543
 7913SOL    HW135201   3.266   0.441   3.215 -0.0803 -0.1069 -0.1663
 7913SOL    HW235202   3.369   0.469   3.113 -0.3612 -1.6085  0.3012
 7914SOL     OW35203   0.778   1.206  13.598 -0.2595 -0.1643  0.4789
 7914SOL    HW135204   0.845   1.179  13.535 -0.5454  0.5344 -0.1389
 7914SOL    HW235205   0.826   1.239  13.674 -0.3288 -1.0403  0.9057
 7915SOL     OW35206   1.631   4.590   7.593  0.0674 -0.3132 -0.2096
 7915SOL    HW135207   1.725   4.578   7.586 -0.0089 -1.0835  0.1726
 7915SOL    HW235208   1.606   4.537   7.669 -0.3637  0.1496 -0.0291
 7916SOL     OW35209   1.528   2.673   2.274 -0.3377 -0.2127 -0.2565
 7916SOL    HW135210   1.501   2.736   2.206  0.5786 -0.8305 -1.1900
 7916SOL    HW235211   1.450   2.692   2.326  0.3359 -3.1027  1.7901
 7917SOL     OW35212   0.351   1.794   1.958  0.4570 -0.7393 -0.1570
 7917SOL    HW135213   0.277   1.758   1.909 -0.4838  1.6970 -0.5572
 7917SOL    HW235214   0.355   1.730   2.029 -2.4211 -1.8652 -1.0050
 7918SOL     OW35215   4.041   4.244   9.006 -0.2460 -0.4708  0.2471
 7918SOL    HW135216   4.018   4.336   8.996  0.6297 -0.2275  0.5111
 7918SOL    HW235217   4.077   4.240   9.095 -2.1384 -0.5908  1.0033
 7919SOL     OW35218   3.014   0.400   5.116 -0.4362  0.2654  0.0150
 7919SOL    HW135219   3.047   0.460   5.182  0.9441 -1.0544  0.5078
 7919SOL    HW235220   2.972   0.340   5.177 -0.3361  1.1435  0.9324
 7920SOL     OW35221   4.709   1.558   0.754 -0.4947 -0.8291  0.0378
 7920SOL    HW135222   4.635   1.507   0.722 -0.4678 -0.9346  0.1432
 7920SOL    HW235223   4.672   1.646   0.762 -0.3920 -0.8215  0.4042
 7921SOL     OW35224   2.804   0.478  12.957 -0.0736  0.0587 -0.0313
 7921SOL    HW135225   2.807   0.444  12.868  0.7542 -0.2887  0.1242
 7921SOL    HW235226   2.800   0.572  12.938 -0.1712  0.4035  1.6373
 7922SOL     OW35227   0.697   0.853  14.240 -0.5677 -0.4223  0.0651
 7922SOL    HW135228   0.693   0.840  14.335  0.0595  0.0862  0.1532
 7922SOL    HW235229   0.602   0.856  14.225 -0.3914 -0.7444 -1.1282
 7923SOL     OW35230   3.970   0.087  17.291  0.1401 -0.0217 -0.2919
 7923SOL    HW135231   3.997   0.175  17.268  0.7558 -0.1055  0.1082
 7923SOL    HW235232   3.963   0.039  17.208  2.2608 -0.8930  0.0536
 7924SOL     OW35233   2.354   2.472   6.517  0.0212  0.2164 -0.0848
 7924SOL    HW135234   2.360   2.484   6.612  1.6801  0.5127 -0.2342
 7924SOL    HW235235   2.353   2.560   6.480  0.1655 -1.1102 -3.2662
 7925SOL     OW35236   4.391   3.299  11.308 -0.1534  0.3608 -0.3466
 7925SOL    HW135237   4.297   3.318  11.308 -0.9807 -3.7864  1.0455
 7925SOL    HW235238   4.390   3.206  11.283 -0.1849  0.0923  0.6345
 7926SOL     OW35239   2.583   3.686   0.372  0.8565  0.7847 -0.3562
 7926SOL    HW135240   2.495   3.718   0.391  0.9307  2.6455 -3.3112
 7926SOL    HW235241   2.634   3.759   0.406 -1.2971  2.4732 -0.7678
 7927SOL     OW35242   1.056   3.007   3.426 -0.3380 -0.0733 -0.4588
 7927SOL    HW135243   1.033   3.100   3.427 -0.5749 -0.1544  1.3271
 7927SOL    HW235244   1.072   2.996   3.519 -1.1615 -0.8066 -0.4011
 7928SOL     OW35245   1.806   3.480   9.693 -0.0276 -0.0249  0.0480
 7928SOL    HW135246   1.857   3.422   9.637 -0.6753 -2.5963  2.1670
 7928SOL    HW235247   1.748   3.518   9.627 -0.6146 -0.6533  0.2049
 7929SOL     OW35248   1.443   0.042   8.931 -0.0726 -0.4391 -0.2010
 7929SOL    HW135249   1.537   0.028   8.931 -0.1526 -1.0609  2.0806
 7929SOL    HW235250   1.440   0.089   9.015  0.2692  1.4464 -1.2369
 7930SOL     OW35251   2.437   2.934  11.162  0.1335  0.1630 -0.2878
 7930SOL    HW135252   2.506   2.989  11.125 -0.9539  0.4729 -1.8409
 7930SOL    HW235253   2.389   2.915  11.082  0.8963 -1.7760 -0.2846
 7931SOL     OW35254   3.106   0.461   2.246 -0.4441  0.2363  0.0493
 7931SOL    HW135255   3.044   0.398   2.281  1.0888 -0.6594  1.1764
 7931SOL    HW235256   3.050   0.538   2.235  0.5561  0.3974 -4.2090
 7932SOL     OW35257   2.140   3.507   9.008  0.7621  0.2263 -0.0910
 7932SOL    HW135258   2.094   3.488   8.926 -0.0074  0.7603  0.2243
 7932SOL    HW235259   2.057   3.532   9.048  1.1058 -1.6526  1.7772
 7933SOL     OW35260   0.580   1.892  11.377 -0.2667  0.0257  0.2592
 7933SOL    HW135261   0.511   1.955  11.359 -0.0563  0.3416  0.5482
 7933SOL    HW235262   0.600   1.870  11.286  0.2752 -2.0050  0.8683
 7934SOL     OW35263   4.316   3.683   6.704 -0.0892  0.2684 -0.3215
 7934SOL    HW135264   4.324   3.767   6.660 -2.1747  1.0933  0.8868
 7934SOL    HW235265   4.347   3.621   6.637  0.8782 -0.7561  1.0840
 7935SOL     OW35266   3.956   3.291  12.314 -0.0034 -0.3356  0.1173
 7935SOL    HW135267   3.908   3.299  12.232 -1.1409 -1.0685  0.6980
 7935SOL    HW235268   3.896   3.333  12.376 -1.0219 -0.4214 -0.8116
 7936SOL     OW35269   1.928   4.492   5.905 -0.0763 -0.2917 -0.2023
 7936SOL    HW135270   1.931   4.398   5.887  0.4388 -0.4148  0.5052
 7936SOL    HW235271   2.003   4.493   5.965 -0.3664 -0.6325  0.1687
 7937SOL     OW35272   0.808   3.108  15.680  0.2487  0.3732  0.5126
 7937SOL    HW135273   0.778   3.163  15.752  2.7996  0.3336  1.5724
 7937SOL    HW235274   0.730   3.108  15.623 -0.4282  0.9722  1.4354
 7938SOL     OW35275   3.258   0.834   1.606  0.1571  0.0528 -0.0213
 7938SOL    HW135276   3.222   0.777   1.674 -1.9480 -1.0767 -2.0926
 7938SOL    HW235277   3.174   0.868   1.574 -0.0926 -0.7080 -0.1756
 7939SOL     OW35278   0.364   2.034   5.640 -0.3560 -0.0686  0.1215
 7939SOL    HW135279   0.306   2.111   5.647 -0.6427 -0.2785  0.0491
 7939SOL    HW235280   0.451   2.074   5.641 -0.9110  1.2616 -2.6713
 7940SOL     OW35281   2.187   1.763   3.430  0.1319  0.1758  0.2464
 7940SOL    HW135282   2.108   1.720   3.464 -0.7920  2.2010  0.6558
 7940SOL    HW235283   2.242   1.691   3.400 -0.5722 -0.0183 -0.5753
 7941SOL     OW35284   1.077   2.151  12.237 -0.2348 -0.3308  0.0655
 7941SOL    HW135285   0.985   2.134  12.255 -0.5835 -1.1358 -2.3770
 7941SOL    HW235286   1.071   2.180  12.145  1.3223  0.1281  0.1128
 7942SOL     OW35287   1.961   1.539   0.599 -0.2980  0.2362 -0.3743
 7942SOL    HW135288   1.931   1.618   0.644 -2.6243 -0.5440 -0.5216
 7942SOL    HW235289   2.050   1.547   0.567 -0.4079 -0.1142 -0.7598
 7943SOL     OW35290   2.673   1.408   2.034  0.0610  0.0718 -0.0003
 7943SOL    HW135291   2.764   1.396   2.006 -0.0062 -2.4340  0.8912
 7943SOL    HW235292   2.671   1.352   2.111  0.4241 -0.9936 -0.7658
 7944SOL     OW35293   0.058   4.543  12.496 -0.0172 -0.5063  0.2481
 7944SOL    HW135294   0.127   4.582  12.550  1.0442  0.0240 -1.5009
 7944SOL    HW235295   0.029   4.622  12.450 -1.4855 -0.3246  1.4620
 7945SOL     OW35296   3.150   0.265   8.638  0.2147  0.4523 -0.2476
 7945SOL    HW135297   3.211   0.253   8.710  0.3343 -0.2925 -0.4723
 7945SOL    HW235298   3.108   0.179   8.632  0.3460  0.4282 -0.8179
 7946SOL     OW35299   0.528   1.576   4.469 -0.0575 -0.8262  0.0008
 7946SOL    HW135300   0.599   1.525   4.507  1.4709  1.6721  0.4660
 7946SOL    HW235301   0.499   1.634   4.539 -1.0881 -1.2507 -0.0665
 7947SOL     OW35302   0.527   1.217   4.701  0.1945  0.5033  0.6752
 7947SOL    HW135303   0.439   1.242   4.730  0.5063 -2.0868  3.9719
 7947SOL    HW235304   0.500   1.138   4.654  1.4656  0.1049  0.6109
 7948SOL     OW35305   2.684   2.629   9.942  0.1629  0.8044  0.4349
 7948SOL    HW135306   2.638   2.597  10.020 -0.4780 -0.2570 -0.3747
 7948SOL    HW235307   2.754   2.563   9.939  0.0489  0.8068 -1.9636
 7949SOL     OW35308   1.324   2.226   9.684 -0.4621  0.2273  0.0050
 7949SOL    HW135309   1.275   2.275   9.619  1.0515 -0.9568 -2.0297
 7949SOL    HW235310   1.356   2.157   9.626  0.8513 -0.7605  1.8807
 7950SOL     OW35311   0.123   0.134   4.985  0.3658 -0.6186  0.1999
 7950SOL    HW135312   0.111   0.052   5.034 -0.3150 -1.8986 -2.0871
 7950SOL    HW235313   0.046   0.183   5.013 -0.4515 -2.5074  1.2791
 7951SOL     OW35314   1.900   1.807   3.541 -0.3513 -0.1509 -0.2692
 7951SOL    HW135315   1.951   1.739   3.585 -0.1209 -0.4854 -1.0501
 7951SOL    HW235316   1.948   1.886   3.568 -0.3819 -0.0828 -0.4107
 7952SOL     OW35317   1.838   0.475   3.436 -0.3956 -0.2128  0.3659
 7952SOL    HW135318   1.904   0.406   3.438  0.1900  0.3420  0.5593
 7952SOL    HW235319   1.850   0.524   3.354 -1.1956 -0.4757  0.0956
 7953SOL     OW35320   0.524   0.567  16.904 -0.2652  0.3761  0.6065
 7953SOL    HW135321   0.571   0.650  16.906 -1.8521  1.3646 -2.4629
 7953SOL    HW235322   0.440   0.599  16.870 -0.8972 -0.5879  1.2625
 7954SOL     OW35323   3.654   0.173   9.238  0.7653  0.0547  0.9238
 7954SOL    HW135324   3.610   0.162   9.323 -0.9207 -0.2002  0.0077
 7954SOL    HW235325   3.689   0.262   9.233  1.4985 -0.2773  0.2220
 7955SOL     OW35326   1.536   0.789  14.071 -0.5392  0.2548 -0.2000
 7955SOL    HW135327   1.608   0.851  14.064 -0.3253 -0.4871 -4.5795
 7955SOL    HW235328   1.585   0.715  14.107 -0.0227  0.9976  0.6176
 7956SOL     OW35329   0.475   3.913   4.263  0.6123 -0.2158 -0.4644
 7956SOL    HW135330   0.430   3.845   4.211  0.8135  0.0844 -1.0301
 7956SOL    HW235331   0.558   3.867   4.276  0.5128 -0.8155 -1.9395
 7957SOL     OW35332   2.644   2.538   8.427  0.0105  0.1292 -0.2847
 7957SOL    HW135333   2.730   2.580   8.429  0.2959 -0.4849  0.5808
 7957SOL    HW235334   2.636   2.536   8.332  1.7001 -2.2000 -0.3747
 7958SOL     OW35335   1.214   1.255  16.506 -0.7171 -0.2451  0.2416
 7958SOL    HW135336   1.239   1.258  16.598 -0.2102  2.1287  0.0380
 7958SOL    HW235337   1.303   1.253  16.469  0.7256  1.1835  3.5783
 7959SOL     OW35338   1.655   0.611   9.929 -0.5451 -0.2842  0.3234
 7959SOL    HW135339   1.711   0.536   9.949  2.1309  1.6067 -0.0754
 7959SOL    HW235340   1.571   0.566   9.934 -0.1896 -0.8937  0.7565
 7960SOL     OW35341   4.295   2.664   9.057  0.1304 -0.6817 -0.1589
 7960SOL    HW135342   4.212   2.640   9.096 -0.1026  0.4181  0.0337
 7960SOL    HW235343   4.332   2.576   9.059 -0.2119 -0.8359 -0.6296
 7961SOL     OW35344   1.204   2.874   6.770 -0.1697 -0.1697 -0.1143
 7961SOL    HW135345   1.139   2.804   6.764 -1.1308  0.8126 -1.1648
 7961SOL    HW235346   1.283   2.832   6.803  0.9762  0.6555 -1.8061
 7962SOL     OW35347   3.304   4.269   2.714  0.4634  0.1091  0.2179
 7962SOL    HW135348   3.259   4.314   2.786  3.0132  0.5135  1.5643
 7962SOL    HW235349   3.274   4.178   2.713 -0.1946  0.3839 -3.1751
 7963SOL     OW35350   1.885   4.260   1.296 -0.7500  0.6459 -0.0554
 7963SOL    HW135351   1.974   4.229   1.279 -1.2940 -1.0059  0.1533
 7963SOL    HW235352   1.841   4.186   1.339 -0.4653  1.8330  2.2862
 7964SOL     OW35353   1.492   2.829   4.660 -0.5153  0.3193  0.2981
 7964SOL    HW135354   1.479   2.778   4.580  2.0380  0.4307 -0.1846
 7964SOL    HW235355   1.411   2.797   4.700 -0.2560 -0.3273  0.3083
 7965SOL     OW35356   1.669   2.208  15.078 -0.1133 -0.2394 -0.2097
 7965SOL    HW135357   1.655   2.211  15.173  0.0098 -2.9257 -0.1341
 7965SOL    HW235358   1.660   2.116  15.056  1.3346 -0.3841 -0.1478
 7966SOL     OW35359   4.652   2.540   2.057 -0.2111 -0.0947 -0.1981
 7966SOL    HW135360   4.656   2.585   1.972  1.1732 -2.8250 -1.5605
 7966SOL    HW235361   4.674   2.612   2.116 -1.0482 -1.6353  1.9994
 7967SOL     OW35362   2.504   2.997  10.831 -0.5153 -0.4474 -0.0222
 7967SOL    HW135363   2.527   2.993  10.924 -2.1558 -0.0957  0.4157
 7967SOL    HW235364   2.558   3.072  10.807 -3.1864  1.9213  1.3244
 7968SOL     OW35365   2.127   1.984   8.950 -0.1475 -0.7797 -0.1114
 7968SOL    HW135366   2.182   1.918   8.993 -2.2861 -1.5222  1.4616
 7968SOL    HW235367   2.187   2.058   8.938 -0.2596 -0.7472 -0.4592
 7969SOL     OW35368   0.046   3.503   4.886 -0.1874  0.1360  0.4113
 7969SOL    HW135369   0.104   3.484   4.812 -1.0421 -1.0599  0.0435
 7969SOL    HW235370   0.105   3.542   4.950  0.1192  2.4414 -1.2771
 7970SOL     OW35371   0.646   4.018  17.218  0.0218  0.2718  0.4245
 7970SOL    HW135372   0.715   3.993  17.155  0.0869  0.5204  0.3989
 7970SOL    HW235373   0.632   4.109  17.192 -1.6824  0.4851  2.1360
 7971SOL     OW35374   3.005   1.456  15.847 -0.2950  0.3793 -0.3549
 7971SOL    HW135375   2.960   1.488  15.768  1.7134  0.3667 -1.5241
 7971SOL    HW235376   3.096   1.442  15.820 -0.1392 -1.0768  0.9483
 7972SOL     OW35377   0.272   2.681   1.359  0.2300  0.0867 -0.1789
 7972SOL    HW135378   0.290   2.629   1.280 -1.2568 -1.5358  0.5327
 7972SOL    HW235379   0.357   2.672   1.402 -1.0110  1.4788  2.5700
 7973SOL     OW35380   1.150   1.552   8.967  0.8791 -0.0851 -0.1580
 7973SOL    HW135381   1.213   1.581   9.034 -0.2768 -1.3150  1.4468
 7973SOL    HW235382   1.151   1.457   8.981 -0.5104 -0.0527  0.1443
 7974SOL     OW35383   0.995   4.201   5.790  0.6697  0.0713 -0.2212
 7974SOL    HW135384   0.971   4.116   5.825  1.4736 -0.3517 -0.6950
 7974SOL    HW235385   1.065   4.231   5.849  0.4376  0.4910 -0.1603
 7975SOL     OW35386   1.258   0.980   5.432  0.6568  0.5965 -0.3003
 7975SOL    HW135387   1.226   0.938   5.353 -0.1434  1.4109 -0.4099
 7975SOL    HW235388   1.317   1.047   5.397 -0.4903  0.5639 -2.2715
 7976SOL     OW35389   0.639   2.512  12.796 -0.6439  0.1527 -0.0636
 7976SOL    HW135390   0.669   2.596  12.760 -0.4271 -0.7512 -1.9826
 7976SOL    HW235391   0.545   2.516  12.780 -0.3181 -0.4154 -2.1226
 7977SOL     OW35392   3.877   2.278   0.079 -0.1423  0.4446 -0.4334
 7977SOL    HW135393   3.799   2.227   0.102  0.9367 -1.7190 -1.5262
 7977SOL    HW235394   3.911   2.213   0.017 -2.2793 -0.2269 -0.8864
 7978SOL     OW35395   0.997   1.050   7.937 -0.4512 -0.2031  0.3823
 7978SOL    HW135396   0.952   1.072   8.019 -0.0289 -0.3429  0.6487
 7978SOL    HW235397   1.039   0.965   7.943 -1.6212 -0.6735  2.0491
 7979SOL     OW35398   1.954   0.114   6.729 -0.2528  0.0181 -0.3265
 7979SOL    HW135399   1.909   0.124   6.645  0.8426  1.7455 -0.6962
 7979SOL    HW235400   2.014   0.042   6.709  2.3761  2.1242 -0.0690
 7980SOL     OW35401   0.944   4.171  14.282 -0.0054 -0.0989 -0.0952
 7980SOL    HW135402   0.980   4.105  14.223  0.8366 -0.6219  0.9971
 7980SOL    HW235403   0.964   4.130  14.367 -0.7624  1.3484  0.7867
 7981SOL     OW35404   1.961   1.491   1.426  0.0317  0.5486  0.4176
 7981SOL    HW135405   1.965   1.406   1.470 -0.5715  0.6335  0.6402
 7981SOL    HW235406   1.891   1.473   1.364  0.6228  1.3092 -0.4624
 7982SOL     OW35407   0.141   0.040   7.692  0.1721  0.0758  0.5868
 7982SOL    HW135408   0.111   0.064   7.605 -0.1115 -1.2948  0.3138
 7982SOL    HW235409   0.154   0.130   7.721  1.3501  0.5459 -1.4748
 7983SOL     OW35410   2.043   2.229   7.298  0.5952  0.5704  0.1475
 7983SOL    HW135411   1.989   2.207   7.222 -0.2110  3.0775 -0.0066
 7983SOL    HW235412   2.027   2.323   7.301  1.0359  0.5799  2.2241
 7984SOL     OW35413   2.493   1.100   4.605 -0.4569  0.3641 -0.2467
 7984SOL    HW135414   2.423   1.161   4.581 -0.5570  0.3819  0.0824
 7984SOL    HW235415   2.451   1.017   4.582  0.2669  0.1631 -0.8216
 7985SOL     OW35416   2.538   4.239  12.205  0.3081 -0.4272 -0.1442
 7985SOL    HW135417   2.537   4.333  12.223 -0.8484 -0.8123  1.8013
 7985SOL    HW235418   2.449   4.231  12.171 -0.0130 -0.6049  0.7551
 7986SOL     OW35419   0.943   4.565   4.327  0.8207  0.2679 -0.1200
 7986SOL    HW135420   0.971   4.652   4.299  0.1459  0.2421 -0.8608
 7986SOL    HW235421   1.021   4.531   4.372  2.1500  0.1173 -2.5570
 7987SOL     OW35422   1.095   1.051   4.955  0.6995  0.2118 -0.5717
 7987SOL    HW135423   1.081   0.999   4.875  1.9760 -0.6826 -0.2086
 7987SOL    HW235424   1.030   1.022   5.019  0.8930  0.4648 -0.2639
 7988SOL     OW35425   3.319   0.125   2.273 -0.2680  0.1833 -0.1137
 7988SOL    HW135426   3.303   0.144   2.365 -0.9185  1.5791 -0.5204
 7988SOL    HW235427   3.376   0.050   2.289  0.1219 -0.0424 -2.5848
 7989SOL     OW35428   0.790   1.443   9.293 -0.0179  0.5816 -0.2442
 7989SOL    HW135429   0.825   1.385   9.226 -0.6862 -0.6247  0.4560
 7989SOL    HW235430   0.805   1.526   9.247  1.2632  0.4668 -0.0572
 7990SOL     OW35431   0.655   3.077  13.771 -0.3865 -0.0908  0.3424
 7990SOL    HW135432   0.749   3.062  13.767 -0.4542 -0.9485  2.0731
 7990SOL    HW235433   0.623   3.016  13.837  1.1843  0.1404  1.3123
 7991SOL     OW35434   1.442   1.475   0.919 -0.1906  0.5315  0.4185
 7991SOL    HW135435   1.466   1.530   0.845  1.2889 -0.3539  0.2404
 7991SOL    HW235436   1.520   1.451   0.968  0.3889  1.2106 -0.1753
 7992SOL     OW35437   0.545   0.078  14.926 -0.4559 -0.1849 -0.0222
 7992SOL    HW135438   0.548   0.063  15.021 -1.7662  0.9620  0.2140
 7992SOL    HW235439   0.510   0.167  14.920 -2.2624 -0.7617  2.1256
 7993SOL     OW35440   1.658   0.929   7.424 -0.3861 -0.5051  0.1437
 7993SOL    HW135441   1.564   0.913   7.416 -0.7164  0.3369  2.5062
 7993SOL    HW235442   1.661   0.968   7.336 -1.4651 -1.2488 -0.2266
 7994SOL     OW35443   3.051   1.077   6.887 -0.4576 -0.9861  0.3338
 7994SOL    HW135444   3.022   1.058   6.976 -1.4568 -2.8684 -0.3821
 7994SOL    HW235445   3.141   1.046   6.895 -0.1017  0.0641  0.3155
 7995SOL     OW35446   0.200   3.592   6.676 -0.4293  0.4011  0.1161
 7995SOL    HW135447   0.283   3.550   6.652 -0.8691  0.2864 -1.2064
 7995SOL    HW235448   0.234   3.634   6.755  0.0444  0.2983 -0.0366
 7996SOL     OW35449   2.413   1.388   5.595 -0.0061 -0.2796  0.0496
 7996SOL    HW135450   2.380   1.379   5.685  0.3955 -0.9626  0.1302
 7996SOL    HW235451   2.364   1.465   5.568  0.3464 -0.1380 -0.1827
 7997SOL     OW35452   1.837   3.726   7.404 -0.4122  0.6549  0.3343
 7997SOL    HW135453   1.892   3.751   7.478  0.9196  0.6486 -0.6695
 7997SOL    HW235454   1.816   3.636   7.430  1.7203  0.2353  0.5770
 7998SOL     OW35455   4.488   3.520  15.444  0.1972  0.5026  0.6021
 7998SOL    HW135456   4.573   3.504  15.405 -0.5822 -0.5190 -0.6734
 7998SOL    HW235457   4.431   3.475  15.382  0.5210 -0.7707  1.2332
 7999SOL     OW35458   3.294   0.427   8.451  0.5654  0.2229 -0.0905
 7999SOL    HW135459   3.227   0.469   8.398 -0.5276 -0.3954  0.7795
 7999SOL    HW235460   3.256   0.348   8.491  1.0587  1.4244  2.7643
 8000SOL     OW35461   2.859   2.162  17.387 -0.1218  0.0164  0.0720
 8000SOL    HW135462   2.927   2.127  17.444 -0.3350  1.3258  1.1142
 8000SOL    HW235463   2.777   2.118  17.409  0.1495 -1.8087 -2.5527
 8001SOL     OW35464   3.334   4.539   3.527 -0.1864 -0.3011  0.4018
 8001SOL    HW135465   3.343   4.478   3.600  0.8195 -0.0496  0.4876
 8001SOL    HW235466   3.265   4.490   3.483 -0.0999  1.0468 -1.2124
 8002SOL     OW35467   4.476   0.454   1.397  0.3616 -0.4243  0.1219
 8002SOL    HW135468   4.435   0.539   1.378  0.2898 -0.3058  0.7873
 8002SOL    HW235469   4.502   0.463   1.489 -0.5401  3.2635  0.0287
 8003SOL     OW35470   0.744   1.116   4.061 -0.2144 -0.0247 -0.1232
 8003SOL    HW135471   0.691   1.048   4.101  0.5168 -0.3960  0.2294
 8003SOL    HW235472   0.684   1.142   3.992 -0.1215  0.8711  0.1232
 8004SOL     OW35473   4.261   3.887   5.962  0.2422  0.6609  0.4898
 8004SOL    HW135474   4.174   3.868   5.927 -0.8279  0.3095  3.3064
 8004SOL    HW235475   4.240   3.959   6.021 -3.2250 -0.8154  1.0688
 8005SOL     OW35476   3.858   1.709   1.943  0.1639 -0.2422  0.3917
 8005SOL    HW135477   3.883   1.778   1.881  4.1581 -3.2994 -1.3633
 8005SOL    HW235478   3.847   1.748   2.030 -2.6935  1.0283 -0.5259
 8006SOL     OW35479   1.811   1.338   3.739  0.1618  0.6318 -0.3559
 8006SOL    HW135480   1.761   1.406   3.694 -0.7051  0.0678 -0.2524
 8006SOL    HW235481   1.855   1.293   3.667  1.1051 -0.9800  1.2228
 8007SOL     OW35482   0.904   4.387   8.474 -0.0743 -0.1976  0.5370
 8007SOL    HW135483   0.971   4.326   8.505  1.1894 -0.0320 -1.8278
 8007SOL    HW235484   0.932   4.401   8.384 -0.4764  3.3582  0.9822
 8008SOL     OW35485   2.487   3.930   9.465  0.3987 -0.6577 -0.4556
 8008SOL    HW135486   2.400   3.971   9.465 -0.1842 -1.8880 -0.3099
 8008SOL    HW235487   2.510   3.939   9.558  1.3826 -0.3688 -0.7309
 8009SOL     OW35488   0.042   4.331  13.959 -0.2746  0.0912 -0.5918
 8009SOL    HW135489   0.044   4.374  14.044  1.7723  0.0024 -0.5931
 8009SOL    HW235490   0.073   4.401  13.901 -0.4748  1.1539  0.5817
 8010SOL     OW35491   2.111   0.285   9.040 -0.2330  0.1874 -0.0241
 8010SOL    HW135492   2.126   0.217   9.106 -1.2161  0.4930  0.5159
 8010SOL    HW235493   2.024   0.314   9.068 -1.0707 -1.5808 -0.7842
 8011SOL     OW35494   1.205   3.923   4.402  0.1193 -0.0386 -0.6185
 8011SOL    HW135495   1.274   3.913   4.467 -2.1877  0.3897  1.8642
 8011SOL    HW235496   1.183   3.832   4.381 -0.9165  0.4593 -1.6831
 8012SOL     OW35497   3.539   3.790   6.870 -0.1240  0.1362 -0.5772
 8012SOL    HW135498   3.457   3.761   6.911  0.7360 -2.0773 -0.4218
 8012SOL    HW235499   3.613   3.781   6.930 -1.0820  1.7407  0.8491
 8013SOL     OW35500   3.901   0.432  17.264 -0.5357 -0.4048  0.6913
 8013SOL    HW135501   3.990   0.403  17.287 -0.3928  1.3801  2.4486
 8013SOL    HW235502   3.914   0.524  17.243 -0.1706 -0.4713  0.6173
 8014SOL     OW35503   2.808   3.007   9.361 -0.1233 -0.2311  0.5219
 8014SOL    HW135504   2.768   2.961   9.434 -1.2457  1.4007  0.9269
 8014SOL    HW235505   2.806   3.098   9.391  0.1965 -0.0769  0.0744
 8015SOL     OW35506   1.816   1.631   8.914  0.3904 -0.2027  0.1466
 8015SOL    HW135507   1.820   1.610   8.821 -2.1704  2.6710 -0.6411
 8015SOL    HW235508   1.721   1.626   8.914  0.4588 -1.6183  1.6234
 8016SOL     OW35509   3.849   1.121  13.098  0.5652  0.0013 -0.3156
 8016SOL    HW135510   3.792   1.196  13.083  1.3549  0.4395 -1.1269
 8016SOL    HW235511   3.878   1.133  13.188 -0.9764 -2.1744  0.4721
 8017SOL     OW35512   2.858   4.039   1.419  0.0993 -0.1988 -0.1483
 8017SOL    HW135513   2.831   4.061   1.330 -2.5063 -2.3749  0.1032
 8017SOL    HW235514   2.934   3.984   1.401  1.8573  2.7190 -1.6022
 8018SOL     OW35515   2.722   1.794  14.746 -0.2763  0.2170  0.0245
 8018SOL    HW135516   2.681   1.872  14.783  0.7301 -0.5155  2.7160
 8018SOL    HW235517   2.797   1.782  14.805  0.5941  0.7276 -0.9924
 8019SOL     OW35518   2.675   0.812   8.106  0.3610 -0.1673  0.8280
 8019SOL    HW135519   2.652   0.786   8.017  1.4305 -1.6337  0.9840
 8019SOL    HW235520   2.732   0.887   8.090 -0.2567  0.0503 -0.3200
 8020SOL     OW35521   1.873   3.941   2.760 -0.0056 -0.1694  0.6119
 8020SOL    HW135522   1.805   4.002   2.787 -1.6309 -1.3640 -0.7686
 8020SOL    HW235523   1.936   3.995   2.714  0.0165 -1.0635 -0.4279
 8021SOL     OW35524   3.345   2.336  16.104  0.2965  0.9970  0.0600
 8021SOL    HW135525   3.298   2.380  16.174  2.7710  0.1893  2.1908
 8021SOL    HW235526   3.369   2.422  16.070  1.2226  0.9597  0.6224
 8022SOL     OW35527   4.623   0.758   9.244  0.4436  0.2282  0.0457
 8022SOL    HW135528   4.563   0.821   9.205 -0.7165 -0.5026  0.6655
 8022SOL    HW235529   4.654   0.697   9.177  3.3454  2.0644 -0.2644
 8023SOL     OW35530   0.990   2.219   5.707  0.1534  0.2225  0.0652
 8023SOL    HW135531   1.026   2.269   5.780 -0.1502  1.9303 -0.9562
 8023SOL    HW235532   1.064   2.176   5.665  0.3726 -1.6106  2.2788
 8024SOL     OW35533   0.861   2.993   6.750  0.0574  0.1841 -0.0833
 8024SOL    HW135534   0.880   2.906   6.783  1.7365  0.4322 -0.3578
 8024SOL    HW235535   0.769   3.012   6.767  0.2812 -1.0156  2.3789
 8025SOL     OW35536   0.755   2.574   6.639 -0.3271  0.1065  0.7241
 8025SOL    HW135537   0.792   2.554   6.553 -0.5334 -0.9314  0.8828
 8025SOL    HW235538   0.682   2.627   6.607  1.3387  0.6804 -2.0830
 8026SOL     OW35539   3.288   3.429   8.833 -0.2882  0.3300  0.0072
 8026SOL    HW135540   3.319   3.509   8.875 -1.2846  0.8592 -0.2750
 8026SOL    HW235541   3.354   3.428   8.763 -1.5158 -0.7413 -1.1410
 8027SOL     OW35542   1.528   1.440   9.054  0.3218  0.4874  0.1408
 8027SOL    HW135543   1.464   1.421   9.123  0.1408 -0.5603 -0.3260
 8027SOL    HW235544   1.601   1.473   9.108  0.9805  0.5602 -0.8007
 8028SOL     OW35545   2.236   2.067   9.532  0.2230  0.2632  0.0458
 8028SOL    HW135546   2.322   2.089   9.567  0.2934  0.0959 -0.0254
 8028SOL    HW235547   2.265   2.010   9.461  0.2816  0.5107 -0.1308
 8029SOL     OW35548   0.717   1.209  13.028 -0.0078  0.1900 -0.2317
 8029SOL    HW135549   0.735   1.261  13.107 -0.8894  1.1340 -0.6555
 8029SOL    HW235550   0.735   1.276  12.962  2.8172  0.5510  0.9003
 8030SOL     OW35551   0.803   4.487   3.703  0.0999 -0.0239 -0.1574
 8030SOL    HW135552   0.888   4.518   3.674  0.6071 -1.2003  0.0840
 8030SOL    HW235553   0.747   4.508   3.628  2.0097 -2.0073 -2.1502
 8031SOL     OW35554   4.219   1.181  13.624 -0.0934 -0.1464 -0.0148
 8031SOL    HW135555   4.125   1.182  13.606 -0.0049 -0.5158 -0.4840
 8031SOL    HW235556   4.234   1.089  13.604 -2.0677 -0.4882  0.0083
 8032SOL     OW35557   0.053   1.521   5.528  0.0102 -0.2369  0.4272
 8032SOL    HW135558   0.045   1.584   5.600  1.0583  0.3792 -0.0075
 8032SOL    HW235559   0.147   1.504   5.534  0.8508  3.2173 -3.2951
 8033SOL     OW35560   0.565   4.289   4.340 -0.2556 -0.0051  0.1204
 8033SOL    HW135561   0.632   4.308   4.274 -2.2744  0.9226 -1.6575
 8033SOL    HW235562   0.610   4.207   4.361  1.3583  1.1046  1.0724
 8034SOL     OW35563   0.345   1.685   8.528 -0.1399 -0.4521  0.3400
 8034SOL    HW135564   0.340   1.640   8.612 -0.4830  3.4057  2.3924
 8034SOL    HW235565   0.426   1.735   8.535 -1.2794  0.9999  3.0465
 8035SOL     OW35566   0.411   4.233   7.778 -0.3861  0.5817  0.4672
 8035SOL    HW135567   0.346   4.165   7.792 -0.7177  1.2790  2.2170
 8035SOL    HW235568   0.490   4.181   7.793 -1.1953 -0.3274  1.4759
 8036SOL     OW35569   2.344   0.592   7.508  0.2916  0.6436  0.0828
 8036SOL    HW135570   2.433   0.565   7.532  0.7736  1.3913 -0.8606
 8036SOL    HW235571   2.354   0.648   7.431 -2.3315  0.9095 -0.0450
 8037SOL     OW35572   3.349   4.529  11.295  0.4341 -0.0959  0.6358
 8037SOL    HW135573   3.424   4.472  11.278  1.7043  2.6281 -2.8391
 8037SOL    HW235574   3.293   4.499  11.223 -1.6350  1.1469  1.7172
 8038SOL     OW35575   0.218   3.649   5.086 -0.2474 -0.0486  0.3260
 8038SOL    HW135576   0.257   3.633   5.171  0.1981  0.0951  0.1516
 8038SOL    HW235577   0.164   3.725   5.105  1.7598  2.1253 -2.4182
 8039SOL     OW35578   4.070   0.352   8.205 -0.3078 -0.0143  0.0985
 8039SOL    HW135579   4.084   0.442   8.174  0.9924 -0.4071 -0.4765
 8039SOL    HW235580   4.049   0.364   8.297 -2.6318 -1.7616 -0.1993
 8040SOL     OW35581   0.341   0.180   8.226 -0.3376 -0.3101 -0.1143
 8040SOL    HW135582   0.295   0.104   8.190 -3.3412  0.7239  1.5353
 8040SOL    HW235583   0.367   0.146   8.311 -3.2670 -0.8410  0.5702
 8041SOL     OW35584   3.054   0.450  11.850  0.4989  0.8706 -0.3376
 8041SOL    HW135585   3.116   0.442  11.778  1.7868 -1.7452  1.0780
 8041SOL    HW235586   3.087   0.534  11.882  1.1805 -0.7387  3.1512
 8042SOL     OW35587   1.083   0.699   3.896 -0.2340 -0.0839  0.6170
 8042SOL    HW135588   1.047   0.757   3.829 -0.6177  0.4265  1.2579
 8042SOL    HW235589   1.170   0.739   3.896 -0.8075  1.1683  1.7994
 8043SOL     OW35590   0.061   4.607  10.420 -0.0011  0.0380  0.3194
 8043SOL    HW135591   0.101   4.579  10.338 -0.4179  1.2916 -0.3175
 8043SOL    HW235592   0.139   4.617  10.475  0.3639  1.2313 -0.4241
 8044SOL     OW35593   1.352   3.922   3.010  0.5353 -0.0273 -0.3492
 8044SOL    HW135594   1.391   3.896   2.926 -1.1483 -0.0296 -1.1232
 8044SOL    HW235595   1.313   3.837   3.031  1.6063 -0.6482 -0.8151
 8045SOL     OW35596   1.817   3.849   0.370  0.2290 -0.1093  0.1415
 8045SOL    HW135597   1.756   3.838   0.297 -0.3967  0.1936  0.6106
 8045SOL    HW235598   1.765   3.897   0.435  1.8120  0.5154  0.9242
 8046SOL     OW35599   0.195   0.762   8.314  0.4853 -0.4410  0.2869
 8046SOL    HW135600   0.224   0.724   8.230 -2.6431 -0.1551 -0.9336
 8046SOL    HW235601   0.150   0.830   8.265  1.2544 -2.4710 -3.2719
 8047SOL     OW35602   1.232   2.273   2.045 -0.1273 -0.2495  0.0748
 8047SOL    HW135603   1.195   2.362   2.046  1.4539  0.4201 -0.2299
 8047SOL    HW235604   1.208   2.242   1.958  0.7963  0.9696 -0.6172
 8048SOL     OW35605   0.363   0.708  12.939  0.6960 -0.6027  0.0800
 8048SOL    HW135606   0.363   0.772  12.868 -2.1748  1.5989  2.0792
 8048SOL    HW235607   0.455   0.706  12.967  0.4119 -0.2192  1.0281
 8049SOL     OW35608   0.263   1.895   7.965  0.0332  0.0379 -0.1590
 8049SOL    HW135609   0.232   1.967   7.909 -0.2904 -0.8877 -1.1755
 8049SOL    HW235610   0.206   1.924   8.036 -1.2845 -0.2804 -1.0822
 8050SOL     OW35611   3.800   0.748  14.858  0.2562 -0.2341  0.5308
 8050SOL    HW135612   3.862   0.761  14.931  0.5791  1.6610 -0.0730
 8050SOL    HW235613   3.807   0.837  14.824  0.7319 -1.1100 -1.6265
 8051SOL     OW35614   2.080   0.614  12.422 -0.0113 -0.5581  0.4091
 8051SOL    HW135615   2.042   0.664  12.494 -1.1108 -0.7408 -0.0378
 8051SOL    HW235616   2.038   0.528  12.428  4.7164 -2.9983 -1.3908
 8052SOL     OW35617   3.687   4.055   2.019  0.0261 -0.3758 -0.4989
 8052SOL    HW135618   3.757   4.016   1.967  0.3082 -1.5785  0.7423
 8052SOL    HW235619   3.717   4.043   2.110 -0.7802 -1.1015 -0.3351
 8053SOL     OW35620   3.189   2.900   8.922 -0.0859 -0.8854 -0.2293
 8053SOL    HW135621   3.234   2.985   8.924 -0.4531 -0.6953 -0.1275
 8053SOL    HW235622   3.258   2.833   8.923  0.2281 -0.5435  1.3926
 8054SOL     OW35623   3.667   0.119   5.991 -0.0199 -0.2291 -0.3314
 8054SOL    HW135624   3.645   0.050   5.928 -0.8005  1.0071 -1.4065
 8054SOL    HW235625   3.594   0.181   5.991  1.3792  1.4091  2.5884
 8055SOL     OW35626   1.324   3.929   7.481  0.3770 -0.5508  0.6982
 8055SOL    HW135627   1.288   3.869   7.546  1.8829 -0.9549  1.1496
 8055SOL    HW235628   1.335   3.869   7.407 -1.6083  0.8502 -0.7537
 8056SOL     OW35629   1.071   0.549  11.942  0.3298  0.2818  0.6756
 8056SOL    HW135630   1.003   0.572  12.005  1.4353 -0.4530  2.1591
 8056SOL    HW235631   1.087   0.634  11.901  1.0603 -0.1860  0.0021
 8057SOL     OW35632   3.158   3.376   2.016 -0.5900  0.3469  0.4832
 8057SOL    HW135633   3.126   3.392   1.927  0.5880 -1.3774 -0.2505
 8057SOL    HW235634   3.183   3.462   2.050 -0.2610 -0.3721  2.0580
 8058SOL     OW35635   2.361   2.220  16.762 -0.1031 -0.2715 -0.7314
 8058SOL    HW135636   2.442   2.260  16.731  0.4295 -0.4177  0.4325
 8058SOL    HW235637   2.297   2.285  16.734 -0.0125  0.4860  0.8158
 8059SOL     OW35638   3.960   0.089   9.120 -0.4729  0.2429 -0.0261
 8059SOL    HW135639   3.890   0.149   9.146  1.0799  1.8825  0.3983
 8059SOL    HW235640   4.026   0.118   9.184 -0.5951 -0.5099  0.4411
 8060SOL     OW35641   0.814   1.435   4.845 -0.1203 -0.1125 -0.1065
 8060SOL    HW135642   0.871   1.435   4.922 -1.6127 -1.6928  0.9935
 8060SOL    HW235643   0.729   1.428   4.887  0.9467 -0.9639  1.9197
 8061SOL     OW35644   3.373   1.697  11.407  0.3558 -0.4848  0.1781
 8061SOL    HW135645   3.298   1.667  11.459  0.0641 -0.4009 -0.1910
 8061SOL    HW235646   3.367   1.791  11.421  2.8460 -0.0866 -1.5252
 8062SOL     OW35647   1.308   4.492   8.439 -0.0164  0.0358  0.0658
 8062SOL    HW135648   1.299   4.452   8.525  0.4789  0.0342  0.1127
 8062SOL    HW235649   1.379   4.438   8.405  0.1398  1.1881 -1.4394
 8063SOL     OW35650   1.423   0.250   2.275 -0.8029  0.3560  0.2954
 8063SOL    HW135651   1.343   0.200   2.292 -0.7822 -0.2624 -1.3792
 8063SOL    HW235652   1.482   0.191   2.229 -2.0094 -2.5126  2.4102
 8064SOL     OW35653   2.170   2.283  13.208 -0.0273 -0.6510 -0.5232
 8064SOL    HW135654   2.082   2.280  13.248  0.1749 -0.5421 -0.0685
 8064SOL    HW235655   2.193   2.374  13.222  0.3218 -0.9613  0.9465
 8065SOL     OW35656   3.633   1.998   0.963 -0.7935 -0.1389 -0.0621
 8065SOL    HW135657   3.556   1.949   0.936 -1.8800  1.5082  0.0406
 8065SOL    HW235658   3.603   2.089   0.958  2.8098  1.0909  0.5709
 8066SOL     OW35659   2.631   3.505   5.868 -0.1900 -0.1592 -0.4996
 8066SOL    HW135660   2.540   3.527   5.890 -0.7163 -2.3657 -0.4162
 8066SOL    HW235661   2.627   3.409   5.870  0.5601 -0.2218 -2.3859
 8067SOL     OW35662   3.890   2.503  17.157  0.0035  0.1513  0.1536
 8067SOL    HW135663   3.803   2.503  17.118  0.4511  4.2005 -0.8200
 8067SOL    HW235664   3.864   2.488  17.248  0.2752 -1.4440 -0.0363
 8068SOL     OW35665   0.634   2.464  15.651  0.3549  0.9748  0.0184
 8068SOL    HW135666   0.687   2.482  15.574 -0.6838 -0.4504 -1.0327
 8068SOL    HW235667   0.608   2.373  15.634  1.3490  1.3830 -3.5742
 8069SOL     OW35668   1.121   3.874   6.909  0.0113 -0.2417  0.1070
 8069SOL    HW135669   1.125   3.878   6.814 -1.1340 -1.9400 -0.0025
 8069SOL    HW235670   1.032   3.847   6.929 -1.0448  0.2016 -4.0423
 8070SOL     OW35671   0.062   3.081   0.536 -0.4766 -0.6365  0.0259
 8070SOL    HW135672   0.097   3.169   0.518  2.4379 -1.6085  0.9112
 8070SOL    HW235673   0.038   3.084   0.628  0.1964  1.0533  0.1580
 8071SOL     OW35674   2.467   2.356   1.961 -0.2471  0.0742  1.1675
 8071SOL    HW135675   2.394   2.412   1.935  0.4298  0.1967 -0.4340
 8071SOL    HW235676   2.414   2.283   1.994 -1.5929  0.8290  0.6657
 8072SOL     OW35677   3.520   0.449   4.150 -0.3216  0.6797  0.3458
 8072SOL    HW135678   3.605   0.422   4.187  0.0951  1.2782 -0.1795
 8072SOL    HW235679   3.465   0.411   4.219  0.6157  0.2964  0.8896
 8073SOL     OW35680   0.979   0.902   8.545  0.5468  0.3540  0.3556
 8073SOL    HW135681   0.943   0.949   8.620  1.3154  0.3059  0.7553
 8073SOL    HW235682   0.901   0.862   8.506  0.0890  1.9932 -0.4183
 8074SOL     OW35683   0.338   4.138   1.260  0.4549 -0.1263  0.3578
 8074SOL    HW135684   0.431   4.161   1.270  0.1506  0.3517  1.9644
 8074SOL    HW235685   0.347   4.135   1.165 -1.0580  0.8562  0.1793
 8075SOL     OW35686   4.510   0.201  13.121 -0.7504 -0.3842 -0.3259
 8075SOL    HW135687   4.458   0.223  13.043 -1.2508 -1.1877 -0.2089
 8075SOL    HW235688   4.569   0.130  13.095 -1.4325 -0.4080 -1.8579
 8076SOL     OW35689   2.444   4.080   4.662  0.4175 -0.4119 -0.4771
 8076SOL    HW135690   2.475   4.168   4.682  0.6801 -1.2313  2.6028
 8076SOL    HW235691   2.450   4.037   4.747  2.0025 -1.5757 -1.1732
 8077SOL     OW35692   3.961   1.953   2.542  0.2682  0.2091  0.2492
 8077SOL    HW135693   3.996   1.977   2.627  1.6710 -0.7214 -0.0677
 8077SOL    HW235694   4.042   1.920   2.503 -1.1526 -1.6244 -1.1516
 8078SOL     OW35695   0.499   4.549   8.310 -0.0981  0.5829 -0.3331
 8078SOL    HW135696   0.412   4.573   8.278 -0.7809  0.5887  1.5316
 8078SOL    HW235697   0.543   4.632   8.327  0.4791  0.2394 -0.1605
 8079SOL     OW35698   1.813   1.688  10.213  0.0195 -0.5904  0.4185
 8079SOL    HW135699   1.809   1.757  10.147  0.2525 -2.6675 -1.7864
 8079SOL    HW235700   1.905   1.688  10.241  0.3785 -1.3938 -0.7620
 8080SOL     OW35701   3.371   4.173   3.238 -0.1179  0.1748 -0.5683
 8080SOL    HW135702   3.437   4.174   3.169  1.2332  0.6734  0.7407
 8080SOL    HW235703   3.395   4.258   3.276  0.8739 -0.2729 -0.2021
 8081SOL     OW35704   3.906   2.662   3.070 -0.7588  0.3408  0.2901
 8081SOL    HW135705   3.897   2.749   3.031  2.4364  0.4334 -0.3028
 8081SOL    HW235706   3.861   2.612   3.003  1.9028 -2.2954  0.4827
 8082SOL     OW35707   1.398   3.018  13.404  0.3189  0.2203  0.3586
 8082SOL    HW135708   1.316   3.002  13.357  0.6183 -0.1129 -0.0624
 8082SOL    HW235709   1.408   3.113  13.399 -1.0053  0.3144 -0.4588
 8083SOL     OW35710   3.679   0.255  13.310 -0.1758 -0.4561 -0.2149
 8083SOL    HW135711   3.613   0.317  13.341  0.2621 -1.4175  2.7170
 8083SOL    HW235712   3.750   0.310  13.277  1.0250 -0.0177  3.0778
 8084SOL     OW35713   3.314   0.421   1.579  0.0619  0.0268  0.4225
 8084SOL    HW135714   3.251   0.485   1.545  0.7795 -0.3073 -1.5074
 8084SOL    HW235715   3.260   0.371   1.640 -0.5046  1.0066  0.7270
 8085SOL     OW35716   3.517   0.250   8.191  0.5029  0.0543 -0.3829
 8085SOL    HW135717   3.473   0.175   8.230 -1.2990  0.4209 -1.7370
 8085SOL    HW235718   3.528   0.228   8.098  1.6473  0.9689 -0.4667
 8086SOL     OW35719   2.236   3.384  17.360 -0.3349 -0.3946  0.1032
 8086SOL    HW135720   2.172   3.393  17.290  0.9271 -1.9852 -1.2664
 8086SOL    HW235721   2.318   3.388  17.309 -1.7856 -1.5250 -2.3328
 8087SOL     OW35722   0.164   0.502   2.575  0.4822 -0.6877  0.1758
 8087SOL    HW135723   0.228   0.434   2.555  1.6748  0.3721  0.3554
 8087SOL    HW235724   0.213   0.566   2.627 -0.8286  0.6968 -0.2794
 8088SOL     OW35725   2.416   4.287   3.796 -0.0585  0.5273  0.3072
 8088SOL    HW135726   2.362   4.360   3.766 -2.4284 -0.8691  1.1152
 8088SOL    HW235727   2.395   4.213   3.738 -0.5333 -0.2999  1.5148
 8089SOL     OW35728   0.957   3.645   2.297 -0.1797 -0.3077  0.1250
 8089SOL    HW135729   0.994   3.587   2.231  1.8611  1.3034 -0.1652
 8089SOL    HW235730   1.032   3.701   2.318 -0.6172 -0.2220  1.4291
 8090SOL     OW35731   2.681   2.391   4.165 -0.2049  0.7076 -0.1975
 8090SOL    HW135732   2.753   2.399   4.103  0.6360  1.3252  0.8736
 8090SOL    HW235733   2.620   2.339   4.112 -0.0054  1.7905 -1.4758
 8091SOL     OW35734   0.746   2.564   8.578  0.7295 -0.4191  0.0969
 8091SOL    HW135735   0.676   2.621   8.608  0.3281 -0.9088  0.1023
 8091SOL    HW235736   0.817   2.625   8.558  1.1735 -1.3342 -1.1101
 8092SOL     OW35737   0.027   2.327   8.567 -0.1615 -0.3122 -0.1558
 8092SOL    HW135738   4.703   2.411   8.554  1.0419  0.4113  0.2531
 8092SOL    HW235739   0.083   2.347   8.642 -0.1026  0.3226 -0.3641
 8093SOL     OW35740   1.949   3.886  11.921 -0.2783  0.1454  0.2137
 8093SOL    HW135741   1.862   3.855  11.943 -0.5980  0.1989 -0.9505
 8093SOL    HW235742   1.969   3.833  11.843 -1.5301 -1.2595  0.8565
 8094SOL     OW35743   4.275   4.347  10.478 -0.1597  0.0677 -0.1001
 8094SOL    HW135744   4.318   4.378  10.399  0.6974 -2.5316 -0.6400
 8094SOL    HW235745   4.195   4.325  10.430 -0.0767 -1.4241  0.4343
 8095SOL     OW35746   3.481   2.811   4.522 -0.3182  0.4128 -0.0711
 8095SOL    HW135747   3.577   2.822   4.524 -0.3373  0.4532  0.6586
 8095SOL    HW235748   3.453   2.821   4.613  0.1047  1.5120 -0.0502
 8096SOL     OW35749   2.367   3.831   2.796 -0.2464  0.5411  0.1983
 8096SOL    HW135750   2.383   3.773   2.721  0.1397  0.3365  0.4350
 8096SOL    HW235751   2.456   3.858   2.820  0.1487  0.2481 -0.9312
 8097SOL     OW35752   4.036   3.137  11.863 -0.2097  0.5863 -0.1605
 8097SOL    HW135753   4.114   3.128  11.917 -0.6081 -0.4049  0.2396
 8097SOL    HW235754   4.074   3.110  11.779  1.2273 -0.4007  0.8195
 8098SOL     OW35755   0.708   2.375   3.001  0.3232  0.7298 -0.1461
 8098SOL    HW135756   0.677   2.399   3.089 -0.5642 -0.8745 -0.0064
 8098SOL    HW235757   0.753   2.453   2.971  0.0810  0.8208 -0.2725
 8099SOL     OW35758   0.325   2.919   2.337  0.2580 -0.0767 -0.2146
 8099SOL    HW135759   0.274   2.999   2.321  1.4111  0.4720 -1.0855
 8099SOL    HW235760   0.310   2.910   2.431  1.1640 -0.7941 -0.1437
 8100SOL     OW35761   1.900   2.862  16.392  0.2148  0.4229  0.3699
 8100SOL    HW135762   1.836   2.933  16.397 -0.8422 -0.6007  1.2341
 8100SOL    HW235763   1.975   2.897  16.343  0.1845 -1.3326 -0.9342
 8101SOL     OW35764   1.681   2.330  12.451  0.3461  0.2647 -0.2033
 8101SOL    HW135765   1.700   2.237  12.444  0.4014  0.2493  0.1703
 8101SOL    HW235766   1.755   2.362  12.400  1.0514  0.5373  0.9950
 8102SOL     OW35767   0.588   2.898   5.776 -0.1537 -0.2828 -0.0542
 8102SOL    HW135768   0.612   2.986   5.807  0.9277  0.0709 -1.8698
 8102SOL    HW235769   0.542   2.865   5.853  3.1347 -2.6282  0.9007
 8103SOL     OW35770   3.708   1.167   7.019 -0.1768  0.3582 -0.1142
 8103SOL    HW135771   3.790   1.204   7.050 -0.6507 -0.2195  1.8263
 8103SOL    HW235772   3.682   1.230   6.952  3.0525  0.1343 -1.5558
 8104SOL     OW35773   1.395   3.663  16.673  0.1813  0.3773 -0.1521
 8104SOL    HW135774   1.394   3.602  16.599 -1.2638  1.0629 -0.6937
 8104SOL    HW235775   1.302   3.671  16.694  0.4651 -0.3684  1.3413
 8105SOL     OW35776   2.215   3.349   1.168 -0.0090  0.3776  0.5875
 8105SOL    HW135777   2.260   3.291   1.230 -2.0609 -1.6389  0.1908
 8105SOL    HW235778   2.200   3.430   1.215 -0.6659  1.9317 -2.3126
 8106SOL     OW35779   2.593   1.804  11.307 -0.4161  0.6061 -0.6352
 8106SOL    HW135780   2.640   1.863  11.366  0.9274 -0.3942 -0.7030
 8106SOL    HW235781   2.639   1.720  11.311 -1.9649 -0.1445  0.9770
 8107SOL     OW35782   2.696   0.196   7.299 -0.7341  0.1115 -0.0246
 8107SOL    HW135783   2.692   0.166   7.208  1.7785  0.0429 -0.1203
 8107SOL    HW235784   2.611   0.238   7.312  0.3750  2.0577  0.9343
 8108SOL     OW35785   1.366   0.723   6.780 -0.1714 -0.4164  0.4065
 8108SOL    HW135786   1.332   0.685   6.699  1.7301 -1.0267 -0.1104
 8108SOL    HW235787   1.433   0.664   6.814  0.0259 -1.0976 -1.1669
 8109SOL     OW35788   0.663   1.736  15.310  0.5509 -0.5676 -0.4806
 8109SOL    HW135789   0.721   1.691  15.249  0.1116  0.6202 -1.7649
 8109SOL    HW235790   0.585   1.739  15.255 -1.1192 -0.6018  1.9088
 8110SOL     OW35791   2.333   0.799   4.144 -0.4350  0.2348  0.4191
 8110SOL    HW135792   2.379   0.809   4.228  1.4012  3.2120 -0.8981
 8110SOL    HW235793   2.249   0.837   4.169  0.5025  1.8748  1.1061
 8111SOL     OW35794   1.813   0.776   4.829 -0.1299  0.1350 -0.0754
 8111SOL    HW135795   1.804   0.713   4.901 -0.9599 -0.3463 -0.5959
 8111SOL    HW235796   1.821   0.859   4.875  0.2068 -0.4950  1.0212
 8112SOL     OW35797   2.957   0.096   9.354 -0.1235  0.1951 -0.5592
 8112SOL    HW135798   3.022   0.084   9.424 -0.3676  1.5594 -0.1112
 8112SOL    HW235799   2.939   0.003   9.341 -0.7895 -0.0614  2.1473
 8113SOL     OW35800   1.335   3.151   2.637 -0.3361  0.0406  0.4780
 8113SOL    HW135801   1.396   3.217   2.602  0.4436 -0.2369  1.3023
 8113SOL    HW235802   1.349   3.078   2.578  0.3543 -1.3733  2.3944
 8114SOL     OW35803   1.270   2.357  12.792 -0.5234 -0.0232  0.7653
 8114SOL    HW135804   1.352   2.400  12.765  0.2838 -1.6873  0.5507
 8114SOL    HW235805   1.310   2.273  12.814 -0.5944 -0.2765 -0.0614
 8115SOL     OW35806   1.212   0.686   2.492  0.2189  0.1668  0.5682
 8115SOL    HW135807   1.119   0.690   2.469  0.7301 -0.0528 -1.5942
 8115SOL    HW235808   1.232   0.777   2.515  0.1606  0.1233  0.7900
 8116SOL     OW35809   4.161   1.385  12.935  0.0911 -0.0573  0.5258
 8116SOL    HW135810   4.152   1.295  12.903  0.6101 -0.4988  1.6253
 8116SOL    HW235811   4.250   1.394  12.901 -0.1440 -0.8765 -0.2856
 8117SOL     OW35812   3.033   0.726  16.711 -0.1898  0.2718  0.4272
 8117SOL    HW135813   3.115   0.760  16.746  1.4127 -3.0843 -0.0579
 8117SOL    HW235814   3.024   0.781  16.633 -1.2285  1.7548  1.5882
 8118SOL     OW35815   3.167   0.542  13.289  0.4115 -0.0265  0.0116
 8118SOL    HW135816   3.090   0.589  13.320  0.3110 -0.8854  1.0697
 8118SOL    HW235817   3.222   0.613  13.255 -0.7562  0.6755 -0.3984
 8119SOL     OW35818   1.089   4.599   0.375 -0.0209  0.0905  0.5255
 8119SOL    HW135819   1.163   4.592   0.435 -0.2904  0.7284  0.9237
 8119SOL    HW235820   1.134   4.619   0.292  0.4056  2.1157  1.2466
 8120SOL     OW35821   1.067   4.192   1.793  0.4232 -0.3041  0.4250
 8120SOL    HW135822   1.015   4.273   1.792 -0.3984 -0.8668 -2.4286
 8120SOL    HW235823   1.099   4.182   1.703 -1.3007  2.4076 -0.4967
 8121SOL     OW35824   1.534   3.476   6.782  0.2027  0.5871 -0.0092
 8121SOL    HW135825   1.501   3.388   6.764  1.3078  0.3359 -0.7540
 8121SOL    HW235826   1.463   3.521   6.736 -1.1060 -0.5541  0.9000
 8122SOL     OW35827   1.210   3.797   2.055  0.0105  0.4660 -0.3100
 8122SOL    HW135828   1.147   3.836   1.994 -0.2393 -0.5233 -0.6890
 8122SOL    HW235829   1.167   3.812   2.139  1.0659 -0.3597  0.3793
 8123SOL     OW35830   2.967   0.889  11.928  0.5417 -0.0526 -0.2053
 8123SOL    HW135831   2.902   0.906  11.860  0.6704  0.3800 -0.2188
 8123SOL    HW235832   2.917   0.870  12.008 -0.3620 -1.2233 -1.0496
 8124SOL     OW35833   1.969   1.935   7.340  0.0165  0.3981 -0.1466
 8124SOL    HW135834   2.053   1.916   7.297 -0.4032  0.0902 -0.8294
 8124SOL    HW235835   1.915   1.967   7.268 -2.3375 -2.0728  0.5337
 8125SOL     OW35836   1.730   2.530   0.654 -0.4457 -0.2681  0.2451
 8125SOL    HW135837   1.643   2.538   0.693 -0.1712  1.6122  0.4832
 8125SOL    HW235838   1.785   2.507   0.729 -3.2726 -0.8293  2.1725
 8126SOL     OW35839   2.840   2.653   4.439 -0.8469  0.1967 -0.3731
 8126SOL    HW135840   2.878   2.565   4.431 -0.9319  0.2897 -1.8623
 8126SOL    HW235841   2.866   2.706   4.364 -1.8833  3.2960  1.4612
 8127SOL     OW35842   0.768   2.505   6.315 -0.5703 -0.1724  0.2945
 8127SOL    HW135843   0.851   2.509   6.268 -0.7140 -0.3154  0.0352
 8127SOL    HW235844   0.769   2.411   6.332 -0.1615 -0.1177  0.5989
 8128SOL     OW35845   0.415   1.245   6.336 -0.2616 -0.5589 -0.3572
 8128SOL    HW135846   0.383   1.161   6.369  1.6250 -1.8568 -1.8360
 8128SOL    HW235847   0.369   1.309   6.390  2.4049  1.6548 -0.6908
 8129SOL     OW35848   2.428   3.117   5.403 -0.0420 -0.0631  0.6868
 8129SOL    HW135849   2.351   3.164   5.436 -1.1860 -1.0180 -0.6425
 8129SOL    HW235850   2.436   3.056   5.476 -1.7412  0.9782  1.7640
 8130SOL     OW35851   2.692   3.374   1.494 -0.8283  0.0198  0.2322
 8130SOL    HW135852   2.702   3.377   1.399  0.0462  0.5432  0.3438
 8130SOL    HW235853   2.597   3.373   1.506 -0.8823 -0.8894 -0.2458
 8131SOL     OW35854   0.071   0.857   7.936 -0.1963 -0.1145  0.8743
 8131SOL    HW135855   0.114   0.800   7.873 -0.1959  0.8868 -0.0307
 8131SOL    HW235856   4.722   0.801   7.967 -0.5914 -0.7697 -1.2140
 8132SOL     OW35857   4.364   3.893  11.697 -0.4106  0.1306 -0.4204
 8132SOL    HW135858   4.301   3.906  11.626 -1.2627 -1.7406  0.0127
 8132SOL    HW235859   4.432   3.843  11.652  0.2112 -1.0221  1.7869
 8133SOL     OW35860   2.635   1.654  15.442  0.6267 -0.3951  0.3041
 8133SOL    HW135861   2.681   1.731  15.409 -0.4407  0.2165  0.2116
 8133SOL    HW235862   2.649   1.584  15.379  0.7283 -0.8695  0.8563
 8134SOL     OW35863   2.891   0.620   7.968  0.0128  0.1015 -0.4488
 8134SOL    HW135864   2.805   0.587   7.993 -1.9959  4.0031 -2.2445
 8134SOL    HW235865   2.941   0.539   7.953 -0.0964 -0.2491  1.0852
 8135SOL     OW35866   1.799   0.248   8.483  0.0558 -0.3768 -0.1062
 8135SOL    HW135867   1.802   0.277   8.574  3.3427  1.1189 -0.6961
 8135SOL    HW235868   1.887   0.277   8.461 -0.2605  0.5932 -0.0979
 8136SOL     OW35869   1.452   1.149   4.583 -0.0887  0.0893  0.1187
 8136SOL    HW135870   1.504   1.068   4.578 -0.3679 -0.0260 -0.9227
 8136SOL    HW235871   1.449   1.167   4.677  1.3337 -1.4594  0.4629
 8137SOL     OW35872   2.040   2.885   9.196  0.5577 -0.1922 -0.4191
 8137SOL    HW135873   1.989   2.840   9.129 -1.5912 -0.2679  1.3026
 8137SOL    HW235874   2.001   2.832   9.265  1.3381  1.0705  0.9802
 8138SOL     OW35875   4.242   3.753   8.945 -0.1953 -0.0237  0.0594
 8138SOL    HW135876   4.194   3.828   8.911 -1.3312 -0.6196  0.3324
 8138SOL    HW235877   4.171   3.705   8.987 -0.4840  0.7754  0.4686
 8139SOL     OW35878   0.849   1.348  13.820 -0.2404 -0.2549  0.0908
 8139SOL    HW135879   0.854   1.443  13.831  0.9880 -0.3725  0.5674
 8139SOL    HW235880   0.774   1.336  13.877 -1.6736 -3.3076 -2.4039
 8140SOL     OW35881   0.150   0.681   8.785  0.6984  0.7068  0.4256
 8140SOL    HW135882   0.133   0.587   8.773  1.1755  0.4959  1.3901
 8140SOL    HW235883   0.218   0.694   8.719  1.0384  2.1732  1.0647
 8141SOL     OW35884   3.635   0.787  16.293 -0.6971  0.0305  0.2555
 8141SOL    HW135885   3.542   0.765  16.286 -1.5889  2.7481  3.0229
 8141SOL    HW235886   3.670   0.698  16.295  0.6181  0.5625  1.3312
 8142SOL     OW35887   2.818   2.387   2.756  0.4108 -0.3690  0.1260
 8142SOL    HW135888   2.820   2.343   2.841 -0.5663 -2.6947 -1.0383
 8142SOL    HW235889   2.771   2.467   2.781  2.7769  0.9794  0.2155
 8143SOL     OW35890   0.592   4.018   2.771  0.2554 -0.6360 -0.1002
 8143SOL    HW135891   0.502   4.050   2.778 -0.2233 -1.2417 -3.6497
 8143SOL    HW235892   0.621   4.080   2.839 -0.7254 -0.3514  0.0655
 8144SOL     OW35893   4.628   2.859   8.592 -0.2964 -0.4839  0.0303
 8144SOL    HW135894   4.674   2.931   8.550 -0.8937 -0.0832  0.0631
 8144SOL    HW235895   4.547   2.855   8.542 -0.8033  0.3094  0.7861
 8145SOL     OW35896   1.646   0.895   2.809 -0.0296 -0.4260  0.3514
 8145SOL    HW135897   1.704   0.927   2.740  0.8829  1.2766  1.9302
 8145SOL    HW235898   1.667   0.801   2.815  0.4868 -0.1972  2.1067
 8146SOL     OW35899   1.879   1.367  16.407  0.2927  0.3452  0.3430
 8146SOL    HW135900   1.812   1.358  16.475 -0.9781  0.4730 -0.8950
 8146SOL    HW235901   1.875   1.460  16.388  1.8592  0.1138 -1.1167
 8147SOL     OW35902   0.754   4.622   4.730  0.3833 -0.0672 -0.2198
 8147SOL    HW135903   0.739   4.669   4.648 -1.4202 -2.9634 -1.5311
 8147SOL    HW235904   0.683   4.558   4.729 -0.3295  0.7288 -0.4155
 8148SOL     OW35905   0.904   3.496  11.321 -0.5490 -0.1677  0.4593
 8148SOL    HW135906   0.923   3.538  11.405  0.9675 -2.3913  1.2183
 8148SOL    HW235907   0.854   3.416  11.335  0.1662 -0.2324  2.7070
 8149SOL     OW35908   0.890   1.895   3.896 -0.6808 -0.5662 -0.1363
 8149SOL    HW135909   0.814   1.910   3.951 -0.9869  0.1695 -0.7651
 8149SOL    HW235910   0.896   1.975   3.844 -1.4213 -1.0118 -0.9122
 8150SOL     OW35911   4.304   0.484   7.728 -0.0812  0.0744 -0.3568
 8150SOL    HW135912   4.346   0.487   7.642  1.2404 -1.4965  0.2255
 8150SOL    HW235913   4.355   0.539   7.787  1.2286 -1.3256 -0.1891
 8151SOL     OW35914   1.467   2.102   3.748 -0.5653 -0.2344 -0.2913
 8151SOL    HW135915   1.535   2.057   3.697  0.1350  0.8843 -0.3553
 8151SOL    HW235916   1.515   2.183   3.764 -2.1632  0.2523  2.0095
 8152SOL     OW35917   1.587   0.819   3.782  0.1319  0.2331 -0.2902
 8152SOL    HW135918   1.670   0.865   3.796  0.6263 -1.4960  2.5177
 8152SOL    HW235919   1.594   0.782   3.694  0.4062  0.1519 -0.2341
 8153SOL     OW35920   1.000   3.976   6.292 -0.0227 -0.2188  0.1245
 8153SOL    HW135921   0.945   3.963   6.370  3.4600 -0.8689  2.4857
 8153SOL    HW235922   0.941   4.037   6.249 -2.2887 -1.7814  1.0494
 8154SOL     OW35923   0.511   1.532   0.401  0.0384  0.1198 -0.0287
 8154SOL    HW135924   0.502   1.613   0.451 -1.1096  0.3630 -0.6218
 8154SOL    HW235925   0.578   1.492   0.455 -1.4910  0.5259  2.1942
 8155SOL     OW35926   4.362   2.697   4.307  0.6320 -0.2000  0.5160
 8155SOL    HW135927   4.428   2.723   4.371  1.4328 -0.6074 -0.1447
 8155SOL    HW235928   4.368   2.751   4.228  0.3250 -1.0855 -0.1180
 8156SOL     OW35929   3.332   4.165   7.693  0.2190 -0.2996 -0.3495
 8156SOL    HW135930   3.267   4.103   7.725 -2.0077  2.1672 -0.1244
 8156SOL    HW235931   3.266   4.229   7.666  0.8423  1.8158  3.1708
 8157SOL     OW35932   0.658   3.758  13.275 -0.1796 -0.1503 -0.3286
 8157SOL    HW135933   0.747   3.743  13.242  0.2324  1.5546  0.0186
 8157SOL    HW235934   0.597   3.737  13.204  0.9213 -1.0925 -0.9986
 8158SOL     OW35935   4.021   3.143  10.838  0.1691 -0.1029 -0.2513
 8158SOL    HW135936   4.084   3.215  10.830 -0.0429  0.2748  1.4302
 8158SOL    HW235937   4.068   3.076  10.788 -1.0939 -0.2886 -1.1614
 8159SOL     OW35938   1.838   3.776   7.875  0.8114 -0.3619 -0.8107
 8159SOL    HW135939   1.880   3.739   7.798 -1.7780 -1.3553 -1.7658
 8159SOL    HW235940   1.801   3.856   7.837  0.9257 -0.1892 -0.5582
 8160SOL     OW35941   4.520   0.523   5.788  0.0112  0.2012 -0.0997
 8160SOL    HW135942   4.484   0.578   5.718  0.2434  0.2950 -0.1465
 8160SOL    HW235943   4.458   0.539   5.859 -0.0577 -1.1449  0.1396
 8161SOL     OW35944   4.173   4.185  10.942  0.5140 -0.0757 -0.0884
 8161SOL    HW135945   4.196   4.237  11.019  0.2614  1.7376 -1.2561
 8161SOL    HW235946   4.143   4.110  10.993  0.1493 -0.7380 -1.2666
 8162SOL     OW35947   3.288   1.950   5.806  0.5553 -0.3773  0.2065
 8162SOL    HW135948   3.326   2.005   5.738  0.7069 -0.0457  0.5637
 8162SOL    HW235949   3.345   1.963   5.881  3.7635 -0.0971 -2.2778
 8163SOL     OW35950   0.511   4.175  11.575  0.0146 -0.1911  0.2196
 8163SOL    HW135951   0.436   4.234  11.577 -0.0838 -0.2926 -0.5893
 8163SOL    HW235952   0.582   4.240  11.578 -0.1342  0.0710 -2.5517
 8164SOL     OW35953   0.941   3.766  16.367 -0.3272 -1.0501  0.0134
 8164SOL    HW135954   0.988   3.809  16.438 -0.0716  0.4718 -1.0892
 8164SOL    HW235955   0.858   3.811  16.380  0.8996  0.5290  2.1987
 8165SOL     OW35956   0.563   2.094   7.884  0.1814 -0.3442 -0.7337
 8165SOL    HW135957   0.637   2.064   7.832 -0.3411 -0.6757 -1.2803
 8165SOL    HW235958   0.491   2.094   7.822  0.6871  2.9838 -1.3101
 8166SOL     OW35959   0.286   3.846   7.265  0.7027 -0.3465  0.3518
 8166SOL    HW135960   0.325   3.883   7.344 -2.3765  2.6170  0.4529
 8166SOL    HW235961   0.368   3.841   7.215 -0.0976 -1.2158 -0.8496
 8167SOL     OW35962   4.603   1.757  15.711  0.6914  0.0680  0.1604
 8167SOL    HW135963   4.573   1.806  15.788 -0.8356 -1.1223  0.3235
 8167SOL    HW235964   4.615   1.669  15.747  3.0198  0.5320  0.4650
 8168SOL     OW35965   0.294   0.357   8.596 -0.5311 -0.1695 -0.2616
 8168SOL    HW135966   0.299   0.446   8.562 -0.5707 -0.1863 -0.3100
 8168SOL    HW235967   0.240   0.368   8.675  0.7803  0.0223  0.6080
 8169SOL     OW35968   4.508   3.068   6.354 -0.1565 -0.1890  0.0156
 8169SOL    HW135969   4.432   3.037   6.304  1.2040 -4.2671  0.5279
 8169SOL    HW235970   4.517   2.983   6.396  0.3089 -0.3267 -0.3707
 8170SOL     OW35971   2.489   4.452   1.411 -0.3498  0.1772  0.4825
 8170SOL    HW135972   2.452   4.394   1.477  1.4489 -1.2417  0.2549
 8170SOL    HW235973   2.540   4.394   1.354  1.3358  0.0875  2.0867
 8171SOL     OW35974   3.075   4.709   9.607 -0.3330  0.3690  0.0252
 8171SOL    HW135975   3.130   4.631   9.608 -2.6411 -1.2876 -3.5240
 8171SOL    HW235976   3.077   0.004   9.702  2.0754 -1.1029  0.2399
 8172SOL     OW35977   3.687   0.246   5.149  0.0528  0.2840  0.2072
 8172SOL    HW135978   3.605   0.293   5.133  0.2841  1.2771  1.9607
 8172SOL    HW235979   3.654   0.157   5.165  0.7328  0.0055  0.0523
 8173SOL     OW35980   1.044   2.795   2.297  0.0242  0.1148 -0.2695
 8173SOL    HW135981   1.085   2.881   2.311 -1.4580  1.0972 -2.0406
 8173SOL    HW235982   0.994   2.819   2.220 -3.7385 -0.0891  2.1131
 8174SOL     OW35983   3.615   3.634  11.166 -0.1381  0.2232  0.2131
 8174SOL    HW135984   3.646   3.557  11.213  0.6038  1.4934  1.7882
 8174SOL    HW235985   3.626   3.604  11.076  1.3844 -0.1357  0.5233
 8175SOL     OW35986   0.783   1.108   5.438 -0.0411 -0.7648 -0.1170
 8175SOL    HW135987   0.845   1.144   5.374  2.8181  1.3532  3.8707
 8175SOL    HW235988   0.751   1.187   5.481  1.6501 -0.2418  0.1862
 8176SOL     OW35989   4.680   1.418   4.614  0.1257 -0.9036  0.4111
 8176SOL    HW135990   4.638   1.472   4.681  1.0034  1.6294 -1.1111
 8176SOL    HW235991   0.043   1.460   4.607  0.9280 -2.4422  0.7605
 8177SOL     OW35992   0.893   0.785  13.578  0.0956 -0.0301  0.1341
 8177SOL    HW135993   0.897   0.689  13.584  0.1036 -0.0072  0.5038
 8177SOL    HW235994   0.972   0.810  13.530  0.6167 -0.2574  0.8580
 8178SOL     OW35995   0.907   2.765   5.567  0.1917  0.3223 -0.7322
 8178SOL    HW135996   0.905   2.672   5.544 -0.4893 -0.5265  2.7134
 8178SOL    HW235997   0.854   2.804   5.497 -0.7130 -0.0096 -0.2304
 8179SOL     OW35998   0.625   2.491   5.969  0.8521  0.1719 -0.0668
 8179SOL    HW135999   0.705   2.494   6.021  1.8955 -0.1977 -1.6520
 8179SOL    HW236000   0.652   2.455   5.884  0.9419  0.0985 -0.0056
 8180SOL     OW36001   3.027   4.276   5.936  0.1638 -0.2113 -0.2000
 8180SOL    HW136002   3.121   4.259   5.947  0.4307  1.6059  0.3067
 8180SOL    HW236003   2.994   4.285   6.026 -1.1320  0.6955 -0.7781
 8181SOL     OW36004   2.356   0.395   4.279 -0.5569  0.6232  0.2705
 8181SOL    HW136005   2.318   0.429   4.360  2.2241 -0.3102  1.9719
 8181SOL    HW236006   2.295   0.436   4.218 -1.5141  0.1666  0.9316
 8182SOL     OW36007   0.107   2.215   5.548 -0.1139  0.7062 -0.1068
 8182SOL    HW136008   0.040   2.283   5.555 -1.8339 -1.2944  2.8635
 8182SOL    HW236009   0.153   2.242   5.468 -2.2261  1.5495 -1.0235
 8183SOL     OW36010   3.024   0.754  10.709 -0.4925  0.0170 -0.6651
 8183SOL    HW136011   3.104   0.704  10.700 -0.4996 -0.1190  0.0166
 8183SOL    HW236012   2.963   0.688  10.742 -1.3922  0.2683 -1.8331
 8184SOL     OW36013   3.010   1.924   6.766  0.1847 -0.2934 -0.2571
 8184SOL    HW136014   3.047   1.839   6.791 -0.9224 -1.0246 -1.1158
 8184SOL    HW236015   2.967   1.898   6.685  1.1824  0.2949 -0.9722
 8185SOL     OW36016   2.351   2.074   0.174  0.0238  0.0893 -0.5588
 8185SOL    HW136017   2.279   2.023   0.135 -1.4557  0.2623  1.8969
 8185SOL    HW236018   2.307   2.157   0.194  0.7219  0.6191 -1.2313
 8186SOL     OW36019   1.690   0.323   9.056 -0.1444  0.6561  0.5454
 8186SOL    HW136020   1.634   0.269   9.112  0.3921 -1.5775 -1.1097
 8186SOL    HW236021   1.770   0.345   9.102 -0.0568 -1.8774  1.5855
 8187SOL     OW36022   2.928   3.551   2.813  0.3911  0.8258  0.0767
 8187SOL    HW136023   2.942   3.543   2.907  1.7603  0.6609 -0.1378
 8187SOL    HW236024   2.991   3.621   2.799 -1.5893  2.5661 -0.1233
 8188SOL     OW36025   0.751   1.234  10.808 -0.4354 -0.0797  0.0237
 8188SOL    HW136026   0.816   1.301  10.787 -1.0607  0.6209  0.3694
 8188SOL    HW236027   0.798   1.191  10.879 -0.5970 -0.9652 -0.3950
 8189SOL     OW36028   0.557   0.457   6.523  0.0550 -0.5802  0.7243
 8189SOL    HW136029   0.651   0.442   6.532  0.3560  1.6146  1.1849
 8189SOL    HW236030   0.571   0.521   6.454 -3.6569  0.3828  0.8765
 8190SOL     OW36031   3.838   0.825  17.159  0.5075  0.0014  0.2725
 8190SOL    HW136032   3.821   0.916  17.132 -2.9852 -0.9843 -0.9144
 8190SOL    HW236033   3.759   0.778  17.133  0.0182  1.0131 -0.0823
 8191SOL     OW36034   0.175   0.902   2.536 -0.5497  0.0099 -0.0152
 8191SOL    HW136035   0.147   0.978   2.486  0.5448  1.2484  1.2526
 8191SOL    HW236036   0.180   0.834   2.469 -1.1818 -0.6474  0.5990
 8192SOL     OW36037   1.488   1.087   0.224 -0.1266  0.1503 -0.4189
 8192SOL    HW136038   1.518   1.176   0.243 -2.3304  1.1028 -1.4597
 8192SOL    HW236039   1.421   1.077   0.292 -0.9643 -2.5445 -1.6569
 8193SOL     OW36040   4.615   3.040  16.416 -0.1983  0.6353  0.2827
 8193SOL    HW136041   4.691   2.982  16.416 -1.3700 -0.9183 -0.4288
 8193SOL    HW236042   4.587   3.033  16.325 -1.9027 -2.8018  1.0709
 8194SOL     OW36043   4.063   3.099   9.281 -0.6381 -0.1265  0.1676
 8194SOL    HW136044   4.146   3.081   9.237  0.0168  0.3758  1.1980
 8194SOL    HW236045   4.025   3.167   9.224 -1.8778  0.0230  1.1637
 8195SOL     OW36046   4.007   1.559   9.103 -0.0300  0.0621 -0.5860
 8195SOL    HW136047   3.998   1.463   9.105 -0.9846  0.0882 -2.7532
 8195SOL    HW236048   3.951   1.590   9.174  0.1481 -0.5955 -0.1650
 8196SOL     OW36049   4.552   1.341   8.089  0.0194  0.4917  0.3300
 8196SOL    HW136050   4.603   1.286   8.149  0.4691 -0.7257 -1.1362
 8196SOL    HW236051   4.602   1.422   8.096  2.1114 -0.7633 -0.0787
 8197SOL     OW36052   4.021   1.640   0.452 -0.5477  0.0391  0.4467
 8197SOL    HW136053   3.988   1.595   0.530  0.3412 -2.1347 -0.4306
 8197SOL    HW236054   3.939   1.653   0.405  0.5666  2.6198 -0.7789
 8198SOL     OW36055   1.626   2.503   0.068 -0.5264 -0.1345 -0.0486
 8198SOL    HW136056   1.593   2.582   0.026 -1.8740 -0.5673  0.1936
 8198SOL    HW236057   1.713   2.489   0.031 -1.5116 -0.3377 -2.2449
 8199SOL     OW36058   0.571   4.363   3.794 -0.5601  0.0002 -0.0384
 8199SOL    HW136059   0.655   4.383   3.753 -0.5636 -1.3748 -0.7225
 8199SOL    HW236060   0.585   4.396   3.883  0.9040  1.2001 -0.7206
 8200SOL     OW36061   0.141   3.615   8.056  0.1248 -0.3974 -0.4031
 8200SOL    HW136062   0.147   3.545   7.991  1.9384  0.8166 -1.5408
 8200SOL    HW236063   0.057   3.658   8.038 -0.6200 -1.4879  0.4572
 8201SOL     OW36064   2.417   0.900   4.390 -0.1436  0.2955 -0.3203
 8201SOL    HW136065   2.463   0.821   4.361  1.1661  0.4381  1.3896
 8201SOL    HW236066   2.477   0.966   4.356 -0.3219 -0.0500 -1.3143
 8202SOL     OW36067   2.538   4.200   6.410 -0.1682 -0.6077 -0.4070
 8202SOL    HW136068   2.491   4.128   6.452 -0.2579  0.5482  1.4681
 8202SOL    HW236069   2.523   4.165   6.322  0.7070 -1.0215 -0.3897
 8203SOL     OW36070   2.611   1.689   3.043  0.3948 -0.2221 -0.6013
 8203SOL    HW136071   2.602   1.696   2.947  2.3519  0.2343 -0.7384
 8203SOL    HW236072   2.704   1.704   3.058  0.2015  1.6080 -1.3105
 8204SOL     OW36073   0.481   1.185   7.581  0.0733  0.2205 -0.8277
 8204SOL    HW136074   0.543   1.119   7.548  0.9989  0.1672  1.0062
 8204SOL    HW236075   0.414   1.133   7.624 -0.0393 -1.6732 -3.2876
 8205SOL     OW36076   0.575   1.575  11.319 -0.2506  1.0518 -0.1150
 8205SOL    HW136077   0.633   1.629  11.373  0.9234 -1.2444  0.9252
 8205SOL    HW236078   0.587   1.613  11.232  1.3088  0.9093  0.0381
 8206SOL     OW36079   4.377   3.919   6.567 -0.2880 -0.3224 -0.2529
 8206SOL    HW136080   4.441   3.880   6.508 -1.5292  0.7963 -2.3360
 8206SOL    HW236081   4.434   3.930   6.644  2.0756  1.6322 -2.2587
 8207SOL     OW36082   1.694   1.132   8.883 -0.0820 -0.1360 -0.0891
 8207SOL    HW136083   1.603   1.127   8.912  0.6405 -0.4493  2.1128
 8207SOL    HW236084   1.688   1.126   8.787 -1.3409 -0.6687  0.0311
 8208SOL     OW36085   0.954   4.242   7.557  0.2985 -0.2233  0.6113
 8208SOL    HW136086   1.030   4.189   7.582  0.6223  0.9335  2.1276
 8208SOL    HW236087   0.905   4.182   7.501 -0.8647 -0.4250  1.8330
 8209SOL     OW36088   2.643   0.587   9.277  0.4048 -0.2306  0.4397
 8209SOL    HW136089   2.583   0.647   9.233  0.8234 -0.2124 -0.1080
 8209SOL    HW236090   2.707   0.553   9.214  0.4518  1.5469 -0.4597
 8210SOL     OW36091   2.016   2.235   4.700  0.4457 -0.5675 -0.5813
 8210SOL    HW136092   2.060   2.284   4.631  2.4128 -0.5432  0.6761
 8210SOL    HW236093   1.997   2.149   4.664 -0.4585 -0.7114  0.2302
 8211SOL     OW36094   3.350   0.831   4.289 -0.5826 -0.5178  0.6479
 8211SOL    HW136095   3.430   0.821   4.239  0.1939  1.7212  1.4118
 8211SOL    HW236096   3.285   0.841   4.220  0.6251 -0.0295 -0.4040
 8212SOL     OW36097   0.298   0.643  12.380  0.4201  0.3223  0.0366
 8212SOL    HW136098   0.265   0.612  12.464  1.1088 -0.1214  0.1470
 8212SOL    HW236099   0.215   0.672  12.343  0.7344  0.9502 -0.1706
 8213SOL     OW36100   1.259   3.159   6.981  0.7283  0.1726 -0.7827
 8213SOL    HW136101   1.351   3.185   6.979  0.7470  0.0964 -0.8837
 8213SOL    HW236102   1.240   3.132   6.891 -0.2321  1.0436 -0.8430
 8214SOL     OW36103   4.565   2.254   2.664  0.1952 -0.0380 -0.4032
 8214SOL    HW136104   4.584   2.160   2.674 -0.4680 -0.1637 -0.3276
 8214SOL    HW236105   4.477   2.250   2.627  0.2795 -0.2097 -0.5850
 8215SOL     OW36106   4.117   0.911   4.605  0.4349 -0.2905 -0.1985
 8215SOL    HW136107   4.023   0.896   4.615  0.4771 -1.1744 -1.1900
 8215SOL    HW236108   4.147   0.895   4.694  0.0644 -1.8344 -0.3607
 8216SOL     OW36109   0.048   0.880   5.419  0.0214 -0.4346  0.2235
 8216SOL    HW136110   0.121   0.864   5.358  1.1150  0.7987  1.1875
 8216SOL    HW236111   4.696   0.863   5.362 -0.4617 -0.4586  0.8626
 8217SOL     OW36112   2.003   2.326   4.436  0.0784  0.3348 -0.1214
 8217SOL    HW136113   1.915   2.346   4.402  0.4777  0.2576 -1.1868
 8217SOL    HW236114   2.030   2.256   4.378 -1.7402 -1.2818  0.9637
 8218SOL     OW36115   0.143   2.549   8.384 -0.6888 -0.0506 -0.0782
 8218SOL    HW136116   0.132   2.598   8.466  0.9153  0.1809 -0.0092
 8218SOL    HW236117   0.050   2.534   8.366 -0.5832 -1.7502  0.7756
 8219SOL     OW36118   0.026   2.102  15.743  0.2797  0.1729  0.2615
 8219SOL    HW136119   0.013   2.079  15.651 -2.9692 -0.8700  0.9642
 8219SOL    HW236120   0.010   2.027  15.801 -1.5816  2.3911  2.6590
 8220SOL     OW36121   1.112   0.088  12.389  0.3384  0.1663  0.2440
 8220SOL    HW136122   1.183   0.110  12.450 -0.1459 -2.1054  1.6425
 8220SOL    HW236123   1.037   0.090  12.448 -0.6923  2.8772 -1.1990
 8221SOL     OW36124   0.654   2.808   3.622  0.4865  0.3652 -0.0063
 8221SOL    HW136125   0.723   2.792   3.687 -0.2489 -1.4085  0.3251
 8221SOL    HW236126   0.600   2.874   3.664 -0.6371 -0.7256  0.2649
 8222SOL     OW36127   4.556   0.969  11.956  0.0308  0.1410  0.3162
 8222SOL    HW136128   4.652   0.974  11.955  0.0057  0.7438  1.1981
 8222SOL    HW236129   4.528   1.039  11.897  1.7077 -0.0663 -0.7473
 8223SOL     OW36130   0.466   3.243   4.497 -0.6928 -0.2273 -0.6452
 8223SOL    HW136131   0.494   3.176   4.559  0.0176 -0.7335 -1.5169
 8223SOL    HW236132   0.545   3.294   4.481 -0.1399 -1.5051 -1.9283
 8224SOL     OW36133   1.820   2.963  14.102 -0.1334 -0.2500  0.4696
 8224SOL    HW136134   1.801   2.950  14.009 -0.1591  1.5027  0.2394
 8224SOL    HW236135   1.890   3.028  14.098  1.7505 -2.2092  1.5159
 8225SOL     OW36136   3.986   3.925  16.244 -0.1488  0.0189  0.0980
 8225SOL    HW136137   4.042   4.001  16.229 -1.5026  0.8945 -0.4999
 8225SOL    HW236138   3.907   3.944  16.195 -1.1960  0.0982  1.8152
 8226SOL     OW36139   4.190   1.474  14.081 -0.2882 -0.4048 -0.1638
 8226SOL    HW136140   4.248   1.432  14.144 -1.7244 -0.8406  0.8808
 8226SOL    HW236141   4.169   1.408  14.016 -0.5692  1.6642 -2.1610
 8227SOL     OW36142   0.725   3.814  14.771  0.4100 -0.0853  0.5259
 8227SOL    HW136143   0.791   3.869  14.813  0.7600  1.0938 -1.5421
 8227SOL    HW236144   0.639   3.851  14.790  1.5537  1.3958  2.8794
 8228SOL     OW36145   0.886   3.762   6.932 -0.8351  0.3507  0.0284
 8228SOL    HW136146   0.822   3.754   7.003  0.7932  0.2243  1.4676
 8228SOL    HW236147   0.867   3.689   6.873 -1.2371  1.0653 -0.7303
 8229SOL     OW36148   3.446   3.128   4.623  0.4108  0.1368 -0.4720
 8229SOL    HW136149   3.377   3.107   4.686  0.8303 -1.5412 -0.5587
 8229SOL    HW236150   3.521   3.100   4.677  0.8683  0.8341 -0.7560
 8230SOL     OW36151   4.018   1.419   7.539 -0.2939  0.1456  0.0620
 8230SOL    HW136152   4.074   1.352   7.499  1.9198  1.5297  0.8537
 8230SOL    HW236153   4.021   1.490   7.475  0.1390 -1.4314 -1.6852
 8231SOL     OW36154   3.474   1.395   3.341  0.1667 -1.0416  0.2239
 8231SOL    HW136155   3.399   1.345   3.374 -0.2930 -1.3846 -1.3294
 8231SOL    HW236156   3.521   1.321   3.304 -0.2293 -2.7980  3.1626
 8232SOL     OW36157   3.252   4.630   6.980 -0.1126  0.0907 -0.4113
 8232SOL    HW136158   3.221   4.585   7.058  2.3354 -0.0457  0.5039
 8232SOL    HW236159   3.272   4.720   7.008 -1.3073  0.3001 -0.2507
 8233SOL     OW36160   3.776   3.570  13.960 -0.7228  0.0849  1.3992
 8233SOL    HW136161   3.850   3.539  13.909 -1.3890 -0.6412  0.8773
 8233SOL    HW236162   3.791   3.664  13.946  2.6943 -0.9287 -1.5421
 8234SOL     OW36163   2.143   3.196  10.153  0.7302 -0.1364  0.1499
 8234SOL    HW136164   2.117   3.285  10.129 -3.4424 -1.2873  0.3423
 8234SOL    HW236165   2.205   3.179  10.082  0.7257  0.9476 -0.1026
 8235SOL     OW36166   2.167   2.483   4.114 -0.1820 -0.4067  0.1641
 8235SOL    HW136167   2.196   2.395   4.091  0.1381 -0.4300  0.6735
 8235SOL    HW236168   2.225   2.495   4.189  1.4803  2.3315 -1.5522
 8236SOL     OW36169   4.654   3.162   2.880  0.7257  0.2749  0.6298
 8236SOL    HW136170   0.004   3.170   2.817 -0.5170  0.5644 -0.7466
 8236SOL    HW236171   4.620   3.250   2.864 -0.0823 -0.5274 -2.0689
 8237SOL     OW36172   0.949   2.723  10.995  0.3586  0.4434  0.1257
 8237SOL    HW136173   0.869   2.671  10.983  1.3206 -0.7034 -1.4517
 8237SOL    HW236174   0.968   2.692  11.084 -0.2273 -1.9054 -0.5466
 8238SOL     OW36175   3.475   2.881   9.383 -0.1736 -0.3543 -0.3442
 8238SOL    HW136176   3.424   2.959   9.362 -0.7566 -0.8952 -0.9494
 8238SOL    HW236177   3.470   2.837   9.299  0.0055 -1.0252 -0.0027
 8239SOL     OW36178   3.875   2.784   6.423 -0.1030 -0.2389 -0.1236
 8239SOL    HW136179   3.913   2.872   6.430 -0.0408 -0.3148  0.4895
 8239SOL    HW236180   3.807   2.792   6.489 -0.7708  3.0907 -1.2091
 8240SOL     OW36181   4.284   2.966   6.194  0.1328 -0.2872  0.1321
 8240SOL    HW136182   4.210   2.909   6.213 -0.5149  0.7124  0.5955
 8240SOL    HW236183   4.264   2.970   6.100  1.7250 -1.1393 -0.2318
 8241SOL     OW36184   0.706   0.295   1.438  0.5845  0.3784  0.2875
 8241SOL    HW136185   0.786   0.270   1.392 -0.2368  0.6536 -1.2700
 8241SOL    HW236186   0.750   0.312   1.522 -0.8821  1.1321  0.9018
 8242SOL     OW36187   1.995   3.885   5.263 -0.8762 -0.1163 -0.5489
 8242SOL    HW136188   1.907   3.894   5.226 -1.2347  0.1386  0.3495
 8242SOL    HW236189   1.989   3.960   5.322  0.6918 -1.1869  0.9890
 8243SOL     OW36190   2.775   4.633  12.121  0.2223 -0.3497  0.2536
 8243SOL    HW136191   2.817   4.667  12.042 -0.8711 -1.2074 -0.6824
 8243SOL    HW236192   2.742   4.715  12.159  0.2940  0.2401 -0.9661
 8244SOL     OW36193   0.305   2.091   7.338 -0.1210 -0.0053 -0.0766
 8244SOL    HW136194   0.350   2.016   7.298 -3.8305 -1.3774 -1.7444
 8244SOL    HW236195   0.353   2.164   7.299 -0.5379 -0.2107 -0.9742
 8245SOL     OW36196   2.551   3.669  12.289  0.1255  0.3223  0.6056
 8245SOL    HW136197   2.590   3.672  12.377  3.8133  0.7792 -1.0304
 8245SOL    HW236198   2.622   3.618  12.249 -0.3491  0.5892 -0.5667
 8246SOL     OW36199   3.406   2.828   7.201 -0.4321 -0.5479 -0.1120
 8246SOL    HW136200   3.405   2.888   7.126  1.0357 -0.5196 -0.1082
 8246SOL    HW236201   3.451   2.754   7.162 -1.9423  0.1589 -3.1918
 8247SOL     OW36202   1.766   4.709   8.535  0.0027  0.4129  0.2998
 8247SOL    HW136203   1.771   0.079   8.512 -0.9921 -0.0317 -1.7186
 8247SOL    HW236204   1.732   4.718   8.624  1.2916  3.0738  0.5236
 8248SOL     OW36205   0.731   2.528  14.429 -0.0828  0.0772 -0.2967
 8248SOL    HW136206   0.818   2.567  14.416  0.3666 -1.1387 -0.8831
 8248SOL    HW236207   0.684   2.600  14.471  2.1441  1.0172  0.6135
 8249SOL     OW36208   2.472   4.535   4.981  0.5190 -0.1453  0.6589
 8249SOL    HW136209   2.403   4.517   5.044  2.6838  1.1524  3.3818
 8249SOL    HW236210   2.443   4.552   4.891 -0.5852 -4.4166  0.2284
 8250SOL     OW36211   1.644   2.000  11.187  0.1678 -0.2822  0.7461
 8250SOL    HW136212   1.656   1.906  11.193 -0.4880 -0.4315 -0.3839
 8250SOL    HW236213   1.572   2.009  11.249 -0.5795  1.7958 -0.4232
 8251SOL     OW36214   2.505   2.635   3.846  0.1128  0.2131  0.0241
 8251SOL    HW136215   2.504   2.574   3.772  1.7014  0.0244  0.1689
 8251SOL    HW236216   2.420   2.678   3.834  0.4968  0.3050 -2.2749
 8252SOL     OW36217   3.778   4.274   0.164 -0.0457 -0.0858 -0.6594
 8252SOL    HW136218   3.730   4.321   0.232  0.2869 -1.3648  0.4646
 8252SOL    HW236219   3.720   4.281   0.088 -1.3147 -2.5517  0.0554
 8253SOL     OW36220   2.135   1.640   2.804 -0.1423 -0.0001 -0.4951
 8253SOL    HW136221   2.120   1.681   2.719 -1.1956  0.1694 -0.2270
 8253SOL    HW236222   2.131   1.712   2.867 -0.1246 -0.4895  0.0789
 8254SOL     OW36223   1.370   2.078  14.936  0.1999  0.1197 -0.1256
 8254SOL    HW136224   1.406   2.137  15.003 -0.0302 -0.7089  0.7358
 8254SOL    HW236225   1.347   2.135  14.863  2.7908  0.2640 -0.8202
 8255SOL     OW36226   0.194   0.954  14.654  0.2053 -0.3446 -0.1242
 8255SOL    HW136227   0.227   0.954  14.564 -0.8388 -0.3941 -0.5110
 8255SOL    HW236228   0.099   0.949  14.642  0.2900 -0.6645 -0.6941
 8256SOL     OW36229   1.088   3.611   9.389 -0.1702  0.5179 -0.6926
 8256SOL    HW136230   1.073   3.519   9.370 -3.4602  1.2498 -1.5985
 8256SOL    HW236231   1.008   3.636   9.436  0.6661 -0.8135  1.4350
 8257SOL     OW36232   3.641   0.887  12.600  0.1157 -0.0265  0.1436
 8257SOL    HW136233   3.674   0.958  12.544  1.0939 -0.4546  0.1870
 8257SOL    HW236234   3.689   0.809  12.572 -0.3821 -1.1168  2.3364
 8258SOL     OW36235   4.026   0.105   6.580 -0.5818  0.3390  0.4946
 8258SOL    HW136236   4.024   0.031   6.640  0.1737  0.4441  0.6411
 8258SOL    HW236237   4.103   0.155   6.608 -0.4798  0.0789  0.6718
 8259SOL     OW36238   1.202   3.696   4.137  0.4393  0.3762  0.3122
 8259SOL    HW136239   1.288   3.661   4.113 -0.3220 -1.2525 -0.0165
 8259SOL    HW236240   1.174   3.660   4.221  0.0371  1.3658  0.6115
 8260SOL     OW36241   1.961   3.860   8.893  0.7981 -0.3550 -0.7426
 8260SOL    HW136242   1.994   3.797   8.829  0.1967  1.0299 -2.4064
 8260SOL    HW236243   1.872   3.831   8.911  0.9400 -1.4489 -1.8651
 8261SOL     OW36244   0.255   4.642   4.749 -0.0234 -0.3716 -0.3446
 8261SOL    HW136245   0.208   4.578   4.695 -0.0766  0.2936 -1.0765
 8261SOL    HW236246   0.225   4.628   4.839 -0.7618 -0.9269 -0.6756
 8262SOL     OW36247   2.623   1.318   7.537 -0.9533 -0.1603  0.1573
 8262SOL    HW136248   2.715   1.341   7.540 -0.6847 -1.1083 -0.6725
 8262SOL    HW236249   2.607   1.293   7.628 -0.4969 -1.2130 -0.0444
 8263SOL     OW36250   3.578   2.027   9.462  0.5974  0.1657  0.2938
 8263SOL    HW136251   3.616   2.084   9.529  2.8646 -0.9073 -0.0951
 8263SOL    HW236252   3.657   2.015   9.411 -0.0049 -0.2169 -0.5498
 8264SOL     OW36253   0.262   4.567  15.633  0.0678  0.1909  0.0905
 8264SOL    HW136254   0.300   4.652  15.652 -2.0916  0.8763  1.2657
 8264SOL    HW236255   0.179   4.581  15.587 -1.1204 -2.5522  1.4062
 8265SOL     OW36256   2.402   2.202   5.703 -0.3515  0.2363 -0.0986
 8265SOL    HW136257   2.345   2.131   5.731  1.7520 -0.2259  3.0037
 8265SOL    HW236258   2.466   2.152   5.652  2.3254  2.6825  0.8252
 8266SOL     OW36259   1.495   4.622  12.594 -0.1153 -0.3366 -0.0250
 8266SOL    HW136260   1.530   4.689  12.535 -0.5760  1.4941  1.7725
 8266SOL    HW236261   1.539   4.643  12.676  0.7057 -2.3386  0.0505
 8267SOL     OW36262   3.003   2.079   5.989 -0.7794 -0.0741  0.2015
 8267SOL    HW136263   2.953   2.160   5.991 -0.3405  0.1822  0.6451
 8267SOL    HW236264   3.000   2.064   5.894 -0.7806 -1.8759  0.4872
 8268SOL     OW36265   0.135   2.772   2.703  0.2669  0.9915  0.1099
 8268SOL    HW136266   0.175   2.742   2.621 -0.8517 -1.5104  0.4762
 8268SOL    HW236267   0.206   2.835   2.719 -0.3597  1.1056  2.3999
 8269SOL     OW36268   3.970   0.714   9.565  0.1316 -0.0141 -0.1361
 8269SOL    HW136269   3.956   0.804   9.595 -0.1779  1.0178 -3.4199
 8269SOL    HW236270   3.992   0.677   9.651 -1.1087  1.6750  0.9150
 8270SOL     OW36271   1.322   0.880   1.725 -0.1868 -0.1229 -0.4814
 8270SOL    HW136272   1.360   0.794   1.704  0.6807 -0.1132  0.9909
 8270SOL    HW236273   1.340   0.881   1.819 -0.8859 -0.1585 -0.3479
 8271SOL     OW36274   2.116   1.726   5.905  0.0018  0.1555  0.0163
 8271SOL    HW136275   2.095   1.817   5.883 -3.4911 -0.3113  1.5587
 8271SOL    HW236276   2.032   1.687   5.928  0.1310  1.2352  2.2681
 8272SOL     OW36277   1.500   3.972   6.362 -0.0915 -0.8449  0.1760
 8272SOL    HW136278   1.477   3.990   6.452 -0.1500 -0.4785  0.0841
 8272SOL    HW236279   1.420   3.984   6.311  0.3697  0.3187 -0.2621
 8273SOL     OW36280   1.038   2.044   7.051 -0.5950 -0.2726  0.5894
 8273SOL    HW136281   1.129   2.022   7.032 -0.4575 -0.2951  1.2781
 8273SOL    HW236282   0.990   1.962   7.037 -1.5199  0.0327  2.0091
 8274SOL     OW36283   1.493   2.548   0.816  0.2873  0.1616 -0.3239
 8274SOL    HW136284   1.429   2.548   0.745 -2.4362 -1.8897  2.0893
 8274SOL    HW236285   1.480   2.633   0.857  1.4105 -0.4320  1.2803
 8275SOL     OW36286   4.455   2.284   7.572 -0.6973  0.5402  0.0054
 8275SOL    HW136287   4.417   2.362   7.612 -2.0855 -0.0191 -0.2213
 8275SOL    HW236288   4.520   2.324   7.515 -1.6106  1.5938 -0.2943
 8276SOL     OW36289   4.144   2.922   7.633  0.1672 -0.3736  0.2481
 8276SOL    HW136290   4.200   2.908   7.710 -1.5437  1.7048  1.8859
 8276SOL    HW236291   4.122   3.014   7.645  2.4400  0.0610  1.2217
 8277SOL     OW36292   4.356   2.814   9.556  0.1647  0.3297 -0.2725
 8277SOL    HW136293   4.312   2.843   9.476 -1.3844  2.5640  1.3803
 8277SOL    HW236294   4.281   2.769   9.596 -0.6741  1.7569 -0.2512
 8278SOL     OW36295   2.006   1.437  13.351 -0.6246 -0.1512 -0.1992
 8278SOL    HW136296   1.993   1.427  13.256 -1.2646 -1.5309  0.0350
 8278SOL    HW236297   1.916   1.419  13.376 -0.3271 -1.5541 -0.1235
 8279SOL     OW36298   0.948   3.950   3.312 -0.3250 -0.3672 -0.0082
 8279SOL    HW136299   0.992   4.029   3.342 -2.4295  0.5316  0.6915
 8279SOL    HW236300   0.857   3.978   3.306  0.0938  0.8937 -0.4981
 8280SOL     OW36301   3.441   4.275   6.469  0.3204  0.1733 -0.3636
 8280SOL    HW136302   3.521   4.225   6.454 -0.2005 -1.0261  0.7799
 8280SOL    HW236303   3.465   4.299   6.558 -0.5864  2.1383 -0.6508
 8281SOL     OW36304   4.442   2.919   1.739 -0.2251 -0.1817 -0.1781
 8281SOL    HW136305   4.363   2.874   1.709 -0.6896 -1.1766  2.5257
 8281SOL    HW236306   4.413   2.943   1.827  1.7230  1.0976  0.1167
 8282SOL     OW36307   0.537   3.586   5.512  0.2098  0.0627  0.4506
 8282SOL    HW136308   0.557   3.677   5.532 -0.1792  0.0917  0.7102
 8282SOL    HW236309   0.466   3.564   5.573 -1.1327  2.0408 -0.4095
 8283SOL     OW36310   0.662   2.797  15.870  0.1135  0.2704  0.3993
 8283SOL    HW136311   0.735   2.814  15.929 -0.4586  1.3112  0.7999
 8283SOL    HW236312   0.626   2.885  15.872 -0.3398  0.2263 -4.2925
 8284SOL     OW36313   3.767   3.260  11.100 -0.0327 -0.1394  0.1937
 8284SOL    HW136314   3.850   3.215  11.112  0.7273  0.9106 -1.1635
 8284SOL    HW236315   3.763   3.303  11.185 -3.4346 -2.2303  1.0776
 8285SOL     OW36316   1.460   3.912   8.580  0.5964 -0.2966 -0.5119
 8285SOL    HW136317   1.414   3.858   8.516  2.5254 -1.0877 -1.2320
 8285SOL    HW236318   1.474   3.841   8.643 -1.8282 -1.0938 -0.8811
 8286SOL     OW36319   2.276   4.367  10.094 -0.3756  1.0234  0.3567
 8286SOL    HW136320   2.365   4.356  10.125  0.0537  0.1988 -1.1986
 8286SOL    HW236321   2.237   4.287  10.130  1.5274  0.6181  1.4882
 8287SOL     OW36322   1.753   4.718   5.103  0.1867 -0.0627 -0.1365
 8287SOL    HW136323   1.780   4.637   5.147 -5.1499 -0.6633  2.0533
 8287SOL    HW236324   1.683   4.682   5.048 -0.2893 -2.1872  1.8407
 8288SOL     OW36325   0.011   1.958   4.635 -0.5704  0.5808 -0.3208
 8288SOL    HW136326   0.079   2.014   4.673 -0.0586  1.5641 -2.6466
 8288SOL    HW236327   0.063   1.917   4.565 -1.3642 -1.8689  0.5436
 8289SOL     OW36328   1.464   4.377  13.899 -0.4476 -0.6925  0.6802
 8289SOL    HW136329   1.543   4.407  13.854 -2.5283 -0.9035 -3.1219
 8289SOL    HW236330   1.461   4.289  13.861 -1.4915  0.3276 -1.5976
 8290SOL     OW36331   3.536   4.008   9.243 -0.0419 -0.5204  0.0223
 8290SOL    HW136332   3.582   4.040   9.321  2.1858 -0.2961 -1.4035
 8290SOL    HW236333   3.451   4.051   9.250 -0.5470 -1.8721  2.2770
 8291SOL     OW36334   0.354   1.274   3.095 -0.0290 -0.2544  0.3897
 8291SOL    HW136335   0.416   1.337   3.057 -1.5214  0.7062 -0.4706
 8291SOL    HW236336   0.413   1.224   3.151  2.1439  0.9067 -0.8829
 8292SOL     OW36337   2.996   0.413   3.698 -0.7818  0.0752 -0.7555
 8292SOL    HW136338   3.051   0.394   3.623  0.7511  0.6204  0.2393
 8292SOL    HW236339   3.047   0.385   3.773 -2.8527  3.3007  1.8746
 8293SOL     OW36340   4.107   1.959   0.688 -0.0193 -0.0027  0.1016
 8293SOL    HW136341   4.095   2.020   0.761  2.0842  0.0958  0.3697
 8293SOL    HW236342   4.014   1.955   0.665  0.7560 -0.9845 -2.8263
 8294SOL     OW36343   0.306   0.350   5.119 -0.1547  0.4101  0.1279
 8294SOL    HW136344   0.289   0.441   5.094 -0.0907  1.0500  2.4828
 8294SOL    HW236345   0.232   0.308   5.075  0.4861 -0.3162 -0.2545
 8295SOL     OW36346   2.836   1.543   7.857  0.3081  0.0195  0.3027
 8295SOL    HW136347   2.761   1.601   7.848 -0.5812 -1.2468 -0.3913
 8295SOL    HW236348   2.902   1.612   7.861 -0.0211  0.3812 -0.6165
 8296SOL     OW36349   2.791   3.888  12.379  0.3308  0.2143 -0.2577
 8296SOL    HW136350   2.761   3.978  12.363  1.3704  0.7062  0.5606
 8296SOL    HW236351   2.731   3.869  12.451 -0.5802 -1.9936 -1.6147
 8297SOL     OW36352   2.088   1.084   4.637 -0.6789 -0.0325 -0.1227
 8297SOL    HW136353   2.172   1.071   4.682  0.3606  0.6575 -1.8371
 8297SOL    HW236354   2.054   0.995   4.642  0.6794 -0.4041  2.6241
 8298SOL     OW36355   3.139   1.427  15.423  0.1368 -0.3425 -0.3604
 8298SOL    HW136356   3.104   1.499  15.371  1.7708  0.8893  0.2672
 8298SOL    HW236357   3.074   1.426  15.493  0.6731 -2.4365  0.1250
 8299SOL     OW36358   2.199   2.617   2.192 -0.6007  0.3124 -0.6910
 8299SOL    HW136359   2.141   2.581   2.258  0.9752  0.8584  0.9868
 8299SOL    HW236360   2.161   2.703   2.174 -0.5280  0.8457  1.7111
 8300SOL     OW36361   3.378   0.076  10.978 -0.1007  0.1748 -0.1759
 8300SOL    HW136362   3.385   0.118  11.064  2.2941 -2.2047  0.8008
 8300SOL    HW236363   3.467   0.046  10.959 -0.0713  0.3123 -0.2525
 8301SOL     OW36364   1.170   1.927   5.755  0.6483 -0.4586 -0.1962
 8301SOL    HW136365   1.200   2.002   5.704  1.3655  0.8443  2.1406
 8301SOL    HW236366   1.225   1.935   5.832 -0.4910 -0.4803  0.6299
 8302SOL     OW36367   1.231   3.445  10.749 -0.1430 -0.2089 -0.1714
 8302SOL    HW136368   1.151   3.451  10.697  0.2560  0.7013 -0.6765
 8302SOL    HW236369   1.235   3.536  10.779  1.2999  0.3249 -1.9636
 8303SOL     OW36370   3.333   0.283  17.620 -0.8457  0.1115  0.0486
 8303SOL    HW136371   3.284   0.298   0.011 -1.1560  0.3182 -0.1778
 8303SOL    HW236372   3.396   0.215  17.640 -1.6432 -0.8757 -0.7619
 8304SOL     OW36373   2.386   0.724   3.911  0.0143 -0.0027  0.7151
 8304SOL    HW136374   2.374   0.750   4.003  0.0903 -2.6909  1.4854
 8304SOL    HW236375   2.442   0.649   3.928  0.1596 -0.2292 -0.7714
 8305SOL     OW36376   4.581   2.966   9.691 -0.1608  0.3303  0.6245
 8305SOL    HW136377   4.648   2.983   9.625  0.4974 -1.1942  0.9077
 8305SOL    HW236378   4.505   2.938   9.640  1.6195 -0.7078 -1.4655
 8306SOL     OW36379   2.526   2.364  12.978  0.1638 -0.0268  0.3635
 8306SOL    HW136380   2.582   2.380  12.902  0.7303 -0.7402  0.6275
 8306SOL    HW236381   2.457   2.307  12.945 -1.7945  2.9860 -0.7376
 8307SOL     OW36382   1.655   2.526  11.987  0.1540 -0.3439  0.1796
 8307SOL    HW136383   1.696   2.451  11.945  1.8591  0.9705 -0.5235
 8307SOL    HW236384   1.618   2.494  12.069  1.4582  0.9310  1.2688
 8308SOL     OW36385   0.102   3.255   9.970 -0.0029 -0.6947  0.2632
 8308SOL    HW136386   0.132   3.207  10.048 -2.4487 -0.4222  1.3624
 8308SOL    HW236387   0.174   3.234   9.910  0.0723  0.6839 -0.1269
 8309SOL     OW36388   2.019   3.803   8.321 -0.1568  0.5527 -0.1913
 8309SOL    HW136389   1.979   3.754   8.249 -0.6622  0.7057 -0.0202
 8309SOL    HW236390   2.078   3.865   8.278  0.4479  0.0737 -0.0386
 8310SOL     OW36391   1.298   2.213   0.964  0.5850  0.5753 -0.3895
 8310SOL    HW136392   1.374   2.232   0.909  0.3061  0.4208 -0.8288
 8310SOL    HW236393   1.290   2.295   1.014 -1.0486  0.4088 -0.3781
 8311SOL     OW36394   0.009   1.759   7.558  0.3611  0.4580  0.0701
 8311SOL    HW136395   4.695   1.773   7.645  3.4826  1.5400  1.1478
 8311SOL    HW236396   4.720   1.848   7.526  0.0350  0.4584  0.1788
 8312SOL     OW36397   4.235   1.373  13.810 -0.1277  0.1901 -0.4224
 8312SOL    HW136398   4.236   1.291  13.760 -1.0886 -0.4604  0.6365
 8312SOL    HW236399   4.175   1.426  13.757 -0.8893 -0.7858 -0.5360
 8313SOL     OW36400   0.010   0.751  14.138 -0.3665  0.3343 -0.3832
 8313SOL    HW136401   4.678   0.715  14.209 -0.2725 -0.6299 -0.8050
 8313SOL    HW236402   4.682   0.832  14.125 -1.4357 -0.4848 -1.4146
 8314SOL     OW36403   1.652   2.192   3.975  0.1817  0.2137 -0.7914
 8314SOL    HW136404   1.643   2.100   4.000  0.8551  0.2668 -0.3660
 8314SOL    HW236405   1.735   2.191   3.927  0.6643 -0.0838  0.0655
 8315SOL     OW36406   0.410   3.071  10.666 -0.3204  0.1282  0.4271
 8315SOL    HW136407   0.347   3.088  10.737  1.6699  0.3387  2.1365
 8315SOL    HW236408   0.394   2.979  10.649 -2.7095  0.4722  0.7014
 8316SOL     OW36409   3.335   4.517   7.838  0.1006  0.0210 -0.2318
 8316SOL    HW136410   3.377   4.561   7.913 -2.0759  1.9743 -0.1586
 8316SOL    HW236411   3.241   4.531   7.848 -0.2122 -3.3793  1.5999
 8317SOL     OW36412   0.291   3.877   1.160  0.2335 -0.3115  0.5023
 8317SOL    HW136413   0.228   3.822   1.207 -1.8663  0.3231 -1.5934
 8317SOL    HW236414   0.346   3.890   1.237 -0.8968  0.9137  1.1188
 8318SOL     OW36415   0.323   2.998   8.605 -0.3595  0.0118  0.4020
 8318SOL    HW136416   0.375   3.044   8.671 -0.4515  2.0206 -0.9206
 8318SOL    HW236417   0.270   2.949   8.668  1.9697 -2.3931  0.4993
 8319SOL     OW36418   0.896   1.019  10.140  0.0434 -0.2900 -0.1915
 8319SOL    HW136419   0.935   0.963  10.207 -1.2780 -0.9390  0.0409
 8319SOL    HW236420   0.810   0.976  10.140 -0.9879  1.7192  1.6573
 8320SOL     OW36421   4.434   2.597   5.191  0.1493  0.4575  0.3370
 8320SOL    HW136422   4.355   2.554   5.161 -0.1600 -1.1006  3.4092
 8320SOL    HW236423   4.492   2.530   5.155  0.5734  1.0371 -0.0728
 8321SOL     OW36424   3.983   4.069   9.395 -0.7494  0.4473 -0.4349
 8321SOL    HW136425   3.927   4.000   9.358 -0.1128 -0.7552  0.8553
 8321SOL    HW236426   3.929   4.147   9.406 -1.8759 -0.7567  2.4262
 8322SOL     OW36427   4.636   4.441   2.217 -0.1165  0.1389 -0.7988
 8322SOL    HW136428   4.561   4.383   2.228  0.5627 -0.7840 -1.0044
 8322SOL    HW236429   4.594   4.527   2.220 -0.2550 -0.0571  2.3554
 8323SOL     OW36430   2.683   2.860   6.571 -0.1965 -0.1875 -0.2147
 8323SOL    HW136431   2.716   2.770   6.568  1.5592  0.4494  0.3574
 8323SOL    HW236432   2.740   2.919   6.522  0.3503  0.0154  0.6671
 8324SOL     OW36433   4.131   2.168   0.891  0.1663  0.2715 -0.0735
 8324SOL    HW136434   4.158   2.183   0.982  0.3045 -0.5467  0.0114
 8324SOL    HW236435   4.206   2.214   0.853  0.8192 -1.1923 -0.5126
 8325SOL     OW36436   1.518   2.719  10.631 -0.0871  0.4548 -0.2057
 8325SOL    HW136437   1.518   2.813  10.615 -1.6657  0.7121  1.3598
 8325SOL    HW236438   1.520   2.717  10.726  2.2604  2.0731 -0.2166
 8326SOL     OW36439   1.446   3.618   9.941  0.9563  0.2007  0.1486
 8326SOL    HW136440   1.503   3.684   9.981 -1.1463  1.9277  0.3246
 8326SOL    HW236441   1.363   3.632   9.987  1.3785 -0.7289  1.1809
 8327SOL     OW36442   4.528   0.644   6.471 -0.4532  0.4395 -0.1427
 8327SOL    HW136443   4.521   0.635   6.376 -2.0744  1.1676 -0.0906
 8327SOL    HW236444   4.457   0.584   6.495  0.4239 -1.3536 -2.0227
 8328SOL     OW36445   0.843   3.785   7.900  0.3201 -0.5789 -1.0646
 8328SOL    HW136446   0.925   3.739   7.918  1.0447  0.4339 -1.7706
 8328SOL    HW236447   0.847   3.842   7.977 -0.8109 -3.1605  0.9197
 8329SOL     OW36448   3.215   1.582   3.606  0.4085 -0.6449 -0.2796
 8329SOL    HW136449   3.303   1.552   3.627  0.2532  0.0310  1.3664
 8329SOL    HW236450   3.197   1.525   3.531  1.3475 -3.5831  1.7733
 8330SOL     OW36451   0.425   1.578  14.247 -0.2005 -1.3362  0.4804
 8330SOL    HW136452   0.487   1.615  14.310  2.6073 -0.3193 -2.8319
 8330SOL    HW236453   0.367   1.650  14.222  0.9162  0.4920  3.1047
 8331SOL     OW36454   1.175   4.412  12.951  0.2423  0.2240 -0.1859
 8331SOL    HW136455   1.174   4.507  12.967  1.3067  0.7539 -3.2732
 8331SOL    HW236456   1.104   4.424  12.888 -0.4010  2.0038  0.8866
 8332SOL     OW36457   3.877   3.901  11.546  0.0232 -0.3896  0.4998
 8332SOL    HW136458   3.937   3.968  11.511  0.1673 -0.6770  0.1982
 8332SOL    HW236459   3.946   3.840  11.572  0.9902  0.0641 -0.9590
 8333SOL     OW36460   2.734   4.225   4.172  0.0056  0.1129  0.0413
 8333SOL    HW136461   2.821   4.185   4.181  1.1695  2.3524 -1.5270
 8333SOL    HW236462   2.717   4.204   4.080  1.4585 -0.2021 -0.1540
 8334SOL     OW36463   2.861   3.812   3.031 -0.1204 -0.4947  0.5778
 8334SOL    HW136464   2.926   3.781   3.094 -0.7578  0.9413  1.9295
 8334SOL    HW236465   2.852   3.905   3.055 -1.9127 -0.8464  1.2345
 8335SOL     OW36466   3.537   0.917   7.247  0.0651  0.0957  0.0800
 8335SOL    HW136467   3.586   0.836   7.229 -0.0499  0.2493 -0.9029
 8335SOL    HW236468   3.450   0.876   7.247  0.5053 -0.8458 -1.1315
 8336SOL     OW36469   2.014   1.480   4.362 -0.0082 -0.1987  0.2214
 8336SOL    HW136470   2.025   1.388   4.386  1.5617  0.3872  1.6931
 8336SOL    HW236471   2.012   1.462   4.268  0.5669 -0.4681  0.2668
 8337SOL     OW36472   3.952   3.850   1.318  0.1432 -0.1806 -0.4910
 8337SOL    HW136473   3.985   3.939   1.331  0.6224 -0.6454  1.4935
 8337SOL    HW236474   3.910   3.843   1.403  1.0229  1.2882  0.0678
 8338SOL     OW36475   2.253   1.342   8.513  0.3034  0.0276  0.1102
 8338SOL    HW136476   2.210   1.374   8.433  0.9702  3.5669  1.1799
 8338SOL    HW236477   2.180   1.328   8.573  0.3039  0.3127  0.1803
 8339SOL     OW36478   0.475   4.655   3.224  0.1531 -0.0041  0.3122
 8339SOL    HW136479   0.525   4.574   3.208  2.8919  1.6964  0.2546
 8339SOL    HW236480   0.539   4.711   3.268  1.5626  0.4302 -2.2929
 8340SOL     OW36481   4.326   1.371   5.471  0.2067  0.0513 -0.1858
 8340SOL    HW136482   4.383   1.308   5.517  0.0138  0.3234  0.4316
 8340SOL    HW236483   4.325   1.328   5.385 -0.3967  0.1151 -0.2097
 8341SOL     OW36484   0.281   2.599   5.753 -0.1579 -0.2857  0.1953
 8341SOL    HW136485   0.292   2.508   5.779  1.6253 -0.2851 -0.5917
 8341SOL    HW236486   0.371   2.620   5.728 -0.6868  1.7212 -0.0412
 8342SOL     OW36487   0.204   3.273   3.592 -0.5394  0.1879  0.5264
 8342SOL    HW136488   0.127   3.263   3.537 -0.8400  1.9987  0.6083
 8342SOL    HW236489   0.264   3.283   3.518  0.2059 -2.7874  0.7380
 8343SOL     OW36490   0.909   4.196   2.042  0.1099 -1.0013  0.4793
 8343SOL    HW136491   0.898   4.152   1.958 -0.7601 -2.2224  1.2288
 8343SOL    HW236492   0.822   4.234   2.058  0.9913  1.1973 -0.0537
 8344SOL     OW36493   3.800   0.637   6.935 -0.3229 -0.2177 -0.2742
 8344SOL    HW136494   3.741   0.570   6.970  1.9662 -1.6834  0.7808
 8344SOL    HW236495   3.849   0.599   6.863 -0.8066  1.0345 -1.2612
 8345SOL     OW36496   1.566   1.716  16.533  0.4093 -0.2187 -0.4956
 8345SOL    HW136497   1.634   1.675  16.587 -0.2066  0.8175  1.0680
 8345SOL    HW236498   1.494   1.654  16.542 -1.0027  1.8454  2.6362
 8346SOL     OW36499   0.719   2.524   3.800 -0.2702 -0.2402  0.0928
 8346SOL    HW136500   0.781   2.471   3.849 -0.4319  1.0509  1.7023
 8346SOL    HW236501   0.656   2.550   3.867 -0.6442  1.8251 -1.0695
 8347SOL     OW36502   0.401   4.340   5.013 -0.8917 -0.2964 -0.6217
 8347SOL    HW136503   0.396   4.245   5.019  0.7053 -0.2360  1.5740
 8347SOL    HW236504   0.411   4.363   5.106 -0.4576  0.7247 -0.9188
 8348SOL     OW36505   3.479   0.448   9.152  0.2255 -0.3088  0.2122
 8348SOL    HW136506   3.387   0.475   9.144 -0.2087 -1.2589  1.8360
 8348SOL    HW236507   3.473   0.390   9.228  0.6489 -0.6924 -0.0500
 8349SOL     OW36508   2.815   3.856   7.944  0.3598  0.5654  0.0470
 8349SOL    HW136509   2.787   3.920   7.879  0.6360 -0.0613 -0.6909
 8349SOL    HW236510   2.800   3.774   7.897 -3.8111  0.6300  1.2632
 8350SOL     OW36511   0.071   0.272   9.691  0.2569 -0.1378  0.3393
 8350SOL    HW136512   0.135   0.225   9.745 -0.2380 -0.5652  0.5597
 8350SOL    HW236513   0.097   0.363   9.700 -0.1490  0.0205 -0.1124
 8351SOL     OW36514   0.619   1.341   0.593 -0.1800 -0.1065  0.6656
 8351SOL    HW136515   0.670   1.324   0.672 -0.3176  2.8485  1.3707
 8351SOL    HW236516   0.544   1.285   0.615 -2.1157  1.5468 -1.7388
 8352SOL     OW36517   0.927   0.885   7.693 -0.4444  0.3099  0.1817
 8352SOL    HW136518   1.010   0.912   7.652 -0.6674 -1.0592 -1.1585
 8352SOL    HW236519   0.949   0.797   7.722  0.2601  0.0003 -1.2622
 8353SOL     OW36520   0.565   3.995   8.098  0.0086 -0.1242 -0.0748
 8353SOL    HW136521   0.504   3.995   8.171 -0.0678  1.4609 -0.1556
 8353SOL    HW236522   0.621   3.924   8.131  1.5216  1.2256  0.2643
 8354SOL     OW36523   1.082   3.572   6.464  0.2995  0.2009  0.3568
 8354SOL    HW136524   1.119   3.507   6.404 -0.9091  0.4574 -0.6615
 8354SOL    HW236525   1.004   3.531   6.501  0.0387 -1.6966 -2.2627
 8355SOL     OW36526   2.124   1.109   6.213 -0.1513  0.1588  0.1264
 8355SOL    HW136527   2.161   1.197   6.223  0.0116  0.1471 -0.3902
 8355SOL    HW236528   2.132   1.081   6.304  0.3067 -1.3055 -0.3700
 8356SOL     OW36529   2.152   2.341   3.630 -0.0743 -0.5366  0.3370
 8356SOL    HW136530   2.239   2.333   3.592  0.0963 -1.0234  0.8447
 8356SOL    HW236531   2.155   2.262   3.684  0.9709 -0.3016  0.6158
 8357SOL     OW36532   0.456   2.178   3.125 -0.1377 -0.3465  0.1227
 8357SOL    HW136533   0.464   2.269   3.153  2.2618 -0.3091 -0.6530
 8357SOL    HW236534   0.475   2.184   3.031  0.2595  0.4002  0.2522
 8358SOL     OW36535   3.928   3.373   3.926  0.1102  0.1502  0.1825
 8358SOL    HW136536   3.926   3.386   3.831 -1.2751 -0.3297  0.1443
 8358SOL    HW236537   3.993   3.434   3.960 -0.1541 -1.5038  3.6996
 8359SOL     OW36538   3.695   0.129   2.181 -0.5365  0.0364 -0.0574
 8359SOL    HW136539   3.696   0.132   2.086 -0.4644 -1.9994 -0.1217
 8359SOL    HW236540   3.756   0.200   2.202  1.3700 -0.8264 -2.6977
 8360SOL     OW36541   1.631   0.861   6.768 -0.1146 -0.4169 -0.6016
 8360SOL    HW136542   1.709   0.861   6.823  1.5707  1.1883 -3.0110
 8360SOL    HW236543   1.571   0.882   6.839 -1.2714 -0.7534 -1.4741
 8361SOL     OW36544   1.832   0.925   3.746  0.2134 -0.1991 -0.5560
 8361SOL    HW136545   1.867   0.954   3.830 -0.7454  0.0616 -0.2479
 8361SOL    HW236546   1.898   0.868   3.706  1.3458  1.8409 -1.6059
 8362SOL     OW36547   2.055   1.528   4.979  0.2955 -0.2124 -0.2977
 8362SOL    HW136548   2.132   1.582   4.957 -2.2909  2.2103 -3.3978
 8362SOL    HW236549   2.032   1.547   5.070  1.3684 -0.8891  0.1070
 8363SOL     OW36550   0.043   3.705   0.069 -0.2307  0.4507 -0.1515
 8363SOL    HW136551   0.026   3.798   0.089 -1.1753  0.9041 -3.1012
 8363SOL    HW236552   4.700   3.671   0.131 -0.7904 -0.4647 -1.2515
 8364SOL     OW36553   3.911   1.975   1.002  0.3737 -0.1912 -0.2321
 8364SOL    HW136554   3.938   2.063   0.974 -3.1920  1.9617  3.0847
 8364SOL    HW236555   3.820   1.998   1.022 -0.8817 -3.1494 -2.4839
 8365SOL     OW36556   1.397   0.343   8.522 -0.0595  0.1253 -0.4048
 8365SOL    HW136557   1.361   0.431   8.524 -1.5417 -0.5171  0.6476
 8365SOL    HW236558   1.480   0.346   8.473 -0.8084 -2.5997 -1.8157
 8366SOL     OW36559   0.141   2.575   7.564  0.0264  0.1140 -0.4052
 8366SOL    HW136560   0.201   2.585   7.490  0.7205  0.4425  0.2006
 8366SOL    HW236561   0.169   2.650   7.616  0.3196 -0.8188  0.7801
 8367SOL     OW36562   0.522   1.628   6.740 -0.5902  0.4257 -0.4189
 8367SOL    HW136563   0.442   1.607   6.788  1.1398 -1.5242  1.6301
 8367SOL    HW236564   0.487   1.697   6.684  0.7211 -0.2717 -2.0685
 8368SOL     OW36565   3.839   2.326   9.595  0.2812  0.2670  0.0603
 8368SOL    HW136566   3.888   2.401   9.627 -0.5826  0.6193  0.5660
 8368SOL    HW236567   3.893   2.284   9.529 -0.1459  2.1199 -1.4512
 8369SOL     OW36568   1.959   0.112   4.963  0.1525 -0.4503 -0.3709
 8369SOL    HW136569   2.007   0.126   5.044 -0.4835  0.4093 -0.1442
 8369SOL    HW236570   1.879   0.071   4.996  1.0781 -0.6100  1.6678
 8370SOL     OW36571   3.941   1.679  11.433 -0.4367 -0.0829  0.1107
 8370SOL    HW136572   3.859   1.720  11.407  0.2164  0.4968 -0.9955
 8370SOL    HW236573   3.960   1.734  11.509 -2.0390  0.8895 -0.2075
 8371SOL     OW36574   1.491   2.262   5.246 -0.7781  0.2164 -0.1182
 8371SOL    HW136575   1.501   2.288   5.154  1.1858 -0.7327 -0.1599
 8371SOL    HW236576   1.525   2.334   5.299  0.7488  0.1213 -0.9596
 8372SOL     OW36577   2.783   0.774   7.441 -0.3811 -0.1592 -0.3137
 8372SOL    HW136578   2.856   0.805   7.386 -1.5355  3.0576 -0.0776
 8372SOL    HW236579   2.717   0.840   7.419  1.4993  0.7568 -3.2720
 8373SOL     OW36580   0.715   2.263   0.407  0.3914  0.1732  0.0038
 8373SOL    HW136581   0.691   2.312   0.486 -0.3429  0.1509 -0.2048
 8373SOL    HW236582   0.809   2.258   0.420  0.4959 -0.4234 -1.0029
 8374SOL     OW36583   0.870   3.475   5.166 -0.2880 -0.5816  0.4708
 8374SOL    HW136584   0.852   3.511   5.253 -1.1737  0.6980 -0.2462
 8374SOL    HW236585   0.850   3.384   5.188  0.8873 -0.8916  0.2491
 8375SOL     OW36586   2.375   2.346  11.870 -0.2446 -0.3586 -0.1233
 8375SOL    HW136587   2.459   2.360  11.826 -0.0104  0.2388  0.5143
 8375SOL    HW236588   2.388   2.397  11.950 -2.5221 -1.3465  0.8888
 8376SOL     OW36589   3.429   1.750   6.895  0.2391  0.4325  0.1143
 8376SOL    HW136590   3.438   1.678   6.958  0.2908 -1.2228 -1.7543
 8376SOL    HW236591   3.414   1.823   6.955 -0.5875  0.6775 -0.3993
 8377SOL     OW36592   2.554   2.698   2.185  0.0423  0.6307  0.2375
 8377SOL    HW136593   2.644   2.699   2.152 -0.1349 -4.1807 -0.5209
 8377SOL    HW236594   2.542   2.789   2.212 -2.3729  0.0880  0.9742
 8378SOL     OW36595   3.312   2.141   2.417 -0.4941  0.0375 -0.2262
 8378SOL    HW136596   3.343   2.073   2.357 -2.2571 -1.5643  0.6586
 8378SOL    HW236597   3.349   2.223   2.383  1.0792 -0.8433 -0.6511
 8379SOL     OW36598   0.333   1.921   7.554 -0.1121  0.3779  0.6680
 8379SOL    HW136599   0.282   1.954   7.628 -2.8800  2.1238 -2.0580
 8379SOL    HW236600   0.339   2.003   7.506  0.4212  1.1191  1.9997
 8380SOL     OW36601   3.289   1.888   4.669  0.2906 -0.4337  0.3675
 8380SOL    HW136602   3.358   1.953   4.683  0.2092 -0.3327  0.2940
 8380SOL    HW236603   3.344   1.830   4.616  0.2409 -1.3529  1.3254
 8381SOL     OW36604   1.535   4.457   6.849 -0.2398  0.0759  0.6739
 8381SOL    HW136605   1.604   4.436   6.911  0.7725 -0.2167 -0.5483
 8381SOL    HW236606   1.592   4.439   6.774 -0.6433 -1.7426  0.7834
 8382SOL     OW36607   2.984   2.891  16.628 -0.1614 -0.3477 -0.0280
 8382SOL    HW136608   2.896   2.889  16.665 -0.7113 -0.0239 -1.3250
 8382SOL    HW236609   3.033   2.931  16.700 -1.1271  1.6035 -0.4632
 8383SOL     OW36610   0.398   3.987  16.473  0.2143  0.4822  0.4308
 8383SOL    HW136611   0.460   3.990  16.401  0.6023  1.1341  0.7908
 8383SOL    HW236612   0.349   4.069  16.469 -1.4785 -0.4424  1.7601
 8384SOL     OW36613   2.868   0.704   9.800 -0.3658 -0.0569  0.3934
 8384SOL    HW136614   2.859   0.619   9.757  0.8547  0.2649 -0.4829
 8384SOL    HW236615   2.937   0.751   9.754  1.0146 -0.5894  1.9587
 8385SOL     OW36616   4.463   1.163  11.781  0.1714 -0.3205  0.2572
 8385SOL    HW136617   4.488   1.175  11.690  1.7067  0.1405  0.7413
 8385SOL    HW236618   4.382   1.117  11.761  1.7844 -2.8707 -0.4213
 8386SOL     OW36619   0.187   0.435   2.975 -0.1739 -0.5627  0.2230
 8386SOL    HW136620   0.169   0.356   3.025  2.8264 -1.6715 -0.4822
 8386SOL    HW236621   0.134   0.424   2.895 -0.4531 -3.0449  0.7467
 8387SOL     OW36622   4.615   3.970  15.938 -0.2164 -0.4276 -0.4323
 8387SOL    HW136623   4.531   3.925  15.946  0.9107 -2.7471 -1.8493
 8387SOL    HW236624   4.653   3.960  16.025 -1.1806  0.8982  0.1541
 8388SOL     OW36625   3.506   3.904   5.260 -0.5400 -0.0432 -0.1777
 8388SOL    HW136626   3.483   3.991   5.226 -1.7686 -0.4266 -0.3240
 8388SOL    HW236627   3.467   3.841   5.200 -2.5677 -0.3931  1.4914
 8389SOL     OW36628   3.351   2.503  17.557  0.0993  0.0841  0.2879
 8389SOL    HW136629   3.394   2.464  17.481  0.7435  0.9775  0.2044
 8389SOL    HW236630   3.272   2.449  17.551  0.0637  0.3739 -1.9243
 8390SOL     OW36631   2.389   0.173  14.145  0.3556 -0.1378 -1.1698
 8390SOL    HW136632   2.452   0.242  14.167 -0.4524  0.0276  0.6226
 8390SOL    HW236633   2.381   0.190  14.051  0.4212 -0.5743 -1.2511
 8391SOL     OW36634   2.160   4.340   2.643  0.3820  0.1529  0.2983
 8391SOL    HW136635   2.211   4.317   2.721 -2.0265 -2.4159  1.1083
 8391SOL    HW236636   2.208   4.419   2.618  1.8758 -1.4990 -2.0928
 8392SOL     OW36637   0.646   1.483  10.535 -0.2236  0.4208 -0.3407
 8392SOL    HW136638   0.702   1.546  10.489 -1.1510  0.5638 -1.2609
 8392SOL    HW236639   0.617   1.531  10.612  0.7334 -1.2771  1.0781
 8393SOL     OW36640   0.223   2.879   4.401  0.1750 -0.0047 -0.8251
 8393SOL    HW136641   0.318   2.864   4.402  0.3501  1.1715  0.2569
 8393SOL    HW236642   0.200   2.811   4.464 -0.8739 -0.9497 -2.2170
 8394SOL     OW36643   2.934   3.900   8.801  0.1251 -0.2681 -0.7362
 8394SOL    HW136644   2.859   3.841   8.807 -1.2888  1.5473 -0.7591
 8394SOL    HW236645   2.889   3.971   8.755  2.1472  0.8018 -1.0629
 8395SOL     OW36646   0.771   3.481   8.888  1.0965  0.2854  0.2643
 8395SOL    HW136647   0.756   3.407   8.828  0.9769  0.4365  0.1067
 8395SOL    HW236648   0.677   3.494   8.902  1.1262  1.0058 -0.1893
 8396SOL     OW36649   2.550   1.221   3.607 -0.0499  0.0150  0.0910
 8396SOL    HW136650   2.473   1.214   3.551 -1.0654  1.3693  1.3006
 8396SOL    HW236651   2.512   1.285   3.667 -1.6856 -1.8993  1.1086
 8397SOL     OW36652   1.847   0.854   2.385 -0.0599  0.6502 -0.8127
 8397SOL    HW136653   1.909   0.827   2.318 -0.6949  0.3671 -1.2819
 8397SOL    HW236654   1.767   0.813   2.354  0.2799 -0.8098  0.2415
 8398SOL     OW36655   2.405   1.504   8.026  0.2162 -0.4698  0.4169
 8398SOL    HW136656   2.420   1.580   8.082  1.6001 -1.1177  0.9301
 8398SOL    HW236657   2.468   1.438   8.054  0.7247 -0.2994 -0.3090
 8399SOL     OW36658   1.954   3.499   9.448  0.0922  0.1071 -0.0396
 8399SOL    HW136659   2.046   3.511   9.425 -0.5069  3.0389 -0.9636
 8399SOL    HW236660   1.929   3.590   9.430  1.7979  0.7634  0.9510
 8400SOL     OW36661   2.363   2.868   8.592  0.6215 -0.0446 -0.4646
 8400SOL    HW136662   2.441   2.882   8.646  0.5029 -0.4776 -0.1912
 8400SOL    HW236663   2.390   2.937   8.531  0.2745  0.3448 -0.1802
 8401SOL     OW36664   2.837   2.723   8.087 -0.4695  0.2111  0.0572
 8401SOL    HW136665   2.799   2.758   8.168 -1.6046  0.0853 -0.4188
 8401SOL    HW236666   2.919   2.772   8.093  0.0766 -0.5585 -1.2439
 8402SOL     OW36667   4.188   1.586   5.361  0.3675  0.3937 -0.6009
 8402SOL    HW136668   4.165   1.545   5.278 -1.2554 -0.0818  0.0971
 8402SOL    HW236669   4.239   1.517   5.402  1.9089  2.0265  0.2483
 8403SOL     OW36670   4.259   1.610   2.082  0.0976 -0.3049  0.1971
 8403SOL    HW136671   4.242   1.525   2.041 -1.4386  0.0942 -0.0042
 8403SOL    HW236672   4.176   1.607   2.131  0.6408  0.7058  1.1684
 8404SOL     OW36673   3.974   0.162   3.285 -0.1122  0.1625  0.5859
 8404SOL    HW136674   4.000   0.220   3.357  1.2673 -1.4562  1.3944
 8404SOL    HW236675   3.907   0.111   3.329 -1.3309  0.4161 -0.9964
 8405SOL     OW36676   2.028   2.769   9.795  0.5352 -0.1442 -0.2012
 8405SOL    HW136677   1.982   2.798   9.874  2.1408 -1.0329  1.0853
 8405SOL    HW236678   2.085   2.844   9.778 -0.5106  0.5984 -0.4198
 8406SOL     OW36679   0.222   1.323   2.460 -0.2519 -0.3909 -0.1974
 8406SOL    HW136680   0.152   1.257   2.458 -1.9044  1.3486  0.4481
 8406SOL    HW236681   0.281   1.272   2.404  1.0950  1.5540 -0.5302
 8407SOL     OW36682   3.835   0.820   9.369  0.6742  0.2523 -0.4333
 8407SOL    HW136683   3.759   0.792   9.420  1.4008 -1.3500 -0.2384
 8407SOL    HW236684   3.906   0.800   9.429  2.5004 -0.5113 -2.8420
 8408SOL     OW36685   2.517   1.697   3.413  0.3212  0.2784  0.4631
 8408SOL    HW136686   2.465   1.616   3.411  0.0271  0.4524  1.1706
 8408SOL    HW236687   2.527   1.697   3.317 -3.7818  2.8787  0.0704
 8409SOL     OW36688   2.386   1.760   3.163 -0.5008 -0.1992 -0.1466
 8409SOL    HW136689   2.462   1.729   3.115  0.6695 -0.5165  1.9191
 8409SOL    HW236690   2.315   1.704   3.133  0.2443 -1.2088 -0.0075
 8410SOL     OW36691   3.568   1.271   3.076 -0.4743  0.7216 -0.1460
 8410SOL    HW136692   3.555   1.354   3.030  0.1448 -0.8982 -3.2569
 8410SOL    HW236693   3.532   1.206   3.016 -1.3748 -0.2348  1.4167
 8411SOL     OW36694   4.407   2.918   6.737  0.1845 -0.2653 -0.5587
 8411SOL    HW136695   4.331   2.976   6.744 -0.4031 -1.2558  1.4343
 8411SOL    HW236696   4.360   2.835   6.745  0.5008 -0.3471  0.3871
 8412SOL     OW36697   2.002   1.103   8.613  0.6384  0.5857  0.1727
 8412SOL    HW136698   2.072   1.038   8.609 -0.2407 -0.2845 -1.3162
 8412SOL    HW236699   1.920   1.054   8.612  0.0117  1.6553 -0.6553
 8413SOL     OW36700   1.200   0.953   6.177  0.1006  0.3442 -0.2067
 8413SOL    HW136701   1.197   1.029   6.236  0.1394  0.5365 -0.4520
 8413SOL    HW236702   1.135   0.979   6.111  1.9824  1.7611 -1.4883
 8414SOL     OW36703   4.376   2.344   4.025  0.3177 -0.4689 -0.7174
 8414SOL    HW136704   4.450   2.398   4.051  1.0691 -1.0131 -1.7584
 8414SOL    HW236705   4.312   2.413   4.006  1.8794  1.1992  0.1356
 8415SOL     OW36706   2.433   1.217   7.383  0.2626  0.5020 -0.1730
 8415SOL    HW136707   2.371   1.279   7.422  0.7421 -0.5333  2.2195
 8415SOL    HW236708   2.513   1.238   7.431 -0.4806  3.2300 -0.0780
 8416SOL     OW36709   0.734   2.042   5.774 -0.3418  0.4505  0.4175
 8416SOL    HW136710   0.800   1.975   5.763 -1.4837 -0.5428 -0.3149
 8416SOL    HW236711   0.721   2.073   5.684  3.3641  1.2161  0.1551
 8417SOL     OW36712   0.064   3.383   3.935 -0.0828  0.1404 -0.0402
 8417SOL    HW136713   0.075   3.345   4.023 -1.4959 -0.7947 -0.2587
 8417SOL    HW236714   4.707   3.340   3.902  0.1016 -1.0205  1.0270
 8418SOL     OW36715   2.429   0.191   4.817 -0.0490 -0.3496  0.0475
 8418SOL    HW136716   2.462   0.233   4.738 -0.9033  1.4061  0.6249
 8418SOL    HW236717   2.511   0.175   4.865  1.3043  0.3435 -2.0353
 8419SOL     OW36718   0.700   0.657  11.740 -0.0156 -0.7092 -0.1195
 8419SOL    HW136719   0.609   0.631  11.729  0.2697 -1.7028 -0.1920
 8419SOL    HW236720   0.714   0.689  11.830  1.0276 -1.3834 -0.0399
 8420SOL     OW36721   4.555   4.533   3.194 -0.0621  0.7180 -0.1331
 8420SOL    HW136722   4.529   4.513   3.104 -2.0271 -0.4046  0.6934
 8420SOL    HW236723   4.525   4.623   3.190 -2.5225 -0.2282 -3.0286
 8421SOL     OW36724   3.740   0.116  13.523  0.5723 -0.3468  0.2505
 8421SOL    HW136725   3.651   0.122  13.557  1.7797  1.8223  3.0905
 8421SOL    HW236726   3.712   0.165  13.445 -1.1054 -2.3480 -0.3911
 8422SOL     OW36727   0.943   3.022  16.804  0.3291  0.4023 -0.4585
 8422SOL    HW136728   0.852   3.043  16.822  0.6771  0.0945  1.6591
 8422SOL    HW236729   0.944   3.029  16.708  3.2909  1.2516 -0.3665
 8423SOL     OW36730   3.471   1.575   5.776 -0.0916  0.0519  0.0413
 8423SOL    HW136731   3.446   1.483   5.777 -0.0609  0.0353 -0.4251
 8423SOL    HW236732   3.398   1.624   5.812  0.0388  1.1739 -1.2111
 8424SOL     OW36733   4.079   4.375   6.097 -0.1095  0.5097  0.8276
 8424SOL    HW136734   4.130   4.429   6.037  0.6948  0.1056  1.1486
 8424SOL    HW236735   3.991   4.399   6.067  0.5349 -0.5114 -1.8711
 8425SOL     OW36736   4.651   1.205  17.445  0.3703 -0.6847 -0.2183
 8425SOL    HW136737   4.602   1.148  17.505  0.1902 -0.0004  0.2839
 8425SOL    HW236738   4.663   1.145  17.371 -1.0582  1.1138 -1.8985
 8426SOL     OW36739   0.138   2.397   9.302 -0.0701  0.2561 -0.1075
 8426SOL    HW136740   0.198   2.373   9.372  0.3916  0.7410 -0.3351
 8426SOL    HW236741   0.138   2.493   9.305 -2.5423  0.1846  2.0838
 8427SOL     OW36742   2.240   2.386   3.226 -0.3126 -0.3806 -0.9665
 8427SOL    HW136743   2.250   2.320   3.295 -0.5420 -0.1654 -0.7252
 8427SOL    HW236744   2.211   2.458   3.281  1.7276  1.6479 -2.5835
 8428SOL     OW36745   2.252   3.268  15.875  1.0172 -0.3395  0.2707
 8428SOL    HW136746   2.288   3.327  15.808  1.1036 -2.2407 -1.3588
 8428SOL    HW236747   2.305   3.298  15.949 -2.8505  1.2990  2.3966
 8429SOL     OW36748   2.331   1.944   9.317 -0.0803  0.1884 -0.7024
 8429SOL    HW136749   2.407   1.962   9.261 -0.1736  1.9746 -0.2763
 8429SOL    HW236750   2.279   1.895   9.254  1.0374 -1.7935 -0.0802
 8430SOL     OW36751   1.299   0.880   0.360  0.4810 -0.3646 -0.6340
 8430SOL    HW136752   1.304   0.960   0.412  1.0810 -0.1767 -0.9818
 8430SOL    HW236753   1.204   0.872   0.365  0.4574  0.6173  0.3980
 8431SOL     OW36754   2.035   1.690   8.649  0.2492 -0.1634 -0.5079
 8431SOL    HW136755   2.061   1.729   8.566  0.8865 -1.7901 -1.0750
 8431SOL    HW236756   2.018   1.598   8.628 -1.7091 -0.3856  2.1197
 8432SOL     OW36757   3.344   3.731   8.154  0.1165 -0.2362 -0.0066
 8432SOL    HW136758   3.330   3.734   8.248 -1.8114  3.1420 -0.4291
 8432SOL    HW236759   3.337   3.823   8.127  2.5600  0.4771  1.8004
 8433SOL     OW36760   1.055   2.414   2.792  0.4069  0.7208 -0.1740
 8433SOL    HW136761   0.966   2.381   2.778  0.2950  0.7059  0.5336
 8433SOL    HW236762   1.080   2.434   2.702  0.6112 -0.8184 -0.4664
 8434SOL     OW36763   2.930   4.380   6.438  0.3395 -0.6688 -0.5773
 8434SOL    HW136764   2.907   4.393   6.530  0.1766  0.3407 -0.7516
 8434SOL    HW236765   3.022   4.355   6.446  0.4056  0.6490  2.6719
 8435SOL     OW36766   1.163   2.382   7.362 -0.4124  0.3869  0.7198
 8435SOL    HW136767   1.136   2.295   7.333 -1.6579  0.5228  1.4705
 8435SOL    HW236768   1.194   2.349   7.446  0.9455  1.7373  0.7582
 8436SOL     OW36769   3.536   3.509   1.517 -0.2774  0.4454 -0.1624
 8436SOL    HW136770   3.550   3.563   1.595 -3.0206 -0.3112  0.8742
 8436SOL    HW236771   3.628   3.494   1.498 -0.0149  1.3861  0.3881
 8437SOL     OW36772   2.988   2.285  11.487 -0.3127 -0.1840 -0.3127
 8437SOL    HW136773   3.068   2.267  11.536  1.5638  1.8466 -2.5897
 8437SOL    HW236774   2.998   2.376  11.459  0.3509  0.3575  1.6634
 8438SOL     OW36775   3.829   3.361   7.632  0.2853  0.2191  1.3294
 8438SOL    HW136776   3.895   3.425   7.658  0.0741  0.6999  0.6959
 8438SOL    HW236777   3.761   3.422   7.603  0.0638  0.3773  2.1841
 8439SOL     OW36778   3.550   2.368   2.834  0.3735 -0.4828 -0.2972
 8439SOL    HW136779   3.533   2.386   2.742 -0.3062  0.4637  0.0143
 8439SOL    HW236780   3.552   2.273   2.824 -2.3819 -0.2187 -3.2716
 8440SOL     OW36781   3.844   3.180   0.909 -0.1654 -0.0624  0.1024
 8440SOL    HW136782   3.838   3.129   0.990 -1.6217 -0.6948 -0.4058
 8440SOL    HW236783   3.901   3.250   0.942  0.5827 -0.3847 -0.5175
 8441SOL     OW36784   4.656   3.081   6.678  0.0080  0.5666  0.0131
 8441SOL    HW136785   0.005   3.021   6.703  0.7132  1.5234  0.2860
 8441SOL    HW236786   4.585   3.059   6.739 -0.0118 -0.3301 -0.3266
 8442SOL     OW36787   2.824   3.014   6.390  0.4016 -0.1784  0.2404
 8442SOL    HW136788   2.889   2.996   6.323  2.7413  0.8619  2.2130
 8442SOL    HW236789   2.862   3.084   6.444  0.4035 -0.1313  0.1789
 8443SOL     OW36790   1.188   2.570   7.136 -0.1017  0.2072  0.3383
 8443SOL    HW136791   1.162   2.510   7.206  0.8056 -0.1673  0.3539
 8443SOL    HW236792   1.273   2.538   7.107  1.8837  3.8157  2.2807
 8444SOL     OW36793   1.174   0.780   7.270 -0.1643 -0.1694 -1.0053
 8444SOL    HW136794   1.179   0.728   7.190  0.0372  3.7444 -3.5050
 8444SOL    HW236795   1.105   0.747   7.328  0.9335  2.4164  1.7811
 8445SOL     OW36796   3.776   4.710   6.456 -0.5310 -0.0997  0.6282
 8445SOL    HW136797   3.854   0.023   6.499  0.4186 -0.9535 -0.3845
 8445SOL    HW236798   3.771   0.035   6.372 -2.8793  2.2710  2.1013
 8446SOL     OW36799   0.963   4.231  13.239 -0.4829 -0.1810  0.4047
 8446SOL    HW136800   0.998   4.211  13.153  0.5618  0.9189  0.5788
 8446SOL    HW236801   1.017   4.303  13.271 -0.2949  0.0582 -0.4626
 8447SOL     OW36802   0.142   1.676   5.903 -0.1421  0.2652  0.5175
 8447SOL    HW136803   0.049   1.684   5.886  0.1306  0.2384 -0.9801
 8447SOL    HW236804   0.179   1.709   5.821 -0.3208 -0.8952 -0.0309
 8448SOL     OW36805   0.832   1.454   2.325 -0.1813  0.0157 -0.1122
 8448SOL    HW136806   0.897   1.490   2.386 -0.1210  1.1916 -0.8577
 8448SOL    HW236807   0.850   1.495   2.239  1.5647 -0.8629 -0.1626
 8449SOL     OW36808   3.211   3.129  16.144 -0.0907  0.2282  0.9038
 8449SOL    HW136809   3.270   3.054  16.138  0.6804  0.9222 -0.0669
 8449SOL    HW236810   3.131   3.106  16.098  1.9599  1.9665 -3.5646
 8450SOL     OW36811   1.040   1.970   2.143  0.1863  0.1020 -0.1682
 8450SOL    HW136812   0.962   2.024   2.127 -0.9266 -1.6423 -0.6084
 8450SOL    HW236813   1.011   1.919   2.218 -0.3887 -0.6022 -0.8676
 8451SOL     OW36814   2.811   4.132   1.188 -0.4488 -0.0151 -0.3946
 8451SOL    HW136815   2.766   4.214   1.170  0.5018  0.2302 -1.6012
 8451SOL    HW236816   2.879   4.136   1.121  0.3457 -2.5416  0.2533
 8452SOL     OW36817   0.889   1.866   7.867 -0.4573 -0.1835 -0.7133
 8452SOL    HW136818   0.805   1.880   7.823 -0.5436  1.6677  0.0428
 8452SOL    HW236819   0.890   1.772   7.887  1.0955 -0.2013 -0.8885
 8453SOL     OW36820   3.748   3.728  10.706 -0.4095 -0.4022 -0.1763
 8453SOL    HW136821   3.669   3.779  10.719 -0.2517 -0.4183  0.8446
 8453SOL    HW236822   3.707   3.663  10.648  1.3260 -1.3189 -0.4061
 8454SOL     OW36823   2.438   1.311   1.854  0.1348 -0.4475 -0.1394
 8454SOL    HW136824   2.480   1.254   1.790 -0.5443 -1.1412  0.0297
 8454SOL    HW236825   2.515   1.353   1.893 -0.7877  1.0438  0.0630
 8455SOL     OW36826   1.199   3.561   7.158  0.3176 -0.1921 -0.0989
 8455SOL    HW136827   1.250   3.520   7.228 -0.9934 -1.1305  0.3019
 8455SOL    HW236828   1.110   3.530   7.172 -0.3341  0.9552 -1.7085
 8456SOL     OW36829   0.830   0.204   7.391 -0.0062 -0.0452  0.0259
 8456SOL    HW136830   0.772   0.275   7.419 -2.6008 -2.7473  1.4685
 8456SOL    HW236831   0.902   0.255   7.355 -0.8048 -0.0321 -1.5302
 8457SOL     OW36832   2.454   4.038   5.863 -0.7146 -0.3339  0.2599
 8457SOL    HW136833   2.415   3.952   5.880  0.0820 -0.9439 -1.0155
 8457SOL    HW236834   2.441   4.036   5.768  0.3484  2.6355  0.0672
 8458SOL     OW36835   0.609   3.309  13.906  0.3316  0.0600 -0.2103
 8458SOL    HW136836   0.535   3.362  13.874 -0.0306 -0.0982  0.3722
 8458SOL    HW236837   0.628   3.261  13.826 -0.1057  1.4784 -1.1798
 8459SOL     OW36838   4.559   4.192  13.157 -0.6354 -0.1098  0.3128
 8459SOL    HW136839   4.470   4.165  13.180 -0.5271 -0.7635 -0.0565
 8459SOL    HW236840   4.544   4.285  13.138  0.1507  0.2914  1.6828
 8460SOL     OW36841   3.738   0.459   0.779  0.1485  0.3002 -0.1750
 8460SOL    HW136842   3.741   0.546   0.739 -1.0632  1.2614  1.8399
 8460SOL    HW236843   3.808   0.415   0.731  0.9763  2.9240 -1.3549
 8461SOL     OW36844   0.227   2.452  17.349 -0.2587  0.0793 -0.3634
 8461SOL    HW136845   0.214   2.384  17.283 -0.0644  1.6953 -2.0655
 8461SOL    HW236846   0.204   2.410  17.432 -0.9503  1.6396  0.2140
 8462SOL     OW36847   1.390   0.029   3.159 -0.0602  0.0482  0.1139
 8462SOL    HW136848   1.403   0.060   3.249 -0.2452 -0.0148  0.1611
 8462SOL    HW236849   1.475   0.042   3.116  1.0188 -3.1037  1.2862
 8463SOL     OW36850   1.609   3.385  17.117 -0.2763  0.5413 -0.0460
 8463SOL    HW136851   1.622   3.292  17.102  2.6149  1.0237 -0.4745
 8463SOL    HW236852   1.571   3.403  17.031  0.5911  2.2185 -0.0805
 8464SOL     OW36853   3.254   0.482   6.829  0.9546  0.4759 -0.1871
 8464SOL    HW136854   3.223   0.426   6.900  1.3226  2.6517  1.6922
 8464SOL    HW236855   3.267   0.563   6.879  0.1893  1.2938 -1.3056
 8465SOL     OW36856   3.463   1.106   6.683  0.4604 -0.8759 -0.2244
 8465SOL    HW136857   3.537   1.133   6.737 -0.7329  1.8067  0.0724
 8465SOL    HW236858   3.509   1.050   6.620  0.7229 -0.8179 -0.0850
 8466SOL     OW36859   3.391   3.075   0.277  0.2562  0.0221  0.1896
 8466SOL    HW136860   3.303   3.113   0.274 -0.4059 -1.4032  1.7124
 8466SOL    HW236861   3.431   3.101   0.360  1.4780 -0.4486 -0.2540
 8467SOL     OW36862   4.703   0.834   2.736  0.7488 -0.2620 -0.1061
 8467SOL    HW136863   0.027   0.806   2.816  1.6189  0.9448 -0.1936
 8467SOL    HW236864   0.049   0.867   2.678  0.4224 -2.6326 -1.8570
 8468SOL     OW36865   1.966   3.775   9.319 -0.1149 -0.6525 -0.3067
 8468SOL    HW136866   1.898   3.843   9.314 -0.2301 -0.6695  1.0547
 8468SOL    HW236867   2.002   3.804   9.402 -3.5311  2.1181  0.2476
 8469SOL     OW36868   2.423   2.945   6.622 -0.2192 -0.3642 -0.3505
 8469SOL    HW136869   2.375   2.863   6.628  1.4923 -1.1774  1.9111
 8469SOL    HW236870   2.507   2.906   6.601  0.1853  0.1731  0.2999
 8470SOL     OW36871   3.028   0.970   4.379 -0.0736  0.0244  0.5251
 8470SOL    HW136872   3.041   0.967   4.284  0.5327  0.1514  0.6053
 8470SOL    HW236873   2.989   0.885   4.399  0.8961 -0.6505 -0.4325
 8471SOL     OW36874   0.636   2.586   1.322  0.0711  0.1287 -0.5981
 8471SOL    HW136875   0.719   2.624   1.293  0.8083  0.4815  1.9594
 8471SOL    HW236876   0.605   2.643   1.392  1.1724  0.3309 -0.2760
 8472SOL     OW36877   0.056   3.652   4.113  0.0928  0.0664 -0.3445
 8472SOL    HW136878   0.035   3.670   4.021  1.7374  0.4501 -0.6399
 8472SOL    HW236879   0.065   3.557   4.109  2.7958  0.2560  1.1468
 8473SOL     OW36880   0.218   2.973   1.286 -0.1412 -0.0379 -0.1398
 8473SOL    HW136881   0.271   3.006   1.359  1.4321 -1.3878 -0.6805
 8473SOL    HW236882   0.228   2.879   1.301 -4.3106 -0.6232 -1.1053
 8474SOL     OW36883   2.253   4.314   1.005 -0.0255  0.0001  0.1452
 8474SOL    HW136884   2.296   4.237   1.043  1.6382  0.8639  0.0202
 8474SOL    HW236885   2.322   4.380   1.011  1.7910 -1.6936 -1.8670
 8475SOL     OW36886   0.946   3.935   7.362 -0.5032 -0.1508  0.0191
 8475SOL    HW136887   1.024   3.891   7.328 -0.7782  0.1390 -0.9863
 8475SOL    HW236888   0.921   3.976   7.279 -0.9029 -1.7404 -0.6434
 8476SOL     OW36889   2.249   2.521   5.297 -0.7597 -0.3972 -0.3398
 8476SOL    HW136890   2.337   2.485   5.307 -0.0679  1.1020 -1.1389
 8476SOL    HW236891   2.220   2.449   5.241 -0.6509 -0.3129 -0.5027
 8477SOL     OW36892   3.569   2.880   2.944 -0.0340 -0.2713 -0.0466
 8477SOL    HW136893   3.664   2.880   2.936 -0.1243 -0.3357 -1.1172
 8477SOL    HW236894   3.550   2.946   3.010  1.7408  0.2226 -0.0318
 8478SOL     OW36895   2.497   0.566   7.202  0.3976 -0.2855 -0.5426
 8478SOL    HW136896   2.481   0.476   7.229 -0.6311  0.2900  0.7349
 8478SOL    HW236897   2.514   0.562   7.108  2.4465 -2.7780 -0.0547
 8479SOL     OW36898   0.714   4.662   8.067 -0.0011 -0.3935  0.4600
 8479SOL    HW136899   0.758   4.672   7.983 -0.8687 -1.8259 -0.1673
 8479SOL    HW236900   0.687   4.570   8.075 -0.4354 -0.1277  2.1327
 8480SOL     OW36901   1.451   1.541   6.336 -0.0811 -0.2365  0.2597
 8480SOL    HW136902   1.442   1.624   6.289 -0.4269 -0.1307  0.5155
 8480SOL    HW236903   1.544   1.521   6.324  0.0216  0.4699 -0.1686
 8481SOL     OW36904   0.233   0.028  13.730 -0.6263 -0.0083 -0.5089
 8481SOL    HW136905   0.203   4.659  13.720  0.2589 -0.3291 -0.2870
 8481SOL    HW236906   0.328   0.021  13.734 -0.6077  0.7814  0.2933
 8482SOL     OW36907   3.499   3.993   5.649  0.3074 -0.2423  0.6804
 8482SOL    HW136908   3.527   4.048   5.575 -2.2056 -1.0275 -0.8558
 8482SOL    HW236909   3.573   4.002   5.709  0.9121 -0.1266 -0.0777
 8483SOL     OW36910   0.921   0.062  12.583 -0.6300  0.4985 -0.1198
 8483SOL    HW136911   0.987   0.041  12.648  0.5314  0.8307 -1.1958
 8483SOL    HW236912   0.923   0.158  12.581 -1.2244  0.5426  2.6765
 8484SOL     OW36913   2.127   4.256  14.169 -0.5983 -0.1055  0.7396
 8484SOL    HW136914   2.223   4.262  14.169 -0.6096  0.0857  0.2700
 8484SOL    HW236915   2.119   4.168  14.131 -0.4846 -0.3574  1.2947
 8485SOL     OW36916   4.012   3.791   3.495  0.1915 -0.1473 -0.0190
 8485SOL    HW136917   4.072   3.846   3.445 -0.0872  0.4887  0.3388
 8485SOL    HW236918   4.062   3.710   3.490 -0.9885 -0.8013 -1.3897
 8486SOL     OW36919   1.066   4.607   3.358 -0.1846 -0.0714 -0.1505
 8486SOL    HW136920   1.013   4.531   3.334 -0.1496 -0.5072  1.1850
 8486SOL    HW236921   1.033   4.672   3.296 -1.2959  0.4455  1.0078
 8487SOL     OW36922   0.347   2.738   2.912 -0.0308 -0.6426  0.8041
 8487SOL    HW136923   0.273   2.709   2.860 -0.6638 -1.4519  2.1429
 8487SOL    HW236924   0.312   2.803   2.973 -1.0559  1.0404 -1.6144
 8488SOL     OW36925   3.930   3.156  14.746 -0.1702 -0.4719 -0.2488
 8488SOL    HW136926   3.856   3.106  14.712  0.3753 -0.2111 -1.8140
 8488SOL    HW236927   3.906   3.168  14.838 -1.3114  3.0542 -1.0328
 8489SOL     OW36928   0.127   1.729  15.578  0.4077  0.0204  0.1168
 8489SOL    HW136929   0.033   1.726  15.591  0.2406 -1.9569 -1.6268
 8489SOL    HW236930   0.157   1.639  15.592 -1.1649 -0.3372  1.1747
 8490SOL     OW36931   1.153   0.539   5.680  0.3904 -0.0524  0.0861
 8490SOL    HW136932   1.214   0.591   5.627  1.4138 -2.2148 -0.8542
 8490SOL    HW236933   1.094   0.508   5.612 -0.6349 -0.4310  1.1509
 8491SOL     OW36934   1.932   4.334   4.431 -0.5218  0.4545 -0.1830
 8491SOL    HW136935   1.954   4.364   4.519  1.0107 -1.4362  0.0842
 8491SOL    HW236936   1.974   4.248   4.438 -0.3816  0.3485 -2.1861
 8492SOL     OW36937   2.111   1.757   5.612 -0.4727 -0.2718  0.3162
 8492SOL    HW136938   2.111   1.688   5.546  1.7129  0.4134 -0.4042
 8492SOL    HW236939   2.123   1.698   5.686  1.1195 -0.9880 -0.5182
 8493SOL     OW36940   3.250   0.769   3.996  0.3085 -0.0329 -0.2736
 8493SOL    HW136941   3.165   0.749   4.035  1.3321 -5.3054 -0.7715
 8493SOL    HW236942   3.258   0.688   3.946 -0.6216  0.3982 -1.1186
 8494SOL     OW36943   1.362   3.130  10.411  0.2038  0.2283 -0.4881
 8494SOL    HW136944   1.367   3.034  10.405  0.7934  0.2137  0.2833
 8494SOL    HW236945   1.455   3.144  10.395  0.0457  0.1191 -1.5009
 8495SOL     OW36946   0.256   1.533   2.090  0.0518  0.4066 -0.1750
 8495SOL    HW136947   0.252   1.546   2.185  0.6603  1.7808 -0.3302
 8495SOL    HW236948   0.225   1.444   2.076 -0.6883  0.5973  0.2196
 8496SOL     OW36949   2.897   2.429   3.973  0.1574  0.3316 -0.4607
 8496SOL    HW136950   2.974   2.407   4.026 -0.9080  1.0483  1.3794
 8496SOL    HW236951   2.924   2.518   3.950  0.5346 -0.1536 -1.9125
 8497SOL     OW36952   0.936   4.473  12.464 -1.0279  0.1931 -0.1525
 8497SOL    HW136953   1.022   4.485  12.424 -0.6755 -0.4108  0.4296
 8497SOL    HW236954   0.954   4.436  12.551 -1.6829 -0.7873 -0.4344
 8498SOL     OW36955   0.303   3.568  13.315  0.8477 -0.6000  0.1611
 8498SOL    HW136956   0.222   3.566  13.365 -0.0533  0.8675 -1.2345
 8498SOL    HW236957   0.286   3.600  13.226 -0.1608 -0.6468  0.3407
 8499SOL     OW36958   3.620   0.688   4.401  0.9248  0.6387  0.1541
 8499SOL    HW136959   3.653   0.701   4.312  0.8105 -0.2791 -0.0212
 8499SOL    HW236960   3.694   0.658   4.453 -0.5239 -0.1795  1.7403
 8500SOL     OW36961   2.091   3.379   6.718 -0.5686 -0.1149  0.1937
 8500SOL    HW136962   2.171   3.431   6.714 -0.7714  0.5130  4.2598
 8500SOL    HW236963   2.032   3.446   6.751 -0.7229 -0.0040 -0.3022
 8501SOL     OW36964   4.410   3.524   6.498 -0.0493 -0.0568  0.0101
 8501SOL    HW136965   4.460   3.443   6.501  0.5669  0.3726  1.3238
 8501SOL    HW236966   4.460   3.554   6.422  0.0589 -0.7523 -0.1927
 8502SOL     OW36967   2.815   0.028   7.522 -0.3001 -0.6092  0.1663
 8502SOL    HW136968   2.721   0.012   7.516 -0.7315  1.2713  1.9390
 8502SOL    HW236969   2.838   0.054   7.433 -1.2134  0.4154  0.2237
 8503SOL     OW36970   0.497   2.683   4.781 -1.2138  0.0225  0.6153
 8503SOL    HW136971   0.558   2.737   4.731 -1.8625  0.4994  0.3439
 8503SOL    HW236972   0.558   2.626   4.829 -1.0364  0.1606  0.5513
 8504SOL     OW36973   2.684   2.078  12.348  0.4344 -0.3073 -0.2659
 8504SOL    HW136974   2.754   2.031  12.394 -0.8592  0.0075  1.9857
 8504SOL    HW236975   2.728   2.119  12.273  0.5771  2.2029  1.1736
 8505SOL     OW36976   3.365   1.214   3.869  0.0449  0.6796 -0.3970
 8505SOL    HW136977   3.277   1.244   3.846 -0.9692 -2.3192 -0.3734
 8505SOL    HW236978   3.346   1.123   3.844 -0.3447  0.4509  0.7327
 8506SOL     OW36979   2.976   1.251   3.652  0.0706  0.1769 -0.2039
 8506SOL    HW136980   3.051   1.279   3.599 -0.3295 -0.8958 -1.3395
 8506SOL    HW236981   2.990   1.304   3.730  0.4332  2.0944 -1.5415
 8507SOL     OW36982   0.619   2.807   3.016  0.0346 -0.0019  0.2353
 8507SOL    HW136983   0.547   2.804   2.953  1.4058  0.2722 -1.3374
 8507SOL    HW236984   0.566   2.782   3.092  0.5653  1.1550  0.9855
 8508SOL     OW36985   4.130   4.260   0.391 -0.0129  0.2035 -0.0467
 8508SOL    HW136986   4.166   4.216   0.313 -3.3982 -1.5621 -0.5912
 8508SOL    HW236987   4.203   4.306   0.431  1.1280 -0.0223 -1.8646
 8509SOL     OW36988   3.471   4.377   9.401  0.2846 -0.0696 -0.6897
 8509SOL    HW136989   3.508   4.316   9.466 -2.4767  1.7489  2.5606
 8509SOL    HW236990   3.517   4.457   9.424  1.6129 -0.4960 -1.8382
 8510SOL     OW36991   4.194   2.848   0.509 -0.3162  0.2473  0.5446
 8510SOL    HW136992   4.132   2.781   0.535  0.2939 -0.1649  0.9308
 8510SOL    HW236993   4.133   2.916   0.481 -0.2390  0.0096 -0.2158
 8511SOL     OW36994   0.986   4.408   5.243  0.9688 -0.2506  0.1895
 8511SOL    HW136995   1.037   4.346   5.192  2.0580 -0.0777  1.0620
 8511SOL    HW236996   0.901   4.398   5.199 -0.0560  0.6106  1.9813
 8512SOL     OW36997   3.026   3.342   1.344  0.1604 -0.0061  0.1932
 8512SOL    HW136998   2.937   3.307   1.346 -0.5814  1.9334  0.5005
 8512SOL    HW236999   3.067   3.280   1.283 -0.6172 -1.4973  1.1718
 8513SOL     OW37000   2.356   0.900   2.863 -0.4081  0.8569  0.1676
 8513SOL    HW137001   2.295   0.959   2.819  0.2046  0.9058 -0.6211
 8513SOL    HW237002   2.442   0.907   2.820 -0.3926  1.0192  0.2240
 8514SOL     OW37003   3.030   2.896   8.680 -0.0274  0.0741  0.3880
 8514SOL    HW137004   3.098   2.898   8.747 -0.8166  0.3155  1.1819
 8514SOL    HW237005   3.068   2.963   8.622  0.5684  1.2562  2.1400
 8515SOL     OW37006   2.727   3.086   5.174  0.1363 -0.1338  0.3192
 8515SOL    HW137007   2.695   3.025   5.240 -1.4579 -0.8346 -1.0958
 8515SOL    HW237008   2.655   3.150   5.167  0.8869  0.6326 -0.5716
 8516SOL     OW37009   2.424   2.685   6.781 -0.6519  0.0490  0.5239
 8516SOL    HW137010   2.489   2.686   6.851 -0.9331 -1.6284  0.8151
 8516SOL    HW237011   2.401   2.594   6.800 -2.1469  0.3929  0.3598
 8517SOL     OW37012   2.633   0.677   2.928  0.0854 -0.1660 -0.0110
 8517SOL    HW137013   2.586   0.733   2.866  0.5327 -0.7654 -0.8963
 8517SOL    HW237014   2.697   0.643   2.865 -0.8243 -3.4150  0.7837
 8518SOL     OW37015   0.950   2.344   1.173 -0.2047  0.1016 -0.1116
 8518SOL    HW137016   1.006   2.335   1.096  0.0820  0.9716 -0.0065
 8518SOL    HW237017   1.023   2.345   1.236  0.8635  0.3160 -1.3596
 8519SOL     OW37018   2.253   4.093   0.115  0.2084  0.1248  0.7436
 8519SOL    HW137019   2.337   4.062   0.149 -0.3366  0.3290  2.2716
 8519SOL    HW237020   2.196   4.018   0.133 -0.7728  0.5693 -0.5358
 8520SOL     OW37021   4.568   2.385  16.644 -0.7566 -0.5134 -0.6782
 8520SOL    HW137022   4.517   2.445  16.590  0.3147  0.7986 -0.2416
 8520SOL    HW237023   4.500   2.324  16.672  1.4960 -2.0715  1.4353
 8521SOL     OW37024   4.349   4.215   6.753 -0.0734 -0.3974 -0.4775
 8521SOL    HW137025   4.343   4.174   6.840  0.4104  0.0636 -0.2243
 8521SOL    HW237026   4.362   4.138   6.698  1.2802 -1.9180  1.9581
 8522SOL     OW37027   1.449   0.605   7.230  0.3615  0.5727  0.2466
 8522SOL    HW137028   1.391   0.553   7.286  2.1113 -2.0667 -0.3779
 8522SOL    HW237029   1.389   0.627   7.158  0.4902  1.2631  0.3483
 8523SOL     OW37030   2.585   1.000   9.104 -0.4168  0.1685  0.3681
 8523SOL    HW137031   2.537   1.068   9.151 -0.3992  0.1241  0.4510
 8523SOL    HW237032   2.599   1.036   9.017 -2.9699  1.8798  0.6644
 8524SOL     OW37033   2.186   0.544   3.502 -0.2219  0.0301 -0.3368
 8524SOL    HW137034   2.135   0.626   3.500 -2.5203 -1.4201 -1.7826
 8524SOL    HW237035   2.176   0.502   3.417 -2.6047  1.8686 -0.9992
 8525SOL     OW37036   3.891   3.556   4.181 -0.0484 -0.6101  0.7098
 8525SOL    HW137037   3.913   3.464   4.165  0.3218 -0.4118  0.0975
 8525SOL    HW237038   3.804   3.535   4.214 -0.7245 -1.6157 -1.7865
 8526SOL     OW37039   2.403   3.191  14.585 -0.0154 -0.4318  0.2033
 8526SOL    HW137040   2.440   3.122  14.530  1.0988  0.4228 -0.1367
 8526SOL    HW237041   2.340   3.143  14.638  0.3518  0.5988  1.5888
 8527SOL     OW37042   0.183   0.635   3.990  0.2384 -0.2812  0.2161
 8527SOL    HW137043   0.208   0.543   3.979  1.1558  0.0063 -0.1438
 8527SOL    HW237044   0.178   0.630   4.085  1.1643 -3.3189  0.1016
 8528SOL     OW37045   1.101   1.870   6.220  0.3728 -0.2319 -0.4285
 8528SOL    HW137046   1.017   1.908   6.195 -1.8001 -3.6675  1.6128
 8528SOL    HW237047   1.104   1.904   6.310 -4.0401 -0.4273 -0.2096
 8529SOL     OW37048   0.328   1.768   6.565  0.2645 -0.3889 -0.2848
 8529SOL    HW137049   0.336   1.815   6.482 -0.3732  1.4644  0.6949
 8529SOL    HW237050   0.265   1.823   6.612  0.5408  0.7915 -1.2939
 8530SOL     OW37051   3.151   2.262   3.791 -1.1782  0.0148 -0.2035
 8530SOL    HW137052   3.121   2.276   3.881 -0.4671  0.3151 -0.0149
 8530SOL    HW237053   3.098   2.186   3.767 -1.3423 -0.1842  0.8145
 8531SOL     OW37054   2.005   2.513   6.335 -0.1806 -0.8728 -0.2055
 8531SOL    HW137055   2.053   2.450   6.390 -0.5477 -0.3171  0.7566
 8531SOL    HW237056   1.972   2.569   6.405 -0.1797 -0.9791 -0.1204
 8532SOL     OW37057   3.531   2.641   5.473  0.2203 -0.2297  0.2813
 8532SOL    HW137058   3.455   2.651   5.417  1.5528 -0.7440 -1.6228
 8532SOL    HW237059   3.589   2.708   5.437 -0.1996  0.4550  0.8726
 8533SOL     OW37060   0.587   4.348   3.178 -0.7660  0.2085 -0.1674
 8533SOL    HW137061   0.617   4.268   3.137 -0.8890 -0.2021  0.5538
 8533SOL    HW237062   0.530   4.321   3.250 -1.8681  0.6115 -0.8780
 8534SOL     OW37063   2.764   0.982   0.716  0.0783  0.0495 -0.1427
 8534SOL    HW137064   2.853   0.972   0.684  0.2868 -0.0080  0.4553
 8534SOL    HW237065   2.728   0.945   0.635  0.4287 -0.1487 -0.2090
 8535SOL     OW37066   1.024   3.489  10.592 -0.0018 -0.0500  0.3775
 8535SOL    HW137067   0.939   3.486  10.547  0.8322  0.6697 -1.2417
 8535SOL    HW237068   1.082   3.434  10.538  1.1327  0.6260  0.9068
 8536SOL     OW37069   3.071   1.493   5.302  0.6730 -0.2875 -0.4968
 8536SOL    HW137070   3.129   1.552   5.349 -0.8767  2.3430 -1.9266
 8536SOL    HW237071   3.043   1.426   5.364 -0.3207 -0.8076 -1.4981
 8537SOL     OW37072   4.221   3.366   9.473  0.0843 -0.5622 -0.4713
 8537SOL    HW137073   4.229   3.459   9.494  0.5946 -0.9435  1.0489
 8537SOL    HW237074   4.267   3.373   9.390  1.2349  1.0359  0.2976
 8538SOL     OW37075   0.531   2.051   6.512 -0.0491 -0.0109 -0.0051
 8538SOL    HW137076   0.473   2.006   6.451 -0.4063  0.6473 -0.1557
 8538SOL    HW237077   0.596   1.987   6.541  1.1882  0.5963 -1.3847
 8539SOL     OW37078   4.653   3.863  13.976  0.4550  0.4891  0.2606
 8539SOL    HW137079   0.017   3.826  13.954 -0.8336 -1.6779 -1.1279
 8539SOL    HW237080   4.649   3.922  13.901  2.6947  0.8484  0.4082
 8540SOL     OW37081   1.551   3.257   8.355 -0.2276 -0.2224 -0.4536
 8540SOL    HW137082   1.615   3.233   8.288  0.2474  0.0293 -0.0846
 8540SOL    HW237083   1.597   3.330   8.396  0.5129 -0.2719 -1.1977
 8541SOL     OW37084   0.557   3.412  13.314  0.3119  0.3841 -0.2876
 8541SOL    HW137085   0.619   3.484  13.325  0.9326  0.0379 -1.4973
 8541SOL    HW237086   0.477   3.458  13.338 -1.2874 -2.3764 -0.2764
 8542SOL     OW37087   1.660   1.139  17.514 -0.3218 -0.6304 -0.1612
 8542SOL    HW137088   1.604   1.192  17.456  2.3983  0.0333 -2.1511
 8542SOL    HW237089   1.692   1.079  17.448  0.3221  0.0747 -0.4977
 8543SOL     OW37090   1.682   1.402   1.040  0.3789  0.1085  0.5155
 8543SOL    HW137091   1.752   1.337   1.054  0.4355  0.1861  0.5933
 8543SOL    HW237092   1.705   1.461   1.111 -0.2237  0.3907  0.4746
 8544SOL     OW37093   2.508   0.473   3.936 -0.1045  0.5087 -0.3772
 8544SOL    HW137094   2.442   0.405   3.921  1.1794 -1.1735  1.5422
 8544SOL    HW237095   2.556   0.423   4.002 -0.1610 -1.1043 -1.5686
 8545SOL     OW37096   2.366   2.857  12.109  0.4794  0.2230  0.5278
 8545SOL    HW137097   2.273   2.846  12.087  0.8948  2.5501 -2.3351
 8545SOL    HW237098   2.383   2.951  12.120  1.2267  0.2379 -0.7721
 8546SOL     OW37099   2.744   0.807  12.718 -0.1080 -0.1206  0.6276
 8546SOL    HW137100   2.778   0.818  12.807 -0.8053 -0.8977  1.0018
 8546SOL    HW237101   2.684   0.737  12.745  0.1786 -0.0738  1.3789
 8547SOL     OW37102   0.244   3.507   2.827  0.2727 -0.6054 -0.1894
 8547SOL    HW137103   0.303   3.517   2.752  0.7933 -0.2541  0.2635
 8547SOL    HW237104   0.185   3.441   2.792 -0.0949  0.4069 -1.4554
 8548SOL     OW37105   1.984   3.232   5.268  0.1141  0.2152  0.1609
 8548SOL    HW137106   2.036   3.286   5.209  0.4165 -0.3367 -0.0744
 8548SOL    HW237107   1.896   3.256   5.239 -0.2062  0.3381  1.2051
 8549SOL     OW37108   4.102   0.817   6.425  0.0723 -0.1569  0.4169
 8549SOL    HW137109   4.112   0.894   6.369  3.0848  0.2501  1.5436
 8549SOL    HW237110   4.178   0.836   6.479  1.3439  1.9343 -2.0790
 8550SOL     OW37111   0.177   3.724  12.237 -0.3804  0.2852  0.2696
 8550SOL    HW137112   0.091   3.682  12.235  0.6772 -1.8749  0.2255
 8550SOL    HW237113   0.235   3.647  12.229 -2.8866 -1.7760  1.9619
 8551SOL     OW37114   3.498   4.079   7.511  0.4546  0.2012  0.6020
 8551SOL    HW137115   3.435   4.103   7.444 -1.3986 -0.7896  1.9938
 8551SOL    HW237116   3.451   4.091   7.593 -1.6833  1.8872 -0.8823
 8552SOL     OW37117   2.932   0.357  14.983 -0.3222 -0.1182  0.0020
 8552SOL    HW137118   2.851   0.306  14.984  0.1648 -0.8972 -0.2507
 8552SOL    HW237119   2.984   0.313  14.915  0.4757 -0.3448  0.7610
 8553SOL     OW37120   1.595   0.419  11.377  0.1402 -0.1367 -0.3390
 8553SOL    HW137121   1.547   0.500  11.387  0.2551  0.1561 -2.1190
 8553SOL    HW237122   1.568   0.399  11.287  1.9068 -2.0655 -0.4681
 8554SOL     OW37123   3.159   2.743  10.813 -0.2281 -0.0569  0.0090
 8554SOL    HW137124   3.152   2.838  10.823  1.4607  0.3252 -2.3599
 8554SOL    HW237125   3.123   2.732  10.725 -0.3863  2.7206 -0.2762
 8555SOL     OW37126   3.055   3.443  17.541 -0.2031 -0.4570 -0.6105
 8555SOL    HW137127   3.041   3.496  17.462  1.5731 -0.8617 -1.2064
 8555SOL    HW237128   3.096   3.366  17.500  2.1587 -0.5645  1.9541
 8556SOL     OW37129   2.507   2.337   8.742  0.4092  1.1767  0.2677
 8556SOL    HW137130   2.455   2.273   8.791  1.6444 -0.3661 -0.4414
 8556SOL    HW237131   2.489   2.318   8.650 -1.3815  0.4768  0.7516
 8557SOL     OW37132   4.708   0.417  10.015 -0.1858  0.5676 -0.2247
 8557SOL    HW137133   0.032   0.497  10.041  1.9910 -0.8237  0.2028
 8557SOL    HW237134   0.030   0.354  10.072 -0.2473 -1.0445 -1.9605
 8558SOL     OW37135   3.130   1.125   8.770 -0.3071  0.7307 -0.4143
 8558SOL    HW137136   3.180   1.048   8.743  0.5028  1.3041 -0.5263
 8558SOL    HW237137   3.151   1.119   8.863  0.3215  1.3263 -0.5213
 8559SOL     OW37138   3.064   4.226  13.011 -0.1080 -0.4756 -0.2212
 8559SOL    HW137139   3.100   4.249  12.926  1.3028 -0.5346  0.3635
 8559SOL    HW237140   3.085   4.298  13.069 -1.1006 -0.5506  0.2380
 8560SOL     OW37141   1.508   0.967   6.102 -0.7870  0.0526  0.2941
 8560SOL    HW137142   1.515   1.032   6.172 -0.0343 -0.0753  0.3351
 8560SOL    HW237143   1.434   1.001   6.052  0.1589  2.8977  0.8355
 8561SOL     OW37144   4.019   1.907   6.212  0.2341 -0.4506 -0.7035
 8561SOL    HW137145   3.975   1.822   6.223  0.0307 -0.2370  0.1126
 8561SOL    HW237146   3.990   1.933   6.124  0.9323 -3.5312 -1.8504
 8562SOL     OW37147   1.322   3.715   9.257 -0.0205  0.5994  0.9502
 8562SOL    HW137148   1.254   3.663   9.301 -0.4798  0.1292 -0.2994
 8562SOL    HW237149   1.384   3.726   9.329 -0.3872  1.3874  1.1439
 8563SOL     OW37150   0.305   2.143  15.026  0.8097 -0.2641  0.5495
 8563SOL    HW137151   0.299   2.050  15.000  2.0860 -0.3580  0.6058
 8563SOL    HW237152   0.348   2.184  14.951  0.9017 -1.4028 -0.0310
 8564SOL     OW37153   3.909   2.573   4.409 -0.0477  0.6216  0.5926
 8564SOL    HW137154   3.917   2.493   4.356 -0.0896  0.9598  0.0790
 8564SOL    HW237155   3.836   2.612   4.361  0.6829 -2.4364 -3.0390
 8565SOL     OW37156   3.039   2.186   8.252  0.3457  0.1124 -0.3450
 8565SOL    HW137157   3.010   2.275   8.237 -0.5998 -0.2801 -0.8594
 8565SOL    HW237158   2.962   2.140   8.285  0.4789 -0.0640 -0.2775
 8566SOL     OW37159   4.045   2.176   5.658 -0.7789  0.1612  0.5299
 8566SOL    HW137160   4.085   2.262   5.644 -0.1538 -0.4347 -1.4019
 8566SOL    HW237161   3.987   2.163   5.583 -2.8983  2.4070  1.7726
 8567SOL     OW37162   1.451   3.694   9.008 -0.2572 -0.5475 -0.5436
 8567SOL    HW137163   1.388   3.635   8.966  0.0792 -2.6895  1.9969
 8567SOL    HW237164   1.399   3.725   9.081 -1.0849 -3.2199  0.0007
 8568SOL     OW37165   3.019   1.081   2.442  0.3942  0.4797 -0.1969
 8568SOL    HW137166   3.033   1.117   2.355 -1.2558 -0.3382 -0.7955
 8568SOL    HW237167   3.080   1.131   2.496 -0.1766 -0.4229  1.2953
 8569SOL     OW37168   0.001   1.174   3.066  0.4052  0.3634  0.1609
 8569SOL    HW137169   0.049   1.177   2.983  0.8847 -0.1156  0.4239
 8569SOL    HW237170   0.041   1.104   3.118  0.5252 -1.0363 -1.8291
 8570SOL     OW37171   3.940   3.252   9.055 -0.6536 -0.2503 -0.2195
 8570SOL    HW137172   4.006   3.315   9.028 -2.5552  1.0714 -1.7801
 8570SOL    HW237173   3.872   3.308   9.091  0.0488  0.3534  0.1494
 8571SOL     OW37174   2.821   1.127   4.871  0.1849  0.1399  0.5928
 8571SOL    HW137175   2.733   1.102   4.900 -0.0831 -1.0498 -1.2321
 8571SOL    HW237176   2.846   1.076   4.794  0.5416  0.4931  0.4748
 8572SOL     OW37177   0.252   4.544   6.806  0.1449 -0.0858  0.1123
 8572SOL    HW137178   0.303   4.602   6.862 -1.2198  0.4032  0.8473
 8572SOL    HW237179   0.317   4.478   6.782 -0.4758 -0.3675 -0.7957
 8573SOL     OW37180   3.818   0.960   5.615 -0.3972 -0.1364  0.0784
 8573SOL    HW137181   3.857   1.018   5.680 -0.3079  0.5157 -0.5572
 8573SOL    HW237182   3.747   1.017   5.586  0.6201  0.2698 -1.6044
 8574SOL     OW37183   1.695   4.299   9.047 -0.3512  0.2194  0.3515
 8574SOL    HW137184   1.782   4.261   9.059  0.3253  0.9941 -2.0972
 8574SOL    HW237185   1.702   4.310   8.952  1.7593  0.2125  0.5018
 8575SOL     OW37186   0.518   1.290  15.866  0.0903  0.0016 -0.1948
 8575SOL    HW137187   0.531   1.381  15.892  0.0796 -0.1424  0.3153
 8575SOL    HW237188   0.527   1.287  15.771  1.1788  1.0936 -0.1316
 8576SOL     OW37189   1.918   0.366   5.897 -0.0837  0.0659 -0.3995
 8576SOL    HW137190   1.988   0.384   5.834 -1.0895  0.5605 -1.3567
 8576SOL    HW237191   1.874   0.450   5.909  1.4284  0.9076 -0.7138
 8577SOL     OW37192   4.697   2.689   2.292  0.0840  0.1275  0.3506
 8577SOL    HW137193   4.654   2.757   2.343  2.1475  0.6747  1.3687
 8577SOL    HW237194   0.001   2.622   2.356  2.4321 -0.0436 -0.7499
 8578SOL     OW37195   2.270   0.448  11.318 -0.2236 -0.1887 -0.7532
 8578SOL    HW137196   2.212   0.524  11.324 -0.7907 -0.8555  2.3021
 8578SOL    HW237197   2.355   0.489  11.337  0.3162 -1.8003  0.3582
 8579SOL     OW37198   0.079   1.042  15.275  0.3617  0.0342  0.4055
 8579SOL    HW137199   0.174   1.048  15.284  0.1851  1.4630  1.3350
 8579SOL    HW237200   0.059   1.136  15.268  1.4841  0.3442  1.3579
 8580SOL     OW37201   4.099   1.922   8.738  0.0619  0.1117 -0.2790
 8580SOL    HW137202   4.167   1.989   8.744  0.3571 -0.1597 -0.5974
 8580SOL    HW237203   4.133   1.855   8.679 -1.9996 -1.0819 -0.1020
 8581SOL     OW37204   2.933   4.391   6.700  0.0125 -0.1351 -0.1703
 8581SOL    HW137205   2.898   4.450   6.767 -1.3021  0.5326 -1.4405
 8581SOL    HW237206   2.954   4.306   6.739  0.2896  1.4421  3.1329
 8582SOL     OW37207   1.614   2.162   7.915  0.0680 -0.4305 -0.0405
 8582SOL    HW137208   1.542   2.136   7.974  1.0742 -2.0093  0.4817
 8582SOL    HW237209   1.582   2.123   7.834  1.5781 -0.8067 -0.4450
 8583SOL     OW37210   3.091   1.116   7.450  0.2272  0.5564  0.6648
 8583SOL    HW137211   3.069   1.039   7.504 -1.2680  0.2928 -0.3078
 8583SOL    HW237212   3.186   1.119   7.453  0.2344  0.7055  0.2621
 8584SOL     OW37213   4.431   0.515   9.251  0.0641  0.4673 -0.1227
 8584SOL    HW137214   4.365   0.565   9.203 -1.5023 -1.0362  0.4834
 8584SOL    HW237215   4.411   0.426   9.221 -1.2358  0.6442  0.2227
 8585SOL     OW37216   2.198   0.200  11.636 -0.0911 -0.1389  0.0166
 8585SOL    HW137217   2.248   0.149  11.700 -1.4385 -1.4185  0.0440
 8585SOL    HW237218   2.131   0.140  11.604  3.5637 -2.7634 -2.5389
 8586SOL     OW37219   3.704   1.089   3.209  0.1019 -0.0267 -0.3323
 8586SOL    HW137220   3.641   1.018   3.200  1.1045 -1.3653  3.0174
 8586SOL    HW237221   3.652   1.162   3.175 -0.9851 -0.9610 -0.6785
 8587SOL     OW37222   1.964   2.797   6.796  0.6261  0.3340  0.4950
 8587SOL    HW137223   1.913   2.773   6.719 -1.4647  2.6487  1.1814
 8587SOL    HW237224   1.959   2.892   6.795  2.5893  0.4372  0.5009
 8588SOL     OW37225   3.855   3.977  13.437  0.7631 -0.1433 -0.1241
 8588SOL    HW137226   3.903   3.936  13.509  0.3975  2.5856  1.6737
 8588SOL    HW237227   3.924   3.974  13.371 -0.9085 -0.6938 -1.8644
 8589SOL     OW37228   4.058   1.576   3.890 -0.1733  0.4406 -0.8312
 8589SOL    HW137229   4.137   1.622   3.863  1.1681 -1.5051 -0.2737
 8589SOL    HW237230   4.060   1.500   3.831  0.6443  0.8950 -1.3969
 8590SOL     OW37231   0.181   0.418   7.413  0.1034 -0.0046 -0.6752
 8590SOL    HW137232   0.125   0.426   7.336 -1.0336  2.2653  0.3839
 8590SOL    HW237233   0.125   0.378   7.480  0.2480  0.1738 -0.4487
 8591SOL     OW37234   2.578   0.912  16.845 -0.4692  0.5228 -0.0712
 8591SOL    HW137235   2.592   0.874  16.758 -2.3653  0.4177 -0.3240
 8591SOL    HW237236   2.660   0.884  16.886 -0.2156  1.8032  0.2720
 8592SOL     OW37237   3.683   0.844  13.390 -0.5665 -0.3388  0.2022
 8592SOL    HW137238   3.679   0.749  13.405 -3.1381 -0.4603 -1.2382
 8592SOL    HW237239   3.598   0.851  13.347 -1.3296 -0.2863  1.6886
 8593SOL     OW37240   3.837   2.232  10.974 -0.5259 -0.1466 -0.2422
 8593SOL    HW137241   3.837   2.259  11.066 -2.0844 -0.7138 -0.0611
 8593SOL    HW237242   3.824   2.138  10.982 -1.5436  0.0353  0.2434
 8594SOL     OW37243   3.429   0.574   8.640  0.0260 -0.1123  0.2450
 8594SOL    HW137244   3.368   0.602   8.708 -1.2635 -0.8739 -0.5936
 8594SOL    HW237245   3.367   0.540   8.575 -0.6493 -0.2495  0.9751
 8595SOL     OW37246   1.459   4.163  10.590  0.2267 -0.7271  0.1115
 8595SOL    HW137247   1.489   4.254  10.584  1.0532 -1.0544 -0.5817
 8595SOL    HW237248   1.434   4.157  10.498 -2.1944  0.6802  0.6780
 8596SOL     OW37249   1.034   1.704   7.117  0.1800 -0.2746  0.6066
 8596SOL    HW137250   1.005   1.622   7.075 -0.6203  0.0360  0.5471
 8596SOL    HW237251   0.964   1.762   7.088 -1.7061 -3.6691 -1.7150
 8597SOL     OW37252   0.329   0.088  15.698  0.1830  0.5939  0.1815
 8597SOL    HW137253   0.318   0.126  15.785 -2.1143  1.3298 -0.4347
 8597SOL    HW237254   0.283   0.146  15.638 -1.1735 -1.9008 -1.1600
 8598SOL     OW37255   2.220   4.010   9.448  0.0797 -0.1548 -0.0719
 8598SOL    HW137256   2.204   3.924   9.488  2.2633  0.1332  1.4738
 8598SOL    HW237257   2.144   4.056   9.485  1.9863  3.1411 -0.2222
 8599SOL     OW37258   3.594   3.108  10.112 -0.1885  0.0148  0.5588
 8599SOL    HW137259   3.509   3.121  10.153 -0.8963  0.8205 -1.1601
 8599SOL    HW237260   3.610   3.195  10.075  3.2942 -0.5633  0.7069
 8600SOL     OW37261   0.040   0.850  17.023 -0.0289 -0.0282 -0.5622
 8600SOL    HW137262   4.711   0.856  17.104 -1.1012  0.7841 -1.3085
 8600SOL    HW237263   4.700   0.807  16.963  0.7033 -0.0002 -1.3375
 8601SOL     OW37264   2.566   2.947   2.000  0.2862  0.2599 -0.0658
 8601SOL    HW137265   2.531   3.027   1.961  2.1440  0.5701 -1.1124
 8601SOL    HW237266   2.660   2.940   1.984  0.1042  1.0257 -1.4702
 8602SOL     OW37267   3.401   0.839   9.248  0.0890  0.1268 -0.4851
 8602SOL    HW137268   3.378   0.766   9.305 -1.4503  1.8998  1.1795
 8602SOL    HW237269   3.483   0.866   9.290 -1.2186 -2.6897  3.8860
 8603SOL     OW37270   2.225   0.435  11.044  0.2397  0.6906 -0.1860
 8603SOL    HW137271   2.156   0.495  11.071  0.9281  0.8597  1.1778
 8603SOL    HW237272   2.256   0.398  11.127  0.0180 -0.8034 -0.7676
 8604SOL     OW37273   2.093   2.598   4.451 -0.0477  0.2327 -0.2322
 8604SOL    HW137274   2.051   2.514   4.434 -0.5011 -0.1166  2.6883
 8604SOL    HW237275   2.178   2.575   4.412 -1.6439 -0.2130 -3.4426
 8605SOL     OW37276   3.115   0.197  16.292  0.3228 -0.1668  0.7503
 8605SOL    HW137277   3.023   0.190  16.316  0.1421 -1.7711 -0.4016
 8605SOL    HW237278   3.102   0.232  16.204 -1.1150 -1.0741  0.6103
 8606SOL     OW37279   0.367   0.222  10.803  0.3532  0.1105 -0.4306
 8606SOL    HW137280   0.346   0.307  10.842  0.7978  0.1372 -0.2565
 8606SOL    HW237281   0.278   0.190  10.786  1.3058 -1.2211 -2.9477
 8607SOL     OW37282   4.587   0.636   8.395  0.1438 -0.5030 -0.0003
 8607SOL    HW137283   4.569   0.618   8.487  2.7383  1.9047  0.9621
 8607SOL    HW237284   4.614   0.727   8.394  1.1055 -0.7964  0.0106
 8608SOL     OW37285   4.397   3.639   3.655  0.5435  0.2740  0.1581
 8608SOL    HW137286   4.439   3.667   3.736  2.6203  0.7475 -1.0947
 8608SOL    HW237287   4.471   3.637   3.594 -0.0853  0.7837 -0.6178
 8609SOL     OW37288   2.954   1.509   2.884 -0.2884  0.0116  0.0926
 8609SOL    HW137289   2.879   1.557   2.919 -0.7291 -0.4842 -0.1748
 8609SOL    HW237290   2.914   1.466   2.809  0.3304  0.8767 -0.7271
 8610SOL     OW37291   4.548   3.530   7.887  0.1756 -0.2102 -0.6911
 8610SOL    HW137292   4.601   3.461   7.847 -0.1137  1.4163 -3.8481
 8610SOL    HW237293   4.516   3.484   7.964 -0.7479 -0.6518 -1.3394
 8611SOL     OW37294   3.757   0.815   7.809 -0.5416  0.3548 -0.3849
 8611SOL    HW137295   3.806   0.897   7.803 -1.3725  0.6899 -2.4951
 8611SOL    HW237296   3.732   0.793   7.719 -1.4331  0.2337 -0.1146
 8612SOL     OW37297   0.751   0.733  12.003 -0.2019  0.2965 -0.2868
 8612SOL    HW137298   0.838   0.771  12.009 -0.4047  0.6004  0.6751
 8612SOL    HW237299   0.705   0.746  12.086 -1.1344  0.6653 -0.8555
 8613SOL     OW37300   3.179   2.871   7.853 -0.3643 -0.4647  0.4985
 8613SOL    HW137301   3.186   2.783   7.815  0.2354 -0.2157  0.0327
 8613SOL    HW237302   3.109   2.912   7.801 -1.1144 -2.2381  0.1032
 8614SOL     OW37303   1.210   4.630   2.974 -0.5828 -0.4432 -0.2471
 8614SOL    HW137304   1.222   4.697   3.041  0.9384  0.8161 -1.7826
 8614SOL    HW237305   1.141   4.571   3.005 -1.0837 -0.6415 -1.7225
 8615SOL     OW37306   4.505   4.350   5.532  0.7770 -0.0694  0.5252
 8615SOL    HW137307   4.549   4.425   5.492  2.2633 -1.6244 -0.7930
 8615SOL    HW237308   4.484   4.380   5.620  1.2993 -2.9303  1.6155
 8616SOL     OW37309   2.917   3.868   4.604 -0.7632  0.6085 -0.3343
 8616SOL    HW137310   2.845   3.850   4.544 -1.5215  3.5864 -0.3045
 8616SOL    HW237311   2.941   3.958   4.585 -1.0522  0.4702 -1.3867
 8617SOL     OW37312   1.634   0.580   7.422 -0.6638  0.2202  0.0776
 8617SOL    HW137313   1.574   0.606   7.352  0.7709 -1.1700 -1.6475
 8617SOL    HW237314   1.629   0.658   7.478 -1.8744 -0.2740  0.6337
 8618SOL     OW37315   2.142   0.799   3.791  0.5219  0.3248 -0.7077
 8618SOL    HW137316   2.128   0.880   3.840  1.8384 -0.0197  0.2316
 8618SOL    HW237317   2.229   0.778   3.825  0.1994 -0.4480 -0.3678
 8619SOL     OW37318   4.253   0.406   3.659  0.4466  1.1364  0.4056
 8619SOL    HW137319   4.215   0.473   3.715  0.9893  1.6053  0.2172
 8619SOL    HW237320   4.300   0.364   3.732  1.4559  1.7243  0.0890
 8620SOL     OW37321   1.063   1.640   9.397 -0.4540  0.0235 -0.4697
 8620SOL    HW137322   1.038   1.570   9.458 -0.3509 -1.7477 -2.4377
 8620SOL    HW237323   1.147   1.606   9.366 -0.4250 -0.4269  0.0947
 8621SOL     OW37324   4.426   3.821   3.896 -0.3279 -0.0954  0.4187
 8621SOL    HW137325   4.346   3.857   3.857  0.1499  2.2994  1.6059
 8621SOL    HW237326   4.485   3.895   3.879  0.5422 -0.1101  3.3823
 8622SOL     OW37327   0.734   1.615   7.983  0.2936 -0.1615 -0.1443
 8622SOL    HW137328   0.658   1.668   7.955  1.2227  1.6105  0.7022
 8622SOL    HW237329   0.752   1.662   8.065 -2.0094  1.8128 -0.7582
 8623SOL     OW37330   1.364   1.344   4.024 -0.3330 -0.0966 -0.0426
 8623SOL    HW137331   1.329   1.383   3.944 -2.3149 -0.2976  0.7104
 8623SOL    HW237332   1.299   1.275   4.043 -0.0076 -0.4712 -0.2942
 8624SOL     OW37333   2.327   3.124  15.570  0.1734  0.2978  0.1507
 8624SOL    HW137334   2.414   3.133  15.530  1.5594 -3.4780  2.3379
 8624SOL    HW237335   2.335   3.033  15.598 -0.8504  0.3428  0.6076
 8625SOL     OW37336   3.725   2.256   5.878  0.0193 -0.8328  0.1828
 8625SOL    HW137337   3.652   2.306   5.842 -0.8819 -0.9069  1.8848
 8625SOL    HW237338   3.784   2.317   5.922 -1.9894  0.8796  0.5113
 8626SOL     OW37339   3.452   2.000   7.049  0.3574 -0.2094  0.0550
 8626SOL    HW137340   3.388   2.027   7.115  0.0340 -1.5410  0.2712
 8626SOL    HW237341   3.521   2.053   7.088  1.5302 -1.0566 -0.9007
 8627SOL     OW37342   0.320   2.243  15.497 -0.1153  0.0708 -0.2450
 8627SOL    HW137343   0.289   2.307  15.560  1.1254  0.1520  0.2916
 8627SOL    HW237344   0.284   2.165  15.540 -2.0913  2.4597  2.3845
 8628SOL     OW37345   3.939   0.731  13.292 -0.0874  0.0285  0.3116
 8628SOL    HW137346   3.945   0.792  13.219 -1.1178 -1.0399 -0.6765
 8628SOL    HW237347   3.856   0.761  13.330 -0.6467  0.4238 -1.1925
 8629SOL     OW37348   4.527   3.906  11.927 -0.0870 -0.0548  0.9504
 8629SOL    HW137349   4.574   3.823  11.937  0.8481  0.2546 -0.8610
 8629SOL    HW237350   4.465   3.897  11.855  2.4141  3.0811 -1.6055
 8630SOL     OW37351   3.005   3.213   5.070 -0.4342  0.2412 -0.0374
 8630SOL    HW137352   2.995   3.197   4.976  1.1538 -3.4131  0.4110
 8630SOL    HW237353   2.958   3.295   5.085  0.8848  1.0207 -0.2095
 8631SOL     OW37354   2.949   0.598   3.504 -0.6705 -0.8088  0.4533
 8631SOL    HW137355   2.956   0.683   3.548 -0.8471  0.6029 -2.2438
 8631SOL    HW237356   2.960   0.537   3.577  1.5043 -0.8865  0.0538
 8632SOL     OW37357   0.211   3.877  16.265  0.4526 -0.6348  0.1744
 8632SOL    HW137358   0.233   3.922  16.347 -2.2687 -1.2014  1.2104
 8632SOL    HW237359   0.128   3.922  16.250  0.1300 -1.3511 -0.1664
 8633SOL     OW37360   0.657   0.096   3.583  0.5548 -0.6115  0.0082
 8633SOL    HW137361   0.620   0.015   3.549  1.7141 -1.1760  0.0889
 8633SOL    HW237362   0.606   0.109   3.663  0.3582 -0.7706 -0.0953
 8634SOL     OW37363   0.418   1.645   4.771  0.4488  0.1797  0.0169
 8634SOL    HW137364   0.472   1.718   4.739  0.5911  0.1155  0.1118
 8634SOL    HW237365   0.404   1.682   4.858  0.4719  0.3407 -0.0472
 8635SOL     OW37366   3.889   2.480   0.272  0.0791 -1.0135 -0.6699
 8635SOL    HW137367   3.980   2.488   0.301 -0.0239 -0.6341 -0.4400
 8635SOL    HW237368   3.899   2.430   0.191 -2.6805 -1.8969 -0.4492
 8636SOL     OW37369   2.736   2.140  15.297 -1.0590  0.2672 -0.1664
 8636SOL    HW137370   2.677   2.209  15.266 -0.0744 -0.2641 -3.1969
 8636SOL    HW237371   2.729   2.074  15.228 -0.5985 -0.2925  0.3234
 8637SOL     OW37372   1.947   1.224   1.486  0.1959 -0.1356 -0.2909
 8637SOL    HW137373   1.977   1.162   1.420 -1.0227  0.1835 -1.1431
 8637SOL    HW237374   1.940   1.168   1.563 -2.0178 -1.0671 -1.1774
 8638SOL     OW37375   1.037   3.671   4.694  0.9285  0.0829 -0.2467
 8638SOL    HW137376   0.978   3.729   4.742  2.3859  3.1293 -2.1434
 8638SOL    HW237377   1.124   3.680   4.733 -0.2735 -1.8037  2.9015
 8639SOL     OW37378   2.838   2.022   7.500  0.3811 -0.0772 -0.2819
 8639SOL    HW137379   2.847   1.974   7.582  1.2911  0.5772 -0.0017
 8639SOL    HW237380   2.864   2.111   7.524 -2.4597  0.6829 -0.0138
 8640SOL     OW37381   0.052   0.399   1.580  0.3885  0.2059  1.0751
 8640SOL    HW137382   0.083   0.460   1.647  1.6107  0.4100  0.3083
 8640SOL    HW237383   4.678   0.397   1.590  0.3654  1.7575  1.2377
 8641SOL     OW37384   3.511   1.521  14.358 -0.4640 -0.0247 -0.2458
 8641SOL    HW137385   3.501   1.442  14.305 -0.0797 -0.4986  0.3931
 8641SOL    HW237386   3.429   1.528  14.405 -0.8815 -0.9012 -0.8454
 8642SOL     OW37387   3.039   4.120   5.578  0.3086  0.1296  0.0416
 8642SOL    HW137388   2.965   4.075   5.620 -0.2750  2.3434  1.4378
 8642SOL    HW237389   3.086   4.046   5.540  1.6934  0.1152  1.7377
 8643SOL     OW37390   4.697   0.532   6.708 -0.3656 -0.4504  0.4287
 8643SOL    HW137391   0.005   0.534   6.618  0.4026  0.4186  0.7088
 8643SOL    HW237392   4.617   0.481   6.698  0.3226 -1.1180 -1.5431
 8644SOL     OW37393   3.786   2.829   9.315  0.6513  0.4195  0.0605
 8644SOL    HW137394   3.812   2.898   9.253 -0.9871  2.4230  1.6315
 8644SOL    HW237395   3.705   2.805   9.269  0.4698  1.1017  0.0260
 8645SOL     OW37396   2.127   1.427   3.338 -0.1350  0.4196 -0.0978
 8645SOL    HW137397   2.075   1.489   3.287 -1.0300  0.7900  1.2753
 8645SOL    HW237398   2.068   1.377   3.394 -0.8329  1.9171  0.4939
 8646SOL     OW37399   0.144   4.677   5.995  0.5037 -0.0641 -0.3878
 8646SOL    HW137400   0.189   4.598   6.025 -0.2260 -0.3182  0.0599
 8646SOL    HW237401   0.200   4.694   5.920  0.4379 -2.1252 -0.8988
 8647SOL     OW37402   0.010   1.959   4.266  0.3711  0.6117 -0.0229
 8647SOL    HW137403   4.716   2.036   4.212  0.4323  0.9781  0.4843
 8647SOL    HW237404   4.646   1.942   4.304  0.4560  0.9161  0.3044
 8648SOL     OW37405   0.261   0.369   4.070  0.0094 -0.2248  0.2444
 8648SOL    HW137406   0.242   0.298   4.010 -1.2968 -1.1282  1.7311
 8648SOL    HW237407   0.237   0.335   4.156  2.0838  0.2330  1.0028
 8649SOL     OW37408   2.382   2.210   3.479 -0.2035  0.3376  0.5380
 8649SOL    HW137409   2.443   2.250   3.418 -0.4971  0.0296  0.0455
 8649SOL    HW237410   2.391   2.118   3.455 -0.8880  1.4087 -3.8275
 8650SOL     OW37411   0.554   3.545  15.235 -0.0636  0.2141 -0.3904
 8650SOL    HW137412   0.467   3.578  15.255  1.0019  2.2418  0.9070
 8650SOL    HW237413   0.601   3.627  15.216  0.7319 -0.3936 -1.0533
 8651SOL     OW37414   4.356   3.612   4.087  0.7286  0.2840  0.8433
 8651SOL    HW137415   4.420   3.682   4.084 -0.8516  1.5737 -2.1881
 8651SOL    HW237416   4.390   3.558   4.016  0.1493  0.5133  0.3899
 8652SOL     OW37417   4.015   0.285   3.863 -0.2214 -0.0904 -0.3132
 8652SOL    HW137418   3.928   0.265   3.829  0.2664  1.2253 -2.3417
 8652SOL    HW237419   4.042   0.369   3.827  0.6370 -0.9753 -1.7379
 8653SOL     OW37420   3.831   2.232   6.986  0.4584 -0.2424 -0.1172
 8653SOL    HW137421   3.793   2.183   7.059 -0.3515 -1.0226 -1.0562
 8653SOL    HW237422   3.783   2.314   6.976  2.1494  0.8813  1.0839
 8654SOL     OW37423   1.763   1.083   6.387  0.2181  0.0614 -0.6094
 8654SOL    HW137424   1.808   1.038   6.458  0.1055  0.2026 -0.4485
 8654SOL    HW237425   1.788   1.174   6.406  1.0860 -0.0325 -1.2568
 8655SOL     OW37426   0.303   2.633   4.975 -0.3796 -0.0551  0.1979
 8655SOL    HW137427   0.346   2.655   4.892 -1.8982  2.8265  0.1733
 8655SOL    HW237428   0.227   2.690   4.964 -1.5789 -1.5269  0.8877
 8656SOL     OW37429   1.798   1.759  12.176  0.9207 -0.4517 -0.1839
 8656SOL    HW137430   1.878   1.807  12.199  0.2938  0.6148 -0.3022
 8656SOL    HW237431   1.744   1.809  12.116 -0.3723 -0.2016  1.1958
 8657SOL     OW37432   2.475   0.012  13.604 -0.4923 -0.1845 -0.0019
 8657SOL    HW137433   2.419   0.017  13.527 -1.7226 -0.6459  0.8455
 8657SOL    HW237434   2.537   4.664  13.585  0.9006  0.6190  1.6337
 8658SOL     OW37435   4.582   3.317   1.609  0.1292  0.0042  0.3499
 8658SOL    HW137436   4.569   3.224   1.595  1.9774 -0.0413 -1.0544
 8658SOL    HW237437   4.552   3.347   1.524 -1.7334 -1.4956  0.4875
 8659SOL     OW37438   2.553   0.378   2.719  0.5132 -0.1629 -0.2849
 8659SOL    HW137439   2.462   0.348   2.722  0.6294 -0.6418 -1.5722
 8659SOL    HW237440   2.564   0.350   2.628  2.5827 -0.4632  0.0521
 8660SOL     OW37441   1.084   1.828   9.604 -0.6272 -0.2319 -0.2387
 8660SOL    HW137442   1.174   1.850   9.577 -1.9967  1.9749 -3.0900
 8660SOL    HW237443   1.065   1.781   9.523  0.6415  1.0840 -1.3139
 8661SOL     OW37444   4.263   3.247   2.865 -0.0549  0.2141  0.0660
 8661SOL    HW137445   4.258   3.240   2.769  1.6475  1.1745 -0.0803
 8661SOL    HW237446   4.233   3.336   2.881 -0.6130  0.2418 -1.1053
 8662SOL     OW37447   4.415   4.035  15.679  0.4825  0.0997 -0.3862
 8662SOL    HW137448   4.390   3.977  15.607  1.1249  0.1620 -0.6628
 8662SOL    HW237449   4.485   3.980  15.714  0.6514  0.8013  0.3768
 8663SOL     OW37450   3.244   1.505  17.532 -0.0789  0.4215 -0.2943
 8663SOL    HW137451   3.182   1.465  17.470  0.4917 -0.2168 -0.4504
 8663SOL    HW237452   3.315   1.442  17.519  0.7281  1.0511  1.0484
 8664SOL     OW37453   1.576   0.819  11.730  0.1899 -0.5093 -0.5031
 8664SOL    HW137454   1.531   0.746  11.771 -2.4160  2.5342  2.0229
 8664SOL    HW237455   1.505   0.871  11.693 -1.7131 -1.6167  1.6596
 8665SOL     OW37456   2.723   1.143   2.211  0.5268 -0.2211  0.5534
 8665SOL    HW137457   2.806   1.122   2.253  0.8990 -0.6027 -0.3697
 8665SOL    HW237458   2.681   1.191   2.282 -1.6332  0.9863 -1.5407
 8666SOL     OW37459   2.372   4.230   8.408  0.7187 -0.3534 -0.6417
 8666SOL    HW137460   2.335   4.243   8.320 -0.4467  0.6864  0.0083
 8666SOL    HW237461   2.304   4.248   8.472 -0.3632 -0.0830 -1.8656
 8667SOL     OW37462   4.553   4.146   8.187 -0.2900  0.7854  0.1225
 8667SOL    HW137463   4.510   4.230   8.201  0.1082  1.1877 -1.0175
 8667SOL    HW237464   4.628   4.150   8.247 -0.5196  0.2142  0.4513
 8668SOL     OW37465   0.927   1.030   4.577  0.6842  0.3264  0.0818
 8668SOL    HW137466   0.921   1.061   4.486  1.1777 -0.1436 -0.1074
 8668SOL    HW237467   0.946   1.107   4.630  0.6452  1.3709 -1.3947
 8669SOL     OW37468   1.062   0.630   7.749  0.2490  0.0162 -0.2966
 8669SOL    HW137469   1.109   0.556   7.789 -3.3451 -1.4532  1.2371
 8669SOL    HW237470   1.011   0.580   7.686 -0.3348 -0.6135  0.6725
 8670SOL     OW37471   2.800   1.612  11.377 -0.3133  0.3926  0.0386
 8670SOL    HW137472   2.827   1.629  11.467 -0.7126 -1.4213  0.4966
 8670SOL    HW237473   2.860   1.671  11.330  0.8194 -0.3204  0.5999
 8671SOL     OW37474   4.660   4.679   2.932  0.3037  0.0984  0.3201
 8671SOL    HW137475   4.600   4.657   2.861 -1.0218 -0.3073  1.5658
 8671SOL    HW237476   0.021   4.637   2.906  0.7978  0.1760  1.7702
 8672SOL     OW37477   3.614   1.460  16.786 -0.4713 -0.9831 -0.5576
 8672SOL    HW137478   3.559   1.534  16.811  2.7387  1.2841 -0.1595
 8672SOL    HW237479   3.699   1.502  16.776 -2.0377  2.0997 -1.0193
 8673SOL     OW37480   1.708   1.939   0.928 -0.4108 -0.3543  0.3382
 8673SOL    HW137481   1.700   1.958   1.021 -0.2369  0.4855  0.1855
 8673SOL    HW237482   1.801   1.920   0.917 -0.4970 -1.4461  1.4780
 8674SOL     OW37483   4.705   3.883   3.266 -0.0376 -0.4769 -0.4740
 8674SOL    HW137484   0.042   3.808   3.269  2.1634  1.1539 -2.8806
 8674SOL    HW237485   0.045   3.951   3.241 -0.2479 -0.3721 -0.7040
 8675SOL     OW37486   0.097   3.431   2.510  0.1818  0.0751  0.4209
 8675SOL    HW137487   0.034   3.503   2.507 -0.9934 -0.9287  0.8877
 8675SOL    HW237488   0.130   3.449   2.422  0.9784 -2.3669  0.1971
 8676SOL     OW37489   0.411   2.533  10.616  0.3635  0.2484 -0.5405
 8676SOL    HW137490   0.437   2.463  10.556 -0.1556  0.4999 -1.0723
 8676SOL    HW237491   0.352   2.483  10.672 -1.5343  0.9073 -1.9379
 8677SOL     OW37492   4.238   2.078   8.499  0.3072  0.2655  0.2551
 8677SOL    HW137493   4.266   2.080   8.590 -0.6231 -0.3145  0.5517
 8677SOL    HW237494   4.256   1.988   8.474 -0.5260  0.0834  0.3356
 8678SOL     OW37495   4.277   4.279   3.730  0.1115  0.4117  0.5825
 8678SOL    HW137496   4.265   4.268   3.825 -3.9136  0.0729  0.0359
 8678SOL    HW237497   4.306   4.189   3.713 -1.5284 -0.1756  0.9280
 8679SOL     OW37498   3.229   2.477  13.727 -0.4127 -0.0667  0.1606
 8679SOL    HW137499   3.196   2.559  13.688  1.4560  0.5626 -0.1063
 8679SOL    HW237500   3.312   2.459  13.682 -1.4602  0.2026 -1.9150
 8680SOL     OW37501   1.940   1.203  11.793 -0.0599  0.5125  0.1198
 8680SOL    HW137502   1.857   1.157  11.806 -0.1416 -0.0035 -2.1642
 8680SOL    HW237503   1.923   1.291  11.828  0.1644  1.1436 -1.3209
 8681SOL     OW37504   4.368   0.464   5.389 -0.2523 -0.0783 -0.1500
 8681SOL    HW137505   4.460   0.440   5.400 -0.3880 -0.2192  0.6946
 8681SOL    HW237506   4.320   0.381   5.384 -0.6025  0.0579  0.9074
 8682SOL     OW37507   3.157   3.348   4.261 -0.0504  0.1789 -0.2059
 8682SOL    HW137508   3.130   3.316   4.175  0.4711 -2.1682  0.5226
 8682SOL    HW237509   3.087   3.310   4.314 -0.2992  0.5033 -0.3029
 8683SOL     OW37510   0.636   3.303   6.528  0.3657  0.0216 -0.5235
 8683SOL    HW137511   0.716   3.349   6.502  0.7481 -1.0156 -1.1631
 8683SOL    HW237512   0.569   3.367   6.551 -0.7977 -1.5344  0.4557
 8684SOL     OW37513   3.133   2.784   7.192  1.0737 -0.0608 -0.1997
 8684SOL    HW137514   3.211   2.835   7.172  0.6626  0.0054 -1.6162
 8684SOL    HW237515   3.105   2.838   7.266 -1.5486 -1.2859 -0.2934
 8685SOL     OW37516   0.648   2.728  14.603 -0.0931  0.2345  0.5821
 8685SOL    HW137517   0.605   2.783  14.669 -0.3710  1.8843 -0.9647
 8685SOL    HW237518   0.732   2.773  14.592  0.5075 -0.0140  4.2222
 8686SOL     OW37519   3.746   0.666   0.603  0.4973 -0.1141  0.1565
 8686SOL    HW137520   3.653   0.666   0.582  0.5243 -3.1089  0.1703
 8686SOL    HW237521   3.787   0.670   0.516  0.9409 -0.6369  0.3394
 8687SOL     OW37522   3.499   3.146   0.511 -0.1168 -0.1868  0.8280
 8687SOL    HW137523   3.518   3.239   0.517  1.5238 -0.4878  0.3273
 8687SOL    HW237524   3.588   3.110   0.513 -0.8723 -2.0816  0.7022
 8688SOL     OW37525   0.196   3.425   1.326 -0.0509 -0.0406  0.2566
 8688SOL    HW137526   0.161   3.511   1.304  0.3521  0.8503  3.1241
 8688SOL    HW237527   0.196   3.437   1.421 -0.7830  1.0619  0.1075
 8689SOL     OW37528   3.309   2.160  11.067 -0.1640  0.1122 -0.1858
 8689SOL    HW137529   3.281   2.179  10.978 -1.9313  0.2324  0.3941
 8689SOL    HW237530   3.376   2.227  11.079  0.0984  0.0254 -1.2019
 8690SOL     OW37531   1.641   2.017   5.638 -0.1691  0.6618 -0.0128
 8690SOL    HW137532   1.575   2.005   5.570  0.2116 -1.6989  0.0238
 8690SOL    HW237533   1.700   1.943   5.623 -1.8318 -1.2167  2.6864
 8691SOL     OW37534   0.534   1.358   5.010  0.0229  0.1364 -0.0228
 8691SOL    HW137535   0.461   1.419   5.019 -0.2301 -0.3490  1.3006
 8691SOL    HW237536   0.487   1.277   4.988 -0.6220  1.0714 -2.0233
 8692SOL     OW37537   4.340   1.667   3.868  0.1927 -0.5872 -0.0035
 8692SOL    HW137538   4.383   1.752   3.878  2.3561 -1.4202 -2.2332
 8692SOL    HW237539   4.382   1.621   3.941 -0.5118 -0.4551  0.4854
 8693SOL     OW37540   1.412   4.110  17.093 -1.0061  0.0644 -0.2941
 8693SOL    HW137541   1.408   4.016  17.110 -2.1927  0.0669 -0.5743
 8693SOL    HW237542   1.506   4.127  17.104 -1.3476 -0.1546  2.7912
 8694SOL     OW37543   3.149   1.765  15.117 -0.0998 -0.4253 -0.0742
 8694SOL    HW137544   3.227   1.819  15.104 -1.8629  1.9064 -0.8718
 8694SOL    HW237545   3.197   1.689  15.152 -0.6572 -0.1042  1.4073
 8695SOL     OW37546   3.448   2.318   5.995  0.1221  0.2252 -0.0066
 8695SOL    HW137547   3.499   2.399   6.006  0.1308  0.2451 -0.1828
 8695SOL    HW237548   3.359   2.344   6.018 -0.5914 -2.3682  0.1661
 8696SOL     OW37549   0.744   3.264   0.638 -0.1370 -0.0359  0.0283
 8696SOL    HW137550   0.740   3.246   0.732  0.0871  0.4112  0.1237
 8696SOL    HW237551   0.821   3.322   0.634 -1.9249  2.2814 -0.7989
 8697SOL     OW37552   0.623   1.442   8.276  0.0191 -0.3996  0.4426
 8697SOL    HW137553   0.671   1.523   8.289  1.6211 -1.0073 -1.8716
 8697SOL    HW237554   0.593   1.438   8.186  0.8728 -0.8734  0.1820
 8698SOL     OW37555   2.056   1.079   5.554 -0.3964  0.2853 -0.2227
 8698SOL    HW137556   2.029   1.126   5.633  1.2102  2.0691 -0.7276
 8698SOL    HW237557   1.969   1.070   5.515 -0.3736  0.6150 -0.3567
 8699SOL     OW37558   3.369   4.540   6.512 -0.0578  0.7695  0.4286
 8699SOL    HW137559   3.406   4.462   6.471  1.5412  2.0734 -0.5940
 8699SOL    HW237560   3.288   4.525   6.561  0.1589  0.6984  0.7607
 8700SOL     OW37561   3.877   1.637   2.587  0.4236  0.3668 -0.0057
 8700SOL    HW137562   3.885   1.732   2.582  1.5127  0.1290 -2.6810
 8700SOL    HW237563   3.962   1.607   2.621  0.8818  0.4460 -1.0675
 8701SOL     OW37564   3.046   0.835   1.442 -0.0063 -0.2838 -0.3980
 8701SOL    HW137565   3.083   0.855   1.356  0.4494 -0.5465 -0.2634
 8701SOL    HW237566   3.010   0.923   1.453  2.3110  0.5630  0.4007
 8702SOL     OW37567   1.385   3.219  11.720  0.3472  0.5363 -0.2804
 8702SOL    HW137568   1.425   3.242  11.636 -0.9016  1.7670 -0.5426
 8702SOL    HW237569   1.468   3.244  11.762  1.8005 -0.9313 -2.2803
 8703SOL     OW37570   4.164   2.324   8.779  0.0511 -0.4558  0.0027
 8703SOL    HW137571   4.103   2.308   8.707  0.9200  0.3667 -0.8988
 8703SOL    HW237572   4.225   2.382   8.733 -2.4116  0.5058 -2.0593
 8704SOL     OW37573   0.254   2.532   7.866  0.3778 -0.4629 -0.4224
 8704SOL    HW137574   0.235   2.537   7.960 -0.3345  0.6272 -0.6391
 8704SOL    HW237575   0.271   2.620   7.835  1.6402 -0.8927 -0.9503
 8705SOL     OW37576   2.547   3.747   8.541 -0.0166 -0.5340 -0.2067
 8705SOL    HW137577   2.453   3.763   8.535  0.1099  0.1231 -0.4232
 8705SOL    HW237578   2.541   3.652   8.552  2.1228 -0.7165 -0.4639
 8706SOL     OW37579   3.813   3.661  13.661 -0.9001 -0.0767 -0.0320
 8706SOL    HW137580   3.723   3.630  13.674 -0.2252 -1.5356  1.1761
 8706SOL    HW237581   3.802   3.756  13.672  0.9013  0.2954 -1.4565
 8707SOL     OW37582   4.661   2.251   3.563  0.1348 -0.1396 -0.0071
 8707SOL    HW137583   0.010   2.219   3.619  1.1328 -0.4181 -1.4265
 8707SOL    HW237584   4.582   2.204   3.591 -0.1765 -1.0452 -2.4266
 8708SOL     OW37585   3.011   3.820   6.250  0.0747  0.4712 -0.2251
 8708SOL    HW137586   2.917   3.821   6.266  0.2260  1.6665  0.6107
 8708SOL    HW237587   3.046   3.892   6.303 -1.0773 -1.2086  2.8260
 8709SOL     OW37588   1.864   0.250  13.046 -0.4590 -0.2585 -0.2163
 8709SOL    HW137589   1.922   0.248  12.970 -0.3372  0.1736 -0.1374
 8709SOL    HW237590   1.864   0.342  13.074  3.2668 -0.0283 -0.9595
 8710SOL     OW37591   0.533   0.354   2.244  0.0308 -0.3626  0.2778
 8710SOL    HW137592   0.606   0.293   2.254 -0.1146 -1.2280 -3.7993
 8710SOL    HW237593   0.584   0.434   2.234  0.5561 -0.6062  0.9904
 8711SOL     OW37594   1.466   1.245  16.393 -0.9118  0.2162 -0.4826
 8711SOL    HW137595   1.504   1.238  16.305 -0.6194 -1.1770 -0.2430
 8711SOL    HW237596   1.469   1.155  16.424  0.9056  0.3027 -0.4131
 8712SOL     OW37597   3.995   4.706   8.053 -0.2969  0.4047 -0.3568
 8712SOL    HW137598   4.059   4.635   8.049 -1.5044 -0.7278  0.5049
 8712SOL    HW237599   3.956   4.691   7.968  0.4468  0.6811 -0.7470
 8713SOL     OW37600   4.051   4.106   1.404  0.5336  0.0654 -0.8189
 8713SOL    HW137601   4.095   4.168   1.347  0.9129 -1.8302 -2.5808
 8713SOL    HW237602   4.110   4.096   1.479  0.2924 -1.1969 -0.7997
 8714SOL     OW37603   0.099   3.436   4.395  0.1346 -0.3658  0.0410
 8714SOL    HW137604   0.185   3.478   4.390  0.6173 -1.3013  0.3487
 8714SOL    HW237605   0.068   3.464   4.481  0.6280 -1.6198  0.6299
 8715SOL     OW37606   1.062   2.631  14.191 -0.1461 -0.3069  0.5802
 8715SOL    HW137607   0.994   2.569  14.165  1.6363 -1.9394 -0.1971
 8715SOL    HW237608   1.013   2.711  14.212  1.8645  1.2068 -0.3905
 8716SOL     OW37609   0.152   3.249   2.720  0.2111  0.3190  0.1549
 8716SOL    HW137610   0.229   3.198   2.694 -0.0480 -0.0259  0.0636
 8716SOL    HW237611   0.132   3.312   2.651  0.1486 -0.7199 -0.7751
 8717SOL     OW37612   4.657   1.689  14.400 -0.6983 -0.2983 -0.5627
 8717SOL    HW137613   4.626   1.603  14.431 -0.6377  1.1837  3.5680
 8717SOL    HW237614   0.027   1.669  14.384 -0.6964 -0.9041  0.1581
 8718SOL     OW37615   2.657   4.123   2.193  0.4477 -0.4021 -0.5525
 8718SOL    HW137616   2.676   4.108   2.100  1.0381 -1.0258 -0.3332
 8718SOL    HW237617   2.696   4.044   2.230 -0.2813 -0.3548  0.2968
 8719SOL     OW37618   4.554   0.345  14.830  0.0237  0.0434  0.1520
 8719SOL    HW137619   4.628   0.404  14.817  0.9772 -1.3371 -0.6072
 8719SOL    HW237620   4.485   0.401  14.792  0.2852  0.4185  0.2259
 8720SOL     OW37621   1.512   0.224  13.854 -0.7801 -0.0982  0.2842
 8720SOL    HW137622   1.596   0.250  13.815 -0.4121 -0.6330  0.7318
 8720SOL    HW237623   1.456   0.301  13.844  0.3168  1.1442  3.6993
 8721SOL     OW37624   0.691   0.721  15.409 -0.0666 -0.3423 -0.1260
 8721SOL    HW137625   0.747   0.749  15.481  1.2631  1.5851 -1.9230
 8721SOL    HW237626   0.716   0.628  15.406 -0.3207 -0.4435  1.0916
 8722SOL     OW37627   0.739   1.307   5.720 -0.1890  0.4531 -0.1826
 8722SOL    HW137628   0.795   1.365   5.771  0.2705 -1.0181  0.9845
 8722SOL    HW237629   0.724   1.233   5.780 -0.1200  0.5085 -0.0972
 8723SOL     OW37630   1.720   3.176  13.875 -0.4006 -0.3992  0.0223
 8723SOL    HW137631   1.653   3.239  13.902  0.6344  0.7652 -0.1275
 8723SOL    HW237632   1.661   3.124  13.820 -1.6421  0.4955  0.5160
 8724SOL     OW37633   2.611   1.592  10.302  0.0191  0.3115 -0.3080
 8724SOL    HW137634   2.689   1.567  10.252  1.2832 -0.2792  1.9879
 8724SOL    HW237635   2.655   1.643  10.369  2.7268  0.8918 -2.5284
 8725SOL     OW37636   1.599   3.409  13.921  0.0255  0.2972 -0.1945
 8725SOL    HW137637   1.645   3.492  13.929  2.6194 -1.1297 -0.1983
 8725SOL    HW237638   1.521   3.434  13.873 -0.2680 -1.5817 -0.6875
 8726SOL     OW37639   4.196   3.366  13.630 -0.5851 -0.6960  0.3061
 8726SOL    HW137640   4.164   3.455  13.619  0.7820  0.0778  2.6208
 8726SOL    HW237641   4.244   3.388  13.710 -0.3156  1.1978 -0.3741
 8727SOL     OW37642   0.800   4.564   5.397  0.9072  0.4167 -0.0023
 8727SOL    HW137643   0.832   4.480   5.431 -0.6250 -1.0620 -2.2015
 8727SOL    HW237644   0.865   4.633   5.411  0.8067  0.5084  0.0127
 8728SOL     OW37645   3.380   1.388   5.193 -0.0639  0.0543  0.9257
 8728SOL    HW137646   3.476   1.390   5.196 -0.0412  2.4906 -1.8438
 8728SOL    HW237647   3.375   1.362   5.285 -0.7182  0.0589  0.8935
 8729SOL     OW37648   1.224   1.698  15.286 -0.8353 -0.4431  0.0021
 8729SOL    HW137649   1.179   1.689  15.369 -3.4101  0.6213 -1.2766
 8729SOL    HW237650   1.231   1.793  15.291 -1.1675 -0.5076  1.6348
 8730SOL     OW37651   4.468   0.582  12.981  0.4187  0.7274 -0.1678
 8730SOL    HW137652   4.453   0.565  13.074  0.5493  0.5862 -0.1730
 8730SOL    HW237653   4.509   0.498  12.958 -3.0740 -1.0907  0.1447
 8731SOL     OW37654   0.241   4.548  15.914 -0.6702  0.2962  0.0054
 8731SOL    HW137655   0.333   4.558  15.937 -1.4965  1.9383  2.6192
 8731SOL    HW237656   0.237   4.520  15.823  3.0143 -0.9887  0.2333
 8732SOL     OW37657   3.635   1.580   7.548 -0.1594 -0.2286 -0.2055
 8732SOL    HW137658   3.568   1.603   7.613 -1.1901 -3.3480 -0.1630
 8732SOL    HW237659   3.650   1.487   7.565 -1.1593 -0.5488 -1.1012
 8733SOL     OW37660   2.710   3.473   9.090  0.5930  0.1087 -0.4495
 8733SOL    HW137661   2.720   3.378   9.103 -0.0211  0.2743  1.2001
 8733SOL    HW237662   2.773   3.503   9.155  0.5066  1.6768 -1.0888
 8734SOL     OW37663   3.746   2.451   8.923 -0.4142 -0.4214  0.2862
 8734SOL    HW137664   3.820   2.392   8.939 -1.4187 -1.3590  1.5724
 8734SOL    HW237665   3.786   2.517   8.867  1.2910  0.0100  2.0051
 8735SOL     OW37666   0.141   4.106  10.961  0.3348  0.7489 -0.1331
 8735SOL    HW137667   0.192   4.152  11.027  0.5970  2.7206 -1.6939
 8735SOL    HW237668   0.173   4.017  10.972  1.8370  1.2773 -0.2296
 8736SOL     OW37669   0.193   1.813   8.855 -0.3252 -0.1947  0.0503
 8736SOL    HW137670   0.239   1.837   8.935  0.3872  1.0404 -0.7450
 8736SOL    HW237671   0.245   1.737   8.830  0.1214 -0.3567  1.4711
 8737SOL     OW37672   2.450   2.711   9.115 -0.7210  0.3495 -0.0507
 8737SOL    HW137673   2.509   2.661   9.059  0.3720  2.6656 -0.9503
 8737SOL    HW237674   2.368   2.689   9.072 -0.8540  0.5597  0.0941
 8738SOL     OW37675   2.771   3.257   4.160 -0.1235 -0.2411 -0.1238
 8738SOL    HW137676   2.763   3.162   4.166 -0.8622 -0.1626  0.1035
 8738SOL    HW237677   2.799   3.267   4.069 -3.3071 -1.5882 -1.2332
 8739SOL     OW37678   4.543   4.465  10.451  0.4928  0.1665 -0.7380
 8739SOL    HW137679   4.633   4.497  10.446  1.1979 -1.4796  1.1916
 8739SOL    HW237680   4.549   4.417  10.368  2.5755 -1.2019  0.2119
 8740SOL     OW37681   1.615   0.865   9.135 -0.8558  0.1483  0.2173
 8740SOL    HW137682   1.560   0.943   9.142  1.1943  1.7949 -1.9712
 8740SOL    HW237683   1.551   0.796   9.152  0.6178 -1.1936  0.3316
 8741SOL     OW37684   1.111   1.508  11.733 -0.2815 -0.4010  0.3978
 8741SOL    HW137685   1.142   1.468  11.815 -0.9339 -0.4470  0.6160
 8741SOL    HW237686   1.027   1.463  11.733  0.3620 -1.5802 -0.2674
 8742SOL     OW37687   3.956   3.220   2.758  0.2687  0.5089 -0.0578
 8742SOL    HW137688   3.958   3.309   2.793  2.5790  0.6682 -0.5739
 8742SOL    HW237689   3.862   3.203   2.761  0.0924  1.2305 -1.4998
 8743SOL     OW37690   3.109   1.036   5.918  0.2635  0.0343 -0.3771
 8743SOL    HW137691   3.035   1.074   5.871 -0.4382  0.8315  1.3754
 8743SOL    HW237692   3.058   0.976   5.971  0.7201  0.9601  1.1263
 8744SOL     OW37693   3.632   4.625   9.181  0.2569 -0.2712 -0.0730
 8744SOL    HW137694   3.640   4.605   9.274  0.9494  0.3722  0.0060
 8744SOL    HW237695   3.617   4.719   9.178  0.3699 -0.2479  0.0608
 8745SOL     OW37696   3.200   2.384   3.494 -0.0268  0.7309 -0.0845
 8745SOL    HW137697   3.182   2.314   3.557 -0.1274  0.1691 -0.7394
 8745SOL    HW237698   3.123   2.404   3.440  0.6281  0.9330 -0.9372
 8746SOL     OW37699   1.505   3.234   7.030 -0.5291  0.0270  0.2851
 8746SOL    HW137700   1.596   3.261   7.034 -0.2808 -0.3239 -2.6569
 8746SOL    HW237701   1.486   3.235   7.123 -2.0396 -1.0156 -0.0085
 8747SOL     OW37702   0.152   3.514   7.661  0.3977 -0.4849 -0.5702
 8747SOL    HW137703   0.160   3.580   7.591 -0.6144 -2.0953 -2.2071
 8747SOL    HW237704   0.241   3.484   7.678  0.8129  0.3611 -1.2259
 8748SOL     OW37705   2.777   4.025   6.613  0.0451  0.7872 -0.1082
 8748SOL    HW137706   2.691   4.025   6.655  0.3089  0.8036  0.4308
 8748SOL    HW237707   2.831   4.068   6.679  0.4147  0.3908 -0.1510
 8749SOL     OW37708   1.665   0.318   3.695 -0.1664  0.9638  0.6377
 8749SOL    HW137709   1.670   0.252   3.764 -0.1783  0.4787  0.1776
 8749SOL    HW237710   1.756   0.308   3.666 -0.3208 -1.3611  0.9438
 8750SOL     OW37711   0.931   0.618  10.032 -0.2721 -0.6855  0.4337
 8750SOL    HW137712   1.005   0.666   9.995 -0.1237 -0.5777  0.8647
 8750SOL    HW237713   0.864   0.674   9.993 -0.0138  0.6817  1.9473
 8751SOL     OW37714   4.361   4.599   8.278  0.1813  0.2170  0.0502
 8751SOL    HW137715   4.379   4.685   8.240  0.1336  0.0881 -0.2670
 8751SOL    HW237716   4.269   4.614   8.299 -0.3109 -3.8996  0.8055
 8752SOL     OW37717   2.530   4.312   5.860  0.1521 -0.4423 -0.1224
 8752SOL    HW137718   2.517   4.218   5.850 -1.0539 -0.4183  1.2750
 8752SOL    HW237719   2.601   4.331   5.799  1.3115 -0.9683  1.0715
 8753SOL     OW37720   2.086   3.199   9.104 -0.0251  0.2271 -0.0525
 8753SOL    HW137721   2.109   3.270   9.164 -1.4711 -0.2738  1.1204
 8753SOL    HW237722   2.048   3.133   9.163 -0.2546  1.8845  1.6624
 8754SOL     OW37723   0.398   3.319  11.970  0.0088 -0.4483  0.2784
 8754SOL    HW137724   0.473   3.367  11.934  2.3396 -1.0915  4.3630
 8754SOL    HW237725   0.428   3.232  11.994 -0.1768 -0.0187  2.0362
 8755SOL     OW37726   0.485   4.248   7.355  0.5130 -0.0984  0.4762
 8755SOL    HW137727   0.509   4.334   7.389 -1.2980  0.3189  0.7009
 8755SOL    HW237728   0.521   4.190   7.422  2.2144  0.4769  0.0628
 8756SOL     OW37729   3.142   3.497   2.418  0.0164  0.1246 -0.6231
 8756SOL    HW137730   3.132   3.405   2.442 -0.7946  0.5409  0.6672
 8756SOL    HW237731   3.212   3.500   2.354  0.4691 -1.0567 -0.1817
 8757SOL     OW37732   3.210   3.905   9.461  0.3413  0.8196  0.0255
 8757SOL    HW137733   3.257   3.987   9.442  0.5712  0.3843 -1.2991
 8757SOL    HW237734   3.265   3.861   9.525 -2.3375 -1.1579  0.9658
 8758SOL     OW37735   3.465   2.225   3.728 -0.4080 -0.1339  0.5801
 8758SOL    HW137736   3.440   2.143   3.686 -0.6445  0.8234 -1.1692
 8758SOL    HW237737   3.385   2.258   3.768  0.5859  1.1160  1.5709
 8759SOL     OW37738   2.813   3.878   4.092 -0.3094  0.4700 -0.3380
 8759SOL    HW137739   2.758   3.811   4.052  0.8541 -1.4141  1.2239
 8759SOL    HW237740   2.804   3.955   4.037  0.2344  1.1946  0.5926
 8760SOL     OW37741   0.820   3.793   2.021  0.3122 -0.6630  0.4684
 8760SOL    HW137742   0.893   3.838   1.978 -1.5147  1.1337 -0.7458
 8760SOL    HW237743   0.821   3.704   1.986 -0.8717 -0.3699 -0.3137
 8761SOL     OW37744   3.237   3.358   5.392  0.3855 -0.2975 -0.7201
 8761SOL    HW137745   3.142   3.364   5.384  0.1917 -1.4960  0.6464
 8761SOL    HW237746   3.246   3.263   5.393  1.3320 -0.1891  0.4852
 8762SOL     OW37747   2.956   0.173   5.273  0.2389  0.4794  0.4220
 8762SOL    HW137748   2.938   0.079   5.263  1.8329  0.2928 -0.7837
 8762SOL    HW237749   2.962   0.176   5.368 -1.2034  3.5838  0.3966
 8763SOL     OW37750   1.032   3.695   4.418  0.6003  0.4527 -0.3621
 8763SOL    HW137751   1.026   3.680   4.512  2.6568  1.2289 -0.1080
 8763SOL    HW237752   1.078   3.617   4.386  1.6093 -0.2279  2.7371
 8764SOL     OW37753   0.565   3.055   4.241 -0.2276 -0.2462 -0.0088
 8764SOL    HW137754   0.606   3.140   4.256 -1.2469  0.0633  1.0039
 8764SOL    HW237755   0.525   3.068   4.156 -0.2755  1.1366  0.2277
 8765SOL     OW37756   2.648   1.585   5.801 -0.1786  0.4681 -0.1423
 8765SOL    HW137757   2.687   1.504   5.833 -2.4610 -0.6129 -0.1019
 8765SOL    HW237758   2.574   1.585   5.862 -0.9286 -1.3960 -1.0550
 8766SOL     OW37759   3.531   3.637   2.803 -0.6424  0.2985  0.1428
 8766SOL    HW137760   3.458   3.592   2.847  0.5135  0.1866  1.9371
 8766SOL    HW237761   3.480   3.695   2.746  2.6359  1.5570 -1.4577
 8767SOL     OW37762   1.531   2.080  13.742  0.5995 -0.4263 -0.4325
 8767SOL    HW137763   1.574   1.995  13.730 -1.3606 -1.8660  2.8383
 8767SOL    HW237764   1.466   2.056  13.808  0.0542  0.3021 -0.6981
 8768SOL     OW37765   3.183   3.204   2.215 -0.0500  0.5334 -0.2973
 8768SOL    HW137766   3.136   3.259   2.152 -0.3038 -0.4584 -0.9779
 8768SOL    HW237767   3.275   3.228   2.205  0.9225 -3.2074 -0.5607
 8769SOL     OW37768   3.746   1.093   3.792  0.0954 -0.1014 -0.2253
 8769SOL    HW137769   3.758   1.048   3.708  2.0530  0.7732 -0.4328
 8769SOL    HW237770   3.652   1.078   3.799  0.3273 -1.0347  0.9063
 8770SOL     OW37771   3.309   4.016   2.366  0.1484 -0.4130  0.0423
 8770SOL    HW137772   3.313   3.983   2.276  2.1783 -0.3715  0.0957
 8770SOL    HW237773   3.374   4.084   2.351  0.4221 -0.0878  2.6940
 8771SOL     OW37774   4.030   0.001   5.706  0.2640 -0.3223  0.5441
 8771SOL    HW137775   4.085   0.025   5.632  1.2638  0.9340  1.6953
 8771SOL    HW237776   4.016   0.088   5.742  1.2432  0.5754 -1.2557
 8772SOL     OW37777   4.618   0.059   9.004  0.2020 -0.3310 -0.1830
 8772SOL    HW137778   4.708   0.027   9.005  1.2158  2.4244 -1.8527
 8772SOL    HW237779   4.578   0.022   8.926  0.1428  0.0881 -0.3506
 8773SOL     OW37780   1.063   0.242  11.703 -0.5158  0.7033  0.8234
 8773SOL    HW137781   1.147   0.205  11.731  0.0023  0.6918 -0.7827
 8773SOL    HW237782   1.005   0.211  11.773 -1.4920  0.6104 -0.0359
 8774SOL     OW37783   3.417   2.962   5.206 -0.9867  0.1022  0.0566
 8774SOL    HW137784   3.425   2.874   5.170  1.5775 -0.5216  2.2134
 8774SOL    HW237785   3.499   2.979   5.253 -3.1825  0.8714  3.6376
 8775SOL     OW37786   3.011   2.054   4.733  0.0432 -0.5509  0.0237
 8775SOL    HW137787   3.023   2.049   4.638  1.1118 -2.2593  0.2557
 8775SOL    HW237788   3.032   1.965   4.759 -1.8709 -0.5348  1.6372
 8776SOL     OW37789   3.175   3.476  10.588 -0.0299  0.0885  0.0782
 8776SOL    HW137790   3.252   3.442  10.542 -0.8955  0.0232 -1.3093
 8776SOL    HW237791   3.203   3.531  10.662 -0.6656  1.8075 -0.9710
 8777SOL     OW37792   3.187   1.818   3.722  0.1980 -0.4605 -0.0753
 8777SOL    HW137793   3.168   1.744   3.664 -1.7277  0.3207 -0.4669
 8777SOL    HW237794   3.282   1.824   3.725  0.1922 -0.3667 -0.0761
 8778SOL     OW37795   3.242   3.620   6.144  0.2176 -0.2415 -0.5234
 8778SOL    HW137796   3.328   3.661   6.141 -0.3295  0.9449 -0.2717
 8778SOL    HW237797   3.252   3.567   6.223 -0.3382  1.4967  0.7179
 8779SOL     OW37798   1.991   2.310   0.175  0.6521 -0.2500  0.1161
 8779SOL    HW137799   2.083   2.285   0.162  1.1855  0.9697  1.5411
 8779SOL    HW237800   1.965   2.272   0.259 -2.6152 -0.4561 -1.0227
 8780SOL     OW37801   2.262   3.540   3.469  0.2478 -0.8530 -0.1288
 8780SOL    HW137802   2.303   3.486   3.402  2.7546  0.2306  0.5526
 8780SOL    HW237803   2.194   3.585   3.419  1.2647  1.9216  0.9994
 8781SOL     OW37804   3.794   1.229   7.548 -0.0817 -0.2763  0.7054
 8781SOL    HW137805   3.819   1.162   7.484 -0.6789  0.5546 -0.3896
 8781SOL    HW237806   3.866   1.292   7.544 -0.4362  0.1605  1.1981
 8782SOL     OW37807   1.952   0.081  11.588  0.3843  0.2444  0.1945
 8782SOL    HW137808   1.954   4.714  11.624  2.9947  1.8253  3.9542
 8782SOL    HW237809   1.861   0.110  11.593  0.1062 -0.4814 -0.7612
 8783SOL     OW37810   4.292   3.856  13.813  0.0091  0.0037  0.1177
 8783SOL    HW137811   4.358   3.849  13.745  0.2516  3.2626  0.0212
 8783SOL    HW237812   4.253   3.942  13.793 -0.6978 -0.6195 -1.1781
 8784SOL     OW37813   1.144   1.462  16.331 -0.0252 -0.2293 -0.5122
 8784SOL    HW137814   1.137   1.387  16.390  0.5722  0.7935  0.8714
 8784SOL    HW237815   1.163   1.540  16.384  0.4559 -0.8381  0.2004
 8785SOL     OW37816   0.146   4.703  14.259 -0.2164 -0.1580 -0.4055
 8785SOL    HW137817   0.185   4.630  14.210  1.1571 -1.1599  2.2122
 8785SOL    HW237818   0.103   0.020  14.182 -0.1169 -1.0458 -0.9115
 8786SOL     OW37819   3.615   2.595  17.624 -0.3683  0.0264  0.0307
 8786SOL    HW137820   3.638   2.616   0.025  2.6196  0.1080 -0.7486
 8786SOL    HW237821   3.519   2.590  17.629 -0.3638  1.6479  1.6107
 8787SOL     OW37822   2.209   3.448   4.381 -0.0401  0.5878 -0.6300
 8787SOL    HW137823   2.218   3.475   4.473 -1.1824 -2.5755  0.4103
 8787SOL    HW237824   2.133   3.390   4.389  2.3478 -2.6564 -1.4683
 8788SOL     OW37825   3.840   3.987   3.240  0.9858 -0.4726 -0.3194
 8788SOL    HW137826   3.795   3.958   3.319  1.8343 -0.8342  0.0216
 8788SOL    HW237827   3.893   4.057   3.276 -0.1654  2.0210 -3.4927
 8789SOL     OW37828   0.672   3.506  15.555  0.1776 -0.3000  0.3210
 8789SOL    HW137829   0.753   3.552  15.534 -0.2901  0.4064  0.0653
 8789SOL    HW237830   0.665   3.505  15.650  1.0301 -0.4569  0.3836
 8790SOL     OW37831   2.334   0.640   0.478 -0.5797 -0.6552  0.0558
 8790SOL    HW137832   2.257   0.653   0.532 -2.1060 -3.5251 -1.4626
 8790SOL    HW237833   2.297   0.656   0.391  1.7997 -1.0815 -1.0406
 8791SOL     OW37834   2.804   0.853   1.079 -0.0890 -0.2885  0.0517
 8791SOL    HW137835   2.825   0.766   1.112 -0.1966 -0.5512 -0.5537
 8791SOL    HW237836   2.787   0.830   0.987  0.8465 -0.6644 -0.0233
 8792SOL     OW37837   4.269   3.320   0.884 -0.1895 -0.3510  0.1848
 8792SOL    HW137838   4.346   3.343   0.831  1.5858 -3.3147  1.4949
 8792SOL    HW237839   4.252   3.405   0.926  2.5877 -0.1140  0.8399
 8793SOL     OW37840   2.429   3.968   5.588  0.3766  0.6371 -0.5336
 8793SOL    HW137841   2.513   3.997   5.553  0.9799  0.6282  0.8696
 8793SOL    HW237842   2.379   3.971   5.507 -0.6057 -1.1690 -0.0054
 8794SOL     OW37843   4.277   2.466   1.667 -0.4406 -0.4895 -0.0713
 8794SOL    HW137844   4.298   2.378   1.699  1.4945  0.1371  0.3778
 8794SOL    HW237845   4.363   2.504   1.651  0.1599 -0.3191  3.4366
 8795SOL     OW37846   3.602   2.429   9.469 -0.0431 -0.0642 -0.5886
 8795SOL    HW137847   3.681   2.434   9.415  1.6142  0.2233  1.8251
 8795SOL    HW237848   3.651   2.391   9.542  1.2115  2.4237 -0.1125
 8796SOL     OW37849   0.915   1.152   6.060 -0.5185 -0.0783  0.0759
 8796SOL    HW137850   0.832   1.137   6.015 -0.2191  2.4051 -1.2884
 8796SOL    HW237851   0.965   1.123   5.983 -2.2391 -0.7417 -0.7936
 8797SOL     OW37852   3.921   3.441   4.969 -0.0525 -0.0950  0.3831
 8797SOL    HW137853   3.975   3.385   4.914 -0.0226 -1.2679  1.6074
 8797SOL    HW237854   3.968   3.450   5.053 -0.7026  1.4112  0.5962
 8798SOL     OW37855   1.893   4.110   5.398  0.5416  0.2217 -0.0152
 8798SOL    HW137856   1.961   4.139   5.458  2.0672  0.0579 -1.6581
 8798SOL    HW237857   1.819   4.163   5.428 -0.1117 -0.1752 -0.9371
 8799SOL     OW37858   3.094   1.756   7.484  0.5898  0.1650  0.3305
 8799SOL    HW137859   3.121   1.682   7.539  1.7718  0.7671  0.5470
 8799SOL    HW237860   3.142   1.827   7.526 -1.4219  0.5800  1.9273
 8800SOL     OW37861   2.499   3.675   4.758 -0.0426 -0.3504  0.0125
 8800SOL    HW137862   2.557   3.708   4.689  1.0962  1.4122  1.8332
 8800SOL    HW237863   2.487   3.756   4.807  0.7000 -0.4775  0.3994
 8801SOL     OW37864   0.159   1.526   1.314 -0.4506  0.4141 -0.5064
 8801SOL    HW137865   0.156   1.517   1.219  4.3127 -0.4339 -0.6065
 8801SOL    HW237866   0.068   1.508   1.335  0.0846 -0.9065  0.6590
 8802SOL     OW37867   4.318   1.284   7.779 -0.0407  0.8356 -0.6593
 8802SOL    HW137868   4.339   1.341   7.706 -2.0986  0.4680 -1.5416
 8802SOL    HW237869   4.326   1.198   7.737  0.7854 -0.4076  2.0110
 8803SOL     OW37870   2.622   2.126   5.550 -0.1853 -0.7859 -0.4066
 8803SOL    HW137871   2.609   2.050   5.493 -2.0391 -1.0617  0.3778
 8803SOL    HW237872   2.659   2.189   5.489 -2.2142 -0.3976 -1.2467
 8804SOL     OW37873   0.472   0.342   4.430 -0.0693  0.0926 -0.5728
 8804SOL    HW137874   0.534   0.329   4.502  2.0327 -1.9601 -2.7341
 8804SOL    HW237875   0.498   0.267   4.377 -0.9762 -0.5881 -0.0595
 8805SOL     OW37876   3.005   4.135  15.146 -0.7672  0.3305 -0.0491
 8805SOL    HW137877   2.965   4.184  15.074 -0.6115  0.7106  0.1193
 8805SOL    HW237878   3.074   4.096  15.092  1.1197  2.1451  1.0402
 8806SOL     OW37879   0.229   1.544   4.640  0.0486  0.3844 -0.0114
 8806SOL    HW137880   0.239   1.576   4.551  1.1570 -0.0764 -0.0491
 8806SOL    HW237881   0.292   1.597   4.688 -1.5419  1.1152  1.2974
 8807SOL     OW37882   0.172   2.137   8.138  0.3368 -0.1670  0.5756
 8807SOL    HW137883   0.101   2.189   8.100 -1.2862 -2.6295  0.1888
 8807SOL    HW237884   0.159   2.153   8.231  0.6821 -2.1087  0.9667
 8808SOL     OW37885   2.942   3.934   9.367 -0.3061  0.7072 -0.6280
 8808SOL    HW137886   3.017   3.897   9.414 -2.2259 -0.7408  1.2977
 8808SOL    HW237887   2.984   3.969   9.288  0.3679  0.1859 -0.5063
 8809SOL     OW37888   2.479   2.570   5.623  0.3632  0.3562 -0.0440
 8809SOL    HW137889   2.462   2.664   5.624  1.3219  0.5787 -3.7069
 8809SOL    HW237890   2.410   2.527   5.674 -1.8095  2.0183 -1.6161
 8810SOL     OW37891   0.785   4.226   8.164 -0.2603  0.0355 -0.7416
 8810SOL    HW137892   0.713   4.278   8.198  0.7837  0.0215  1.4385
 8810SOL    HW237893   0.738   4.149   8.131 -3.3902  0.8132  1.9186
 8811SOL     OW37894   0.136   4.026   3.674 -0.1839 -0.4222  0.0611
 8811SOL    HW137895   0.075   4.071   3.733 -0.8243  1.6711 -2.1872
 8811SOL    HW237896   0.176   3.967   3.738  0.0889 -0.2833  0.0155
 8812SOL     OW37897   0.025   4.036   5.735  0.0890 -0.5229  0.1286
 8812SOL    HW137898   4.722   4.044   5.643 -0.1471  1.0381  0.3237
 8812SOL    HW237899   4.671   3.987   5.765 -0.8188  1.3926  0.9651
 8813SOL     OW37900   3.844   0.209   8.059  0.3187 -0.1820 -0.5459
 8813SOL    HW137901   3.874   0.118   8.061  1.3662  0.2114  2.4447
 8813SOL    HW237902   3.912   0.247   8.114  2.2781 -2.9612 -1.0274
 8814SOL     OW37903   2.603   2.379   6.533 -0.1803 -0.0420  0.8337
 8814SOL    HW137904   2.513   2.407   6.519  0.1250  0.9285  0.8222
 8814SOL    HW237905   2.573   2.313   6.595 -4.5158  0.5482 -0.6044
 8815SOL     OW37906   2.439   2.743   0.640 -0.0754  0.1570  0.7336
 8815SOL    HW137907   2.482   2.778   0.717 -1.4505  1.7106  0.7926
 8815SOL    HW237908   2.497   2.672   0.611 -2.9777 -1.6692 -0.6147
 8816SOL     OW37909   3.067   0.623  12.738  0.3141  0.1078 -0.4708
 8816SOL    HW137910   3.103   0.712  12.727  1.5361 -0.2361  0.7685
 8816SOL    HW237911   3.028   0.604  12.653  1.8599  0.3761 -1.2383
 8817SOL     OW37912   0.505   1.757   4.015  0.3158 -0.0283  0.1995
 8817SOL    HW137913   0.511   1.816   4.090 -0.9985  0.8247 -0.3600
 8817SOL    HW237914   0.513   1.826   3.950  1.1628  0.3446  0.7003
 8818SOL     OW37915   0.558   3.135  13.033 -0.6169 -0.2434  0.3094
 8818SOL    HW137916   0.487   3.173  12.982 -0.5897 -0.4062  0.1501
 8818SOL    HW237917   0.507   3.072  13.084 -0.0671  0.9151  2.3139
 8819SOL     OW37918   3.705   3.348   9.892 -0.1660 -0.4662  0.1554
 8819SOL    HW137919   3.769   3.419   9.904 -0.0064 -0.4583 -0.7749
 8819SOL    HW237920   3.743   3.291   9.825  0.3193  0.2177 -0.1571
 8820SOL     OW37921   1.672   0.033   2.487 -0.9549  0.4419 -0.5047
 8820SOL    HW137922   1.645   0.102   2.548 -1.3347 -0.2389  0.0939
 8820SOL    HW237923   1.730   0.085   2.431  1.6510 -0.2667  1.5360
 8821SOL     OW37924   4.377   3.108   3.557  0.1024  0.0506  0.7017
 8821SOL    HW137925   4.377   3.132   3.465  0.1915 -1.1986  0.3762
 8821SOL    HW237926   4.286   3.114   3.585  0.2243 -1.1445  1.3865
 8822SOL     OW37927   0.801   3.429   2.635 -0.1248  0.4687  0.5520
 8822SOL    HW137928   0.896   3.434   2.645 -0.1125  0.8678  0.2469
 8822SOL    HW237929   0.781   3.513   2.592  1.1918  0.7899  0.5835
 8823SOL     OW37930   0.652   1.046  13.791  0.4225 -0.2681 -0.1709
 8823SOL    HW137931   0.648   1.122  13.849  0.5384 -1.0914  0.9263
 8823SOL    HW237932   0.645   0.967  13.844  2.2003 -0.9809 -0.9875
 8824SOL     OW37933   2.945   0.877   6.080 -0.3293 -0.3723 -0.2097
 8824SOL    HW137934   2.908   0.935   6.146 -0.3043  0.8269 -1.2432
 8824SOL    HW237935   2.872   0.820   6.058  0.7724 -1.2419 -1.6518
 8825SOL     OW37936   0.286   2.520   2.585  0.1767  0.2091 -0.3096
 8825SOL    HW137937   0.253   2.524   2.496  0.3211 -1.6534 -0.4440
 8825SOL    HW237938   0.227   2.461   2.633  1.9543 -0.6381  0.8586
 8826SOL     OW37939   2.765   1.560   3.877 -0.1304 -0.1959 -0.0630
 8826SOL    HW137940   2.788   1.468   3.865 -1.2510 -0.7286  1.9742
 8826SOL    HW237941   2.773   1.596   3.789 -1.8049 -1.5363 -0.7559
 8827SOL     OW37942   0.702   2.007   1.802  0.1198 -0.0692 -0.2789
 8827SOL    HW137943   0.670   1.923   1.835 -0.0107 -0.3238 -1.0574
 8827SOL    HW237944   0.653   2.024   1.722  1.7076 -3.4277 -1.9524
 8828SOL     OW37945   0.781   1.299   0.820 -0.2095 -0.7699 -0.5899
 8828SOL    HW137946   0.743   1.370   0.871  0.3434 -0.5831 -0.4443
 8828SOL    HW237947   0.872   1.328   0.818 -0.6874  0.7470  0.1504
 8829SOL     OW37948   1.410   1.660   2.199  0.1092  0.3753  0.2048
 8829SOL    HW137949   1.318   1.680   2.217 -0.0816 -0.7448  0.4834
 8829SOL    HW237950   1.450   1.748   2.197  3.6184 -1.2617 -1.1171
 8830SOL     OW37951   1.037   0.853   3.148 -0.3659  0.4073 -0.1311
 8830SOL    HW137952   1.112   0.793   3.144  0.7176  1.8435 -1.1486
 8830SOL    HW237953   1.074   0.936   3.117  5.7250 -2.0536  0.6262
 8831SOL     OW37954   4.571   2.824  17.054 -0.0840  0.1458  0.8785
 8831SOL    HW137955   4.570   2.920  17.053  2.4801  0.1498  0.8262
 8831SOL    HW237956   4.535   2.797  16.970 -2.2635  0.7667  1.6051
 8832SOL     OW37957   1.895   3.058   2.582  0.4323 -0.8183  0.3621
 8832SOL    HW137958   1.855   3.016   2.659  1.5693 -0.0703  1.3434
 8832SOL    HW237959   1.874   2.994   2.513  1.8977 -1.4115  0.4684
 8833SOL     OW37960   1.231   1.548   1.161  0.0847 -0.0177  0.0882
 8833SOL    HW137961   1.154   1.592   1.197  0.6888  0.0237  1.3446
 8833SOL    HW237962   1.196   1.471   1.117 -0.5204  0.0750  0.4190
 8834SOL     OW37963   1.381   3.082  12.702  0.2553  0.4764 -0.3078
 8834SOL    HW137964   1.457   3.074  12.645 -0.6713  1.1226 -1.6171
 8834SOL    HW237965   1.324   3.137  12.649 -0.8794 -2.4074 -2.0900
 8835SOL     OW37966   1.806   2.936   5.862 -0.0076  0.2874 -0.0167
 8835SOL    HW137967   1.753   2.871   5.908  1.0720 -2.0332 -2.0418
 8835SOL    HW237968   1.885   2.934   5.915  0.7811  1.7444 -1.1237
 8836SOL     OW37969   4.585   0.992  10.160 -0.4333 -0.2116 -0.1052
 8836SOL    HW137970   4.606   1.044  10.237  0.2171 -0.0593 -0.3814
 8836SOL    HW237971   4.508   1.037  10.125  0.1083  1.4825  0.8974
 8837SOL     OW37972   4.447   2.920  10.501  0.0094 -0.3723  0.2981
 8837SOL    HW137973   4.440   3.015  10.511  0.9651 -0.1291 -1.3042
 8837SOL    HW237974   4.391   2.899  10.426  1.6756  2.5703 -1.7547
 8838SOL     OW37975   4.496   2.803   5.376  0.1319 -0.1256 -0.1350
 8838SOL    HW137976   4.455   2.751   5.307  2.2352 -1.0390 -0.7206
 8838SOL    HW237977   4.440   2.777   5.449 -1.1492 -1.1002 -1.4618
 8839SOL     OW37978   1.423   1.980   2.471 -0.0817  0.3004  0.1488
 8839SOL    HW137979   1.346   1.936   2.437  0.2102  0.3351 -0.5518
 8839SOL    HW237980   1.448   2.054   2.416 -1.6607 -0.0816 -1.0748
 8840SOL     OW37981   3.004   0.032   4.231 -0.2657 -0.0264 -0.7416
 8840SOL    HW137982   3.011   0.022   4.326 -0.9102  2.0476 -0.4771
 8840SOL    HW237983   2.961   4.671   4.210 -0.9306  0.1041  0.0917
 8841SOL     OW37984   3.005   3.112   8.508  0.1042  0.2676  0.1896
 8841SOL    HW137985   3.062   3.178   8.548  0.3810 -0.1715  0.5308
 8841SOL    HW237986   2.924   3.125   8.557 -0.2415 -0.2683 -0.2412
 8842SOL     OW37987   0.419   2.600  14.440  0.3387 -0.0313 -0.3016
 8842SOL    HW137988   0.338   2.599  14.490  1.0573  0.9757  0.8898
 8842SOL    HW237989   0.472   2.658  14.496  0.2195 -0.3358  0.1239
 8843SOL     OW37990   2.152   1.916   0.029  0.5698 -0.3226 -0.8706
 8843SOL    HW137991   2.063   1.935   0.058  1.1094 -0.9886  1.1850
 8843SOL    HW237992   2.170   1.828   0.062  0.1579 -0.1365 -0.1597
 8844SOL     OW37993   0.552   2.501   2.625 -0.2193  0.1073 -0.4105
 8844SOL    HW137994   0.550   2.418   2.578  1.0017 -1.3324  2.1037
 8844SOL    HW237995   0.460   2.513   2.650 -0.7217 -0.6975 -1.9229
 8845SOL     OW37996   3.356   0.353  10.484 -0.9251  0.3735 -0.1891
 8845SOL    HW137997   3.271   0.368  10.526 -1.1902  0.1905 -0.6584
 8845SOL    HW237998   3.350   0.420  10.417  3.6025  0.5542 -0.3877
 8846SOL     OW37999   0.377   2.049   4.217 -0.3768 -0.1065  0.3931
 8846SOL    HW138000   0.405   1.965   4.254 -0.1035  0.6155  1.8243
 8846SOL    HW238001   0.397   2.040   4.123 -1.5592 -0.3915  0.1665
 8847SOL     OW38002   1.536   1.220   6.242 -0.0544  0.5441  0.1083
 8847SOL    HW138003   1.454   1.265   6.261  0.0818  1.0999 -0.6236
 8847SOL    HW238004   1.580   1.236   6.326  1.4156 -1.4510 -0.2887
 8848SOL     OW38005   4.343   0.445  15.325 -0.6136 -0.1930  0.5950
 8848SOL    HW138006   4.336   0.482  15.237  0.4400  1.5250  1.2260
 8848SOL    HW238007   4.434   0.464  15.348  0.1929 -1.6083 -1.3926
 8849SOL     OW38008   3.844   1.614   9.344 -0.3289 -0.0621  0.2861
 8849SOL    HW138009   3.913   1.670   9.380  1.0734 -1.5793 -0.0368
 8849SOL    HW238010   3.872   1.523   9.352  2.0133  0.6225  0.0111
 8850SOL     OW38011   1.616   0.437   2.342  0.2902 -0.3320  0.3184
 8850SOL    HW138012   1.638   0.409   2.431 -0.0537 -3.5503 -0.5828
 8850SOL    HW238013   1.533   0.392   2.327 -0.2162  0.6793  0.1532
 8851SOL     OW38014   0.780   4.293   7.262 -0.2728  0.1311 -0.1365
 8851SOL    HW138015   0.696   4.290   7.217 -0.2912  1.8119 -0.2147
 8851SOL    HW238016   0.758   4.371   7.313 -0.9558  0.9352 -1.6606
 8852SOL     OW38017   3.626   2.395  14.866 -0.3483 -0.1105  0.2785
 8852SOL    HW138018   3.687   2.390  14.792  0.2766 -0.0568  0.7830
 8852SOL    HW238019   3.620   2.305  14.899 -0.3159 -0.0901  0.3411
 8853SOL     OW38020   1.543   0.017  17.093  0.2269  0.1843  0.3167
 8853SOL    HW138021   1.545   4.653  17.050  0.0659  1.0126 -1.3651
 8853SOL    HW238022   1.450   0.042  17.086  0.1166 -0.3427 -0.1121
 8854SOL     OW38023   2.685   0.971   4.365 -0.2192  0.6543  0.5156
 8854SOL    HW138024   2.687   0.935   4.454 -0.5556  1.6034  0.9085
 8854SOL    HW238025   2.673   0.887   4.320 -1.8199  1.0238  0.2408
 8855SOL     OW38026   1.649   0.534   2.624  0.3352 -0.2985  0.2576
 8855SOL    HW138027   1.680   0.571   2.707  0.3943 -0.0608  0.1290
 8855SOL    HW238028   1.556   0.532   2.645 -0.3848  2.4086 -2.7863
 8856SOL     OW38029   2.818   4.036   5.693 -0.4091  0.2460  0.4697
 8856SOL    HW138030   2.825   3.941   5.695 -2.5726  0.0948  0.4465
 8856SOL    HW238031   2.791   4.044   5.784  3.3248 -0.2870  1.6040
 8857SOL     OW38032   0.819   2.379  10.340 -0.6345 -0.1758 -0.1676
 8857SOL    HW138033   0.792   2.368  10.249 -0.8483 -1.3708  0.0459
 8857SOL    HW238034   0.771   2.304  10.374 -0.7818 -1.0735 -2.3460
 8858SOL     OW38035   2.994   2.761   6.670 -0.9018  0.4670  0.0219
 8858SOL    HW138036   2.917   2.706   6.681  0.2820 -1.3006 -0.6478
 8858SOL    HW238037   3.034   2.758   6.757 -0.5186 -1.1267 -0.2172
 8859SOL     OW38038   0.527   2.147   2.201  0.5978 -0.0740 -0.2892
 8859SOL    HW138039   0.494   2.129   2.113 -0.4805 -0.9084  0.2861
 8859SOL    HW238040   0.491   2.234   2.218  0.4833  0.1756 -1.8306
 8860SOL     OW38041   1.348   2.318  11.920  0.5709  0.1065  0.2039
 8860SOL    HW138042   1.292   2.308  11.842 -1.6344 -2.2888  2.0680
 8860SOL    HW238043   1.353   2.413  11.925 -1.2283  0.2587 -0.8037
 8861SOL     OW38044   1.669   0.947   8.038  0.7310  0.0684  0.0217
 8861SOL    HW138045   1.696   0.859   8.065  0.1197 -0.1658 -0.1175
 8861SOL    HW238046   1.575   0.932   8.029  0.5760 -0.3344  2.4994
 8862SOL     OW38047   1.762   2.870   0.897 -0.1948  0.7402  0.4522
 8862SOL    HW138048   1.820   2.862   0.821 -1.7936 -1.8955 -0.4842
 8862SOL    HW238049   1.717   2.951   0.872 -3.3185 -1.0715  0.1231
 8863SOL     OW38050   3.475   3.583  10.706 -0.1175 -0.0442  0.2913
 8863SOL    HW138051   3.495   3.507  10.760  2.1045  1.0214  0.9946
 8863SOL    HW238052   3.386   3.583  10.739 -0.1131 -0.3299  0.3005
 8864SOL     OW38053   2.971   0.193   7.320 -0.6194  0.2597  0.1116
 8864SOL    HW138054   2.876   0.198   7.309 -0.8675 -1.4498  1.5520
 8864SOL    HW238055   2.988   0.179   7.226  0.5370 -0.8528  0.4873
 8865SOL     OW38056   1.234   0.359   4.186 -0.2578 -0.0134  0.7911
 8865SOL    HW138057   1.198   0.412   4.115 -0.1839 -0.2798  0.5529
 8865SOL    HW238058   1.272   0.281   4.145  1.1021  0.9226  0.2606
 8866SOL     OW38059   3.070   4.710   8.715  0.3172 -0.3200 -0.1031
 8866SOL    HW138060   3.021   4.681   8.792 -0.0982  0.4459 -0.0809
 8866SOL    HW238061   3.004   4.720   8.646  0.1655 -0.3891  0.0317
 8867SOL     OW38062   2.680   1.223  11.754  0.2065 -0.1122  0.1624
 8867SOL    HW138063   2.724   1.291  11.805 -0.2516 -0.3898  0.9284
 8867SOL    HW238064   2.636   1.278  11.688  1.3245  0.2959 -0.2342
 8868SOL     OW38065   3.999   2.710   3.839 -0.4551  0.2016 -0.0345
 8868SOL    HW138066   3.944   2.705   3.917  2.8164  1.8926  2.3644
 8868SOL    HW238067   3.988   2.620   3.810 -0.0473  0.5137 -1.1488
 8869SOL     OW38068   0.134   3.229  12.266 -0.0919  0.9384 -0.4204
 8869SOL    HW138069   0.044   3.213  12.295  0.4341 -1.1160  0.0819
 8869SOL    HW238070   0.179   3.189  12.341 -1.3703  1.3127  0.5462
 8870SOL     OW38071   3.872   0.333   2.288  0.0254 -0.3717 -0.4669
 8870SOL    HW138072   3.843   0.351   2.377  1.6503 -3.4528  0.6710
 8870SOL    HW238073   3.880   0.424   2.258  1.0195 -0.3273 -0.0392
 8871SOL     OW38074   0.757   0.274   4.218 -0.3194  0.0987 -0.3429
 8871SOL    HW138075   0.792   0.363   4.222  2.1061 -0.9354  0.8927
 8871SOL    HW238076   0.680   0.288   4.163 -2.4479 -3.7350  1.6343
 8872SOL     OW38077   1.381   1.298   9.280  0.0548  0.3062  0.1914
 8872SOL    HW138078   1.393   1.218   9.228  0.4076 -0.5264  1.5763
 8872SOL    HW238079   1.444   1.285   9.351  1.7267  2.9341 -0.8225
 8873SOL     OW38080   0.892   0.508   0.524 -0.2159 -0.6428 -0.0783
 8873SOL    HW138081   0.934   0.448   0.585  0.5902 -0.1976 -0.1927
 8873SOL    HW238082   0.915   0.588   0.570  1.3866 -0.8787 -0.4473
 8874SOL     OW38083   2.660   4.351   1.133 -0.3442 -0.5469 -0.5955
 8874SOL    HW138084   2.718   4.416   1.171 -2.2028  0.2785  0.8711
 8874SOL    HW238085   2.594   4.402   1.087 -0.6734 -0.2111  0.2357
 8875SOL     OW38086   0.430   0.100   2.194  0.4606 -0.2532 -0.4739
 8875SOL    HW138087   0.353   0.137   2.151 -0.0014 -1.0079 -0.2979
 8875SOL    HW238088   0.479   0.177   2.220  0.3820  0.4278 -2.3082
 8876SOL     OW38089   4.570   4.235   6.036  0.0109  0.2092 -0.2273
 8876SOL    HW138090   4.573   4.207   5.945  0.5484 -2.6938  0.6930
 8876SOL    HW238091   4.603   4.325   6.034 -0.0198  0.2792  2.3119
 8877SOL     OW38092   2.839   3.188   1.708 -0.9673 -0.2152  0.8072
 8877SOL    HW138093   2.792   3.217   1.630 -0.2789  1.3294  0.9624
 8877SOL    HW238094   2.806   3.247   1.776  1.5803 -2.0130  3.6065
 8878SOL     OW38095   2.651   3.752   6.072  0.6534 -0.1781 -0.4974
 8878SOL    HW138096   2.726   3.704   6.038  1.7868  1.4925 -0.3819
 8878SOL    HW238097   2.601   3.778   5.995  1.6271  1.4297 -0.5829
 8879SOL     OW38098   4.037   3.585   8.669 -0.3084 -0.3420  0.3561
 8879SOL    HW138099   3.974   3.657   8.661  0.7195  0.2995 -2.0575
 8879SOL    HW238100   3.996   3.524   8.607  0.3960 -0.1660 -0.2753
 8880SOL     OW38101   1.318   3.568   2.180  0.0743 -0.3402  0.3839
 8880SOL    HW138102   1.241   3.511   2.180 -1.2521  1.4420 -1.4600
 8880SOL    HW238103   1.298   3.642   2.123  0.2844 -0.6512 -0.0925
 8881SOL     OW38104   2.369   0.685   6.742  0.3621  0.0128  0.0884
 8881SOL    HW138105   2.355   0.711   6.651  1.3769  1.5482  0.3695
 8881SOL    HW238106   2.296   0.737   6.775  0.0160 -0.4297  0.0113
 8882SOL     OW38107   2.044   0.016   2.631  0.8972  0.0627 -0.1682
 8882SOL    HW138108   2.103   0.011   2.706  0.5452 -2.5075 -0.0643
 8882SOL    HW238109   2.045   4.647   2.600 -0.7663  0.2986 -0.9274
 8883SOL     OW38110   0.235   1.085  15.612  0.5426  0.2101  0.0068
 8883SOL    HW138111   0.256   0.994  15.591 -1.5780  0.1297 -1.7604
 8883SOL    HW238112   0.264   1.117  15.526  0.9590  0.4006  0.2182
 8884SOL     OW38113   1.620   2.287   7.414  0.1180  0.0304  0.0135
 8884SOL    HW138114   1.554   2.355   7.403 -1.6406 -1.6732  0.1403
 8884SOL    HW238115   1.583   2.209   7.373 -1.2860  0.3467  0.7140
 8885SOL     OW38116   3.823   1.111  10.672  0.2235 -0.6017  0.2425
 8885SOL    HW138117   3.834   1.017  10.690  0.5589 -0.4263  0.9326
 8885SOL    HW238118   3.731   1.118  10.695 -0.2858  2.9484 -2.8315
 8886SOL     OW38119   3.571   0.018   5.231  0.2811  0.2939  0.4066
 8886SOL    HW138120   3.499   0.020   5.293  0.2918 -1.2662  0.4525
 8886SOL    HW238121   3.521   0.029   5.150  1.4753 -0.2085 -0.4040
 8887SOL     OW38122   3.280   3.174   5.043 -0.3431  0.0539 -0.1886
 8887SOL    HW138123   3.186   3.167   5.061 -0.4954  1.4409 -0.4404
 8887SOL    HW238124   3.313   3.119   5.114 -3.1482 -0.4462  0.7715
 8888SOL     OW38125   0.492   1.621   5.256 -0.1493  0.0939  0.4104
 8888SOL    HW138126   0.572   1.613   5.204  0.6576 -2.1103  1.9868
 8888SOL    HW238127   0.427   1.626   5.186  2.0668  1.8218 -1.5250
 8889SOL     OW38128   3.134   3.936   3.541  0.5123 -0.2288 -0.8698
 8889SOL    HW138129   3.054   3.891   3.567 -0.2487  1.0050 -1.0680
 8889SOL    HW238130   3.194   3.862   3.536 -1.1392 -1.5039 -1.5470
 8890SOL     OW38131   3.480   3.991   9.691  0.0764  0.1093 -0.0201
 8890SOL    HW138132   3.401   4.041   9.710  0.6699  0.8046  0.6089
 8890SOL    HW238133   3.540   4.032   9.753 -0.3218 -0.5990  0.8416
 8891SOL     OW38134   2.594   3.966   0.044  0.1175 -0.2877  0.5139
 8891SOL    HW138135   2.626   4.006  17.652  2.9951 -2.7692  0.4075
 8891SOL    HW238136   2.650   3.889   0.051  1.2852  0.6915  1.8943
 8892SOL     OW38137   4.021   3.037  12.417 -0.4802  0.3783  1.1212
 8892SOL    HW138138   3.946   3.008  12.469 -0.1143  0.9835  1.9904
 8892SOL    HW238139   3.992   3.120  12.381  1.4416  0.5017 -0.1112
 8893SOL     OW38140   1.044   1.115   2.993 -0.4579 -0.1157 -0.2425
 8893SOL    HW138141   1.063   1.064   2.914  1.4682  0.8454 -0.4044
 8893SOL    HW238142   1.122   1.171   2.995 -1.3330  1.0790  0.0007
 8894SOL     OW38143   2.744   2.938   6.849 -0.3400 -0.0352  0.4219
 8894SOL    HW138144   2.776   2.918   6.761  0.6601  3.2254  0.0537
 8894SOL    HW238145   2.653   2.956   6.824  0.2022  1.6609 -0.3642
 8895SOL     OW38146   3.158   3.555   8.337  0.3010 -0.5204 -0.3900
 8895SOL    HW138147   3.092   3.594   8.395  2.0077  1.6161  0.1157
 8895SOL    HW238148   3.224   3.625   8.333 -0.2891 -0.0013 -1.0826
 8896SOL     OW38149   3.354   1.587  15.174 -0.2584 -0.2307  0.0491
 8896SOL    HW138150   3.391   1.548  15.254  0.9903  1.0818  0.1063
 8896SOL    HW238151   3.376   1.677  15.198 -1.0959 -0.0365  0.0869
 8897SOL     OW38152   0.325   3.489   3.714  0.4810  0.1037 -0.6499
 8897SOL    HW138153   0.270   3.423   3.673  0.5215  0.5570 -1.4309
 8897SOL    HW238154   0.415   3.457   3.723  1.2169  2.3200 -0.1695
 8898SOL     OW38155   2.902   4.620   5.277 -0.1035 -0.0820  0.2593
 8898SOL    HW138156   2.822   4.607   5.226  0.3173  0.0195 -0.4336
 8898SOL    HW238157   2.879   4.571   5.356  1.2245 -0.6405  0.2925
 8899SOL     OW38158   4.301   1.258   9.895 -0.9702 -0.1807 -0.7229
 8899SOL    HW138159   4.303   1.180   9.950 -0.5845  0.7754  0.6227
 8899SOL    HW238160   4.393   1.284   9.896 -0.7446 -1.0216  0.4505
 8900SOL     OW38161   1.290   1.292   7.156  0.3655 -0.2073  0.0726
 8900SOL    HW138162   1.210   1.253   7.120  1.3397 -1.1930 -1.0426
 8900SOL    HW238163   1.355   1.261   7.093 -0.3999 -0.5666 -0.5479
 8901SOL     OW38164   2.915   2.851   3.201  0.2418 -0.1050 -0.6314
 8901SOL    HW138165   2.840   2.829   3.256  1.3737  1.4690  1.5648
 8901SOL    HW238166   2.864   2.875   3.124  1.0334 -0.8229 -1.3654
 8902SOL     OW38167   1.394   1.854  11.132 -0.5219 -0.2427 -0.0557
 8902SOL    HW138168   1.366   1.819  11.217  2.0659  1.7748  1.6345
 8902SOL    HW238169   1.346   1.936  11.120  2.1658  1.2415 -0.6843
 8903SOL     OW38170   4.179   4.120  14.182  0.1018  0.2080  0.2481
 8903SOL    HW138171   4.185   4.035  14.227 -1.1870 -0.0258 -0.0069
 8903SOL    HW238172   4.270   4.145  14.172 -0.0376 -0.6442 -3.1831
 8904SOL     OW38173   2.561   2.033   4.585 -0.0108 -0.4080  0.0140
 8904SOL    HW138174   2.642   1.982   4.595 -0.9672 -1.7887  0.7170
 8904SOL    HW238175   2.541   2.068   4.672 -0.9290  1.0784 -0.7956
 8905SOL     OW38176   0.178   1.800   0.875  0.2578  0.4164  0.8999
 8905SOL    HW138177   0.148   1.804   0.965  0.7703 -2.3754  1.1919
 8905SOL    HW238178   0.248   1.735   0.873 -0.6886 -0.5630 -0.9061
 8906SOL     OW38179   1.647   0.299   3.094  0.0652  0.0521  0.5460
 8906SOL    HW138180   1.581   0.317   3.027  1.9010  3.2290 -0.4399
 8906SOL    HW238181   1.709   0.372   3.095  1.5689 -1.1339 -3.1042
 8907SOL     OW38182   3.609   2.350   8.609  0.0095 -0.0621  0.3099
 8907SOL    HW138183   3.545   2.328   8.677 -1.1126 -1.0069 -1.0599
 8907SOL    HW238184   3.583   2.442   8.614  0.2593  0.0025  0.4063
 8908SOL     OW38185   2.284   3.947   5.340 -0.0558  0.2139 -0.0223
 8908SOL    HW138186   2.192   3.934   5.320 -0.3772 -3.0839  3.4875
 8908SOL    HW238187   2.321   3.882   5.280  1.6201 -2.5035  3.8804
 8909SOL     OW38188   1.314   3.622   6.649  0.1047 -0.1798  0.2878
 8909SOL    HW138189   1.253   3.595   6.718 -0.4409 -0.2714 -0.2323
 8909SOL    HW238190   1.261   3.606   6.571  1.4180  0.0308 -0.6363
 8910SOL     OW38191   3.541   0.762   8.911 -0.1727 -0.0953 -0.5145
 8910SOL    HW138192   3.602   0.778   8.839  1.3223 -2.5639  0.1819
 8910SOL    HW238193   3.536   0.668   8.892 -0.8305  0.0018 -0.8314
 8911SOL     OW38194   2.535   0.313   3.069 -0.0305 -0.2702  0.8311
 8911SOL    HW138195   2.459   0.292   3.123  0.1602 -0.4083  1.0477
 8911SOL    HW238196   2.510   0.402   3.045  1.0743 -0.3371 -0.5464
 8912SOL     OW38197   1.419   3.368   9.038 -0.3673 -0.3320 -0.6046
 8912SOL    HW138198   1.403   3.379   9.132 -2.1173  1.2841 -1.0805
 8912SOL    HW238199   1.338   3.327   9.008 -0.6859  0.4186 -0.7813
 8913SOL     OW38200   4.043   1.867   5.908  0.8975 -0.2729  0.2379
 8913SOL    HW138201   4.035   1.963   5.905 -2.0366 -0.4907  0.5212
 8913SOL    HW238202   4.048   1.841   5.816  0.8912 -1.1212  0.4867
 8914SOL     OW38203   3.041   1.815   4.575  0.5716 -0.2373  0.0466
 8914SOL    HW138204   3.081   1.861   4.501 -1.3166  1.4637  0.0693
 8914SOL    HW238205   3.117   1.817   4.633  0.4577  1.2139  0.1493
 8915SOL     OW38206   3.339   0.981  14.745  0.5431  0.1098 -0.1467
 8915SOL    HW138207   3.251   1.000  14.714  0.2069 -1.4937 -0.1319
 8915SOL    HW238208   3.346   0.892  14.780  2.6400  0.5959  0.7158
 8916SOL     OW38209   0.085   0.934   6.666  0.3335 -0.2014  0.2923
 8916SOL    HW138210   0.099   0.855   6.718  2.9062 -0.1566 -0.3348
 8916SOL    HW238211   0.047   0.894   6.588 -0.4603  2.4310 -0.6529
 8917SOL     OW38212   1.629   2.910   7.177 -0.3370  0.2370  0.3287
 8917SOL    HW138213   1.553   2.961   7.150  1.0667  2.2397  0.1607
 8917SOL    HW238214   1.688   2.916   7.103 -1.0158 -0.3677 -0.2584
 8918SOL     OW38215   4.261   4.631   7.595 -0.7428  0.5429 -0.3774
 8918SOL    HW138216   4.348   4.650   7.559  0.2063 -1.6324  0.7399
 8918SOL    HW238217   4.272   4.653   7.688 -1.7114 -0.5540 -0.0102
 8919SOL     OW38218   0.836   4.478   6.171 -0.2435  0.7530  0.5609
 8919SOL    HW138219   0.812   4.486   6.079  1.0658  3.5041  0.4596
 8919SOL    HW238220   0.836   4.383   6.180 -0.2260  0.6457 -0.5598
 8920SOL     OW38221   0.345   3.440  11.278  0.0788  0.4947  0.4341
 8920SOL    HW138222   0.422   3.486  11.312  1.1637  1.0520 -2.7495
 8920SOL    HW238223   0.285   3.421  11.349 -1.3382  2.5802 -0.1860
 8921SOL     OW38224   0.844   0.403   6.543  0.2064  0.2045 -0.6932
 8921SOL    HW138225   0.897   0.332   6.505  1.4237  1.9772 -2.3384
 8921SOL    HW238226   0.904   0.443   6.606 -2.3366  2.0184  0.5680
 8922SOL     OW38227   3.703   2.977   9.913  0.5164 -0.4603 -0.3455
 8922SOL    HW138228   3.684   3.024   9.994  0.4882 -1.7426  0.3881
 8922SOL    HW238229   3.626   2.987   9.858  1.1924  1.2041 -0.9842
 8923SOL     OW38230   1.127   3.651   3.093 -0.0667  0.5153  0.3291
 8923SOL    HW138231   1.137   3.557   3.078 -0.5725  0.5485 -0.2202
 8923SOL    HW238232   1.074   3.675   3.017 -2.2213  0.6261  1.8843
 8924SOL     OW38233   0.876   2.317  16.118  0.2155  0.0055 -0.0936
 8924SOL    HW138234   0.831   2.396  16.146  1.7873  0.4373  1.2264
 8924SOL    HW238235   0.962   2.355  16.098 -0.1639 -0.4028 -2.4884
 8925SOL     OW38236   3.352   3.119   8.930 -0.1596 -0.3060 -0.6154
 8925SOL    HW138237   3.310   3.204   8.945  1.1069  0.1203  0.4656
 8925SOL    HW238238   3.335   3.106   8.837  1.5369 -0.2118 -0.9337
 8926SOL     OW38239   4.630   1.579   6.149 -0.3359 -0.2821  0.0050
 8926SOL    HW138240   4.537   1.563   6.167  0.3200 -2.8721  1.0157
 8926SOL    HW238241   4.648   1.512   6.084 -0.9272  0.4932 -0.9571
 8927SOL     OW38242   4.018   0.480   0.459 -0.0057 -0.3976 -0.0597
 8927SOL    HW138243   4.094   0.509   0.409  0.9881 -0.3663  1.4741
 8927SOL    HW238244   3.952   0.456   0.394  0.3572 -3.1147  0.5561
 8928SOL     OW38245   2.297   1.179   3.493  0.1426  0.0228  0.1461
 8928SOL    HW138246   2.283   1.091   3.527 -3.8449 -0.0016 -1.6168
 8928SOL    HW238247   2.333   1.155   3.408 -2.3590  2.1107 -1.4806
 8929SOL     OW38248   1.266   3.855   5.454 -0.4994 -0.3360 -0.1283
 8929SOL    HW138249   1.223   3.821   5.533 -2.6814  3.7385  0.4240
 8929SOL    HW238250   1.278   3.947   5.476  0.8488 -0.4856 -0.2371
 8930SOL     OW38251   0.982   2.009   5.348  0.2035  0.2123 -0.3878
 8930SOL    HW138252   1.073   2.032   5.334 -0.0294  1.2709 -0.1549
 8930SOL    HW238253   0.982   1.928   5.399  1.0140  0.5180  0.0972
 8931SOL     OW38254   0.824   0.259   5.743 -0.1592 -0.0614 -0.7353
 8931SOL    HW138255   0.825   0.224   5.654  1.1264 -3.1539  0.4916
 8931SOL    HW238256   0.737   0.299   5.741  0.6312  1.5697 -2.2175
 8932SOL     OW38257   4.508   0.943   4.992  0.2683  0.8697  0.0056
 8932SOL    HW138258   4.516   1.002   5.067  1.3642 -1.0032  1.3663
 8932SOL    HW238259   4.450   0.999   4.940  0.2608 -0.9945 -1.9891
 8933SOL     OW38260   2.581   0.823   2.695  0.2337  0.8977  0.2725
 8933SOL    HW138261   2.654   0.863   2.648  1.5498 -3.5859 -1.5030
 8933SOL    HW238262   2.540   0.774   2.624 -0.7581  0.7142  0.9632
 8934SOL     OW38263   0.338   1.488   6.505 -0.4319 -0.3397  0.2919
 8934SOL    HW138264   0.328   1.577   6.538  0.6501 -0.1599  0.1532
 8934SOL    HW238265   0.293   1.434   6.570  1.1066 -0.1132  1.5522
 8935SOL     OW38266   3.008   2.553   9.273  0.0543 -0.1999  0.0132
 8935SOL    HW138267   3.027   2.639   9.234  0.3558  0.9689  2.7189
 8935SOL    HW238268   3.072   2.504   9.222  1.2235  2.6811 -1.3138
 8936SOL     OW38269   4.450   1.888   5.515 -0.6735 -0.0963  0.1714
 8936SOL    HW138270   4.438   1.981   5.535 -0.9075 -0.3525  1.1927
 8936SOL    HW238271   4.544   1.890   5.500 -0.1853  0.6329  3.3400
 8937SOL     OW38272   2.973   4.564   1.779 -0.0482  0.2142  0.2053
 8937SOL    HW138273   2.912   4.522   1.840  1.8263 -0.9336  1.2681
 8937SOL    HW238274   2.918   4.627   1.733 -0.7401  1.0835  2.2272
 8938SOL     OW38275   2.506   3.704   7.834  0.0483  0.6181  0.4454
 8938SOL    HW138276   2.542   3.753   7.760 -1.2260 -1.3287 -1.4707
 8938SOL    HW238277   2.587   3.658   7.857 -0.9359 -1.4303 -0.2649
 8939SOL     OW38278   3.663   0.454  10.908 -0.0342 -0.1014  0.1949
 8939SOL    HW138279   3.614   0.523  10.863  1.4352  1.0470  0.3443
 8939SOL    HW238280   3.737   0.504  10.943  0.9796 -0.2925 -1.6599
 8940SOL     OW38281   4.180   3.192   9.789 -0.4753 -0.8151 -0.1027
 8940SOL    HW138282   4.205   3.284   9.788 -1.3947 -0.5614  1.0116
 8940SOL    HW238283   4.251   3.154   9.737 -2.2587 -2.4190 -1.3648
 8941SOL     OW38284   0.958   3.971   8.845  0.0116  0.1347  0.1451
 8941SOL    HW138285   0.912   3.893   8.814  2.3656 -0.3532 -2.1922
 8941SOL    HW238286   0.922   3.984   8.933  1.2366 -0.8681  0.7999
 8942SOL     OW38287   2.706   2.141  14.046  0.2125 -0.1024 -0.2355
 8942SOL    HW138288   2.781   2.084  14.062 -1.7599 -2.0306  2.0667
 8942SOL    HW238289   2.739   2.214  13.994  1.6603  0.7052  1.7750
 8943SOL     OW38290   4.356   1.775   8.961 -0.5929  0.4107  0.9272
 8943SOL    HW138291   4.322   1.685   8.958 -0.2458  0.3069  0.0490
 8943SOL    HW238292   4.361   1.792   8.867 -1.0270  1.4980  1.1117
 8944SOL     OW38293   3.171   1.721   4.320 -0.3201 -0.2152  0.3682
 8944SOL    HW138294   3.197   1.807   4.287  0.2531 -0.6015 -0.1854
 8944SOL    HW238295   3.210   1.668   4.250  0.3090 -2.3727  2.3696
 8945SOL     OW38296   1.701   1.123   5.945 -0.6335  0.4413  0.1088
 8945SOL    HW138297   1.779   1.081   5.982 -0.2549 -1.0891 -2.3966
 8945SOL    HW238298   1.629   1.065   5.971  0.6697 -0.7706  1.0083
 8946SOL     OW38299   2.995   4.131   4.194  0.2702 -0.1068 -0.1828
 8946SOL    HW138300   2.986   4.039   4.219  1.5030 -0.1191  0.2143
 8946SOL    HW238301   3.045   4.111   4.115 -2.2841 -1.6224 -1.4069
 8947SOL     OW38302   2.572   1.413  11.297 -0.1292  0.0819 -0.5022
 8947SOL    HW138303   2.508   1.411  11.226 -0.1591 -0.2743 -0.4656
 8947SOL    HW238304   2.640   1.452  11.243  0.1766  0.9419  0.5066
 8948SOL     OW38305   1.501   2.236  17.309  0.7356 -0.3171  0.2750
 8948SOL    HW138306   1.498   2.235  17.405  3.0810  1.2805  0.3794
 8948SOL    HW238307   1.437   2.169  17.287  0.8647 -0.1146 -0.6809
 8949SOL     OW38308   4.224   0.844   3.628 -0.2031  0.7547 -0.2717
 8949SOL    HW138309   4.259   0.886   3.549  2.7445 -0.8948  0.1222
 8949SOL    HW238310   4.154   0.792   3.590  2.5491 -2.2823 -1.2237
 8950SOL     OW38311   1.578   4.518  16.895 -0.4289 -0.5047 -0.1460
 8950SOL    HW138312   1.499   4.464  16.907  0.7831 -1.8321  1.9206
 8950SOL    HW238313   1.632   4.484  16.967  0.4056  0.6149 -0.2506
 8951SOL     OW38314   3.834   3.789  17.466 -0.7812 -0.2089  0.0827
 8951SOL    HW138315   3.816   3.779  17.373 -1.8604  1.0663  0.1538
 8951SOL    HW238316   3.923   3.825  17.457  0.1818 -2.1006  1.8425
 8952SOL     OW38317   4.713   0.386  16.288 -0.4907  0.7917 -0.8687
 8952SOL    HW138318   0.050   0.390  16.364 -1.3295 -1.9326 -0.0872
 8952SOL    HW238319   0.028   0.314  16.237  0.6555  0.4916  0.4053
 8953SOL     OW38320   1.497   1.655   0.713 -0.2653 -0.1985  0.3985
 8953SOL    HW138321   1.455   1.741   0.705 -0.5278 -0.4309 -0.7183
 8953SOL    HW238322   1.475   1.635   0.623  1.1340  0.1725 -0.0255
 8954SOL     OW38323   2.303   3.915   3.478  0.2232 -0.0449  0.4692
 8954SOL    HW138324   2.279   3.992   3.426  0.1435 -0.7836 -0.5917
 8954SOL    HW238325   2.215   3.888   3.505 -0.6849  1.6069 -0.8116
 8955SOL     OW38326   3.658   3.122   9.352 -0.1257 -0.1122 -0.1172
 8955SOL    HW138327   3.611   3.039   9.358 -1.0196  0.5083  1.2262
 8955SOL    HW238328   3.596   3.176   9.399 -0.5664 -0.9473  0.2666
 8956SOL     OW38329   2.596   3.100   3.786  0.1977  0.0432  0.2586
 8956SOL    HW138330   2.508   3.105   3.823  0.3241 -0.6209  0.6503
 8956SOL    HW238331   2.629   3.015   3.817  0.3398 -0.5240 -1.4449
 8957SOL     OW38332   3.478   1.802   6.107 -0.2482  0.3467  0.6212
 8957SOL    HW138333   3.506   1.880   6.061 -0.4814 -0.1022 -0.2804
 8957SOL    HW238334   3.399   1.772   6.061  0.5943 -0.7111 -0.1289
 8958SOL     OW38335   1.045   1.452   9.575 -0.2400 -0.0983 -0.0258
 8958SOL    HW138336   1.107   1.401   9.628 -1.0127 -0.8468  0.1575
 8958SOL    HW238337   0.974   1.463   9.637  0.0546 -0.8316  0.4391
 8959SOL     OW38338   3.129   0.896  10.386  0.3911 -0.4223  0.0749
 8959SOL    HW138339   3.079   0.814  10.380 -2.2607  1.0312  2.2622
 8959SOL    HW238340   3.079   0.950  10.325  1.9654  0.1314 -0.7170
 8960SOL     OW38341   0.093   1.758  12.566 -0.1952 -0.4935 -0.5067
 8960SOL    HW138342   0.124   1.700  12.497 -1.3971  0.1945 -1.6101
 8960SOL    HW238343   0.127   1.840  12.529 -0.9228  0.5052  1.0220
 8961SOL     OW38344   3.841   3.158   8.033 -0.4135  0.1607  0.2970
 8961SOL    HW138345   3.791   3.238   8.014 -0.7304  0.0966  0.8538
 8961SOL    HW238346   3.928   3.199   8.028 -0.4583  0.1097 -0.7700
 8962SOL     OW38347   0.094   3.117   3.080  0.1978 -0.4214  0.7501
 8962SOL    HW138348   0.110   3.207   3.107 -0.7677 -0.0763  0.2010
 8962SOL    HW238349   0.024   3.125   3.014  1.4350 -0.0616 -0.5172
 8963SOL     OW38350   1.900   1.724   3.829  0.1077 -0.2362  0.2257
 8963SOL    HW138351   1.973   1.668   3.803  1.5914  0.9300  1.9479
 8963SOL    HW238352   1.935   1.809   3.803 -0.6298 -0.1738 -0.5990
 8964SOL     OW38353   2.969   2.069   9.102 -0.2636  0.1036  0.3645
 8964SOL    HW138354   2.917   2.052   9.023 -1.9920  1.5657  1.1851
 8964SOL    HW238355   2.903   2.126   9.141  3.1204  2.1641  3.1018
 8965SOL     OW38356   4.386   0.515   2.578 -0.1356 -0.1895  0.4770
 8965SOL    HW138357   4.325   0.501   2.505  1.6174 -0.5377 -0.9235
 8965SOL    HW238358   4.467   0.521   2.528 -0.3103  1.3731  0.3611
 8966SOL     OW38359   0.834   2.738   8.350 -0.6362 -0.1785  0.0630
 8966SOL    HW138360   0.927   2.741   8.328 -0.7726 -3.5029 -1.0361
 8966SOL    HW238361   0.798   2.660   8.307  1.1595  0.4484 -2.5977
 8967SOL     OW38362   1.871   1.505   7.392  0.6833 -0.5219  0.5118
 8967SOL    HW138363   1.776   1.507   7.387  0.7505 -0.9250 -1.1291
 8967SOL    HW238364   1.885   1.516   7.486  0.3900  0.0822  0.4810
 8968SOL     OW38365   3.903   1.947   4.210  0.1669 -0.1225  0.1473
 8968SOL    HW138366   3.984   1.948   4.158 -0.0671 -2.2749 -0.2691
 8968SOL    HW238367   3.859   1.865   4.189  1.2849 -0.7449  0.2406
 8969SOL     OW38368   1.849   2.039   5.043  0.1798 -0.1912 -0.0558
 8969SOL    HW138369   1.782   2.105   5.024  1.5925  0.9816 -0.9492
 8969SOL    HW238370   1.874   2.014   4.954  0.4603  1.1857 -0.3656
 8970SOL     OW38371   2.515   1.650   3.877 -0.0654  0.3695 -0.2101
 8970SOL    HW138372   2.604   1.623   3.899  0.4343  1.0461 -1.4076
 8970SOL    HW238373   2.537   1.702   3.800  0.4866 -0.2320 -0.4640
 8971SOL     OW38374   3.332   2.712  14.055 -0.0970  0.0145  0.5392
 8971SOL    HW138375   3.245   2.673  14.059  0.5421 -1.4430  0.4455
 8971SOL    HW238376   3.384   2.646  14.102 -1.0956 -0.2601  1.2440
 8972SOL     OW38377   2.077   4.168   2.219  0.4479 -0.2723  0.3115
 8972SOL    HW138378   2.094   4.215   2.137 -0.8245  0.1487  0.2850
 8972SOL    HW238379   2.054   4.226   2.292  0.7594  0.1913  0.0450
 8973SOL     OW38380   0.945   0.754   4.112  0.7027  0.0812  0.2841
 8973SOL    HW138381   0.999   0.818   4.159 -0.5385  0.8321  0.7104
 8973SOL    HW238382   0.996   0.733   4.034 -1.0774 -1.4821 -0.4592
 8974SOL     OW38383   3.453   0.768   5.224  0.7871 -0.2246  0.4099
 8974SOL    HW138384   3.378   0.825   5.212  0.2508 -0.6015  1.9624
 8974SOL    HW238385   3.425   0.688   5.269 -1.7310  0.3198 -0.2366
 8975SOL     OW38386   1.345   3.031   4.457  0.0519  0.0405 -0.3526
 8975SOL    HW138387   1.397   3.108   4.432  0.0982  1.1676  3.2131
 8975SOL    HW238388   1.412   2.964   4.454 -1.0927 -1.1582  0.7546
 8976SOL     OW38389   4.438   4.178  14.133  0.1791  0.5994 -0.5464
 8976SOL    HW138390   4.477   4.093  14.155 -0.1849  0.4575 -0.4453
 8976SOL    HW238391   4.515   4.233  14.146  0.9479 -0.5843 -0.0678
 8977SOL     OW38392   4.570   4.556   0.368 -0.1310 -0.0858 -0.3727
 8977SOL    HW138393   4.634   4.603   0.421 -0.0450  0.9610 -1.4130
 8977SOL    HW238394   4.630   4.498   0.321 -1.5827 -1.0360 -1.0520
 8978SOL     OW38395   1.185   4.654   8.273 -0.3247  0.7078  0.1236
 8978SOL    HW138396   1.210   4.610   8.354  0.6061  1.1834  0.0970
 8978SOL    HW238397   1.253   4.618   8.216 -0.4900  0.2636  0.2067
 8979SOL     OW38398   1.086   1.009   5.901 -0.3228  0.7314 -0.1659
 8979SOL    HW138399   1.059   0.970   5.818  1.5773 -0.7627 -0.0813
 8979SOL    HW238400   1.094   0.924   5.944  0.9227  0.0197 -1.8129
 8980SOL     OW38401   3.346   3.010   7.003  0.2408  0.3495 -0.7176
 8980SOL    HW138402   3.358   3.104   7.010 -0.6624  0.3721  0.5488
 8980SOL    HW238403   3.273   3.007   6.941 -1.0142 -1.8157  0.8662
 8981SOL     OW38404   0.193   4.070   0.994 -0.1111 -0.4974 -0.5091
 8981SOL    HW138405   0.134   4.042   0.924  0.5613 -0.4869 -1.0748
 8981SOL    HW238406   0.218   3.984   1.029 -1.2638 -0.1283  1.2262
 8982SOL     OW38407   1.165   3.294  10.469 -0.4090 -0.4387  0.5661
 8982SOL    HW138408   1.133   3.220  10.521 -0.6806 -1.4876 -1.0930
 8982SOL    HW238409   1.248   3.251  10.451 -0.1015  1.2930 -2.2732
 8983SOL     OW38410   4.384   4.284  10.793  0.5734 -0.5446 -0.6356
 8983SOL    HW138411   4.459   4.252  10.844  1.4635  1.4400 -0.7242
 8983SOL    HW238412   4.315   4.230  10.831  0.6702 -1.9057 -2.4185
 8984SOL     OW38413   4.071   1.251   3.281  0.3279  0.0425 -0.3600
 8984SOL    HW138414   4.162   1.229   3.301  0.0291  0.2970  1.3094
 8984SOL    HW238415   4.075   1.275   3.188 -2.9132 -0.6206 -0.6763
 8985SOL     OW38416   4.097   1.010   0.845  0.2706 -0.4666  0.0128
 8985SOL    HW138417   4.076   0.922   0.812 -0.4653  0.4671 -2.0362
 8985SOL    HW238418   4.161   0.989   0.913  0.9758  0.3991 -0.3801
 8986SOL     OW38419   2.440   4.220  17.294 -0.2529 -0.1800  0.2581
 8986SOL    HW138420   2.500   4.205  17.221 -0.2773  3.5633 -0.4972
 8986SOL    HW238421   2.365   4.241  17.238  0.7299  0.1670 -0.9268
 8987SOL     OW38422   3.160   4.466   9.596 -0.1873  0.2144 -0.2216
 8987SOL    HW138423   3.191   4.421   9.517 -1.7969  1.2711 -1.4597
 8987SOL    HW238424   3.223   4.443   9.664  1.5340  0.5749 -1.6968
 8988SOL     OW38425   3.882   3.553   5.687  0.1586 -0.3265 -0.5048
 8988SOL    HW138426   3.972   3.521   5.692  0.7524  1.2435 -0.9993
 8988SOL    HW238427   3.837   3.483   5.639 -1.9035  1.1864 -0.8132
 8989SOL     OW38428   2.159   1.991   3.197  0.3003  0.1812 -0.1886
 8989SOL    HW138429   2.188   2.068   3.247 -0.7274  0.3103  0.2073
 8989SOL    HW238430   2.125   1.930   3.263  0.6773 -1.2210 -1.3008
 8990SOL     OW38431   3.617   0.804  13.086  0.1437  0.2157 -0.7263
 8990SOL    HW138432   3.587   0.873  13.026 -1.1752  1.9980  1.9991
 8990SOL    HW238433   3.712   0.812  13.079 -0.0791  3.7431  0.1241
 8991SOL     OW38434   2.864   1.594   5.579 -0.0892 -0.1167 -0.0952
 8991SOL    HW138435   2.793   1.531   5.570 -2.0094  1.9686  0.7065
 8991SOL    HW238436   2.940   1.536   5.575 -0.6346 -0.7441 -1.4514
 8992SOL     OW38437   1.557   0.899   6.388  0.4761 -0.5674  0.1375
 8992SOL    HW138438   1.494   0.961   6.424 -0.8289 -1.4617 -0.5804
 8992SOL    HW238439   1.638   0.948   6.380  0.9533 -1.1731  1.2835
 8993SOL     OW38440   0.873   0.756  16.962  0.5494 -0.2474 -0.2545
 8993SOL    HW138441   0.834   0.695  17.025 -3.2663  1.0844 -1.3815
 8993SOL    HW238442   0.917   0.811  17.027 -1.0609 -1.1498  1.6115
 8994SOL     OW38443   3.371   0.931   0.005 -0.2944  0.2065 -0.0567
 8994SOL    HW138444   3.332   0.994  17.635 -1.7836 -0.4355  0.2539
 8994SOL    HW238445   3.433   0.882  17.640  2.7279  1.4955  2.1523
 8995SOL     OW38446   1.897   0.460  17.615  0.8040  0.0353  0.0845
 8995SOL    HW138447   1.900   0.416   0.010 -1.5424 -0.0257  0.1385
 8995SOL    HW238448   1.935   0.392  17.559 -1.9935 -0.6746 -0.9429
 8996SOL     OW38449   3.027   2.668   3.554 -0.2627  0.0382 -0.5720
 8996SOL    HW138450   3.060   2.740   3.502  0.3923 -0.4019 -0.7665
 8996SOL    HW238451   3.112   2.634   3.581 -1.3522 -1.5658  0.9508
 8997SOL     OW38452   1.376   2.024  10.892 -1.0290  0.1867 -0.1051
 8997SOL    HW138453   1.445   2.090  10.887  0.2544 -1.2782 -1.6589
 8997SOL    HW238454   1.421   1.943  10.872 -0.8251  0.6876 -1.6322
 8998SOL     OW38455   3.929   0.843  16.371 -0.3890 -0.0503  0.2102
 8998SOL    HW138456   3.928   0.833  16.466  3.3336 -1.3340  0.1039
 8998SOL    HW238457   3.861   0.782  16.343 -1.4659 -0.0467  2.7506
 8999SOL     OW38458   3.735   0.650  12.825  0.0803  0.4362 -0.0396
 8999SOL    HW138459   3.662   0.691  12.871  0.3583  3.3675 -2.2228
 8999SOL    HW238460   3.701   0.612  12.744 -0.6251  0.4584  0.2463
 9000SOL     OW38461   1.051   3.994  11.845  0.0078  0.2027 -0.3410
 9000SOL    HW138462   1.024   4.057  11.912 -1.3931 -2.4259  1.5944
 9000SOL    HW238463   1.061   4.052  11.770 -1.6835  0.9876  0.0389
 9001SOL     OW38464   0.139   2.377  14.992  0.1591 -0.0433  0.6284
 9001SOL    HW138465   0.208   2.310  14.987 -0.2386 -0.4238  0.1651
 9001SOL    HW238466   0.157   2.408  15.080 -0.7835 -1.8205  1.4297
 9002SOL     OW38467   4.623   0.209   3.610  0.4057  0.2703  0.3248
 9002SOL    HW138468   4.562   0.212   3.684  0.9182  1.7451  0.6881
 9002SOL    HW238469   4.588   0.286   3.565 -1.4007 -0.2982  0.7551
 9003SOL     OW38470   3.626   0.681  17.083  0.0504  0.0425  0.0730
 9003SOL    HW138471   3.553   0.681  17.021  1.3704 -0.8661 -1.4811
 9003SOL    HW238472   3.626   0.600  17.134 -0.6959  0.2674  0.4271
 9004SOL     OW38473   2.426   4.074   4.268  0.9824  0.3641  0.7099
 9004SOL    HW138474   2.508   4.060   4.316  1.4842 -0.5039 -0.4161
 9004SOL    HW238475   2.381   4.150   4.307 -1.0015 -0.8065  0.7161
 9005SOL     OW38476   4.076   1.594   7.746 -0.1917 -0.9022  0.4845
 9005SOL    HW138477   4.056   1.671   7.693  0.0845 -1.7389 -0.8411
 9005SOL    HW238478   4.062   1.525   7.680 -2.3564 -0.7093  0.7598
 9006SOL     OW38479   2.660   2.236   4.431  0.4759 -0.5997  0.0314
 9006SOL    HW138480   2.594   2.304   4.421  0.9759 -0.0896  0.2056
 9006SOL    HW238481   2.634   2.184   4.507  0.5064 -1.6929 -0.7001
 9007SOL     OW38482   4.063   2.978  12.814 -0.4768 -0.0812 -0.7561
 9007SOL    HW138483   4.124   3.019  12.752 -0.5320 -2.0302 -2.0882
 9007SOL    HW238484   4.128   2.939  12.873  0.4950 -0.9898 -2.4327
 9008SOL     OW38485   4.419   3.199   7.790  0.3143 -0.0655  0.4944
 9008SOL    HW138486   4.450   3.248   7.715  0.7375  0.1324  0.7986
 9008SOL    HW238487   4.332   3.237   7.801  0.2871 -0.0457  0.2161
 9009SOL     OW38488   1.903   2.258  13.298 -1.0567  0.0655  0.2875
 9009SOL    HW138489   1.900   2.224  13.387 -3.0554 -1.3066 -0.3028
 9009SOL    HW238490   1.808   2.263  13.285 -0.7710  0.2492 -1.7372
 9010SOL     OW38491   0.884   3.664   8.472 -0.5581  0.4185  0.5774
 9010SOL    HW138492   0.798   3.639   8.504 -1.2651  1.4402 -0.5233
 9010SOL    HW238493   0.879   3.621   8.386  0.4650  1.2972  0.0809
 9011SOL     OW38494   2.927   4.565   0.126 -0.1318  1.0155  0.1915
 9011SOL    HW138495   2.832   4.566   0.132 -0.2262 -0.9621 -1.0891
 9011SOL    HW238496   2.935   4.515   0.045  0.9098 -0.2388  1.0691
 9012SOL     OW38497   2.085   3.498   0.570 -0.3337 -0.2078 -0.1302
 9012SOL    HW138498   2.168   3.482   0.525 -0.3976  0.0883 -0.3508
 9012SOL    HW238499   2.077   3.586   0.533 -0.2458  0.0347  0.4220
 9013SOL     OW38500   0.372   1.644   8.208 -0.3053  0.3348  0.7346
 9013SOL    HW138501   0.368   1.582   8.280 -2.0309 -0.8267 -0.3630
 9013SOL    HW238502   0.368   1.727   8.257 -0.5772  0.1715  0.9854
 9014SOL     OW38503   3.105   0.513   8.261 -0.5975 -0.8559  0.1068
 9014SOL    HW138504   3.164   0.560   8.202 -0.9925 -2.2581 -1.4108
 9014SOL    HW238505   3.103   0.428   8.216 -0.9255 -0.0618 -1.3657
 9015SOL     OW38506   2.725   1.102   5.857 -0.8390 -0.4511  0.3881
 9015SOL    HW138507   2.796   1.078   5.799 -1.9248  2.0943 -1.9815
 9015SOL    HW238508   2.644   1.077   5.813  0.1547 -1.1725 -1.0149
 9016SOL     OW38509   3.414   3.586   9.038  0.0715  0.4343 -0.2956
 9016SOL    HW138510   3.444   3.524   9.104  0.8988  0.9055 -0.2253
 9016SOL    HW238511   3.374   3.646   9.101 -0.1252 -1.3326  1.2399
 9017SOL     OW38512   3.308   1.549   6.555 -0.3808  0.1182 -0.1220
 9017SOL    HW138513   3.316   1.455   6.537 -2.9407 -0.1495  0.2441
 9017SOL    HW238514   3.358   1.580   6.480  0.9010 -0.6369  0.4101
 9018SOL     OW38515   3.360   0.711  13.174  0.6946  0.3394  0.1265
 9018SOL    HW138516   3.327   0.666  13.096  1.7371 -1.3856  0.6647
 9018SOL    HW238517   3.453   0.719  13.154  0.8396 -2.1481 -0.1965
 9019SOL     OW38518   3.422   0.677  16.917  0.1642 -0.3032  0.2912
 9019SOL    HW138519   3.393   0.710  16.832 -1.2533  0.9476  1.2583
 9019SOL    HW238520   3.358   0.610  16.940 -0.6243  0.4557  0.2894
 9020SOL     OW38521   4.388   1.772   5.267 -0.4823  0.2576 -0.5536
 9020SOL    HW138522   4.331   1.706   5.306 -0.4572  1.2387  1.1389
 9020SOL    HW238523   4.418   1.818   5.345 -0.0278  0.4622 -0.8457
 9021SOL     OW38524   1.594   0.769   4.180  0.4747 -0.2803  0.9732
 9021SOL    HW138525   1.525   0.715   4.141  0.0557  0.7548  0.3136
 9021SOL    HW238526   1.665   0.759   4.117 -0.6041  3.0667 -0.7678
 9022SOL     OW38527   4.675   2.779   5.659 -0.4996  0.3636 -0.4569
 9022SOL    HW138528   4.609   2.832   5.703 -0.5438  0.7393 -0.9766
 9022SOL    HW238529   4.645   2.693   5.688 -0.5773  1.1517  1.8483
 9023SOL     OW38530   4.546   3.299   4.878  0.5179  0.1418 -0.0615
 9023SOL    HW138531   4.466   3.296   4.826  0.9200 -0.4441 -0.6402
 9023SOL    HW238532   4.586   3.377   4.840  0.9690  0.7446  1.6682
 9024SOL     OW38533   3.224   3.166   6.777  0.0130  0.0288 -0.6044
 9024SOL    HW138534   3.259   3.128   6.697  1.2802 -0.7974  0.3444
 9024SOL    HW238535   3.263   3.253   6.768 -0.0354  0.1490  0.3424
 9025SOL     OW38536   3.479   4.176   8.332 -0.7561  0.2588  0.4346
 9025SOL    HW138537   3.506   4.254   8.283  1.6881 -0.2437  0.9563
 9025SOL    HW238538   3.480   4.208   8.422 -0.1842 -1.3493  1.0212
 9026SOL     OW38539   2.403   0.023   7.928  0.2072 -0.2400  0.3163
 9026SOL    HW138540   2.366   4.707   8.008  2.4043 -1.6569  0.6526
 9026SOL    HW238541   2.421   4.669   7.874 -1.4653  0.4037 -1.1512
 9027SOL     OW38542   0.132   4.531  15.204 -0.2119 -0.2138  0.3535
 9027SOL    HW138543   0.140   4.597  15.136 -0.2459 -1.5432 -0.9287
 9027SOL    HW238544   0.111   4.589  15.278  1.0909  0.6562  0.0384
 9028SOL     OW38545   4.059   3.504   1.699 -0.0312  0.2340  0.0480
 9028SOL    HW138546   4.136   3.523   1.646  1.3679  0.7423  2.2822
 9028SOL    HW238547   4.084   3.558   1.774 -0.6289 -1.3823  1.4270
 9029SOL     OW38548   3.638   4.237   6.934  0.0805  0.3769 -0.1088
 9029SOL    HW138549   3.607   4.284   6.857 -0.5729 -0.0705 -0.1171
 9029SOL    HW238550   3.600   4.152   6.913 -2.1393  0.9843  1.4724
 9030SOL     OW38551   1.912   3.330   4.483 -0.0941 -0.1691  0.0598
 9030SOL    HW138552   1.870   3.410   4.514 -0.9440 -1.1218  1.3924
 9030SOL    HW238553   1.833   3.299   4.439 -0.6961  1.4291  0.0071
 9031SOL     OW38554   3.344   2.224   7.514 -0.6210  0.5873  0.0006
 9031SOL    HW138555   3.270   2.199   7.459  0.7622  1.0770 -2.0808
 9031SOL    HW238556   3.401   2.281   7.463 -0.3403  0.7224  0.4633
 9032SOL     OW38557   2.412   3.325   7.622  0.3945 -0.2906  0.2933
 9032SOL    HW138558   2.417   3.235   7.652  0.6258 -0.0396  1.0052
 9032SOL    HW238559   2.505   3.350   7.615  0.7603 -1.8523 -0.3673
 9033SOL     OW38560   0.945   2.395   3.946  0.1158  0.3002 -0.2156
 9033SOL    HW138561   1.000   2.470   3.965  0.9445  0.1205 -1.8959
 9033SOL    HW238562   1.010   2.325   3.954 -1.2318 -1.0385 -1.0041
 9034SOL     OW38563   3.118   2.966   4.279 -0.0729 -0.3632  0.7381
 9034SOL    HW138564   3.213   2.970   4.290 -0.2830  2.6770  1.4140
 9034SOL    HW238565   3.082   3.003   4.359  0.9243  0.0929  0.9727
 9035SOL     OW38566   0.581   3.928   5.169 -0.0298 -0.1805 -0.1489
 9035SOL    HW138567   0.663   3.939   5.120 -0.9631  0.3559 -1.5803
 9035SOL    HW238568   0.593   3.839   5.203 -1.3593 -0.2393  0.1632
 9036SOL     OW38569   0.041   3.867   5.216  0.3287 -0.4151  0.8770
 9036SOL    HW138570   0.042   3.940   5.154  2.0397 -1.4879 -0.3542
 9036SOL    HW238571   4.700   3.907   5.276  1.2078 -0.3391  1.7498
 9037SOL     OW38572   0.686   1.712   2.905 -0.6392  0.0130  0.4173
 9037SOL    HW138573   0.744   1.636   2.901 -1.3253 -0.5310  0.6684
 9037SOL    HW238574   0.712   1.760   2.984  0.4125  0.7170 -0.3606
 9038SOL     OW38575   0.322   1.320   3.499 -0.5224 -0.0516  0.0820
 9038SOL    HW138576   0.323   1.347   3.406  1.2378  0.5950  0.2896
 9038SOL    HW238577   0.352   1.403   3.537  3.4176 -2.1886  1.5544
 9039SOL     OW38578   0.653   0.333   6.088  0.3967  0.3969 -0.6580
 9039SOL    HW138579   0.638   0.281   6.009 -1.0902  1.1166 -0.8579
 9039SOL    HW238580   0.607   0.415   6.067  0.0149  0.6059  1.0345
 9040SOL     OW38581   3.697   2.216   0.751  0.2312  0.7350  0.1561
 9040SOL    HW138582   3.670   2.303   0.720 -0.5733 -0.4099 -2.3098
 9040SOL    HW238583   3.730   2.233   0.839 -1.8132 -0.7537  1.1843
 9041SOL     OW38584   4.581   1.875  17.162 -0.3034  0.2074 -0.0136
 9041SOL    HW138585   4.638   1.799  17.169  1.1516  1.3525  0.4920
 9041SOL    HW238586   4.626   1.920  17.090  0.7512 -1.6165 -0.4758
 9042SOL     OW38587   3.293   2.106   6.683  0.4389  0.9689  0.1740
 9042SOL    HW138588   3.298   2.018   6.719 -1.1116  0.4787 -0.8531
 9042SOL    HW238589   3.219   2.097   6.623 -0.0955 -1.1804  1.1810
 9043SOL     OW38590   0.242   4.690  10.598 -0.1253  0.2449 -0.4280
 9043SOL    HW138591   0.310   4.677  10.664  0.1703 -1.8592 -1.1608
 9043SOL    HW238592   0.185   0.030  10.644 -0.4703 -0.4369  0.0691
 9044SOL     OW38593   0.587   1.550  15.936  0.3261 -0.3647 -0.1648
 9044SOL    HW138594   0.502   1.588  15.917  0.1508  0.2629  1.8372
 9044SOL    HW238595   0.651   1.615  15.907  0.0900 -0.1926 -0.2981
 9045SOL     OW38596   1.214   4.573   6.304 -0.4416 -0.6954 -0.2303
 9045SOL    HW138597   1.141   4.629   6.331  0.8027  0.2400  1.2123
 9045SOL    HW238598   1.295   4.618   6.327 -0.1836 -0.4805 -1.5781
 9046SOL     OW38599   1.167   3.849  11.018 -0.0457 -0.1836  0.1611
 9046SOL    HW138600   1.072   3.840  11.016  0.2863 -3.2714 -1.2154
 9046SOL    HW238601   1.180   3.791  10.943 -1.9718 -0.9359  0.4089
 9047SOL     OW38602   4.546   0.748   0.268  0.6089 -0.3586  0.6449
 9047SOL    HW138603   4.607   0.679   0.291 -0.7719 -2.5840 -2.3653
 9047SOL    HW238604   4.582   0.820   0.320 -0.2109 -0.5990  1.5429
 9048SOL     OW38605   1.828   0.830  13.056  0.8599  0.5485 -0.8821
 9048SOL    HW138606   1.814   0.743  13.019  0.4358 -0.3864  1.4585
 9048SOL    HW238607   1.792   0.823  13.145  1.2928  0.1186 -0.7453
 9049SOL     OW38608   3.584   0.997   0.551 -0.3585  0.3704  0.0875
 9049SOL    HW138609   3.613   0.995   0.460 -2.1548 -1.2091 -0.4371
 9049SOL    HW238610   3.592   1.091   0.562  0.3407  0.5906 -2.3450
 9050SOL     OW38611   2.330   3.890   8.721 -0.3303  0.0278 -0.1526
 9050SOL    HW138612   2.384   3.820   8.757  0.9177  1.8436  1.4989
 9050SOL    HW238613   2.291   3.851   8.643 -1.2087  2.5424 -0.9810
 9051SOL     OW38614   4.587   4.690   5.918  0.3566  0.3089  0.4981
 9051SOL    HW138615   4.664   0.014   5.951  1.6523 -1.2060 -0.3906
 9051SOL    HW238616   4.534   4.667   5.994 -1.0424  2.5656  0.1942
 9052SOL     OW38617   0.087   4.112   5.087  0.4208 -0.5196 -0.2351
 9052SOL    HW138618   0.005   4.159   5.096  1.7722  2.0032 -1.1408
 9052SOL    HW238619   0.138   4.178   5.135  0.3663 -1.1638  0.7123
 9053SOL     OW38620   2.590   2.941   8.371  0.0501 -0.0242 -0.0195
 9053SOL    HW138621   2.619   2.973   8.456  0.3922  2.6139 -1.1383
 9053SOL    HW238622   2.671   2.934   8.322  0.3399 -1.1763  0.6168
 9054SOL     OW38623   0.271   1.547  14.588  0.3921  0.5471  0.5314
 9054SOL    HW138624   0.237   1.595  14.512  0.5634  0.0759  0.1529
 9054SOL    HW238625   0.290   1.462  14.548  1.4963  1.4656 -0.8990
 9055SOL     OW38626   3.662   3.355   5.247  0.0994 -0.3027 -0.0634
 9055SOL    HW138627   3.626   3.330   5.162  0.5962 -1.1727 -0.0262
 9055SOL    HW238628   3.733   3.418   5.234  0.0078 -0.3530 -0.7949
 9056SOL     OW38629   0.646   1.111   2.418 -0.3388 -0.1781 -0.6065
 9056SOL    HW138630   0.618   1.122   2.509 -1.8964 -2.1084 -0.8620
 9056SOL    HW238631   0.585   1.175   2.382  2.8518  3.2738  0.1655
 9057SOL     OW38632   2.307   4.512   4.677  0.0737 -0.2912 -0.3400
 9057SOL    HW138633   2.275   4.593   4.717  0.9637  0.3152 -0.8478
 9057SOL    HW238634   2.220   4.477   4.660  0.3016 -1.2369  0.4752
 9058SOL     OW38635   4.396   1.817   9.501 -0.3743  0.0611 -0.1247
 9058SOL    HW138636   4.341   1.760   9.555  0.0295 -0.2342 -0.0201
 9058SOL    HW238637   4.357   1.900   9.527 -3.6084 -1.1745 -1.0952
 9059SOL     OW38638   2.998   2.267   8.748 -0.3661  0.0086  0.0027
 9059SOL    HW138639   3.060   2.195   8.741  1.2105  1.2862  0.8258
 9059SOL    HW238640   3.045   2.338   8.703 -0.0401  0.0952  0.4791
 9060SOL     OW38641   3.265   0.742   2.888 -0.2835  0.3231  0.0565
 9060SOL    HW138642   3.275   0.723   2.981  0.7527  1.3261  0.1472
 9060SOL    HW238643   3.354   0.747   2.852  0.1820  3.1902  1.5596
 9061SOL     OW38644   2.719   3.976  14.294  0.1051  0.4841  0.0269
 9061SOL    HW138645   2.678   3.893  14.317  0.6152  0.3353  0.4052
 9061SOL    HW238646   2.647   4.039  14.288  0.3731  0.8152  0.2561
 9062SOL     OW38647   2.502   4.358   4.546  0.1891  0.1738 -0.7422
 9062SOL    HW138648   2.454   4.315   4.475 -0.6985 -1.1922  0.6948
 9062SOL    HW238649   2.432   4.404   4.592  1.1187  3.0199 -2.1313
 9063SOL     OW38650   0.151   0.272  10.185 -0.0414 -0.0096  0.1181
 9063SOL    HW138651   0.215   0.285  10.115  0.1292 -0.2590  0.2279
 9063SOL    HW238652   0.216   0.248  10.251 -0.3987  1.3946  0.9920
 9064SOL     OW38653   3.660   2.015   2.575 -0.2648 -0.0091  0.1269
 9064SOL    HW138654   3.668   2.098   2.529  1.7798  0.6925  1.7465
 9064SOL    HW238655   3.747   1.973   2.572 -0.5554 -0.6797  0.9308
 9065SOL     OW38656   3.221   0.587  12.968 -0.0412  0.0540 -0.0103
 9065SOL    HW138657   3.153   0.617  12.908  2.3373 -0.5534 -2.9997
 9065SOL    HW238658   3.182   0.506  13.001 -0.2000  0.3891  0.6155
 9066SOL     OW38659   3.849   0.971  12.787 -0.6140  0.2935 -0.2977
 9066SOL    HW138660   3.755   0.956  12.794 -0.3789  0.3611  2.9955
 9066SOL    HW238661   3.861   1.065  12.801 -0.0327  0.3920 -1.3983
 9067SOL     OW38662   3.494   4.092   4.005  0.3272 -0.0483 -0.5084
 9067SOL    HW138663   3.497   4.099   3.909  1.1809  0.3460 -0.4536
 9067SOL    HW238664   3.436   4.167   4.022 -2.1662 -1.6945 -1.7891
 9068SOL     OW38665   4.230   1.825   0.493  0.0888 -0.0651  0.6472
 9068SOL    HW138666   4.164   1.759   0.473 -0.4432  1.4818 -2.8354
 9068SOL    HW238667   4.187   1.870   0.565  0.9421 -1.0889  1.7974
 9069SOL     OW38668   0.686   2.312  12.461  0.0215  0.3309  0.0167
 9069SOL    HW138669   0.644   2.230  12.486  0.8925  0.3734  1.6344
 9069SOL    HW238670   0.734   2.324  12.543 -3.5755 -1.8535  2.4782
 9070SOL     OW38671   0.870   3.541   1.902 -0.5754  0.0112  0.5800
 9070SOL    HW138672   0.926   3.484   1.954 -2.2218 -1.2060  1.0344
 9070SOL    HW238673   0.856   3.487   1.824 -1.4396  1.3703 -0.2119
 9071SOL     OW38674   2.544   0.786   1.193  0.6096  0.0235  0.1749
 9071SOL    HW138675   2.627   0.819   1.158 -0.6693  0.9847 -1.9764
 9071SOL    HW238676   2.547   0.693   1.171 -1.1985  0.6702 -2.8679
 9072SOL     OW38677   2.669   0.739   3.189 -0.4358  0.3035 -0.7152
 9072SOL    HW138678   2.677   0.834   3.179 -1.5901  0.4474 -0.2697
 9072SOL    HW238679   2.636   0.719   3.102 -1.1241 -0.0702 -0.3675
 9073SOL     OW38680   4.534   3.442   8.691 -0.2349 -0.9144  0.3483
 9073SOL    HW138681   4.586   3.481   8.761 -0.3474  0.0716 -0.1183
 9073SOL    HW238682   4.446   3.438   8.727 -0.7408  2.2817 -0.5568
 9074SOL     OW38683   4.456   0.842  13.072  0.1955  0.0619 -0.0620
 9074SOL    HW138684   4.465   0.756  13.031 -1.6264  0.6713 -1.7765
 9074SOL    HW238685   4.366   0.853  13.041  0.4790 -0.2787 -1.0251
 9075SOL     OW38686   4.605   1.373  10.673  0.3942  0.3394 -0.0984
 9075SOL    HW138687   4.679   1.413  10.718  0.7806 -1.5715  1.0063
 9075SOL    HW238688   4.645   1.293  10.640  0.2526  1.2872 -2.5258
 9076SOL     OW38689   3.963   0.063   5.328 -0.0995 -0.4113 -0.0793
 9076SOL    HW138690   4.014   0.038   5.251  0.7987  1.6924 -0.1778
 9076SOL    HW238691   3.966   0.158   5.313  0.0208 -0.6301 -1.4370
 9077SOL     OW38692   0.939   3.924   3.838 -0.3422  0.3561  0.0389
 9077SOL    HW138693   0.886   3.898   3.914 -1.5964 -0.2430 -1.0441
 9077SOL    HW238694   0.977   4.005   3.872  1.4433 -0.7354  0.6559
 9078SOL     OW38695   2.050   2.183   8.320 -0.1263 -0.3450 -0.2461
 9078SOL    HW138696   1.970   2.221   8.285 -0.6132  0.0515  1.3053
 9078SOL    HW238697   2.116   2.245   8.289 -1.4881  0.6297 -1.1733
 9079SOL     OW38698   1.579   4.028  12.934 -0.2872  0.0456  0.7234
 9079SOL    HW138699   1.623   4.059  13.013 -3.3303  2.5707  1.3926
 9079SOL    HW238700   1.487   4.044  12.952 -0.5192  0.9664 -1.1917
 9080SOL     OW38701   2.417   0.226   1.521 -0.0102  0.0074 -0.2875
 9080SOL    HW138702   2.422   0.131   1.524  1.0767  0.1323  1.5742
 9080SOL    HW238703   2.452   0.244   1.434 -0.2658  1.6762 -0.0513
 9081SOL     OW38704   2.092   1.559   8.945 -0.2102  0.0508 -0.2139
 9081SOL    HW138705   2.021   1.618   8.918  1.3047  2.2576  0.5471
 9081SOL    HW238706   2.051   1.475   8.966  0.0792 -0.0117  0.1028
 9082SOL     OW38707   0.970   3.370  14.701 -0.2107 -0.5993  0.2984
 9082SOL    HW138708   0.943   3.328  14.782  0.3833 -0.2520  0.6722
 9082SOL    HW238709   1.057   3.330  14.692 -0.7168 -1.4876 -0.6390
 9083SOL     OW38710   1.417   1.155   2.240 -0.4650  0.9943 -0.0868
 9083SOL    HW138711   1.373   1.239   2.257 -1.8030  0.0008  1.3522
 9083SOL    HW238712   1.345   1.100   2.207  0.4221 -1.0829  1.4578
 9084SOL     OW38713   0.856   3.105   5.480  0.2662  0.3512 -0.1308
 9084SOL    HW138714   0.879   3.114   5.388 -0.5379  0.5494 -0.3155
 9084SOL    HW238715   0.803   3.025   5.485  1.3192 -0.3186  0.2054
 9085SOL     OW38716   2.670   1.013   3.119 -0.3138 -0.1973 -0.4765
 9085SOL    HW138717   2.766   1.012   3.115 -0.4940 -4.5196 -3.9910
 9085SOL    HW238718   2.638   1.049   3.036  1.7225 -0.1248 -1.2509
 9086SOL     OW38719   1.429   0.014   5.572 -0.3935  0.0011 -0.0339
 9086SOL    HW138720   1.399   0.039   5.659 -2.0494 -0.3530 -0.5017
 9086SOL    HW238721   1.355   4.681   5.545 -2.2625  2.3353  0.2973
 9087SOL     OW38722   1.482   1.932  14.202  0.6865 -0.1592 -0.6925
 9087SOL    HW138723   1.444   1.957  14.286 -1.6817  0.2066 -1.8464
 9087SOL    HW238724   1.572   1.909  14.223  0.5713  1.4270  1.5694
 9088SOL     OW38725   1.932   0.275  17.353 -0.1672 -0.2485  0.3612
 9088SOL    HW138726   2.011   0.254  17.303 -0.4621  1.6233 -0.9094
 9088SOL    HW238727   1.917   0.366  17.326  1.7177 -0.1562 -0.3271
 9089SOL     OW38728   3.120   0.796   6.627 -0.2576 -0.0116 -0.5268
 9089SOL    HW138729   3.201   0.772   6.581  0.8192  2.6703 -0.0399
 9089SOL    HW238730   3.079   0.710   6.621  0.1363 -0.0176 -3.5616
 9090SOL     OW38731   2.344   4.488   3.506  0.4909  0.1221 -0.1307
 9090SOL    HW138732   2.345   4.567   3.560 -0.2539 -0.8109  1.2318
 9090SOL    HW238733   2.249   4.479   3.494  0.3908 -1.6359  2.0538
 9091SOL     OW38734   1.242   1.676   5.610 -0.2056 -0.5411 -0.0233
 9091SOL    HW138735   1.205   1.756   5.646 -0.1820 -1.0979  1.2346
 9091SOL    HW238736   1.307   1.650   5.675 -2.7523 -2.7406  1.6195
 9092SOL     OW38737   1.744   1.753  11.188  0.6733  0.3629 -0.5020
 9092SOL    HW138738   1.789   1.747  11.272 -2.0832  1.1909  1.0342
 9092SOL    HW238739   1.697   1.669  11.189  0.1748  0.6214 -1.9316
 9093SOL     OW38740   4.316   3.150   3.296  0.1305  0.1772 -0.6289
 9093SOL    HW138741   4.231   3.184   3.268  0.5223  1.7502  0.0614
 9093SOL    HW238742   4.339   3.114   3.210 -1.6962 -0.0978 -0.9901
 9094SOL     OW38743   2.424   4.497   9.139  0.0311 -0.1925 -0.1332
 9094SOL    HW138744   2.422   4.402   9.150 -1.6125  0.1637  2.6365
 9094SOL    HW238745   2.514   4.499   9.172 -0.7686  0.2110  2.0119
 9095SOL     OW38746   0.860   0.863  15.561 -0.4380 -0.2726  0.3192
 9095SOL    HW138747   0.938   0.818  15.527 -1.0804  0.6733 -2.3241
 9095SOL    HW238748   0.892   0.951  15.540 -1.4503 -0.2239 -0.9961
 9096SOL     OW38749   3.984   0.244   5.931 -0.3672 -0.1927 -0.5553
 9096SOL    HW138750   3.986   0.181   6.003 -2.8463  0.2223 -0.1182
 9096SOL    HW238751   3.889   0.254   5.928 -0.3233  0.5259  0.4048
 9097SOL     OW38752   0.888   2.830  14.558 -0.1514 -0.9891  0.3086
 9097SOL    HW138753   0.977   2.802  14.579  0.0909 -1.0357 -0.7910
 9097SOL    HW238754   0.865   2.894  14.626  0.7113 -0.8270  0.4534
 9098SOL     OW38755   4.364   0.162   8.468 -0.2795  0.0887  0.2629
 9098SOL    HW138756   4.285   0.108   8.472 -0.3120 -0.0625 -2.9321
 9098SOL    HW238757   4.426   0.110   8.417 -0.2737  0.8019 -0.4525
 9099SOL     OW38758   3.517   1.364   1.979 -0.0739  0.1536 -0.1734
 9099SOL    HW138759   3.433   1.384   2.019  0.2135 -1.2186  1.1013
 9099SOL    HW238760   3.568   1.444   1.990 -0.7838  0.6610 -0.6244
 9100SOL     OW38761   1.135   0.395   5.280  0.2486 -0.0560  0.2940
 9100SOL    HW138762   1.225   0.385   5.310  0.1412  0.9923  0.9501
 9100SOL    HW238763   1.145   0.424   5.189 -0.8817  0.9436  0.4986
 9101SOL     OW38764   2.455   4.252   7.509 -0.1685 -0.2013 -0.1245
 9101SOL    HW138765   2.423   4.212   7.590  0.1790 -1.0883 -0.4236
 9101SOL    HW238766   2.489   4.183   7.452  1.6551  1.0207 -0.5490
 9102SOL     OW38767   1.428   4.097   3.967 -0.2927 -0.2316 -0.1276
 9102SOL    HW138768   1.388   4.183   3.960 -2.0189 -1.0698 -0.4252
 9102SOL    HW238769   1.387   4.054   4.042 -0.5765 -1.6848 -1.1262
 9103SOL     OW38770   2.885   3.157   9.791 -0.2740  0.5817  0.4604
 9103SOL    HW138771   2.955   3.115   9.741 -1.0579 -1.7723  1.3432
 9103SOL    HW238772   2.844   3.080   9.829 -3.0935  1.5295 -0.6343
 9104SOL     OW38773   4.129   3.699  16.319 -0.0566  0.5526  0.4833
 9104SOL    HW138774   4.075   3.772  16.289 -0.4448 -0.4208 -1.1734
 9104SOL    HW238775   4.077   3.619  16.314  0.5529  0.4277 -3.5388
 9105SOL     OW38776   1.979   1.577   5.235 -0.8919  0.5778 -0.1363
 9105SOL    HW138777   2.017   1.545   5.317 -1.0331 -0.5367 -0.5105
 9105SOL    HW238778   1.943   1.662   5.262 -2.2119 -0.7897  2.3729
 9106SOL     OW38779   4.553   4.380   9.337  0.4779 -0.5180 -0.0401
 9106SOL    HW138780   4.557   4.379   9.242  0.5722 -0.2738 -0.0383
 9106SOL    HW238781   4.598   4.298   9.353 -0.0508 -1.0957 -1.5234
 9107SOL     OW38782   4.606   2.658   8.325 -0.3043 -0.0752 -0.5923
 9107SOL    HW138783   4.553   2.725   8.367 -0.8827  0.1033 -1.6060
 9107SOL    HW238784   4.639   2.678   8.237 -0.1221 -2.2218 -1.0314
 9108SOL     OW38785   3.843   1.453  11.329  0.0254 -0.6972 -0.1844
 9108SOL    HW138786   3.871   1.536  11.367 -0.3409 -0.0211 -1.3983
 9108SOL    HW238787   3.750   1.468  11.313  0.0461  1.5443  1.8645
 9109SOL     OW38788   0.650   1.758   8.224 -0.3822  0.2482  0.2764
 9109SOL    HW138789   0.657   1.799   8.310 -0.2407  1.3438 -0.2521
 9109SOL    HW238790   0.556   1.745   8.211 -0.7241 -0.1578  3.3006
 9110SOL     OW38791   1.917   1.982   0.135 -0.3414 -0.2303  0.5108
 9110SOL    HW138792   1.872   2.033   0.202 -0.1272  0.3277  0.2332
 9110SOL    HW238793   1.846   1.986   0.071  1.4893 -2.8889 -1.6659
 9111SOL     OW38794   1.643   0.552   3.843  0.3101 -0.4014 -0.1896
 9111SOL    HW138795   1.655   0.479   3.781  1.3036 -0.8133  0.4888
 9111SOL    HW238796   1.667   0.627   3.788  1.8584 -2.4358 -2.2929
 9112SOL     OW38797   1.867   2.550   3.255 -0.1383 -0.1556 -0.0944
 9112SOL    HW138798   1.950   2.598   3.250 -0.0945 -0.3649 -1.2029
 9112SOL    HW238799   1.893   2.467   3.215 -0.4797 -0.7982  1.0156
 9113SOL     OW38800   1.596   0.738   5.853 -0.1808  0.4443  0.1715
 9113SOL    HW138801   1.547   0.657   5.838  0.6774 -0.2753  1.2596
 9113SOL    HW238802   1.579   0.751   5.946  0.0446 -2.1685  0.5589
 9114SOL     OW38803   3.249   1.971   5.023  0.4392  0.1795  0.2251
 9114SOL    HW138804   3.344   1.976   5.015  0.4238  0.2993  0.1084
 9114SOL    HW238805   3.218   1.908   4.958  2.5629 -0.9608  0.3546
 9115SOL     OW38806   3.400   3.237   2.039 -0.0598  0.3349 -0.7206
 9115SOL    HW138807   3.452   3.283   1.973  1.1182  0.6274  0.4171
 9115SOL    HW238808   3.311   3.263   2.015  0.0507  1.8549  0.4666
 9116SOL     OW38809   4.464   1.364   2.444  0.3472  0.5716  0.7245
 9116SOL    HW138810   4.388   1.318   2.409  1.4907 -0.6869 -0.1183
 9116SOL    HW238811   4.456   1.336   2.536 -2.9574 -2.0226 -0.3413
 9117SOL     OW38812   4.566   1.960  11.561  0.0125 -0.7379 -0.0608
 9117SOL    HW138813   4.527   1.943  11.647 -1.5004  0.2608 -0.5573
 9117SOL    HW238814   4.535   1.881  11.518 -0.4358  0.2674 -1.5840
 9118SOL     OW38815   2.891   0.738  10.386  0.7004  0.3477 -0.1762
 9118SOL    HW138816   2.860   0.751  10.296  0.0962 -0.6736 -0.1155
 9118SOL    HW238817   2.816   0.691  10.422  1.5669 -1.1660 -0.3053
 9119SOL     OW38818   3.943   2.269   8.947  0.0288 -0.0061  0.0987
 9119SOL    HW138819   3.956   2.179   8.978 -0.9417 -0.6459 -1.3309
 9119SOL    HW238820   4.017   2.290   8.890  1.3923  2.6044  2.8556
 9120SOL     OW38821   0.397   2.821   7.585  1.0304 -0.2744  0.0504
 9120SOL    HW138822   0.328   2.794   7.646  0.8168  1.2737  0.4952
 9120SOL    HW238823   0.477   2.775   7.610  1.2530 -0.3287 -0.7663
 9121SOL     OW38824   2.527   2.465   4.962  0.1734  0.1496  0.9680
 9121SOL    HW138825   2.542   2.400   5.030  0.3707 -1.1188 -0.3022
 9121SOL    HW238826   2.501   2.542   5.013 -1.3853  1.1287 -1.2831
 9122SOL     OW38827   1.334   2.438   3.623  0.0823  0.3909 -0.0862
 9122SOL    HW138828   1.389   2.476   3.555  2.9231  0.0877  2.0372
 9122SOL    HW238829   1.394   2.411   3.693  1.2558 -0.5990 -1.4445
 9123SOL     OW38830   2.769   1.864   4.588  0.4009 -0.1460 -0.0452
 9123SOL    HW138831   2.753   1.774   4.559 -1.6512  0.8649 -2.0618
 9123SOL    HW238832   2.863   1.856   4.600  0.0377 -2.4921  1.2476
 9124SOL     OW38833   2.412   1.642   5.918 -0.1494  0.1826  0.6546
 9124SOL    HW138834   2.350   1.712   5.902 -1.2813 -1.2323 -1.1361
 9124SOL    HW238835   2.354   1.566   5.925  1.5635 -1.2615 -0.7996
 9125SOL     OW38836   4.507   4.416   8.193 -0.2745  0.3257 -0.2641
 9125SOL    HW138837   4.481   4.414   8.101 -2.3470 -1.1412  0.3573
 9125SOL    HW238838   4.438   4.471   8.230  0.2073  0.8787 -0.1798
 9126SOL     OW38839   4.036   2.921   3.675  0.3775 -0.1805 -0.3449
 9126SOL    HW138840   4.116   2.912   3.727 -0.1827  2.8463  1.0292
 9126SOL    HW238841   4.004   2.831   3.685 -2.5033  0.7101 -1.7815
 9127SOL     OW38842   3.745   1.105   2.467 -0.2563 -0.0158 -0.4954
 9127SOL    HW138843   3.737   1.126   2.374  0.7479  3.2515  0.1580
 9127SOL    HW238844   3.793   1.186   2.486 -2.0303  1.0937 -0.7387
 9128SOL     OW38845   0.826   1.526  14.777 -0.1635  0.4919 -0.4697
 9128SOL    HW138846   0.742   1.481  14.788 -0.2696  1.1428  1.5117
 9128SOL    HW238847   0.877   1.455  14.738  2.1338  1.4171  0.8455
 9129SOL     OW38848   0.725   3.689   4.525 -0.3019 -0.4857 -0.0349
 9129SOL    HW138849   0.707   3.775   4.563  0.5021  0.1050 -0.9865
 9129SOL    HW238850   0.773   3.659   4.602  2.5971  1.2473 -1.1440
 9130SOL     OW38851   1.231   4.587   5.743 -0.2764  0.4450 -0.0624
 9130SOL    HW138852   1.189   4.667   5.772  1.2643  0.7643  1.3000
 9130SOL    HW238853   1.278   4.566   5.823 -0.9678  0.3631  0.3186
 9131SOL     OW38854   4.654   0.500  15.143 -0.2792 -0.0766  0.5881
 9131SOL    HW138855   4.670   0.588  15.178  0.4271  0.4652 -1.1002
 9131SOL    HW238856   4.564   0.509  15.109 -0.0128 -0.8490 -0.3128
 9132SOL     OW38857   1.938   0.493  17.201 -0.2760 -0.3611  0.5680
 9132SOL    HW138858   1.946   0.422  17.138 -0.1617  0.5540 -0.4601
 9132SOL    HW238859   1.852   0.526  17.173 -1.1262 -2.0535  1.2078
 9133SOL     OW38860   0.640   3.468   4.414  0.1382 -0.4600 -0.3634
 9133SOL    HW138861   0.678   3.543   4.460 -0.7935  0.6825 -1.4841
 9133SOL    HW238862   0.547   3.484   4.431 -0.4123 -1.8531 -2.0494
 9134SOL     OW38863   1.979   3.058   8.199 -0.3845  0.7371 -0.1236
 9134SOL    HW138864   2.068   3.056   8.234  0.6336  1.4872 -2.6662
 9134SOL    HW238865   1.919   3.036   8.271  1.6411  0.2530  1.4077
 9135SOL     OW38866   3.858   0.468   1.711 -0.2943 -0.3575  0.4495
 9135SOL    HW138867   3.770   0.461   1.747 -0.8713  0.6882 -0.8080
 9135SOL    HW238868   3.839   0.542   1.654 -0.7141  0.2244  1.3521
 9136SOL     OW38869   4.526   2.792   7.582  0.7475 -0.1190  0.1387
 9136SOL    HW138870   4.557   2.746   7.660 -0.5288 -0.4243  0.4725
 9136SOL    HW238871   4.542   2.731   7.510  0.4932 -1.5424  1.2837
 9137SOL     OW38872   0.905   0.730   6.531  0.3854 -0.0206  0.1221
 9137SOL    HW138873   0.813   0.752   6.542  0.6005  0.5207  0.8318
 9137SOL    HW238874   0.921   0.648   6.484  0.1210 -0.2379  0.4059
 9138SOL     OW38875   1.007   4.636   9.838 -0.5445  0.0744 -0.5074
 9138SOL    HW138876   1.055   4.684   9.906 -1.9195  0.8655 -0.0909
 9138SOL    HW238877   1.048   4.678   9.762 -2.8426  1.8815 -0.7446
 9139SOL     OW38878   2.632   4.490   3.986 -0.3582  0.1821 -0.4648
 9139SOL    HW138879   2.637   4.395   3.977  0.5860  0.2662 -0.7611
 9139SOL    HW238880   2.547   4.503   3.944 -1.1402  1.0013  1.3611
 9140SOL     OW38881   1.747   4.478   1.223  0.1181 -0.0450  0.4122
 9140SOL    HW138882   1.780   4.389   1.231 -0.3263 -0.0322  2.6104
 9140SOL    HW238883   1.815   4.513   1.166 -2.2870  1.4454 -1.5025
 9141SOL     OW38884   4.268   0.171   6.696 -0.1200  0.2556 -0.4969
 9141SOL    HW138885   4.351   0.149   6.737 -0.0231 -0.2782 -0.9781
 9141SOL    HW238886   4.205   0.179   6.768 -0.8501 -1.3524 -0.9563
 9142SOL     OW38887   0.681   1.094   3.472 -0.0698 -0.1606  0.3578
 9142SOL    HW138888   0.608   1.047   3.513 -1.7528  0.3963 -1.9833
 9142SOL    HW238889   0.757   1.078   3.527 -0.9880  1.6959  2.1547
 9143SOL     OW38890   2.340   2.678   7.217 -0.1412 -0.1802  0.0483
 9143SOL    HW138891   2.254   2.646   7.191 -0.6976  2.0554 -0.8055
 9143SOL    HW238892   2.349   2.641   7.305 -0.6348 -0.5693 -0.0638
 9144SOL     OW38893   3.823   4.274   8.286  0.3508  0.8493 -0.3148
 9144SOL    HW138894   3.899   4.329   8.302  0.8109 -0.1833  1.0568
 9144SOL    HW238895   3.813   4.289   8.192  0.2159  3.2091  0.0822
 9145SOL     OW38896   4.020   1.616   2.184 -0.0046 -0.2764 -0.1672
 9145SOL    HW138897   3.938   1.569   2.171  0.4997 -1.1565 -0.1141
 9145SOL    HW238898   3.984   1.697   2.221  0.9105  0.3818 -0.7425
 9146SOL     OW38899   3.580   3.618   8.172 -0.2200 -0.0619 -0.0969
 9146SOL    HW138900   3.500   3.657   8.136 -0.4568 -1.0428 -0.6175
 9146SOL    HW238901   3.609   3.687   8.232  0.0283 -0.7884  0.6187
 9147SOL     OW38902   0.238   2.830   0.121 -0.1684 -0.5892 -0.1886
 9147SOL    HW138903   0.234   2.859   0.212  0.8733  0.6864 -0.5471
 9147SOL    HW238904   0.284   2.746   0.123 -2.0488 -1.6378 -0.6161
 9148SOL     OW38905   0.145   0.616   4.678 -0.4940 -0.0952 -0.1326
 9148SOL    HW138906   0.100   0.692   4.714  0.9586 -0.1520  1.7884
 9148SOL    HW238907   0.071   0.555   4.671 -1.5882  1.1677  0.3066
 9149SOL     OW38908   3.627   1.471  14.762  0.0332 -0.3403 -0.1228
 9149SOL    HW138909   3.714   1.483  14.801 -0.4261 -0.4227  0.9381
 9149SOL    HW238910   3.563   1.491  14.831  0.0545  1.2868 -0.5855
 9150SOL     OW38911   3.908   3.215   9.732 -0.1897 -0.4493  0.1189
 9150SOL    HW138912   3.917   3.179   9.644 -0.3900 -1.1262  0.3798
 9150SOL    HW238913   3.989   3.188   9.775 -1.3947 -1.3529  1.7888
 9151SOL     OW38914   0.451   0.199   5.832  0.4790 -0.1753  0.1385
 9151SOL    HW138915   0.474   0.106   5.833  1.4876  0.0585 -1.8408
 9151SOL    HW238916   0.447   0.207   5.737 -1.3139 -2.4443  0.0198
 9152SOL     OW38917   1.828   2.271   5.467 -0.0028 -0.1058  0.1646
 9152SOL    HW138918   1.854   2.201   5.528 -0.4663  0.0748  0.5761
 9152SOL    HW238919   1.866   2.228   5.391 -2.7144 -2.0231 -0.1198
 9153SOL     OW38920   3.932   3.635  11.423  0.3370  0.8190 -0.6870
 9153SOL    HW138921   3.947   3.663  11.333 -0.4126 -2.0952 -1.7174
 9153SOL    HW238922   4.016   3.654  11.465 -0.4950  0.5909  1.0761
 9154SOL     OW38923   2.792   3.842  12.106 -0.2410  0.7163  0.0580
 9154SOL    HW138924   2.836   3.927  12.111  1.6968 -0.2794  0.1393
 9154SOL    HW238925   2.765   3.833  12.198  2.7277 -1.3300  0.7332
 9155SOL     OW38926   4.608   4.659  13.255  0.4070  0.0763 -0.0041
 9155SOL    HW138927   4.638   4.688  13.169  1.1045  1.1476  0.5933
 9155SOL    HW238928   4.556   4.582  13.234  0.1798 -0.0329  0.9553
 9156SOL     OW38929   0.580   4.373  14.634 -0.3650  0.3817  0.1403
 9156SOL    HW138930   0.617   4.460  14.649 -0.4133  0.4460 -0.1078
 9156SOL    HW238931   0.612   4.327  14.711 -5.4696 -1.1157  1.3847
 9157SOL     OW38932   0.708   4.186  13.073  0.3321  0.3794  0.3218
 9157SOL    HW138933   0.793   4.166  13.034 -0.2908  2.3566 -2.0860
 9157SOL    HW238934   0.704   4.126  13.148 -2.5016 -0.0564 -0.1970
 9158SOL     OW38935   1.882   0.815  11.244  0.0482 -0.4634  0.4094
 9158SOL    HW138936   1.851   0.905  11.242  0.5172 -0.4122 -3.7898
 9158SOL    HW238937   1.865   0.794  11.336  0.5064 -0.1441  0.5663
 9159SOL     OW38938   3.857   0.050   2.463  0.1275 -0.2772  0.4856
 9159SOL    HW138939   3.944   0.075   2.431 -0.1943  0.4623  0.1702
 9159SOL    HW238940   3.819   0.006   2.387  1.4628 -0.0517 -0.3148
 9160SOL     OW38941   0.862   1.317   2.647  0.0604  0.0399 -0.3907
 9160SOL    HW138942   0.863   1.402   2.604 -0.0579 -0.4089 -1.2645
 9160SOL    HW238943   0.931   1.340   2.710  1.1187 -1.7655 -0.9005
 9161SOL     OW38944   3.033   1.658   6.445  0.3127 -0.3379 -0.3471
 9161SOL    HW138945   3.104   1.596   6.431 -1.0829 -1.8214 -0.8223
 9161SOL    HW238946   3.022   1.698   6.359 -0.7527 -0.2498 -0.1790
 9162SOL     OW38947   3.204   0.488  16.969  0.3189  0.3111  0.1881
 9162SOL    HW138948   3.166   0.447  17.046 -0.5213 -3.4604 -2.2446
 9162SOL    HW238949   3.146   0.457  16.899 -0.7350 -1.0242  1.6681
 9163SOL     OW38950   2.056   0.543   8.478  0.2491  0.5211 -0.0100
 9163SOL    HW138951   2.025   0.486   8.548 -1.2369  1.5161  0.1467
 9163SOL    HW238952   2.129   0.587   8.522 -0.6014  1.2128  0.7046
 9164SOL     OW38953   4.013   2.741   7.879 -0.4052  0.2186 -0.6604
 9164SOL    HW138954   4.101   2.757   7.844  0.2322 -2.0527 -0.0974
 9164SOL    HW238955   3.965   2.824   7.873  0.2841  0.6402 -0.3710
 9165SOL     OW38956   1.135   4.614   8.700  0.1342  0.2766  0.4794
 9165SOL    HW138957   1.127   4.543   8.637  0.1667 -1.2709  2.2216
 9165SOL    HW238958   1.046   4.634   8.729  0.3403  3.0347 -0.7133
 9166SOL     OW38959   4.460   2.304   8.025  0.0306  0.0289 -0.7539
 9166SOL    HW138960   4.367   2.325   8.037 -0.6719 -2.2654 -2.1816
 9166SOL    HW238961   4.447   2.240   7.954 -1.2531 -0.6285  0.0890
 9167SOL     OW38962   1.535   1.725  12.453  0.0090 -0.1836 -0.3582
 9167SOL    HW138963   1.489   1.683  12.525  0.7314 -0.4250 -0.0329
 9167SOL    HW238964   1.621   1.683  12.455  0.0829  0.0237  0.7074
 9168SOL     OW38965   2.349   0.235  15.886 -0.0011 -0.0107 -0.1532
 9168SOL    HW138966   2.307   0.284  15.816  0.8837 -0.6297 -1.1262
 9168SOL    HW238967   2.387   0.297  15.949  1.4718 -1.2932  0.2328
 9169SOL     OW38968   1.168   2.577  16.087  0.5449 -0.0709  0.0779
 9169SOL    HW138969   1.186   2.486  16.108 -1.1037 -0.1255  1.2231
 9169SOL    HW238970   1.196   2.592  15.997  0.0371 -1.8805 -0.3751
 9170SOL     OW38971   4.126   3.208   7.686  0.1611 -0.1345  0.7339
 9170SOL    HW138972   4.153   3.289   7.643 -1.7007  0.6020  0.9622
 9170SOL    HW238973   4.039   3.199   7.649  0.1558  2.7082  0.0561
 9171SOL     OW38974   2.232   1.880   7.299  0.3949  0.3951  0.1029
 9171SOL    HW138975   2.246   1.897   7.392 -1.1560 -1.5972  0.6879
 9171SOL    HW238976   2.257   1.788   7.292  1.0743  0.6317 -0.5148
 9172SOL     OW38977   0.010   1.638   2.614  0.0433 -0.2838 -0.3603
 9172SOL    HW138978   4.680   1.715   2.590 -0.0104 -0.1797  0.0862
 9172SOL    HW238979   0.098   1.669   2.636 -0.3672  0.7190 -0.1178
 9173SOL     OW38980   0.004   2.044  15.485  0.5374  0.2928  0.2227
 9173SOL    HW138981   0.060   1.996  15.424 -0.9138 -1.4464  0.2579
 9173SOL    HW238982   4.642   2.005  15.460 -0.3101  3.7857 -2.4615
 9174SOL     OW38983   3.540   4.240  15.429  0.3304 -0.3600 -0.1893
 9174SOL    HW138984   3.507   4.325  15.399  1.8967  0.4384  0.3263
 9174SOL    HW238985   3.610   4.274  15.485 -1.0448  0.3532  1.0994
 9175SOL     OW38986   0.507   1.370   3.774 -0.3414 -0.2722 -0.0291
 9175SOL    HW138987   0.462   1.380   3.690  1.3044  1.5257 -0.6834
 9175SOL    HW238988   0.446   1.419   3.829 -0.1954 -0.9345  0.7217
 9176SOL     OW38989   0.359   4.491   4.351  0.0451  0.2780 -0.0957
 9176SOL    HW138990   0.425   4.423   4.344  0.1895  0.3112  0.9308
 9176SOL    HW238991   0.394   4.543   4.423 -0.7198 -0.0522  0.5062
 9177SOL     OW38992   0.769   4.081  16.734 -0.5354  0.2888  0.1164
 9177SOL    HW138993   0.819   4.098  16.654 -1.1117  1.2511 -0.0321
 9177SOL    HW238994   0.678   4.093  16.709 -0.4699 -0.3274 -0.4169
 9178SOL     OW38995   4.699   3.063   2.201 -0.0371 -0.3870  0.0499
 9178SOL    HW138996   4.707   2.974   2.166  1.7626 -0.0234 -0.4568
 9178SOL    HW238997   4.700   3.108   2.117 -0.3434 -0.9990 -0.2837
 9179SOL     OW38998   1.263   2.398  13.152 -0.3055  1.0813 -0.1961
 9179SOL    HW138999   1.175   2.436  13.153 -0.2766  1.1098  0.6666
 9179SOL    HW239000   1.295   2.408  13.241  0.1120 -3.8127  0.1817
 9180SOL     OW39001   4.358   4.115   9.466 -0.6445 -0.2965 -0.5738
 9180SOL    HW139002   4.451   4.133   9.454 -0.1651 -1.5243  1.2631
 9180SOL    HW239003   4.361   4.021   9.446  0.9409 -0.4381  0.2740
 9181SOL     OW39004   0.838   0.794   8.855 -0.3855  0.2438 -0.0606
 9181SOL    HW139005   0.840   0.886   8.880  0.8624  0.4222 -0.7917
 9181SOL    HW239006   0.746   0.776   8.840 -0.6430  1.8569 -0.3608
 9182SOL     OW39007   2.271   3.232   8.145  0.0777 -0.2621  0.1893
 9182SOL    HW139008   2.258   3.296   8.215  0.1818  1.2357 -1.1740
 9182SOL    HW239009   2.239   3.280   8.069 -0.3029 -1.4189 -0.3796
 9183SOL     OW39010   3.761   1.122   4.379  0.3377 -0.3238  0.0330
 9183SOL    HW139011   3.697   1.177   4.424  1.6023  1.4583 -0.3568
 9183SOL    HW239012   3.827   1.131   4.448  1.3433  0.3315 -1.0267
 9184SOL     OW39013   3.587   0.501   7.967  0.3297  0.3324 -0.0184
 9184SOL    HW139014   3.614   0.411   7.948 -0.4567  0.6541 -2.7232
 9184SOL    HW239015   3.646   0.522   8.039 -0.8112  0.3172  0.9271
 9185SOL     OW39016   1.609   2.359  12.917 -0.3605  0.1913  0.6441
 9185SOL    HW139017   1.702   2.354  12.895 -0.4416  0.6476  0.2091
 9185SOL    HW239018   1.606   2.445  12.959 -2.1616  0.0043  0.8773
 9186SOL     OW39019   4.446   0.029   5.682  0.0444  1.0052 -0.0301
 9186SOL    HW139020   4.477   0.003   5.769  1.4515  1.1796 -0.4780
 9186SOL    HW239021   4.478   0.119   5.690  1.5639  0.2004  3.1962
 9187SOL     OW39022   0.079   0.517   5.921 -0.5083  0.3560 -0.3397
 9187SOL    HW139023   4.706   0.509   5.925 -0.4218 -1.7207 -2.2552
 9187SOL    HW239024   0.097   0.607   5.947 -0.9219  0.5024 -0.5775
 9188SOL     OW39025   2.038   4.095  15.579  0.0667 -0.1639  0.0763
 9188SOL    HW139026   2.062   4.188  15.579 -0.7986  0.0660  1.1610
 9188SOL    HW239027   1.996   4.087  15.493 -0.7450 -1.2635  0.5785
 9189SOL     OW39028   0.134   0.683  13.899  0.4450 -0.1586  0.6377
 9189SOL    HW139029   0.213   0.736  13.897 -0.5348  1.2034 -1.7120
 9189SOL    HW239030   0.090   0.712  13.979  1.2864  1.0136  0.6679
 9190SOL     OW39031   2.853   1.829  14.182 -0.5120  0.7711  0.4609
 9190SOL    HW139032   2.936   1.784  14.193 -0.6270  1.0690  2.4066
 9190SOL    HW239033   2.881   1.920  14.190  0.0857  0.4679  1.7520
 9191SOL     OW39034   3.544   3.636   6.441 -0.0831 -0.0152 -0.0182
 9191SOL    HW139035   3.589   3.711   6.403 -2.0217  1.8116  1.3154
 9191SOL    HW239036   3.586   3.620   6.526  0.2452 -1.1531 -0.3890
 9192SOL     OW39037   3.592   2.971   8.603 -0.0331 -0.2591  0.2503
 9192SOL    HW139038   3.661   3.031   8.632 -1.0051  1.4126 -0.8897
 9192SOL    HW239039   3.641   2.922   8.537  1.3782  2.9701 -1.0959
 9193SOL     OW39040   3.051   2.761   9.960  0.1725 -0.3938 -0.0552
 9193SOL    HW139041   3.017   2.729  10.044  1.6519  1.6577  1.3239
 9193SOL    HW239042   2.973   2.791   9.915  0.0421 -0.5537  0.0637
 9194SOL     OW39043   1.039   2.862   6.297  0.5243 -0.7629 -0.1823
 9194SOL    HW139044   1.072   2.820   6.217 -0.3943 -1.4290 -0.2055
 9194SOL    HW239045   0.964   2.895   6.247 -0.6594 -3.5322 -0.1783
 9195SOL     OW39046   2.095   3.005   0.292  0.2946  0.5411 -0.1347
 9195SOL    HW139047   2.133   2.947   0.358  0.0229  1.3196  0.6995
 9195SOL    HW239048   2.010   3.015   0.335  0.2877 -0.5920  0.1311
 9196SOL     OW39049   4.585   4.580   5.461 -0.1211  0.3808 -0.2087
 9196SOL    HW139050   4.556   4.671   5.461  0.5171  0.5799 -0.5704
 9196SOL    HW239051   4.663   4.589   5.515 -1.6485 -0.9999  2.2613
 9197SOL     OW39052   0.854   0.363  14.420 -0.5491 -0.1805 -0.5130
 9197SOL    HW139053   0.817   0.423  14.484  0.3820  0.5269 -0.6423
 9197SOL    HW239054   0.903   0.306  14.478 -0.4583  0.0904 -0.3243
 9198SOL     OW39055   4.431   0.909   3.038 -0.7780  0.2485 -0.5018
 9198SOL    HW139056   4.340   0.903   3.007 -0.9603  1.9673 -0.3039
 9198SOL    HW239057   4.471   0.840   2.985  1.5569  0.1581  1.3945
 9199SOL     OW39058   4.638   0.798  14.567 -0.1265 -0.0421 -0.8656
 9199SOL    HW139059   4.555   0.764  14.535  0.2723  0.5799 -2.5674
 9199SOL    HW239060   4.705   0.759  14.511  1.2172  3.8169 -2.0174
 9200SOL     OW39061   1.492   2.346   6.112 -0.1332  0.3903  0.4488
 9200SOL    HW139062   1.441   2.401   6.053  1.7649  3.2481  1.4542
 9200SOL    HW239063   1.443   2.264   6.101  0.2901 -0.0211  1.6262
 9201SOL     OW39064   0.122   3.232   1.641  0.1183  0.0995 -0.1799
 9201SOL    HW139065   0.120   3.141   1.613  0.7968 -0.6732  2.2284
 9201SOL    HW239066   0.029   3.245   1.658  0.2927  2.4799 -1.0829
 9202SOL     OW39067   1.206   1.926  16.291  0.1752  0.1654  0.6225
 9202SOL    HW139068   1.182   1.983  16.364  1.1655 -0.7753  1.6831
 9202SOL    HW239069   1.294   1.952  16.266 -0.9470  1.6511 -1.7699
 9203SOL     OW39070   1.194   1.539   7.552 -0.5318  0.4403  0.1837
 9203SOL    HW139071   1.186   1.557   7.459 -0.8601  3.0853  0.7279
 9203SOL    HW239072   1.254   1.464   7.556  0.0825  0.9785  0.9994
 9204SOL     OW39073   4.072   0.985  16.191 -0.4290 -0.0089 -0.0728
 9204SOL    HW139074   4.025   0.932  16.255  2.6469 -0.3203  1.9273
 9204SOL    HW239075   4.139   0.924  16.158 -0.2380 -0.4405  1.1087
 9205SOL     OW39076   3.250   0.415   7.118  0.3142  0.4079  0.0219
 9205SOL    HW139077   3.162   0.437   7.150  0.6861 -1.8795  2.6126
 9205SOL    HW239078   3.236   0.325   7.086 -0.4013  1.2778 -2.0992
 9206SOL     OW39079   2.821   2.698   9.652  0.9270 -0.3284  0.5156
 9206SOL    HW139080   2.915   2.704   9.633  0.5330  2.5819 -0.3965
 9206SOL    HW239081   2.814   2.610   9.689 -0.3868 -0.3559  0.1970
 9207SOL     OW39082   3.475   2.667   3.463  0.3183 -0.3007  0.3163
 9207SOL    HW139083   3.499   2.753   3.495  0.7828 -0.1772 -0.3858
 9207SOL    HW239084   3.418   2.691   3.390 -0.3464  1.9050  1.5862
 9208SOL     OW39085   3.068   3.547  10.327 -0.0668  0.2231 -0.3958
 9208SOL    HW139086   3.088   3.531  10.419  1.3876 -0.2871 -0.7906
 9208SOL    HW239087   3.160   3.568  10.306 -0.2572  0.8631 -0.6113
 9209SOL     OW39088   1.435   3.240  10.048  0.4319  0.1643  0.3689
 9209SOL    HW139089   1.517   3.195  10.024 -0.1946 -0.8363  0.0805
 9209SOL    HW239090   1.444   3.250  10.143 -0.3066 -0.6289  0.5206
 9210SOL     OW39091   2.447   0.796   9.226 -0.1413 -0.2876  0.2591
 9210SOL    HW139092   2.506   0.865   9.196  1.1860 -0.6372  2.1003
 9210SOL    HW239093   2.369   0.820   9.176 -0.0052  0.1201  0.2414
 9211SOL     OW39094   1.529   0.288   5.580  0.3524 -0.3521 -0.5519
 9211SOL    HW139095   1.471   0.275   5.506  0.7414 -2.4104 -0.4867
 9211SOL    HW239096   1.592   0.221   5.554 -0.8371 -0.5686 -2.7546
 9212SOL     OW39097   3.591   4.017   4.658  0.3221 -0.4555  0.1921
 9212SOL    HW139098   3.618   3.930   4.629 -0.2094 -0.6966  0.4165
 9212SOL    HW239099   3.641   4.071   4.597  1.7743 -3.4563 -1.2506
 9213SOL     OW39100   0.397   0.985   6.428 -0.4010  0.7074 -0.5995
 9213SOL    HW139101   0.467   0.951   6.372  0.7512 -0.6614  1.6861
 9213SOL    HW239102   0.348   0.903   6.432  1.4069 -0.3974 -1.3734
 9214SOL     OW39103   3.416   0.382   2.919  0.4140 -0.1469  0.3453
 9214SOL    HW139104   3.394   0.293   2.948 -1.1829  0.9411  2.5168
 9214SOL    HW239105   3.385   0.384   2.829  3.8172  0.1099 -0.8109
 9215SOL     OW39106   1.346   0.180  12.547 -0.3780  0.0461 -0.2640
 9215SOL    HW139107   1.379   0.148  12.463 -2.3056 -0.4867 -0.8040
 9215SOL    HW239108   1.433   0.179  12.587 -0.4395 -3.2680 -0.2590
 9216SOL     OW39109   2.716   0.620  10.588  0.6699 -0.3051  0.3290
 9216SOL    HW139110   2.744   0.644  10.677  0.4222  1.2722 -0.0229
 9216SOL    HW239111   2.673   0.538  10.612 -0.0561 -0.3337 -1.1246
 9217SOL     OW39112   2.214   2.996   8.336 -0.2419  0.1476 -0.3995
 9217SOL    HW139113   2.207   2.916   8.389 -0.3079 -0.3150 -1.1020
 9217SOL    HW239114   2.255   3.060   8.394  0.7395  0.2504 -1.2180
 9218SOL     OW39115   2.934   1.766   9.125  0.1518 -0.7268 -0.4364
 9218SOL    HW139116   2.975   1.852   9.115 -0.6207 -0.2606  0.3191
 9218SOL    HW239117   2.862   1.766   9.061 -0.0648 -0.8504 -0.1936
 9219SOL     OW39118   3.098   4.006   1.641  0.4292  0.2480  0.2143
 9219SOL    HW139119   3.058   4.076   1.692 -1.4391  0.0285 -0.9478
 9219SOL    HW239120   3.171   3.976   1.694  0.2402 -1.4470 -0.4831
 9220SOL     OW39121   4.103   2.811   4.881  0.1340 -0.1085 -0.2261
 9220SOL    HW139122   4.055   2.762   4.814 -0.0877 -1.3844  0.8614
 9220SOL    HW239123   4.151   2.876   4.830  0.8428  1.4043  2.3975
 9221SOL     OW39124   1.989   3.980   3.591 -0.2352 -0.0370  0.5484
 9221SOL    HW139125   2.053   3.909   3.591 -0.4005 -0.1787 -1.1429
 9221SOL    HW239126   1.913   3.927   3.613 -0.9452  0.7408 -0.0377
 9222SOL     OW39127   1.964   1.468   2.912  0.2994 -0.2602 -0.0952
 9222SOL    HW139128   1.922   1.417   2.842 -0.5755 -1.2873  1.1793
 9222SOL    HW239129   2.006   1.538   2.862  1.7779  0.4554  2.1672
 9223SOL     OW39130   1.253   0.162   6.780 -0.6838 -0.1522 -0.4769
 9223SOL    HW139131   1.222   0.097   6.717 -2.6320  2.1125 -1.8356
 9223SOL    HW239132   1.329   0.117   6.819 -1.4153  0.0496  1.1844
 9224SOL     OW39133   1.275   0.364  11.904  0.0546 -0.0927  0.1421
 9224SOL    HW139134   1.330   0.443  11.911 -3.0077  2.2762 -2.5985
 9224SOL    HW239135   1.187   0.398  11.919 -0.5525 -1.3980 -0.5318
 9225SOL     OW39136   1.754   0.702  11.534  0.3378 -0.2862 -0.4812
 9225SOL    HW139137   1.706   0.728  11.613  1.1743 -0.7061  0.1650
 9225SOL    HW239138   1.802   0.625  11.564 -1.5007 -1.7911 -1.4128
 9226SOL     OW39139   0.857   4.253   2.785 -0.7407  0.1186 -0.4712
 9226SOL    HW139140   0.906   4.186   2.833 -0.5537 -0.2256 -1.1406
 9226SOL    HW239141   0.849   4.216   2.697 -3.3990  0.4695 -0.3767
 9227SOL     OW39142   0.276   0.742   9.000  0.0313 -0.4425  0.0528
 9227SOL    HW139143   0.243   0.826   9.031 -2.1681 -0.5852 -1.9168
 9227SOL    HW239144   0.224   0.724   8.922 -0.4332 -1.3927  0.5879
 9228SOL     OW39145   0.315   3.467  12.188  0.0834  0.5900  0.1871
 9228SOL    HW139146   0.325   3.395  12.250 -0.1285  0.6457  0.2843
 9228SOL    HW239147   0.342   3.429  12.104 -1.0705 -0.0700  0.1155
 9229SOL     OW39148   4.311   2.903  11.052 -0.0466 -0.1752  0.4236
 9229SOL    HW139149   4.231   2.853  11.070  0.0246 -1.1862 -2.0840
 9229SOL    HW239150   4.378   2.836  11.043  0.3585  0.0244  2.0891
 9230SOL     OW39151   3.557   1.069  11.572 -0.0279 -0.1320  0.2528
 9230SOL    HW139152   3.581   0.992  11.624 -0.3497  0.6809  1.6217
 9230SOL    HW239153   3.631   1.129  11.574  0.2832 -0.5072 -0.2412
 9231SOL     OW39154   0.332   3.112   0.230  0.2748 -0.1248 -0.3721
 9231SOL    HW139155   0.327   3.206   0.251 -0.0403 -0.3201  0.4239
 9231SOL    HW239156   0.323   3.077   0.319  1.0573 -2.6630 -1.2964
 9232SOL     OW39157   3.120   3.603   1.248  0.4774  0.4687  0.1465
 9232SOL    HW139158   3.039   3.555   1.232  1.7555 -1.5375 -0.2810
 9232SOL    HW239159   3.155   3.524   1.290 -0.9211  0.1124  0.6310
 9233SOL     OW39160   1.221   0.116   2.375  0.1780  0.4287  0.0917
 9233SOL    HW139161   1.162   0.046   2.348 -1.0857  1.4099  0.2995
 9233SOL    HW239162   1.259   0.086   2.458 -0.0794 -0.5871 -0.1624
 9234SOL     OW39163   1.695   4.095   5.923 -0.1866  0.6929 -0.0957
 9234SOL    HW139164   1.657   4.175   5.888  0.4516  1.2202  0.4152
 9234SOL    HW239165   1.614   4.077   5.970  1.5244 -2.3922  1.6723
 9235SOL     OW39166   3.238   1.548   2.873 -0.1405 -0.0369 -0.1055
 9235SOL    HW139167   3.220   1.456   2.853  1.4800 -0.4803  0.5218
 9235SOL    HW239168   3.147   1.577   2.881 -0.2715 -0.7600  0.9657
 9236SOL     OW39169   1.456   3.009  13.919  0.3379 -0.1221 -1.0317
 9236SOL    HW139170   1.387   2.948  13.944  0.7151  0.1109  0.5698
 9236SOL    HW239171   1.457   3.064  13.997 -0.1005 -0.2546 -0.9317
 9237SOL     OW39172   2.201   2.149  12.513  0.0857  0.4477 -0.1082
 9237SOL    HW139173   2.252   2.082  12.560 -1.0739  0.2745  0.8946
 9237SOL    HW239174   2.245   2.146  12.428  0.7029  0.8971  0.1957
 9238SOL     OW39175   1.041   1.630   4.775  0.3906  0.4331 -0.6294
 9238SOL    HW139176   1.098   1.568   4.728  2.7651  0.4495  2.2155
 9238SOL    HW239177   0.978   1.577   4.823 -0.6223  0.8003 -1.5598
 9239SOL     OW39178   2.176   2.651   3.892  0.3072  0.6740 -0.1398
 9239SOL    HW139179   2.184   2.605   3.976  2.3129 -0.7041 -1.0970
 9239SOL    HW239180   2.202   2.739   3.920 -0.3097  1.0703 -0.8052
 9240SOL     OW39181   2.210   1.492   6.955 -0.3907 -0.5763 -0.0874
 9240SOL    HW139182   2.163   1.466   7.035 -1.0890  0.3023 -0.2150
 9240SOL    HW239183   2.300   1.474   6.983  0.5822  2.4589 -1.3440
 9241SOL     OW39184   2.321   2.167   6.983  0.1146  0.1833  0.6819
 9241SOL    HW139185   2.355   2.106   7.049  1.2295  0.9276  0.7912
 9241SOL    HW239186   2.389   2.149   6.918  1.2353  1.0932  1.5833
 9242SOL     OW39187   3.250   1.842  11.021  0.0517  0.6238  0.1454
 9242SOL    HW139188   3.266   1.917  11.078  0.7747 -0.0667  0.8509
 9242SOL    HW239189   3.318   1.846  10.954  0.9728 -1.1082  0.9807
 9243SOL     OW39190   0.510   2.277   4.028 -0.7408  0.1611  0.1256
 9243SOL    HW139191   0.492   2.351   3.971 -0.9126 -0.5617 -0.7633
 9243SOL    HW239192   0.576   2.309   4.089  0.6872  1.3547 -2.0364
 9244SOL     OW39193   3.004   1.765  14.798  0.2001  0.2684 -0.1985
 9244SOL    HW139194   2.981   1.778  14.890  1.9752 -0.2451  0.3230
 9244SOL    HW239195   3.058   1.843  14.786  1.5180 -0.7120 -0.7244
 9245SOL     OW39196   3.255   1.689   2.576 -1.0345 -0.4568 -0.3324
 9245SOL    HW139197   3.285   1.644   2.655  1.3021  1.2132 -0.2784
 9245SOL    HW239198   3.282   1.779   2.593 -1.9665 -0.2838  0.2596
 9246SOL     OW39199   1.885   0.698   2.633 -0.0643  0.7717 -0.1955
 9246SOL    HW139200   1.836   0.619   2.612  1.8317 -0.7045  1.0232
 9246SOL    HW239201   1.846   0.752   2.564  3.0042  1.9753 -0.9945
 9247SOL     OW39202   2.557   1.453  12.697 -0.3095  0.5211  0.3367
 9247SOL    HW139203   2.592   1.539  12.674 -0.6152  0.3247 -0.9198
 9247SOL    HW239204   2.609   1.439  12.775 -0.8185  1.3130  0.8164
 9248SOL     OW39205   0.920   0.848   2.470  0.0285  0.5123  0.1202
 9248SOL    HW139206   0.943   0.941   2.474  0.0885  0.5040 -0.0271
 9248SOL    HW239207   0.902   0.846   2.376  0.2235  0.8474  0.0749
 9249SOL     OW39208   4.717   3.259   4.198  0.0351  0.4001 -0.1473
 9249SOL    HW139209   0.029   3.171   4.216 -0.6318 -0.0726 -1.1626
 9249SOL    HW239210   0.049   3.315   4.254 -0.9674  0.3479  0.8611
 9250SOL     OW39211   2.802   2.424  13.970 -0.2438  0.1175 -0.0381
 9250SOL    HW139212   2.722   2.452  13.926 -0.5891  2.5896  2.1278
 9250SOL    HW239213   2.868   2.475  13.924  0.3332  1.2444  2.0229
 9251SOL     OW39214   1.787   3.110   4.099  0.6960 -0.3623  0.0988
 9251SOL    HW139215   1.865   3.070   4.062  1.9778  2.9030 -0.7125
 9251SOL    HW239216   1.747   3.123   4.013 -2.9945 -0.6916  1.7376
 9252SOL     OW39217   0.084   3.697  12.868 -0.9127  0.4093 -0.4495
 9252SOL    HW139218   0.128   3.741  12.795  1.4831 -1.8475 -0.3768
 9252SOL    HW239219   0.003   3.686  12.819 -1.1723 -0.0981  0.1015
 9253SOL     OW39220   2.877   3.034   5.623 -0.2939 -0.1013  0.3362
 9253SOL    HW139221   2.890   3.096   5.552 -1.5637 -1.2357 -0.9000
 9253SOL    HW239222   2.964   3.007   5.654  0.8801  3.6547  0.3198
 9254SOL     OW39223   4.575   4.494   7.709  0.0230 -0.5618 -0.4162
 9254SOL    HW139224   4.662   4.510   7.673 -0.3302  0.1605 -0.9399
 9254SOL    HW239225   4.526   4.548   7.648  0.0552  1.1773  1.0802
 9255SOL     OW39226   3.884   3.968  10.602 -0.6178 -0.0494  0.3248
 9255SOL    HW139227   3.832   3.914  10.660 -1.3603  1.6172  1.1960
 9255SOL    HW239228   3.973   3.966  10.638 -1.2715 -2.6419  1.7428
 9256SOL     OW39229   4.075   2.006  10.692 -0.5930 -0.9360  0.4097
 9256SOL    HW139230   4.150   1.950  10.714  0.2102 -0.9190 -2.2231
 9256SOL    HW239231   4.113   2.040  10.611  1.7799  1.8068  2.6803
 9257SOL     OW39232   1.125   4.071  10.806 -0.6815  0.3406 -0.0700
 9257SOL    HW139233   1.123   4.116  10.721  0.6842 -1.1209 -0.8797
 9257SOL    HW239234   1.180   4.139  10.846 -2.4810  1.1298  1.0413
 9258SOL     OW39235   4.315   1.897   2.180 -0.4869 -0.1233  0.4653
 9258SOL    HW139236   4.239   1.940   2.142 -0.7683 -1.4568 -0.5113
 9258SOL    HW239237   4.308   1.827   2.115 -0.7923  0.9345 -0.6380
 9259SOL     OW39238   0.535   0.617   2.521 -0.3346  0.4798 -0.1269
 9259SOL    HW139239   0.581   0.633   2.439  0.7121  1.8723  0.7372
 9259SOL    HW239240   0.566   0.688   2.577  0.8224 -0.9473  1.0368
 9260SOL     OW39241   4.487   0.374   4.311 -0.6758 -0.0480 -0.1396
 9260SOL    HW139242   4.536   0.456   4.310 -0.8642  0.0744  0.8565
 9260SOL    HW239243   4.414   0.397   4.253 -0.0778 -3.2681 -2.1455
 9261SOL     OW39244   4.258   4.263  13.192  0.2848 -0.0595  0.0925
 9261SOL    HW139245   4.228   4.324  13.259  0.7361  0.2822 -0.0190
 9261SOL    HW239246   4.178   4.240  13.145  1.0101 -0.9558 -0.7036
 9262SOL     OW39247   2.042   1.315   7.786 -0.1223 -0.3368 -0.1025
 9262SOL    HW139248   2.073   1.331   7.875 -0.2195  0.2947 -0.1795
 9262SOL    HW239249   1.976   1.248   7.802  0.6263 -0.9825  0.3047
 9263SOL     OW39250   1.249   2.213   7.864 -0.1761  0.1897 -0.3846
 9263SOL    HW139251   1.198   2.133   7.848  0.7375 -0.8948  2.1337
 9263SOL    HW239252   1.259   2.205   7.959 -1.3976  0.5701 -0.2320
 9264SOL     OW39253   0.092   2.396   4.828 -0.0106 -0.4675 -0.2422
 9264SOL    HW139254   0.177   2.422   4.791 -0.1309 -1.5307 -1.2861
 9264SOL    HW239255   0.045   2.479   4.827  0.1165 -0.3971 -0.4863
 9265SOL     OW39256   2.461   3.356  17.213 -0.1299  0.2398 -0.7675
 9265SOL    HW139257   2.464   3.263  17.189 -0.1451  0.2876 -0.9552
 9265SOL    HW239258   2.470   3.406  17.132 -1.8718  1.1260 -0.4073
 9266SOL     OW39259   1.075   2.128   4.613 -0.3166  0.0035  1.0555
 9266SOL    HW139260   1.003   2.189   4.600 -0.5817 -0.5410 -0.0309
 9266SOL    HW239261   1.026   2.052   4.646  0.6611 -0.8627  0.5081
 9267SOL     OW39262   3.371   1.010   6.093  0.4902  0.2940 -0.0496
 9267SOL    HW139263   3.453   0.969   6.119 -0.0453  0.3167  1.6766
 9267SOL    HW239264   3.310   0.966   6.152 -0.4492 -0.2215 -1.4218
 9268SOL     OW39265   3.020   1.666   2.234  0.3036 -0.1038  0.3087
 9268SOL    HW139266   2.934   1.700   2.210  1.2232  0.3522 -2.2853
 9268SOL    HW239267   3.068   1.741   2.271  1.3885  0.8926 -3.1334
 9269SOL     OW39268   2.916   0.269   1.494  0.7416 -0.0418  0.0157
 9269SOL    HW139269   2.870   0.186   1.508  0.5775  0.1558  0.6838
 9269SOL    HW239270   2.976   0.266   1.569 -0.4585  2.8245  1.0610
 9270SOL     OW39271   3.518   1.000   9.012 -0.3874 -0.0480 -0.2797
 9270SOL    HW139272   3.492   0.913   8.981 -0.9846 -0.1043  0.3709
 9270SOL    HW239273   3.559   1.033   8.933 -0.0364 -1.5099 -0.6994
 9271SOL     OW39274   3.921   4.397   5.480 -0.0832  0.0624  0.2467
 9271SOL    HW139275   3.967   4.350   5.410 -0.8773  0.2319 -0.3955
 9271SOL    HW239276   3.852   4.335   5.503  1.8063 -1.6855  1.2347
 9272SOL     OW39277   1.943   3.007   5.468 -0.0231 -0.3344 -0.1486
 9272SOL    HW139278   2.011   2.941   5.453 -0.3142 -0.7454  0.3777
 9272SOL    HW239279   1.956   3.073   5.399  0.8237 -1.0337 -0.6580
 9273SOL     OW39280   4.466   4.385   7.940  0.0743  0.5272 -0.4426
 9273SOL    HW139281   4.395   4.326   7.916  0.9297 -0.1735 -1.2465
 9273SOL    HW239282   4.475   4.441   7.862  1.7019  0.1329 -0.5415
 9274SOL     OW39283   0.143   3.850   2.133  0.0655  0.3454  0.1073
 9274SOL    HW139284   0.071   3.899   2.092 -0.5547 -2.2079 -1.8837
 9274SOL    HW239285   0.156   3.893   2.217 -2.6050  0.5381  0.4474
 9275SOL     OW39286   1.924   2.639   4.111  0.1509  0.5004 -0.3757
 9275SOL    HW139287   2.017   2.632   4.092  0.0928 -1.5149  0.1137
 9275SOL    HW239288   1.900   2.573   4.176  1.8843 -0.6152 -0.8810
 9276SOL     OW39289   1.101   1.338  15.546 -0.5838  0.8294 -0.0394
 9276SOL    HW139290   1.160   1.404  15.583 -0.4467 -0.6800  2.3907
 9276SOL    HW239291   1.096   1.374  15.457  3.2026 -1.1729 -1.0959
 9277SOL     OW39292   4.662   3.869  17.121 -0.0859 -0.6599 -0.8048
 9277SOL    HW139293   4.722   3.803  17.085 -0.5751 -0.9533 -1.0884
 9277SOL    HW239294   4.646   3.927  17.046  0.2501  0.5151  0.0385
 9278SOL     OW39295   2.282   4.148   5.034 -1.2084 -0.1809  0.3646
 9278SOL    HW139296   2.369   4.182   5.054 -1.8460  2.3469 -1.1192
 9278SOL    HW239297   2.230   4.228   5.031  1.6019  1.6188  0.0663
 9279SOL     OW39298   3.555   1.861   6.566  0.4874 -0.7920 -0.6279
 9279SOL    HW139299   3.546   1.950   6.533  0.7512 -0.5191  0.0336
 9279SOL    HW239300   3.468   1.854   6.604  1.9605 -1.1939  2.6479
 9280SOL     OW39301   0.819   1.051   3.770  0.5915 -0.1243  0.3621
 9280SOL    HW139302   0.724   1.056   3.783  0.4927 -0.6473 -0.1705
 9280SOL    HW239303   0.848   1.133   3.810 -2.8043  1.0455  0.4339
 9281SOL     OW39304   0.900   3.191   7.756  0.0718  0.0286  0.2473
 9281SOL    HW139305   0.970   3.157   7.812  1.5390  2.8634  0.1466
 9281SOL    HW239306   0.924   3.283   7.768 -2.7735  0.8992 -0.9516
 9282SOL     OW39307   0.298   1.767  13.201 -0.6525 -0.6892 -0.2694
 9282SOL    HW139308   0.228   1.703  13.216 -1.1294 -0.9399 -3.4785
 9282SOL    HW239309   0.360   1.710  13.153 -0.6100 -0.1107 -0.9003
 9283SOL     OW39310   3.947   3.467   2.870 -0.7405 -0.1563 -0.0072
 9283SOL    HW139311   3.914   3.553   2.845 -0.5418  0.7630  2.8958
 9283SOL    HW239312   3.978   3.486   2.958  0.4420  1.7339 -0.8434
 9284SOL     OW39313   3.963   2.299   2.605 -0.0752  0.0520  0.1622
 9284SOL    HW139314   4.001   2.363   2.544  0.0758 -0.9042 -0.7334
 9284SOL    HW239315   3.922   2.241   2.541 -0.2306  0.9803 -0.5783
 9285SOL     OW39316   3.764   2.710  10.260  0.0066  0.5538 -0.1766
 9285SOL    HW139317   3.679   2.686  10.296  0.1477  1.0914  0.5265
 9285SOL    HW239318   3.803   2.625  10.241 -0.6679  0.2820 -0.3335
 9286SOL     OW39319   4.535   3.626   7.309 -0.0571 -0.3968 -0.0765
 9286SOL    HW139320   4.563   3.704   7.262  2.6336 -1.5987 -0.4760
 9286SOL    HW239321   4.448   3.657   7.334  0.3709  0.6264  0.1128
 9287SOL     OW39322   2.596   2.895  15.783 -0.5906 -0.2715  0.0653
 9287SOL    HW139323   2.547   2.819  15.816  0.5201 -0.5484  1.1067
 9287SOL    HW239324   2.639   2.927  15.863 -1.2667  1.1775 -0.1559
 9288SOL     OW39325   0.662   3.731  12.377  0.1029  0.1014  0.1732
 9288SOL    HW139326   0.731   3.712  12.441 -0.5902 -1.1275  0.5405
 9288SOL    HW239327   0.683   3.823  12.361  0.7074 -0.1317 -0.3824
 9289SOL     OW39328   0.051   1.786   1.146 -0.1317 -0.0050  0.2213
 9289SOL    HW139329   0.069   1.707   1.095  0.5029  0.1046  0.2707
 9289SOL    HW239330   4.681   1.805   1.131  0.1356  0.7742 -0.4769
 9290SOL     OW39331   0.915   2.120   2.989  0.0556  0.7133  0.1122
 9290SOL    HW139332   0.857   2.196   2.984  0.2172  0.9126  1.1799
 9290SOL    HW239333   0.888   2.076   3.070  1.3225 -0.6250 -0.2132
 9291SOL     OW39334   4.452   2.233   5.923 -0.1195  0.4726  0.0409
 9291SOL    HW139335   4.380   2.291   5.945 -0.4611  0.4785 -1.0953
 9291SOL    HW239336   4.470   2.202   6.012 -1.2577  0.9915  0.4503
 9292SOL     OW39337   4.518   1.837   1.086 -0.2219  0.4091  0.1359
 9292SOL    HW139338   4.468   1.879   1.017 -0.4451  1.5114  0.9655
 9292SOL    HW239339   4.477   1.751   1.082 -1.1171  0.8123  0.6595
 9293SOL     OW39340   1.370   1.565   3.627 -0.0681 -0.3659  0.4322
 9293SOL    HW139341   1.420   1.526   3.698  0.3244  0.4520  0.6089
 9293SOL    HW239342   1.433   1.563   3.555 -1.3255  0.1265 -0.6795
 9294SOL     OW39343   1.238   3.616   3.491 -0.3255  0.2938  0.0352
 9294SOL    HW139344   1.149   3.622   3.456  0.6753 -1.0402 -2.7276
 9294SOL    HW239345   1.229   3.664   3.573  2.1430  2.2466 -0.8536
 9295SOL     OW39346   0.077   4.488   3.294 -0.1486  0.0664 -0.5653
 9295SOL    HW139347   0.073   4.559   3.358 -0.2058 -0.1182 -0.3601
 9295SOL    HW239348   4.710   4.503   3.260  0.5061  0.5964 -2.0281
 9296SOL     OW39349   0.762   0.022   2.623  0.3350  0.4862 -0.7748
 9296SOL    HW139350   0.706   0.063   2.689  0.8528 -0.8406  0.4888
 9296SOL    HW239351   0.774   4.657   2.661 -0.4546 -0.3704 -2.5332
 9297SOL     OW39352   3.984   0.922   8.976  0.3139 -0.6281  0.1927
 9297SOL    HW139353   3.994   0.843   9.029  0.9478  0.0224  1.0395
 9297SOL    HW239354   3.896   0.942   9.006 -0.1119 -1.2522 -0.6229
 9298SOL     OW39355   4.184   1.107   6.379 -0.0581 -0.7967 -0.3226
 9298SOL    HW139356   4.192   1.196   6.412 -0.6802 -0.6114 -0.6608
 9298SOL    HW239357   4.269   1.097   6.337  0.0141 -0.4036 -0.2705
 9299SOL     OW39358   4.179   2.169   0.248 -0.0348  0.2452 -0.4519
 9299SOL    HW139359   4.111   2.101   0.245  0.3648 -0.1365 -0.9784
 9299SOL    HW239360   4.177   2.198   0.157 -0.3177  0.6713 -0.3081
 9300SOL     OW39361   1.371   1.628   0.435  0.4957  0.7437 -0.4230
 9300SOL    HW139362   1.386   1.533   0.429 -1.4517  0.4895 -1.1453
 9300SOL    HW239363   1.395   1.644   0.344  2.1896 -1.3935 -0.3735
 9301SOL     OW39364   4.204   4.108  17.259  0.8886 -0.5414 -0.3148
 9301SOL    HW139365   4.163   4.061  17.331 -0.5169  0.7514 -0.2757
 9301SOL    HW239366   4.162   4.067  17.183 -0.9527 -0.8915  0.9142
 9302SOL     OW39367   3.554   2.469   5.710 -0.0071  0.3513  0.2189
 9302SOL    HW139368   3.593   2.517   5.638 -0.1240 -0.2307 -0.2354
 9302SOL    HW239369   3.493   2.534   5.744 -0.3268 -0.1576  0.6185
 9303SOL     OW39370   3.378   0.203   4.369  0.5173  0.2884 -0.2815
 9303SOL    HW139371   3.464   0.191   4.409  0.2920  0.6705  0.3059
 9303SOL    HW239372   3.375   0.293   4.400  1.1112  0.2443 -0.0962
 9304SOL     OW39373   4.028   3.481   3.147  0.0400  0.4345  0.0451
 9304SOL    HW139374   4.043   3.426   3.224 -3.1188 -2.2506 -1.2739
 9304SOL    HW239375   4.122   3.495   3.134  0.3751 -1.0075  0.9558
 9305SOL     OW39376   0.594   4.117   7.571 -0.6840  0.4630  0.2006
 9305SOL    HW139377   0.680   4.077   7.582 -0.4721  1.0310  0.5741
 9305SOL    HW239378   0.579   4.171   7.648 -1.1971  1.2099 -0.4148
 9306SOL     OW39379   3.146   3.917   2.947  0.2713 -0.1181  0.3651
 9306SOL    HW139380   3.118   3.989   3.003 -1.0203  0.1031 -0.5820
 9306SOL    HW239381   3.240   3.936   2.951 -0.4534  3.3827  0.9833
 9307SOL     OW39382   4.290   0.337   9.518  0.2907 -0.3514 -0.0984
 9307SOL    HW139383   4.372   0.374   9.552 -1.5314  2.6821  0.9315
 9307SOL    HW239384   4.233   0.402   9.559  0.4019  0.1415 -0.7196
 9308SOL     OW39385   1.980   4.353   2.428 -0.1117  0.2106 -0.2450
 9308SOL    HW139386   2.042   4.364   2.500 -2.6848 -0.0456  2.0098
 9308SOL    HW239387   1.899   4.368   2.477  0.5090  0.4899  0.6949
 9309SOL     OW39388   0.112   2.788  15.946  0.8608 -0.2401  0.3912
 9309SOL    HW139389   0.092   2.856  16.010  0.2513 -0.3287  0.2942
 9309SOL    HW239390   0.034   2.774  15.894  0.4947 -3.0239  1.6722
 9310SOL     OW39391   0.853   3.164   2.542 -0.0334  0.2410 -0.3300
 9310SOL    HW139392   0.796   3.115   2.600  0.5490 -0.8768 -0.7151
 9310SOL    HW239393   0.818   3.253   2.551 -0.4071  0.1814 -1.1741
 9311SOL     OW39394   1.556   1.198   3.530  0.1900  0.6556 -0.0401
 9311SOL    HW139395   1.584   1.290   3.532  3.0241 -0.2036 -0.7080
 9311SOL    HW239396   1.636   1.157   3.498  0.1564 -0.8404  1.8789
 9312SOL     OW39397   3.619   2.840   8.862 -0.2083 -0.2603 -1.0085
 9312SOL    HW139398   3.598   2.903   8.793 -1.7512 -1.9484 -2.1093
 9312SOL    HW239399   3.543   2.782   8.847 -1.1597  0.8616 -0.5129
 9313SOL     OW39400   0.834   1.002   1.342  0.2594 -0.8484  0.8111
 9313SOL    HW139401   0.894   0.981   1.413  0.7463 -0.5468  0.4915
 9313SOL    HW239402   0.811   0.922   1.294 -1.6925 -0.5920  1.2888
 9314SOL     OW39403   2.340   0.356  13.567 -0.2077  0.4700  0.7886
 9314SOL    HW139404   2.277   0.325  13.502 -1.3945 -1.1833  2.7637
 9314SOL    HW239405   2.374   0.276  13.607  0.6699  0.3594 -0.1668
 9315SOL     OW39406   0.533   1.196  11.808  0.3079 -0.2771 -0.3683
 9315SOL    HW139407   0.444   1.163  11.820 -0.0159 -0.1969 -2.5701
 9315SOL    HW239408   0.544   1.224  11.717 -3.1837 -1.7544 -1.2447
 9316SOL     OW39409   2.388   3.454  15.733 -0.3442 -0.0059 -0.6454
 9316SOL    HW139410   2.401   3.539  15.693 -0.6016  0.8930  1.1737
 9316SOL    HW239411   2.477   3.420  15.740 -0.4162  0.2796  1.8856
 9317SOL     OW39412   3.982   0.792   5.228 -0.5026  0.0428 -0.0889
 9317SOL    HW139413   3.951   0.727   5.291  0.6090  0.0609  0.4888
 9317SOL    HW239414   3.968   0.738   5.151 -0.4263 -1.6613  1.0858
 9318SOL     OW39415   4.279   4.679  14.383  0.2487  0.3632 -0.6090
 9318SOL    HW139416   4.260   0.050  14.371 -0.2482  0.2305 -0.8464
 9318SOL    HW239417   4.216   4.634  14.327  0.4053 -1.6448  0.8085
 9319SOL     OW39418   1.537   4.029   5.025  0.2741  0.0762  0.5334
 9319SOL    HW139419   1.525   4.123   5.011  0.0539 -0.1525 -0.8160
 9319SOL    HW239420   1.490   4.017   5.108 -2.0805  0.3696 -0.7358
 9320SOL     OW39421   4.033   3.285   3.338 -0.4584 -0.6177  0.0052
 9320SOL    HW139422   3.995   3.200   3.361 -2.8344  0.5736  0.5870
 9320SOL    HW239423   4.075   3.304   3.422 -2.3433  0.2067  0.7780
 9321SOL     OW39424   2.827   0.002  11.049  0.1610 -0.1401  0.2559
 9321SOL    HW139425   2.792   4.717  11.138 -0.3210 -0.2801  0.0544
 9321SOL    HW239426   2.743   0.002  11.003  0.0458 -1.7648  0.4743
 9322SOL     OW39427   4.233   3.511   4.993  0.0655  0.1111 -0.6220
 9322SOL    HW139428   4.314   3.509   5.044  0.1884  2.8445 -0.6729
 9322SOL    HW239429   4.163   3.503   5.059 -1.6855  0.7735 -2.4004
 9323SOL     OW39430   1.445   4.299   5.632  0.3379  0.1894  0.1761
 9323SOL    HW139431   1.361   4.337   5.658 -0.7164 -3.8124  2.5874
 9323SOL    HW239432   1.474   4.259   5.714 -2.4134 -0.7785  0.6786
 9324SOL     OW39433   3.997   3.442   9.640  0.1298 -0.6154 -0.2626
 9324SOL    HW139434   4.093   3.439   9.636  0.0992 -0.4055 -1.0331
 9324SOL    HW239435   3.972   3.370   9.698  0.2881 -0.4138  0.0556
 9325SOL     OW39436   0.156   0.705   3.160 -0.2942 -0.2630 -0.3393
 9325SOL    HW139437   0.131   0.627   3.111  2.0383 -1.2389  0.0295
 9325SOL    HW239438   0.203   0.755   3.093  0.9669 -2.6210 -1.2007
 9326SOL     OW39439   4.704   0.808  13.162 -0.1425 -0.3557  0.0537
 9326SOL    HW139440   4.681   0.789  13.253 -1.1890  0.9251  0.0469
 9326SOL    HW239441   4.622   0.829  13.119 -0.1907 -0.8547 -0.0939
 9327SOL     OW39442   1.824   1.379   7.011  0.4997 -0.0619  0.4066
 9327SOL    HW139443   1.762   1.439   7.052  0.7741 -0.3908  1.3045
 9327SOL    HW239444   1.883   1.368   7.086 -0.8026 -2.8383  0.9986
 9328SOL     OW39445   4.411   1.091   5.390  0.3273 -0.4380 -0.5478
 9328SOL    HW139446   4.497   1.080   5.347  1.6258  2.4131  1.3561
 9328SOL    HW239447   4.355   1.034   5.338  0.3970 -1.6994  0.7810
 9329SOL     OW39448   4.399   3.154   3.978  0.0310 -0.5149 -0.2796
 9329SOL    HW139449   4.390   3.062   4.001  1.1896 -0.5707 -0.0788
 9329SOL    HW239450   4.402   3.195   4.065 -1.2167  0.5028 -0.7151
 9330SOL     OW39451   2.933   0.995   4.643  0.0114 -0.4864 -0.6456
 9330SOL    HW139452   2.964   1.005   4.552 -0.6483  2.5570 -0.5259
 9330SOL    HW239453   2.990   0.926   4.677 -0.2851 -0.4461 -0.0789
 9331SOL     OW39454   0.618   1.458   6.956 -1.1151  0.0342  0.5578
 9331SOL    HW139455   0.538   1.466   7.009  0.4373 -1.9101  3.2066
 9331SOL    HW239456   0.599   1.536   6.905  3.1514  0.5940 -0.1629
 9332SOL     OW39457   1.914   3.927  13.518  0.3857 -0.1766  0.5260
 9332SOL    HW139458   1.941   3.837  13.499  3.8291  0.7621  0.9520
 9332SOL    HW239459   1.956   3.945  13.602 -1.6421 -1.4432  1.8126
 9333SOL     OW39460   2.586   4.072  12.412 -0.6084 -0.4737  0.4181
 9333SOL    HW139461   2.575   4.144  12.350  1.0323  0.3370  1.0829
 9333SOL    HW239462   2.495   4.059  12.438 -0.1805  0.8348  2.6018
 9334SOL     OW39463   0.331   4.665   7.389  0.1058 -0.3132  0.3497
 9334SOL    HW139464   0.418   4.701   7.407 -0.2041  0.8104 -0.4508
 9334SOL    HW239465   0.333   4.599   7.458 -1.1952  0.1755  0.8538
 9335SOL     OW39466   3.411   3.925  14.791  0.4144 -0.5180  0.0327
 9335SOL    HW139467   3.504   3.917  14.767  0.8767  0.0252  1.6633
 9335SOL    HW239468   3.390   3.987  14.721 -0.8364 -1.6264 -0.5587
 9336SOL     OW39469   3.802   4.538   8.723  0.1199 -0.5797  0.8234
 9336SOL    HW139470   3.832   4.624   8.750  0.9974 -0.7543  0.3897
 9336SOL    HW239471   3.747   4.520   8.799  1.3696  1.4093  2.1744
 9337SOL     OW39472   3.650   2.817   5.725 -0.3540  0.7995 -0.2523
 9337SOL    HW139473   3.563   2.810   5.687 -0.3966  0.1548 -0.0316
 9337SOL    HW239474   3.638   2.767   5.806  2.7479  0.8346  0.2547
 9338SOL     OW39475   2.092   2.482  10.205 -0.3813 -0.0691  0.4487
 9338SOL    HW139476   2.002   2.468  10.234 -0.5052 -2.1611 -0.9510
 9338SOL    HW239477   2.100   2.576  10.216 -0.2059  0.2024 -1.9766
 9339SOL     OW39478   3.350   3.510   9.623  0.2460 -0.4121  0.0405
 9339SOL    HW139479   3.270   3.489   9.670  1.0930 -1.0230  1.1821
 9339SOL    HW239480   3.337   3.598   9.586 -0.9752 -0.6802 -0.1938
 9340SOL     OW39481   2.924   0.701   2.124  0.6533  0.5414  0.3004
 9340SOL    HW139482   2.890   0.774   2.072  0.0818 -0.9143 -1.3886
 9340SOL    HW239483   2.982   0.748   2.184 -0.2352  0.3268  1.3417
 9341SOL     OW39484   3.067   2.186   2.366  0.1095 -0.0723 -0.2496
 9341SOL    HW139485   3.003   2.217   2.429  0.6002  0.6215 -0.0856
 9341SOL    HW239486   3.152   2.200   2.408  0.2377 -1.5161 -0.0321
 9342SOL     OW39487   0.997   1.095  13.510  0.0363  0.3957  0.0767
 9342SOL    HW139488   1.039   1.126  13.590 -0.5143 -2.1570  1.3754
 9342SOL    HW239489   1.027   1.004  13.505  0.0789  0.2678  2.6964
 9343SOL     OW39490   0.437   0.862   3.185 -0.2805 -0.8134  0.3824
 9343SOL    HW139491   0.459   0.953   3.205 -1.1276  0.0304 -2.5205
 9343SOL    HW239492   0.516   0.824   3.146 -0.8707 -0.7304 -0.9025
 9344SOL     OW39493   3.147   0.749   8.488 -0.0360  0.6384  0.1831
 9344SOL    HW139494   3.104   0.670   8.519 -4.0025  2.5367 -0.4108
 9344SOL    HW239495   3.147   0.725   8.395  1.6129  0.7519  0.1452
 9345SOL     OW39496   1.590   3.966   3.803 -0.2626 -0.1464 -0.1699
 9345SOL    HW139497   1.613   4.019   3.726 -1.3643  1.1973  0.4236
 9345SOL    HW239498   1.533   4.029   3.847  0.5977 -1.1443  2.3685
 9346SOL     OW39499   1.621   0.559   8.914 -0.0948  0.0978  0.1476
 9346SOL    HW139500   1.617   0.480   8.968  1.3189 -1.2399 -1.7234
 9346SOL    HW239501   1.713   0.556   8.889  0.2920 -0.5914  1.6708
 9347SOL     OW39502   3.142   1.330   4.889  0.3064  0.0790 -0.1673
 9347SOL    HW139503   3.208   1.327   4.820 -2.0200  1.8453 -2.4448
 9347SOL    HW239504   3.086   1.397   4.850 -0.6093  0.3924  1.7001
 9348SOL     OW39505   1.526   4.375   4.657 -0.0291 -0.2493  0.3701
 9348SOL    HW139506   1.621   4.365   4.656 -0.0310 -0.3764  1.2268
 9348SOL    HW239507   1.487   4.319   4.590 -3.2262  2.1609  0.2414
 9349SOL     OW39508   2.696   1.298   5.217 -0.0314  0.0418  0.0416
 9349SOL    HW139509   2.688   1.222   5.275  0.8462  1.8143  2.4796
 9349SOL    HW239510   2.714   1.361   5.287 -0.7954 -1.6999  1.8127
 9350SOL     OW39511   4.412   3.312   7.088 -0.3084  0.1039 -0.0224
 9350SOL    HW139512   4.418   3.366   7.009  0.5358  0.1381  0.0641
 9350SOL    HW239513   4.317   3.311   7.089 -0.3027 -1.8357 -0.6899
 9351SOL     OW39514   4.290   0.190   3.462  0.4774 -0.4017 -0.0758
 9351SOL    HW139515   4.290   0.259   3.528 -1.6418 -0.8227  0.3661
 9351SOL    HW239516   4.200   0.158   3.454  0.1399  0.1897  1.5816
 9352SOL     OW39517   2.719   1.909  15.426 -0.5171  0.3028  0.6223
 9352SOL    HW139518   2.756   1.951  15.503  1.1158  0.7381 -0.3908
 9352SOL    HW239519   2.728   1.982  15.365  0.7554 -1.0442 -0.8227
 9353SOL     OW39520   4.023   2.900   8.638 -0.3164  0.2191 -0.1728
 9353SOL    HW139521   4.014   2.953   8.717  0.5863 -1.3205  0.9705
 9353SOL    HW239522   4.109   2.860   8.650 -0.7452 -0.9738 -1.0942
 9354SOL     OW39523   0.945   1.123   2.409  0.1083  0.9209  0.1252
 9354SOL    HW139524   1.017   1.183   2.428  0.3211  1.6379 -2.8919
 9354SOL    HW239525   0.870   1.161   2.455 -1.0604 -2.6388  1.1614
 9355SOL     OW39526   3.906   4.327  11.548 -0.2662  0.1514  0.5734
 9355SOL    HW139527   3.814   4.300  11.545 -0.7982  2.0109  0.0037
 9355SOL    HW239528   3.911   4.344  11.642  0.3711  1.8039  0.2333
 9356SOL     OW39529   2.766   0.594   8.663 -0.1574  0.3384 -0.7649
 9356SOL    HW139530   2.695   0.537   8.635  0.7356 -1.1275 -0.0175
 9356SOL    HW239531   2.789   0.565   8.751  0.3757  2.2414 -0.2745
 9357SOL     OW39532   2.773   3.256   5.748 -0.3294 -0.0009 -0.7900
 9357SOL    HW139533   2.745   3.271   5.657 -1.3790 -0.1951 -0.5044
 9357SOL    HW239534   2.808   3.169   5.731  0.6180 -0.0177  1.3275
 9358SOL     OW39535   0.187   1.345   8.672  0.5436  0.2495  1.1892
 9358SOL    HW139536   0.124   1.293   8.622  0.9057 -0.4779  1.4910
 9358SOL    HW239537   0.262   1.345   8.611  0.9585 -0.1472  1.7039
 9359SOL     OW39538   2.801   2.868   2.948  0.6424  0.4936 -0.2507
 9359SOL    HW139539   2.886   2.914   2.951  1.1220 -0.4019 -0.0894
 9359SOL    HW239540   2.752   2.928   2.892  1.1352  0.4802 -0.7056
 9360SOL     OW39541   3.755   1.254   1.832 -0.0872 -0.1696  0.0887
 9360SOL    HW139542   3.819   1.324   1.825 -0.3848  0.3378  2.3791
 9360SOL    HW239543   3.674   1.302   1.850  1.3317  0.9613  3.6138
 9361SOL     OW39544   3.475   1.197   4.594  0.2456  0.0935  0.4877
 9361SOL    HW139545   3.501   1.113   4.556  0.1842  1.8532 -3.4599
 9361SOL    HW239546   3.413   1.216   4.524  0.7207 -0.1502  0.0002
 9362SOL     OW39547   3.805   3.415  10.337 -0.3450  0.4636 -0.2167
 9362SOL    HW139548   3.802   3.331  10.384  0.4845  0.2713 -0.5070
 9362SOL    HW239549   3.850   3.385  10.259  0.7135 -0.5325  0.7669
 9363SOL     OW39550   2.785   0.701   0.589  0.5790  0.1795  0.6581
 9363SOL    HW139551   2.713   0.672   0.534  0.9914 -0.5442  0.4992
 9363SOL    HW239552   2.846   0.731   0.521 -0.0210 -0.1816 -0.0302
 9364SOL     OW39553   0.207   2.408  12.166  0.2286  0.1590  0.1795
 9364SOL    HW139554   0.170   2.458  12.094 -0.1284 -0.8446 -0.3340
 9364SOL    HW239555   0.142   2.423  12.234  2.3142  0.4001  2.1153
 9365SOL     OW39556   0.870   1.320   8.096  0.1656 -0.2977  0.0802
 9365SOL    HW139557   0.897   1.395   8.148 -1.0583  1.2629 -1.5503
 9365SOL    HW239558   0.775   1.326   8.110 -0.0556 -1.5625 -0.8315
 9366SOL     OW39559   2.652   4.697   0.447  0.0122  0.1578 -0.7204
 9366SOL    HW139560   2.747   4.689   0.459 -0.3536 -2.9019  0.1287
 9366SOL    HW239561   2.627   4.614   0.489  1.2207  0.3822  0.4328
 9367SOL     OW39562   3.375   4.368  10.947  0.0521 -0.4247  0.6721
 9367SOL    HW139563   3.316   4.342  11.018 -2.2206  0.5927 -0.8243
 9367SOL    HW239564   3.319   4.378  10.870  0.3950  1.4270  0.6729
 9368SOL     OW39565   0.338   4.292  15.579  0.2308  0.4120 -0.4075
 9368SOL    HW139566   0.268   4.249  15.627  1.0612 -0.6446 -0.1570
 9368SOL    HW239567   0.315   4.382  15.601  0.4804  0.4292 -0.2182
 9369SOL     OW39568   4.413   0.086   6.126  0.3389  0.6451 -0.1106
 9369SOL    HW139569   4.325   0.100   6.160  0.6072  2.3773 -0.1167
 9369SOL    HW239570   4.421   0.145   6.052  0.6916 -1.6189 -1.8930
 9370SOL     OW39571   3.350   2.510   9.382 -0.3813 -0.4286  1.0011
 9370SOL    HW139572   3.429   2.471   9.420 -0.8902 -1.5657  0.9111
 9370SOL    HW239573   3.335   2.593   9.427 -0.3211  0.4503 -0.6277
 9371SOL     OW39574   0.329   1.949   3.082 -0.3609 -0.8100  0.1165
 9371SOL    HW139575   0.399   2.014   3.090 -0.6280 -0.7143  1.6462
 9371SOL    HW239576   0.260   1.987   3.136  0.7911  0.2120  0.8585
 9372SOL     OW39577   1.593   1.839   5.219  0.3447  0.6272  0.3069
 9372SOL    HW139578   1.554   1.880   5.141  0.5702 -0.5613 -0.4169
 9372SOL    HW239579   1.514   1.791   5.244 -0.6914  1.1342 -1.9934
 9373SOL     OW39580   1.191   0.085  15.730  0.5017 -0.3989 -0.1125
 9373SOL    HW139581   1.199   0.054  15.639 -0.9167  2.4857 -1.2252
 9373SOL    HW239582   1.267   0.041  15.768 -0.3086  0.2995  2.2777
 9374SOL     OW39583   2.549   4.370   2.756  0.4351 -0.2892  0.6907
 9374SOL    HW139584   2.600   4.322   2.691 -1.4167 -0.6371 -0.4979
 9374SOL    HW239585   2.475   4.311   2.764 -1.4209  1.7970 -1.1901
 9375SOL     OW39586   2.274   4.237   5.300 -0.4705  0.4728 -0.7351
 9375SOL    HW139587   2.252   4.180   5.373 -0.7513 -1.7161 -2.4965
 9375SOL    HW239588   2.306   4.174   5.235 -1.0407  0.2114 -0.7598
 9376SOL     OW39589   1.893   3.709  14.702 -0.1937  0.1394 -0.0467
 9376SOL    HW139590   1.835   3.702  14.778  1.2606 -0.1808  1.0342
 9376SOL    HW239591   1.966   3.763  14.733 -1.6506  1.8441  0.3865
 9377SOL     OW39592   4.200   2.711   1.032 -0.1984 -0.5007  0.7170
 9377SOL    HW139593   4.152   2.680   0.955 -0.8008  0.5649  0.6654
 9377SOL    HW239594   4.276   2.653   1.028  0.3984  0.5258 -2.4378
 9378SOL     OW39595   4.053   1.736   5.603  0.0446 -0.1655  0.0630
 9378SOL    HW139596   4.022   1.794   5.533 -0.9202  1.5721  1.9260
 9378SOL    HW239597   4.048   1.655   5.553 -2.3880  0.5558 -0.9150
 9379SOL     OW39598   3.140   2.886   3.393 -0.3353 -0.0220  0.4785
 9379SOL    HW139599   3.095   2.884   3.308 -0.9815  0.8871  0.7935
 9379SOL    HW239600   3.226   2.850   3.374  0.8899  2.5489  1.1670
 9380SOL     OW39601   2.027   0.520   5.680 -0.3526 -0.6146 -0.6635
 9380SOL    HW139602   2.034   0.601   5.630  1.0514  1.7188  3.3696
 9380SOL    HW239603   2.022   0.452   5.613 -0.5705 -1.3742  0.1193
 9381SOL     OW39604   3.722   4.555   3.376 -0.1325  0.2683 -0.0510
 9381SOL    HW139605   3.783   4.546   3.303  0.2024 -0.4004  0.3165
 9381SOL    HW239606   3.762   4.502   3.445  0.1777  0.4846 -0.0668
 9382SOL     OW39607   0.155   3.669   3.303 -0.3911  0.0761  0.0274
 9382SOL    HW139608   0.238   3.673   3.351 -1.7837  2.0649  2.2899
 9382SOL    HW239609   0.194   3.670   3.216  0.4422 -2.3097  0.3642
 9383SOL     OW39610   3.012   2.070   5.137 -0.6136 -0.3521 -0.0058
 9383SOL    HW139611   3.012   1.976   5.119 -1.0224 -0.2214 -0.6830
 9383SOL    HW239612   3.105   2.075   5.114 -0.7134  3.9149  0.4298
 9384SOL     OW39613   0.283   1.373   7.460 -0.6812 -0.3879  0.5876
 9384SOL    HW139614   0.363   1.322   7.458 -0.5144 -0.1015 -0.0244
 9384SOL    HW239615   0.321   1.458   7.437 -0.1165 -0.4687  1.2253
 9385SOL     OW39616   1.993   4.660   3.300  0.6595  0.7041  0.2164
 9385SOL    HW139617   2.026   4.639   3.213 -0.5514 -0.2685 -0.0192
 9385SOL    HW239618   2.057   0.004   3.328  1.8692 -0.3398 -0.0948
 9386SOL     OW39619   0.501   0.108   4.906 -0.0720 -0.0896  0.4163
 9386SOL    HW139620   0.493   0.054   4.827  0.7419 -1.5087  1.3164
 9386SOL    HW239621   0.439   0.065   4.964  2.5610 -2.8823  1.1237
 9387SOL     OW39622   1.292   4.229  12.769 -0.1851  0.5560 -0.0902
 9387SOL    HW139623   1.302   4.301  12.707 -2.0638 -1.3371 -2.5958
 9387SOL    HW239624   1.293   4.277  12.852  1.1645  1.1370 -0.4453
 9388SOL     OW39625   0.701   2.072   4.022  0.1436  0.3199 -0.7643
 9388SOL    HW139626   0.739   2.075   4.110  0.4709 -0.6986 -0.8712
 9388SOL    HW239627   0.643   2.148   4.020  1.5137  1.3602 -0.6585
 9389SOL     OW39628   0.355   2.197  12.268  0.7135  0.1697 -0.4839
 9389SOL    HW139629   0.305   2.269  12.230 -1.8477 -1.4213 -0.1686
 9389SOL    HW239630   0.305   2.131  12.220  2.3339 -1.2546 -0.2107
 9390SOL     OW39631   2.647   0.241  13.692  0.0595 -0.0705 -0.5767
 9390SOL    HW139632   2.602   0.156  13.698 -0.5062  0.2387 -0.3884
 9390SOL    HW239633   2.727   0.220  13.740 -0.2199  0.9827  0.3447
 9391SOL     OW39634   4.568   2.253   0.352  0.1545 -0.2801 -0.7875
 9391SOL    HW139635   4.574   2.219   0.263 -2.5605 -1.0102 -0.6902
 9391SOL    HW239636   4.531   2.179   0.400  1.3282  0.0205  0.5915
 9392SOL     OW39637   3.409   1.244   6.931  0.6943  0.2795 -0.8916
 9392SOL    HW139638   3.492   1.275   6.894  0.9476 -0.2262 -0.7575
 9392SOL    HW239639   3.364   1.199   6.860 -1.9363 -1.0241  1.6222
 9393SOL     OW39640   0.995   1.548   8.219  0.7583  0.5268  0.3165
 9393SOL    HW139641   0.997   1.644   8.222 -0.2463  0.6054 -1.3933
 9393SOL    HW239642   1.048   1.534   8.297  1.2952  0.0159 -0.1499
 9394SOL     OW39643   4.287   1.422  16.435 -0.2766  0.0682  0.0086
 9394SOL    HW139644   4.206   1.386  16.398 -0.5429  1.7555 -1.0377
 9394SOL    HW239645   4.249   1.496  16.481  1.0168  0.2523  0.7686
 9395SOL     OW39646   2.202   1.769   9.114 -0.3867 -0.9318  0.3993
 9395SOL    HW139647   2.116   1.727   9.107  0.5332 -2.9695  1.3473
 9395SOL    HW239648   2.260   1.701   9.079  0.5105  1.1530 -2.1123
 9396SOL     OW39649   2.690   3.440   7.641 -0.2208  0.3577 -0.1798
 9396SOL    HW139650   2.705   3.503   7.711  0.4280 -0.5804  0.5231
 9396SOL    HW239651   2.727   3.358   7.672 -0.6277 -0.5092 -1.9815
 9397SOL     OW39652   1.560   0.672   4.527 -0.6019  0.1925  0.1177
 9397SOL    HW139653   1.550   0.629   4.443 -0.0193 -0.4163  0.3609
 9397SOL    HW239654   1.492   0.642   4.587  0.3820  0.0639  1.1616
 9398SOL     OW39655   0.086   1.548   1.713 -0.3057 -0.2143 -0.2076
 9398SOL    HW139656   0.016   1.573   1.653  0.1307  0.9110 -0.2537
 9398SOL    HW239657   0.101   1.630   1.761  0.0513 -0.0916 -0.5268
 9399SOL     OW39658   4.690   0.981   1.962  0.1999  0.1499  0.2635
 9399SOL    HW139659   4.615   0.946   2.010 -0.3814 -0.8674 -1.3676
 9399SOL    HW239660   0.035   0.914   1.974 -1.6855 -1.8081 -0.0244
 9400SOL     OW39661   3.236   2.078   9.540  0.4450  0.0040  0.2563
 9400SOL    HW139662   3.222   2.171   9.557  1.2205  0.1362  0.1801
 9400SOL    HW239663   3.191   2.036   9.613  4.0464 -4.5335 -0.0928
 9401SOL     OW39664   2.843   3.564   6.035  0.1266 -0.1538  0.0541
 9401SOL    HW139665   2.801   3.552   5.950 -0.1271  1.4035 -0.0408
 9401SOL    HW239666   2.791   3.513   6.097 -0.5507 -1.4989 -1.6180
 9402SOL     OW39667   0.206   2.512   1.970 -0.7058 -0.0471 -0.1946
 9402SOL    HW139668   0.192   2.421   1.946  2.7373 -0.6571  0.0918
 9402SOL    HW239669   0.119   2.541   1.996  0.3085  3.8942 -1.1957
 9403SOL     OW39670   2.375   3.862  12.266 -0.3924 -0.5055  0.3445
 9403SOL    HW139671   2.341   3.840  12.179  1.4151  1.9286 -1.0019
 9403SOL    HW239672   2.435   3.788  12.278 -0.2122  0.0055  2.4960
 9404SOL     OW39673   4.466   1.812   7.258 -0.3150  0.6751  0.1178
 9404SOL    HW139674   4.445   1.862   7.337 -4.2570  0.2672 -0.6969
 9404SOL    HW239675   4.382   1.796   7.215  0.6509  1.7220 -2.1542
 9405SOL     OW39676   0.523   3.009  14.495  0.0836 -0.1202 -0.0786
 9405SOL    HW139677   0.552   2.966  14.415  1.0001  1.5176 -0.6148
 9405SOL    HW239678   0.592   3.075  14.497 -0.4873  0.5027 -1.0153
 9406SOL     OW39679   1.433   0.497   4.866  0.3442 -0.6817  0.0869
 9406SOL    HW139680   1.425   0.412   4.823  1.8391 -0.3058 -0.9559
 9406SOL    HW239681   1.389   0.551   4.800  1.7814  2.4446  1.6722
 9407SOL     OW39682   0.971   1.719   6.523  0.0043  0.0360 -0.0894
 9407SOL    HW139683   0.927   1.634   6.527 -1.9461  0.9979 -0.9644
 9407SOL    HW239684   1.057   1.687   6.550  1.3485  2.3296 -1.7352
 9408SOL     OW39685   2.346   1.490   1.166 -0.0009 -0.2926  0.2268
 9408SOL    HW139686   2.359   1.534   1.081 -0.3252  0.5408  0.6121
 9408SOL    HW239687   2.253   1.469   1.175  0.6670 -2.3110  2.3987
 9409SOL     OW39688   2.151   2.509   7.653  0.3236 -0.2279 -0.3458
 9409SOL    HW139689   2.163   2.525   7.746 -1.2953  0.5225 -0.2666
 9409SOL    HW239690   2.069   2.556   7.636  1.2052  1.6109  0.5067
 9410SOL     OW39691   3.645   1.487   2.637  0.0496 -0.2343  0.4401
 9410SOL    HW139692   3.690   1.411   2.673  0.8963  0.3204  0.5592
 9410SOL    HW239693   3.721   1.536   2.606 -0.1893 -0.5784 -0.7037
 9411SOL     OW39694   4.535   0.436   9.614 -0.6421 -0.0005  0.1767
 9411SOL    HW139695   4.539   0.498   9.687 -1.6867  0.6089 -0.2831
 9411SOL    HW239696   4.608   0.375   9.625 -0.3724  0.4440  0.8639
 9412SOL     OW39697   3.128   1.971  11.342 -0.4853  0.3741 -0.3981
 9412SOL    HW139698   3.212   1.983  11.386 -0.1171  1.4792 -1.4020
 9412SOL    HW239699   3.070   2.022  11.398  1.1219 -0.8039  2.3440
 9413SOL     OW39700   4.367   2.014   3.373 -0.6774  0.3265 -0.0403
 9413SOL    HW139701   4.462   2.021   3.379 -0.6726  1.2201 -1.0507
 9413SOL    HW239702   4.338   2.044   3.459 -0.6473  0.1817  0.0205
 9414SOL     OW39703   1.169   0.146  10.000  0.0915 -0.3967 -0.4171
 9414SOL    HW139704   1.182   0.095  10.080  1.6011  0.3799 -0.1536
 9414SOL    HW239705   1.134   0.228  10.035  0.7484 -0.1192 -0.3941
 9415SOL     OW39706   1.130   2.924   5.615  0.1467 -0.3057  0.2319
 9415SOL    HW139707   1.197   2.870   5.656 -1.0270 -1.1380  1.0871
 9415SOL    HW239708   1.057   2.861   5.611  0.3678 -0.4681 -1.0935
 9416SOL     OW39709   3.548   4.405  16.773  0.3469 -0.0239  0.0299
 9416SOL    HW139710   3.614   4.475  16.778 -1.1381  1.2192  2.5873
 9416SOL    HW239711   3.478   4.452  16.819 -0.6547 -2.1523  0.6448
 9417SOL     OW39712   2.929   4.242  13.807 -0.0774 -0.1807  0.0959
 9417SOL    HW139713   2.980   4.164  13.787 -0.6996 -0.0794 -1.9357
 9417SOL    HW239714   2.877   4.234  13.887  1.0063 -1.1570  0.6889
 9418SOL     OW39715   3.944   2.397   1.251  0.1732  0.0607  0.5500
 9418SOL    HW139716   3.884   2.346   1.195  0.8656 -0.6447  0.4448
 9418SOL    HW239717   3.928   2.489   1.229  0.8142  0.0471  0.0167
 9419SOL     OW39718   3.542   1.690   5.142  0.3239  0.0609  0.1782
 9419SOL    HW139719   3.474   1.705   5.076 -0.8135 -3.0466  0.6250
 9419SOL    HW239720   3.576   1.779   5.149  2.2728 -0.5228 -2.0092
 9420SOL     OW39721   4.313   3.019  11.291  0.1537 -0.2387 -0.2503
 9420SOL    HW139722   4.286   2.944  11.344 -0.0990  1.6213  2.2583
 9420SOL    HW239723   4.306   2.985  11.202  1.9881 -0.8332 -0.1639
 9421SOL     OW39724   1.490   4.714   8.350 -0.0466 -0.1017 -0.3455
 9421SOL    HW139725   1.464   4.655   8.279 -2.2779  3.0578 -2.1070
 9421SOL    HW239726   1.444   4.669   8.421  0.6530 -1.1465 -0.5567
 9422SOL     OW39727   3.787   2.943   0.774 -0.1188 -0.0309  0.7803
 9422SOL    HW139728   3.809   3.020   0.827  0.8591 -0.4737  1.0201
 9422SOL    HW239729   3.782   2.978   0.685 -0.6596 -0.1778  0.7523
 9423SOL     OW39730   2.551   3.110   8.113  0.4179  0.1385  0.1859
 9423SOL    HW139731   2.554   3.070   8.200 -0.0719 -0.1004  0.0956
 9423SOL    HW239732   2.463   3.147   8.119  0.4250  0.2771 -0.5420
 9424SOL     OW39733   3.764   1.375  17.431  0.0308  0.0444 -0.0447
 9424SOL    HW139734   3.809   1.295  17.456  2.7280  1.2897 -0.8778
 9424SOL    HW239735   3.807   1.441  17.485  0.0637  0.2463 -0.3125
 9425SOL     OW39736   2.402   2.742  15.941 -0.4035 -0.2837 -0.3382
 9425SOL    HW139737   2.402   2.658  15.895 -2.6523 -0.0216 -0.7829
 9425SOL    HW239738   2.322   2.748  15.992  0.8904 -1.8509  1.8734
 9426SOL     OW39739   3.202   1.795  14.365 -0.0592  0.7247 -0.0635
 9426SOL    HW139740   3.291   1.804  14.333  0.0302  0.0104 -0.0137
 9426SOL    HW239741   3.189   1.871  14.423  2.1990 -0.0191  1.3907
 9427SOL     OW39742   2.848   1.424  11.867 -0.9784 -0.4830  0.3762
 9427SOL    HW139743   2.819   1.419  11.958 -2.1715 -1.6319 -0.0680
 9427SOL    HW239744   2.937   1.390  11.876 -0.2629  1.2705 -0.1350
 9428SOL     OW39745   4.378   3.993  13.587 -0.2884  0.6505  0.1694
 9428SOL    HW139746   4.310   4.049  13.622 -0.4798  0.9981 -0.7422
 9428SOL    HW239747   4.346   3.976  13.498 -1.2885 -1.2172  0.8853
 9429SOL     OW39748   4.017   0.744   0.700  0.4918  0.3990 -0.3062
 9429SOL    HW139749   4.073   0.684   0.748  1.5794  0.5241 -1.4325
 9429SOL    HW239750   3.937   0.691   0.694 -0.2047  1.6746 -2.5316
 9430SOL     OW39751   0.573   0.567  15.655  0.2396 -0.5773 -0.0185
 9430SOL    HW139752   0.513   0.570  15.581  1.3968 -2.6193 -1.0401
 9430SOL    HW239753   0.573   0.480  15.695 -0.4966 -1.1231 -1.2142
 9431SOL     OW39754   4.452   1.971   4.275  0.1305 -0.3226 -0.1984
 9431SOL    HW139755   4.403   1.930   4.346 -0.5987  2.4943  0.9276
 9431SOL    HW239756   4.381   2.027   4.242  0.2995 -0.0005 -0.0099
 9432SOL     OW39757   2.924   4.388   7.104 -0.0030  0.1660  0.2983
 9432SOL    HW139758   2.891   4.451   7.169  0.5729  0.4575  0.3079
 9432SOL    HW239759   3.017   4.388   7.127  0.1040 -3.9529 -0.3033
 9433SOL     OW39760   3.339   0.735   7.291 -0.3517  0.1731 -0.4795
 9433SOL    HW139761   3.394   0.679   7.236  0.3317  1.0393 -0.6730
 9433SOL    HW239762   3.276   0.677   7.334  1.9823 -0.2263  2.4117
 9434SOL     OW39763   0.313   3.878  13.630 -0.2053 -0.3636 -0.2742
 9434SOL    HW139764   0.380   3.932  13.589 -1.0805  0.5359 -0.5184
 9434SOL    HW239765   0.281   3.822  13.559  2.5790 -0.7342 -1.2441
 9435SOL     OW39766   3.312   0.515   2.076 -0.2945  0.1479  0.0246
 9435SOL    HW139767   3.235   0.494   2.129  0.4841  0.3220  1.2307
 9435SOL    HW239768   3.329   0.424   2.052  0.0787  0.1603  0.2264
 9436SOL     OW39769   2.512   1.704  17.662 -0.2637  0.4191 -0.0069
 9436SOL    HW139770   2.558   1.621  17.650  1.5274  1.5939 -1.1847
 9436SOL    HW239771   2.485   1.735  17.576 -0.3921 -0.5427 -0.3132
 9437SOL     OW39772   4.029   2.331   0.668  0.2705  0.1357  0.5246
 9437SOL    HW139773   3.947   2.282   0.656  1.1254 -0.9829 -0.6956
 9437SOL    HW239774   4.065   2.275   0.737  0.0514  0.4437  0.8899
 9438SOL     OW39775   3.476   3.229  17.593  0.3333 -0.0176 -0.1347
 9438SOL    HW139776   3.556   3.222  17.645  1.5717  2.2441 -1.7340
 9438SOL    HW239777   3.508   3.291  17.528 -0.9667  4.4373  3.4369
 9439SOL     OW39778   4.186   3.481   7.678 -0.1322 -0.4361  0.0259
 9439SOL    HW139779   4.250   3.534   7.726  0.2817  0.3885 -1.4499
 9439SOL    HW239780   4.120   3.544   7.650 -0.1983 -1.5362 -2.2355
 9440SOL     OW39781   4.469   2.879   2.758 -0.0408  0.4252 -0.1287
 9440SOL    HW139782   4.474   2.974   2.772 -1.1262  0.2219  1.6838
 9440SOL    HW239783   4.376   2.863   2.743  0.2390  0.0335 -1.4248
 9441SOL     OW39784   0.078   1.352   7.835 -0.0278 -0.0580 -0.3380
 9441SOL    HW139785   0.043   1.386   7.753  0.8487 -0.5938 -0.9309
 9441SOL    HW239786   0.154   1.409   7.841  0.5895 -0.5841 -3.0696
 9442SOL     OW39787   0.740   3.213   0.919  0.2849 -0.1871  0.7072
 9442SOL    HW139788   0.649   3.206   0.947  0.0771 -1.6038 -0.2847
 9442SOL    HW239789   0.787   3.227   1.001  0.8454  0.7289  0.2343
 9443SOL     OW39790   1.429   4.167   8.710  0.3895 -0.4439  0.0945
 9443SOL    HW139791   1.424   4.093   8.650  4.0873 -0.8573  0.3149
 9443SOL    HW239792   1.460   4.115   8.784 -0.7769  0.4264  1.1863
 9444SOL     OW39793   0.018   1.091  10.785  0.2925  0.4537 -0.2069
 9444SOL    HW139794   0.112   1.097  10.800  0.1799  1.4408  0.0810
 9444SOL    HW239795   0.004   1.001  10.814  0.3163  0.3954 -0.3755
 9445SOL     OW39796   2.407   0.288   3.511  0.1948 -0.4460  0.3627
 9445SOL    HW139797   2.455   0.361   3.551  3.1388 -2.1139 -0.1237
 9445SOL    HW239798   2.375   0.228   3.579  1.7420 -3.2725 -1.3961
 9446SOL     OW39799   2.899   2.724   3.818  0.1069  0.3808 -0.0938
 9446SOL    HW139800   2.946   2.785   3.875 -1.6986  2.1496 -0.4615
 9446SOL    HW239801   2.958   2.714   3.744 -0.5650 -2.2966 -0.2637
 9447SOL     OW39802   1.892   2.239   3.786  0.1942 -0.2402 -0.0362
 9447SOL    HW139803   1.842   2.239   3.704  1.7726  0.6327 -0.9864
 9447SOL    HW239804   1.913   2.332   3.783 -2.0553  0.4097  3.4370
 9448SOL     OW39805   1.426   0.455   7.594 -0.4414 -0.3222  0.2006
 9448SOL    HW139806   1.508   0.406   7.594 -0.3331 -0.1364 -0.2764
 9448SOL    HW239807   1.366   0.391   7.556  0.1583 -0.0989 -1.1522
 9449SOL     OW39808   0.285   0.048   2.480 -0.4418 -0.1757 -0.7569
 9449SOL    HW139809   0.227   0.084   2.413 -1.4348  1.7776  1.1022
 9449SOL    HW239810   0.367   0.090   2.454 -0.3282 -0.4682 -0.8629
 9450SOL     OW39811   1.289   4.509   2.536 -0.8064  0.7290  0.1861
 9450SOL    HW139812   1.228   4.481   2.605 -0.1962  0.9191  0.8018
 9450SOL    HW239813   1.310   4.596   2.569 -1.0772  1.6369 -2.0532
 9451SOL     OW39814   2.971   3.140   6.632 -0.1302 -0.2112 -0.7720
 9451SOL    HW139815   3.039   3.094   6.681 -1.2182  0.0721  0.9987
 9451SOL    HW239816   3.019   3.176   6.558  0.6731  1.8834  0.7742
 9452SOL     OW39817   3.164   1.378   9.518  0.5740  0.1658  0.8964
 9452SOL    HW139818   3.236   1.395   9.457 -1.9206 -1.0462 -2.3401
 9452SOL    HW239819   3.197   1.423   9.596  1.0736  1.0367  0.1796
 9453SOL     OW39820   2.814   4.333   3.045  0.5165  0.0826 -0.0485
 9453SOL    HW139821   2.757   4.353   3.119 -0.7537 -0.5408 -0.8648
 9453SOL    HW239822   2.802   4.416   2.998  0.8538 -1.2500 -2.5134
 9454SOL     OW39823   4.414   4.181  12.476  0.1018  0.7964  0.0168
 9454SOL    HW139824   4.350   4.112  12.491  0.9514 -0.3685 -1.7264
 9454SOL    HW239825   4.467   4.143  12.407 -0.7252  0.3348 -0.3640
 9455SOL     OW39826   0.296   3.550  17.142 -0.0178 -0.0076 -0.5168
 9455SOL    HW139827   0.366   3.583  17.086  0.5895  0.8712  0.7637
 9455SOL    HW239828   0.307   3.455  17.153  0.7127  0.2112  0.5772
 9456SOL     OW39829   2.657   2.441   3.112  0.4984 -0.4333 -0.3113
 9456SOL    HW139830   2.615   2.377   3.055  1.1329 -1.4983  0.4145
 9456SOL    HW239831   2.747   2.407   3.117  0.4519 -0.4254  0.5484
 9457SOL     OW39832   4.436   0.190   5.006  0.3409 -0.2744  0.1969
 9457SOL    HW139833   4.421   0.096   4.994  3.8991 -0.7695 -0.2944
 9457SOL    HW239834   4.342   0.209   5.014  0.5239  0.2228  1.0861
 9458SOL     OW39835   4.109   0.252   4.641 -0.3758 -0.0300 -0.0933
 9458SOL    HW139836   4.123   0.218   4.553 -0.2351 -1.8681  0.6324
 9458SOL    HW239837   4.107   0.165   4.683 -0.6445 -0.0854 -0.2229
 9459SOL     OW39838   0.252   2.896   8.058  0.0223  0.0962  0.1846
 9459SOL    HW139839   0.322   2.839   8.090  0.4816  0.4114 -0.2634
 9459SOL    HW239840   0.311   2.969   8.041  1.9298 -0.7997  2.9429
 9460SOL     OW39841   2.389   3.083   7.821  0.3655  0.6221  0.2719
 9460SOL    HW139842   2.330   3.144   7.864  0.0337  1.7475 -1.7924
 9460SOL    HW239843   2.375   3.009   7.880 -1.5681  1.0130  0.3028
 9461SOL     OW39844   0.764   0.935   3.198  0.6848 -0.1134 -0.0612
 9461SOL    HW139845   0.856   0.944   3.175  0.5719  1.4592  0.1489
 9461SOL    HW239846   0.760   0.842   3.222  1.5408  0.1331  1.0268
 9462SOL     OW39847   3.537   3.403   0.592  0.5252  0.2656 -0.4256
 9462SOL    HW139848   3.513   3.374   0.680 -0.2440 -0.8173 -0.9869
 9462SOL    HW239849   3.492   3.484   0.569 -1.2606 -0.3446  0.8841
 9463SOL     OW39850   0.092   1.382   8.958 -0.0952  0.3765 -0.3174
 9463SOL    HW139851   0.001   1.362   8.937 -0.1903  1.6427 -1.1099
 9463SOL    HW239852   0.133   1.351   8.877  1.1378  0.7568  0.1603
 9464SOL     OW39853   2.721   3.732   0.072  0.9267 -0.8921 -0.3393
 9464SOL    HW139854   2.750   3.651   0.031  1.5178 -0.0147 -1.6499
 9464SOL    HW239855   2.684   3.708   0.157 -0.2226  0.8286 -0.3557
 9465SOL     OW39856   1.285   0.717   3.140 -0.5527 -0.3598 -0.7498
 9465SOL    HW139857   1.366   0.667   3.132 -0.8839 -1.1415  0.7099
 9465SOL    HW239858   1.319   0.806   3.140 -1.5765  0.0502  2.0231
 9466SOL     OW39859   3.079   4.239   1.787 -0.1868  0.6550  0.0606
 9466SOL    HW139860   3.133   4.240   1.708  0.4768 -0.3399  0.4936
 9466SOL    HW239861   3.113   4.317   1.831 -2.8241  2.0327 -0.3512
 9467SOL     OW39862   1.893   2.503   5.254  0.2263 -0.1593  0.4880
 9467SOL    HW139863   1.945   2.576   5.288  1.9095  0.0637 -2.5581
 9467SOL    HW239864   1.913   2.431   5.313 -0.6107  0.9452  2.1224
 9468SOL     OW39865   0.678   4.333  10.066  0.1270  0.1541  0.5889
 9468SOL    HW139866   0.727   4.415  10.065 -0.0669  0.2422 -1.0467
 9468SOL    HW239867   0.698   4.291   9.982  1.3119  2.7136 -0.4100
 9469SOL     OW39868   4.142   4.552  17.313  0.0766 -0.7414 -0.3876
 9469SOL    HW139869   4.137   4.569  17.408  1.9510 -1.9267 -0.0733
 9469SOL    HW239870   4.133   4.642  17.280 -0.8257 -0.2626  1.1479
 9470SOL     OW39871   0.340   1.373  11.627  0.0869 -0.5944  0.0898
 9470SOL    HW139872   0.255   1.329  11.638  0.7818 -1.9097  0.2694
 9470SOL    HW239873   0.327   1.452  11.678 -1.4740 -1.3312  0.8547
 9471SOL     OW39874   4.226   0.195   3.987 -0.4211 -0.1857  0.1889
 9471SOL    HW139875   4.250   0.268   4.044  2.4077  0.5654 -1.9754
 9471SOL    HW239876   4.150   0.235   3.943  0.9349  1.4303 -0.6907
 9472SOL     OW39877   2.001   2.450  16.085 -0.1696 -0.0970 -0.1115
 9472SOL    HW139878   2.016   2.541  16.061 -1.0614 -0.2737 -1.3874
 9472SOL    HW239879   2.031   2.408  16.004  1.5229 -0.5291  0.7485
 9473SOL     OW39880   0.828   0.621   4.793  0.4356  0.0536  0.0037
 9473SOL    HW139881   0.877   0.703   4.805 -1.3251  1.1689 -0.4062
 9473SOL    HW239882   0.746   0.635   4.839 -1.1885 -0.9978 -2.5923
 9474SOL     OW39883   1.136   2.734   8.210  0.6283 -0.0076 -0.0300
 9474SOL    HW139884   1.085   2.667   8.166 -1.4438  0.7054  1.2783
 9474SOL    HW239885   1.221   2.709   8.174  1.3849  2.3598  0.0941
 9475SOL     OW39886   3.530   2.209  17.602 -0.3998  0.0201  0.9254
 9475SOL    HW139887   3.618   2.241  17.582  0.3751 -2.9642 -0.4766
 9475SOL    HW239888   3.496   2.236  17.517  1.8468 -0.7766 -0.2290
 9476SOL     OW39889   3.573   3.544  10.216  0.2279 -0.0253 -0.3279
 9476SOL    HW139890   3.636   3.491  10.265 -2.6304 -3.4277 -0.3742
 9476SOL    HW239891   3.610   3.543  10.127 -1.1538  1.1856 -0.9257
 9477SOL     OW39892   3.933   2.874   9.808  0.1488 -0.3016 -0.6858
 9477SOL    HW139893   3.864   2.924   9.850  0.8153  1.2986 -1.4637
 9477SOL    HW239894   3.902   2.883   9.718  0.3661  0.2685 -0.7081
 9478SOL     OW39895   0.201   1.587   7.983  0.5278 -0.9403  0.8153
 9478SOL    HW139896   0.247   1.625   8.058  1.3525  1.5914 -0.9633
 9478SOL    HW239897   0.267   1.564   7.918 -0.5530 -0.0013 -0.6225
 9479SOL     OW39898   0.910   3.938   5.860  0.4574  0.0698  0.0719
 9479SOL    HW139899   0.964   3.877   5.910 -0.4871 -0.1895  0.7829
 9479SOL    HW239900   0.823   3.926   5.898  0.9843  1.7353  1.7949
 9480SOL     OW39901   3.547   3.396   1.863  0.1398 -0.0002 -0.6724
 9480SOL    HW139902   3.635   3.425   1.839 -0.0948 -1.0007 -2.7784
 9480SOL    HW239903   3.500   3.368   1.784  1.3399 -0.2458 -1.2984
 9481SOL     OW39904   0.061   2.474   7.011 -0.3590 -0.2450 -0.0824
 9481SOL    HW139905   0.090   2.403   6.954 -1.4747 -0.2017 -0.7057
 9481SOL    HW239906   0.067   2.443   7.102 -0.0047 -0.5406 -0.2068
 9482SOL     OW39907   1.040   4.294   4.680 -0.2081 -0.8204  0.4883
 9482SOL    HW139908   1.091   4.228   4.728  0.7029 -2.6808 -3.0681
 9482SOL    HW239909   0.955   4.278   4.721 -0.3534 -1.0576  0.0961
 9483SOL     OW39910   2.434   0.796   0.777 -0.3811 -0.1514  0.3442
 9483SOL    HW139911   2.457   0.757   0.694  0.2687  1.2538 -0.1417
 9483SOL    HW239912   2.519   0.789   0.822 -0.8087  2.5738  1.6328
 9484SOL     OW39913   0.207   0.698   6.206 -0.1623  0.0208  0.1492
 9484SOL    HW139914   0.222   0.740   6.291  0.7084 -1.6107  0.8171
 9484SOL    HW239915   0.204   0.603   6.216 -0.4031 -0.1598 -1.6595
 9485SOL     OW39916   3.292   3.913  17.114  0.1783 -0.1971  0.4147
 9485SOL    HW139917   3.370   3.935  17.062 -0.9678 -1.5274 -1.8519
 9485SOL    HW239918   3.238   3.988  17.089  1.1128  0.8255  1.4601
 9486SOL     OW39919   1.564   3.285   6.542  0.0226 -0.0706  0.1925
 9486SOL    HW139920   1.605   3.242   6.467  0.6575  0.6931  0.1025
 9486SOL    HW239921   1.608   3.254   6.621 -0.4651 -2.1827 -0.3626
 9487SOL     OW39922   0.390   0.250  13.891  0.1137 -0.2950  0.6171
 9487SOL    HW139923   0.362   0.176  13.945  1.5386 -1.2898 -0.0259
 9487SOL    HW239924   0.378   0.321  13.955 -0.3223 -0.8177  1.1125
 9488SOL     OW39925   0.110   2.683   5.947  0.4436  0.3683 -1.2639
 9488SOL    HW139926   0.150   2.656   5.865  2.0537  0.0617 -0.3796
 9488SOL    HW239927   0.098   2.597   5.989 -0.4703  1.0007 -0.2197
 9489SOL     OW39928   4.373   0.812   8.660 -0.3529 -0.5315  0.4735
 9489SOL    HW139929   4.392   0.828   8.752 -0.3137  1.6288  0.0722
 9489SOL    HW239930   4.391   0.900   8.629  0.7295 -0.9300 -0.0446
 9490SOL     OW39931   3.897   4.244   8.737  0.0287 -0.1850 -0.0748
 9490SOL    HW139932   3.870   4.334   8.721 -1.1636 -0.5704 -0.2241
 9490SOL    HW239933   3.928   4.241   8.827 -0.4750  1.4718  0.1341
 9491SOL     OW39934   2.199   2.835   3.655  0.2387 -1.3338 -0.3192
 9491SOL    HW139935   2.258   2.788   3.595  1.4415  0.6312 -0.6681
 9491SOL    HW239936   2.261   2.904   3.678 -1.3910  0.6786 -1.9500
 9492SOL     OW39937   1.157   4.092   5.532 -0.0051  0.0219  0.3908
 9492SOL    HW139938   1.140   4.064   5.621  1.4385 -1.2776  0.2680
 9492SOL    HW239939   1.131   4.184   5.539  0.6921  0.2525  0.0142
 9493SOL     OW39940   3.818   4.647   7.830 -0.4012 -0.1076  0.0540
 9493SOL    HW139941   3.870   4.699   7.770  0.0691  0.2351  0.7681
 9493SOL    HW239942   3.738   4.641   7.777 -0.2725 -3.4700  0.2399
 9494SOL     OW39943   3.744   1.880   8.405 -0.1759 -0.5360 -0.3256
 9494SOL    HW139944   3.718   1.878   8.313 -0.2281 -0.2760 -0.3160
 9494SOL    HW239945   3.704   1.960   8.440 -1.7658 -1.9567  1.1487
 9495SOL     OW39946   3.791   1.225   4.708 -0.2714  0.2996  0.0521
 9495SOL    HW139947   3.731   1.294   4.681  0.6422  1.1919  0.3022
 9495SOL    HW239948   3.869   1.277   4.690  0.8182 -0.4401  2.6593
 9496SOL     OW39949   0.688   2.231   2.426  0.5402 -0.3863  0.7163
 9496SOL    HW139950   0.642   2.288   2.365 -0.9821 -1.7590  0.6007
 9496SOL    HW239951   0.616   2.185   2.469 -0.0216  0.7504  0.9735
 9497SOL     OW39952   0.093   2.507  15.258  0.3964  0.2000  0.0873
 9497SOL    HW139953   0.021   2.570  15.247 -2.4181 -3.1484 -0.5462
 9497SOL    HW239954   0.158   2.570  15.290  0.0916  1.6094 -2.0076
 9498SOL     OW39955   3.702   2.168   3.852  0.1306 -0.3652 -0.1174
 9498SOL    HW139956   3.613   2.181   3.818  0.4893  0.4557 -0.7427
 9498SOL    HW239957   3.751   2.194   3.774  0.3212  1.4943  0.6168
 9499SOL     OW39958   4.251   4.553   0.810 -0.3731 -0.5683 -0.2142
 9499SOL    HW139959   4.218   4.486   0.750  0.8233 -1.4220  0.0733
 9499SOL    HW239960   4.319   4.590   0.754  1.8113 -1.0386  2.1119
 9500SOL     OW39961   0.156   3.618   7.401  0.3448  0.3705 -0.1149
 9500SOL    HW139962   0.128   3.690   7.345  2.6654  0.1391 -1.5581
 9500SOL    HW239963   0.176   3.549   7.337 -0.7600 -1.4100  1.4341
 9501SOL     OW39964   0.440   3.077   6.249  0.1043  0.2853  0.3325
 9501SOL    HW139965   0.454   3.089   6.155 -1.3531 -0.2069  0.0451
 9501SOL    HW239966   0.388   2.997   6.240  0.8877  0.1612 -2.9964
 9502SOL     OW39967   1.614   0.209   2.698  0.5815  0.1264 -0.5591
 9502SOL    HW139968   1.702   0.190   2.729 -0.6160 -2.1579  1.4595
 9502SOL    HW239969   1.620   0.304   2.691  1.3743  0.0502 -0.9402
 9503SOL     OW39970   0.739   2.819   4.654 -0.1193 -0.0889  0.0212
 9503SOL    HW139971   0.772   2.860   4.575  1.1617 -1.1529  0.0044
 9503SOL    HW239972   0.788   2.737   4.651  2.3218  1.4390 -1.4866
 9504SOL     OW39973   2.036   4.292  13.594 -0.1233  0.5391 -0.1416
 9504SOL    HW139974   1.951   4.325  13.626 -0.3377  1.3020 -1.5065
 9504SOL    HW239975   2.018   4.279  13.501 -2.8266  0.5627  0.3686
 9505SOL     OW39976   1.263   4.038   6.239  0.0491  0.0788 -0.4142
 9505SOL    HW139977   1.250   4.133   6.240 -0.9487 -0.0542  0.4647
 9505SOL    HW239978   1.175   4.001   6.231  0.0533 -0.3944  1.6688
 9506SOL     OW39979   2.409   3.677   8.190  0.1438 -0.3859 -0.3612
 9506SOL    HW139980   2.377   3.620   8.121  1.3099  1.0652 -2.1277
 9506SOL    HW239981   2.472   3.620   8.235 -0.1490  1.0037  1.8560
 9507SOL     OW39982   3.973   2.168   3.607 -0.8812  0.1937  0.0763
 9507SOL    HW139983   3.985   2.204   3.519 -0.3443  2.3310  1.0247
 9507SOL    HW239984   4.047   2.211   3.649  0.4496 -1.4421 -0.5953
 9508SOL     OW39985   2.510   1.965   6.863 -0.1145  0.4832  0.3430
 9508SOL    HW139986   2.511   1.972   6.958  1.9278  0.0289  0.3459
 9508SOL    HW239987   2.586   1.908   6.852 -1.0715 -0.9987  1.4607
 9509SOL     OW39988   1.028   1.849   4.939 -0.4168 -0.2304  0.6950
 9509SOL    HW139989   1.050   1.779   4.877 -1.4818  0.3769 -0.3590
 9509SOL    HW239990   0.939   1.877   4.917  0.3295  2.0636  0.6631
 9510SOL     OW39991   2.107   4.062   6.392 -0.0276 -0.3676  0.2298
 9510SOL    HW139992   2.101   3.981   6.341  2.9865  0.0098 -0.6832
 9510SOL    HW239993   2.120   4.132   6.328  0.1192  0.3132  1.0097
 9511SOL     OW39994   2.673   0.260   5.305 -0.2878 -0.3127  0.2140
 9511SOL    HW139995   2.674   0.355   5.320  2.8084 -0.1291 -1.1810
 9511SOL    HW239996   2.766   0.239   5.318 -0.4889 -0.0794  2.0234
 9512SOL     OW39997   1.281   1.983   6.860  0.0546  0.1131 -0.4690
 9512SOL    HW139998   1.328   2.042   6.801  1.0462 -0.8040 -0.6218
 9512SOL    HW239999   1.205   1.963   6.805  1.4491 -1.4894 -1.8214
 9513SOL     OW40000   0.155   4.291   2.270 -0.6136 -0.6934 -0.4739
 9513SOL    HW140001   0.182   4.355   2.335  0.8194 -1.4717 -0.2978
 9513SOL    HW240002   0.071   4.331   2.249 -0.5716 -0.0083  0.7098
 9514SOL     OW40003   4.125   0.222  15.416  0.0551 -0.4213  0.1036
 9514SOL    HW140004   4.050   0.169  15.442  1.0128 -1.6184  0.4374
 9514SOL    HW240005   4.124   0.207  15.321 -1.3427  0.3633  0.0016
 9515SOL     OW40006   1.372   3.436   6.248 -0.1729 -0.1079 -0.3631
 9515SOL    HW140007   1.343   3.515   6.203  0.0979  0.7661  0.9938
 9515SOL    HW240008   1.466   3.450   6.256  0.1443 -1.9763 -0.7894
 9516SOL     OW40009   3.609   0.600   2.048  0.0355 -0.2575 -0.4280
 9516SOL    HW140010   3.605   0.562   1.960  0.9675 -0.0473 -0.5571
 9516SOL    HW240011   3.526   0.569   2.084 -0.4961  1.2173 -0.4166
 9517SOL     OW40012   2.070   3.534  11.091 -0.3807 -0.7076 -0.0637
 9517SOL    HW140013   2.097   3.449  11.057  0.7515 -0.1730 -0.4813
 9517SOL    HW240014   1.988   3.516  11.137  0.7515  1.3072  2.7489
 9518SOL     OW40015   1.671   1.270   4.254 -0.8723 -0.0849  0.6265
 9518SOL    HW140016   1.593   1.320   4.275  0.4127  1.2828  2.1983
 9518SOL    HW240017   1.629   1.194   4.213  2.1751 -0.5223 -1.6635
 9519SOL     OW40018   1.450   3.179   4.254  0.6485 -0.1844  0.2904
 9519SOL    HW140019   1.444   3.131   4.172 -1.2367  1.7675 -0.7075
 9519SOL    HW240020   1.399   3.257   4.231  0.1074 -1.0100 -1.3427
 9520SOL     OW40021   1.870   3.546   6.726 -0.2018 -0.3203 -0.1912
 9520SOL    HW140022   1.848   3.611   6.793  0.0033  0.5155 -0.9204
 9520SOL    HW240023   1.797   3.557   6.665  0.1398  1.7583 -0.2356
 9521SOL     OW40024   4.580   1.077   3.604 -0.7873 -0.1510  0.3305
 9521SOL    HW140025   4.619   1.138   3.542 -0.6483  0.2315  0.7961
 9521SOL    HW240026   4.648   1.080   3.672 -0.0952  3.2075 -0.5242
 9522SOL     OW40027   0.280   4.563   7.108 -0.0313 -1.3309  0.4880
 9522SOL    HW140028   0.359   4.595   7.065 -0.7144 -0.9533 -0.4757
 9522SOL    HW240029   0.293   4.596   7.197  0.1622 -3.0969  1.1052
 9523SOL     OW40030   4.054   1.325   3.028  0.0432  0.3327 -0.2934
 9523SOL    HW140031   4.049   1.232   3.005  0.2789  0.0089  0.9301
 9523SOL    HW240032   4.117   1.357   2.964  0.6984 -2.3408 -0.9758
 9524SOL     OW40033   1.609   1.312   0.045 -0.1914 -0.1047 -0.1498
 9524SOL    HW140034   1.628   1.275  17.648  2.2504 -1.0430  0.7774
 9524SOL    HW240035   1.524   1.354   0.032 -0.1107  0.1833  0.2264
 9525SOL     OW40036   3.779   2.444   6.662 -0.0803  0.7135  0.1758
 9525SOL    HW140037   3.757   2.536   6.647 -1.7243 -0.0575 -2.0682
 9525SOL    HW240038   3.718   2.401   6.722  0.2103 -0.1154 -0.1157
 9526SOL     OW40039   1.191   2.307  16.136  0.3921 -0.0789 -0.2273
 9526SOL    HW140040   1.125   2.265  16.191 -1.1531  1.1985 -1.0916
 9526SOL    HW240041   1.261   2.333  16.195  1.2329 -0.2873 -1.1340
 9527SOL     OW40042   3.669   4.139   6.371  0.5762 -0.2522  0.3310
 9527SOL    HW140043   3.714   4.200   6.312 -0.0499 -0.1101  0.0019
 9527SOL    HW240044   3.738   4.093   6.418  0.4352 -2.0721 -1.2507
 9528SOL     OW40045   2.800   1.815   2.626 -0.4563  0.3208  0.0165
 9528SOL    HW140046   2.882   1.865   2.624  1.5358 -2.9402  0.8148
 9528SOL    HW240047   2.758   1.848   2.546  0.2694  0.5226 -0.2855
 9529SOL     OW40048   2.070   0.775   5.577  0.0163 -0.1953 -0.2972
 9529SOL    HW140049   1.985   0.786   5.534  0.4034  2.6899 -0.3348
 9529SOL    HW240050   2.108   0.861   5.556  1.2171  0.0190  2.6724
 9530SOL     OW40051   0.920   0.808   9.174  0.1719 -0.1997  0.0000
 9530SOL    HW140052   1.004   0.851   9.157 -0.2099  0.8948  0.8563
 9530SOL    HW240053   0.893   0.780   9.087 -1.0856  1.8797 -0.2658
 9531SOL     OW40054   4.597   2.004   9.439  0.1782  0.3249  0.0948
 9531SOL    HW140055   4.546   1.925   9.460 -0.3789  0.2207 -1.6593
 9531SOL    HW240056   4.551   2.041   9.364  1.2603  2.2562  0.3933
 9532SOL     OW40057   1.079   1.089  11.800 -0.1938 -0.3715 -0.2291
 9532SOL    HW140058   0.991   1.098  11.838 -0.5648  0.4387 -1.2777
 9532SOL    HW240059   1.060   1.101  11.707  0.5763  0.5809 -0.2552
 9533SOL     OW40060   2.093   2.333   8.795  0.4961  0.3042  0.2171
 9533SOL    HW140061   2.062   2.246   8.772  2.2048 -0.3458  0.3310
 9533SOL    HW240062   2.180   2.311   8.829  1.6500  0.9489 -2.3593
 9534SOL     OW40063   2.248   2.960   8.077  0.7621  0.0597 -0.4582
 9534SOL    HW140064   2.307   2.895   8.115  0.3636  0.8993  1.5761
 9534SOL    HW240065   2.228   3.002   8.160 -0.8128 -0.7703 -0.4189
 9535SOL     OW40066   2.389   4.128   2.719 -0.1839  0.7814 -0.4507
 9535SOL    HW140067   2.433   4.047   2.744 -2.1676  0.2184  1.1954
 9535SOL    HW240068   2.305   4.090   2.694 -1.2040  2.1980  0.8061
 9536SOL     OW40069   3.584   2.433  12.860  0.0483  0.5437 -0.7341
 9536SOL    HW140070   3.663   2.397  12.900  0.3562  0.0675 -1.7723
 9536SOL    HW240071   3.606   2.526  12.849 -0.0850  1.0206  2.8857
 9537SOL     OW40072   1.161   1.132   6.673  0.0790  0.2076 -0.3083
 9537SOL    HW140073   1.081   1.168   6.633 -1.9102 -0.5802  2.9966
 9537SOL    HW240074   1.138   1.043   6.648 -1.1725  0.6366 -0.7111
 9538SOL     OW40075   3.208   0.591   6.195 -0.4953 -0.5919 -0.0029
 9538SOL    HW140076   3.303   0.593   6.209 -0.7027  1.3218  1.1464
 9538SOL    HW240077   3.206   0.495   6.194 -0.9320 -0.5839  0.7482
 9539SOL     OW40078   1.520   0.137  14.688 -0.3539  0.0189  0.0440
 9539SOL    HW140079   1.461   0.066  14.663  1.4812 -2.1077  1.6506
 9539SOL    HW240080   1.560   0.100  14.767 -0.2536 -1.9499 -0.9159
 9540SOL     OW40081   4.055   1.243   2.612 -0.2324 -0.2827  0.2031
 9540SOL    HW140082   4.083   1.212   2.525 -0.5454 -2.8023  0.9933
 9540SOL    HW240083   4.138   1.219   2.655 -0.8119 -2.3949  0.1095
 9541SOL     OW40084   3.944   0.594  12.991 -0.6544 -0.3044 -0.1108
 9541SOL    HW140085   3.869   0.615  12.936 -0.7052 -1.3870 -0.4605
 9541SOL    HW240086   3.957   0.677  13.037  2.1035 -2.0300  2.2501
 9542SOL     OW40087   1.614   3.221   3.106 -0.2791 -0.1506  0.1041
 9542SOL    HW140088   1.642   3.310   3.087  1.1148 -0.7204 -0.5009
 9542SOL    HW240089   1.573   3.225   3.193  0.2126 -0.3293  0.3418
 9543SOL     OW40090   4.506   2.443   7.337 -0.5548 -0.0882 -0.1138
 9543SOL    HW140091   4.498   2.537   7.317  0.5664  0.2196  0.9356
 9543SOL    HW240092   4.413   2.423   7.345 -0.8151  0.4614 -1.6198
 9544SOL     OW40093   1.493   2.658   6.693  0.0147 -0.4143 -0.1808
 9544SOL    HW140094   1.467   2.671   6.784 -3.0838  0.1130 -1.1571
 9544SOL    HW240095   1.587   2.646   6.705 -0.1709  0.7504  2.3690
 9545SOL     OW40096   3.958   2.481   3.721 -0.2141 -0.2426  0.9516
 9545SOL    HW140097   3.963   2.386   3.731 -0.0206 -0.3250  0.0455
 9545SOL    HW240098   3.993   2.485   3.632 -0.2963 -1.3658  0.8747
 9546SOL     OW40099   3.960   3.138   6.873 -0.1903  0.6630 -0.2273
 9546SOL    HW140100   4.044   3.143   6.919 -0.3864 -1.9890  0.4277
 9546SOL    HW240101   3.900   3.120   6.945  1.2962  0.6580  1.0103
 9547SOL     OW40102   3.855   3.979  12.785 -0.0748  0.1976 -0.2039
 9547SOL    HW140103   3.867   3.926  12.706 -0.3268 -2.0858  1.2750
 9547SOL    HW240104   3.920   3.928  12.832  0.4973  1.4567  0.3612
 9548SOL     OW40105   0.371   3.600   4.407  0.1671 -0.2357 -0.4791
 9548SOL    HW140106   0.358   3.646   4.324 -5.2591 -0.7332  0.1200
 9548SOL    HW240107   0.354   3.677   4.462  1.7266 -0.5039  0.3741
 9549SOL     OW40108   0.207   2.680  14.572  0.0135  0.2291  0.5375
 9549SOL    HW140109   0.146   2.753  14.562  1.8971  2.1927  3.0159
 9549SOL    HW240110   0.158   2.613  14.620  2.6046 -1.6403  0.5612
 9550SOL     OW40111   1.490   0.435   4.337  0.3220  0.1561 -0.1715
 9550SOL    HW140112   1.410   0.397   4.300  0.6770 -0.2841 -0.4783
 9550SOL    HW240113   1.516   0.481   4.257 -0.4177 -2.6700 -2.0333
 9551SOL     OW40114   1.379   3.795   7.041  0.9147  0.4412 -0.0400
 9551SOL    HW140115   1.298   3.801   6.989  0.9467 -0.5430 -0.2042
 9551SOL    HW240116   1.413   3.711   7.011 -2.4195 -0.9902  0.1103
 9552SOL     OW40117   2.126   2.300   6.486  0.4762  0.1660  0.0148
 9552SOL    HW140118   2.192   2.365   6.462  2.2999 -1.2768  1.1333
 9552SOL    HW240119   2.176   2.239   6.540 -2.5465 -0.6654  1.9312
 9553SOL     OW40120   1.792   4.112   8.764 -0.3034  0.1818 -0.8508
 9553SOL    HW140121   1.717   4.077   8.813  0.1244 -1.7154 -1.5800
 9553SOL    HW240122   1.858   4.131   8.831 -0.0857  1.4229 -1.4200
 9554SOL     OW40123   2.756   2.337   5.705 -0.1886 -0.0153  0.5882
 9554SOL    HW140124   2.685   2.349   5.768 -0.8654 -1.3634  0.0674
 9554SOL    HW240125   2.727   2.261   5.657  0.9335 -0.2548  0.2785
 9555SOL     OW40126   4.274   1.354  13.296 -0.0918  0.2526 -0.5092
 9555SOL    HW140127   4.291   1.307  13.214  2.1144  1.7475 -0.8934
 9555SOL    HW240128   4.302   1.286  13.358 -0.5933  0.2854 -0.2411
 9556SOL     OW40129   1.717   3.020   3.843 -0.0571  0.5798 -0.6727
 9556SOL    HW140130   1.681   2.968   3.772 -1.1291 -0.8720  0.9592
 9556SOL    HW240131   1.811   3.002   3.843 -0.1315  0.2056 -1.0167
 9557SOL     OW40132   4.286   0.682   9.077 -0.1997  0.4784  0.1847
 9557SOL    HW140133   4.228   0.624   9.028  0.7797 -0.9407  0.7006
 9557SOL    HW240134   4.361   0.682   9.017 -0.8134  1.7349 -0.5884
 9558SOL     OW40135   3.950   3.397   1.026 -0.3194  0.6125 -0.2973
 9558SOL    HW140136   4.011   3.467   1.052 -0.8290  0.3663  1.6093
 9558SOL    HW240137   3.866   3.443   1.027 -0.5605  0.1963 -1.7909
 9559SOL     OW40138   2.470   3.422   6.147 -0.5278  0.3275  0.1566
 9559SOL    HW140139   2.503   3.502   6.190  0.7626  0.2989 -0.7897
 9559SOL    HW240140   2.528   3.350   6.169 -0.4210  0.8881  1.7417
 9560SOL     OW40141   2.006   3.342  13.963  0.2837 -0.2000  0.2831
 9560SOL    HW140142   1.969   3.264  14.004  0.3591 -1.0931 -1.3449
 9560SOL    HW240143   2.096   3.319  13.985  0.4372 -0.5566 -0.7019
 9561SOL     OW40144   1.583   0.206   7.564  0.0866 -0.6108 -0.2410
 9561SOL    HW140145   1.613   0.234   7.650 -0.0955 -0.2829 -0.2864
 9561SOL    HW240146   1.616   0.116   7.567  2.4577  0.2697  0.3504
 9562SOL     OW40147   1.188   1.201   5.666  0.3684 -0.0843  0.4028
 9562SOL    HW140148   1.138   1.204   5.584  0.6984  0.4254  0.2152
 9562SOL    HW240149   1.281   1.200   5.642  1.2309 -2.3233  3.8771
 9563SOL     OW40150   1.254   4.037   1.610  0.3608 -0.1029  0.0216
 9563SOL    HW140151   1.341   4.069   1.587  0.2706 -2.0782 -3.0278
 9563SOL    HW240152   1.254   3.951   1.567 -1.4553 -1.6343  3.0821
 9564SOL     OW40153   0.141   0.533   9.699  0.1481  0.1752 -0.3009
 9564SOL    HW140154   0.215   0.587   9.673 -0.9186  0.9761 -1.6845
 9564SOL    HW240155   0.138   0.550   9.793 -2.8513 -0.7572 -0.2053
 9565SOL     OW40156   2.799   0.634   6.030  1.1819  0.2933  0.1361
 9565SOL    HW140157   2.794   0.562   6.094 -1.4236  1.4830  1.2719
 9565SOL    HW240158   2.800   0.582   5.950  2.9717  0.9601 -0.2540
 9566SOL     OW40159   3.071   3.483   4.812 -0.5580  0.0811 -0.1986
 9566SOL    HW140160   3.042   3.392   4.816 -0.7244  0.1863  0.9149
 9566SOL    HW240161   3.045   3.515   4.726 -0.3397  0.5662 -0.0851
 9567SOL     OW40162   3.044   4.284   0.864  0.7364  0.3284 -0.6956
 9567SOL    HW140163   3.068   4.306   0.953  1.4406 -0.5191 -0.6769
 9567SOL    HW240164   3.087   4.200   0.849  1.4202  0.4291  0.7143
 9568SOL     OW40165   1.705   0.272   4.386  0.3737  0.0411 -0.3252
 9568SOL    HW140166   1.636   0.337   4.370  1.3987  0.3798 -3.4248
 9568SOL    HW240167   1.716   0.268   4.481 -1.3564 -0.9363 -0.1728
   4.72184   4.72184  17.68954
